<event>
 8    1  0.1161271E+005  0.1043930E+01  0.7957747E-01            NaN
         13   -1    0    0    0    0  0.00000000000E+00  0.00000000000E+00  0.74505805969E-08  0.10566000000E+00  0.10566000000E+00 0. -1.
     999900   -1    0    0    0    0 -0.00000000000E+00 -0.00000000000E+00 -0.74505805969E-08  0.93827000000E+00  0.93827000000E+00 0.  1.
     999902    2    1    2    0    0  0.12027809203E-01 -0.18137767911E-01  0.85918518382E-02  0.10205319929E+01  0.10202637315E+01 0.  0.
     999903    2    3    3    0    0  0.33416815252E-01  0.10051690195E+00 -0.70536893337E-01  0.12879336606E+00  0.19797643818E-01 0.  0.
         14    1    1    2    0    0 -0.12027809203E-01  0.18137767911E-01 -0.85918518382E-02  0.23398007116E-01  0.00000000000E+00 0.  1.
     999901    1    3    3    0    0 -0.21389006049E-01 -0.11865466986E+00  0.79128745176E-01  0.89173862682E+00  0.88000000000E+00 0. -1.
        -11    1    4    4    0    0  0.34622973983E-01  0.79753521361E-01 -0.56240344348E-01  0.10355004563E+00  0.51100000000E-03 0. -1.
         11    1    4    4    0    0 -0.12061587313E-02  0.20763380585E-01 -0.14296548990E-01  0.25243320427E-01  0.51100000000E-03 0.  1.
</event>
<event>
 8    1  0.1161271E+005  0.1043930E+01  0.7957747E-01            NaN
         13   -1    0    0    0    0  0.00000000000E+00  0.00000000000E+00  0.74505805969E-08  0.10566000000E+00  0.10566000000E+00 0. -1.
     999900   -1    0    0    0    0 -0.00000000000E+00 -0.00000000000E+00 -0.74505805969E-08  0.93827000000E+00  0.93827000000E+00 0. -1.
     999902    2    1    2    0    0 -0.66619842542E-02 -0.22484067964E-01 -0.13340362664E-01  0.10169507372E+01  0.10165928001E+01 0.  0.
     999903    2    3    3    0    0 -0.75319744776E-01  0.60942815322E-01  0.77441770419E-01  0.12570703952E+00  0.20443612349E-01 0.  0.
         14    1    1    2    0    0  0.66619842542E-02  0.22484067964E-01  0.13340362664E-01  0.26979262822E-01  0.00000000000E+00 0. -1.
     999901    1    3    3    0    0  0.68657760521E-01 -0.83426883286E-01 -0.90782133083E-01  0.89124369766E+00  0.88000000000E+00 0.  1.
        -11    1    4    4    0    0 -0.27491007459E-01  0.23649316164E-01  0.41870984076E-01  0.55393917308E-01  0.51100000000E-03 0. -1.
         11    1    4    4    0    0 -0.47828737316E-01  0.37293499157E-01  0.35570786343E-01  0.70313122209E-01  0.51100000000E-03 0.  1.
</event>
<event>
 8    1  0.1161271E+005  0.1043930E+01  0.7957747E-01            NaN
         13   -1    0    0    0    0  0.00000000000E+00  0.00000000000E+00  0.74505805969E-08  0.10566000000E+00  0.10566000000E+00 0. -1.
     999900   -1    0    0    0    0 -0.00000000000E+00 -0.00000000000E+00 -0.74505805969E-08  0.93827000000E+00  0.93827000000E+00 0. -1.
     999902    2    1    2    0    0 -0.14217752866E-01 -0.19567636437E-01 -0.78794072693E-03  0.10197296334E+01  0.10194424297E+01 0.  0.
     999903    2    3    3    0    0  0.11245428384E+00 -0.50253649313E-01  0.33856203233E-01  0.12945571322E+00  0.21003427447E-01 0.  0.
         14    1    1    2    0    0  0.14217752866E-01  0.19567636437E-01  0.78794072693E-03  0.24200366586E-01  0.00000000000E+00 0.  1.
     999901    1    3    3    0    0 -0.12667203671E+00  0.30686012877E-01 -0.34644143960E-01  0.89027392020E+00  0.88000000000E+00 0.  1.
        -11    1    4    4    0    0  0.95022191230E-01 -0.46695295354E-01  0.35279358243E-01  0.11160000750E+00  0.51100000000E-03 0.  1.
         11    1    4    4    0    0  0.17432092609E-01 -0.35583539598E-02 -0.14231550100E-02  0.17855705722E-01  0.51100000000E-03 0. -1.
</event>
<event>
 8    1  0.1161271E+005  0.1043930E+01  0.7957747E-01            NaN
         13   -1    0    0    0    0  0.00000000000E+00  0.00000000000E+00  0.74505805969E-08  0.10566000000E+00  0.10566000000E+00 0. -1.
     999900   -1    0    0    0    0 -0.00000000000E+00 -0.00000000000E+00 -0.74505805969E-08  0.93827000000E+00  0.93827000000E+00 0. -1.
     999902    2    1    2    0    0 -0.12345357838E-01 -0.19894700596E-01  0.12063215186E-02  0.10204851246E+01  0.10202157749E+01 0.  0.
     999903    2    3    3    0    0  0.12216477355E+00  0.34773439246E-01 -0.24393278324E-02  0.12857993246E+00  0.19834937297E-01 0.  0.
         14    1    1    2    0    0  0.12345357838E-01  0.19894700596E-01 -0.12063215186E-02  0.23444875422E-01  0.00000000000E+00 0.  1.
     999901    1    3    3    0    0 -0.13451013139E+00 -0.54668139842E-01  0.36456493510E-02  0.89190519211E+00  0.88000000000E+00 0.  1.
        -11    1    4    4    0    0  0.62601228723E-01  0.18661658918E-01 -0.11122503046E-01  0.66265696603E-01  0.51100000000E-03 0.  1.
         11    1    4    4    0    0  0.59563544831E-01  0.16111780328E-01  0.86831752133E-02  0.62314235861E-01  0.51100000000E-03 0. -1.
</event>
<event>
 8    1  0.1161271E+005  0.1043930E+01  0.7957747E-01            NaN
         13   -1    0    0    0    0  0.00000000000E+00  0.00000000000E+00  0.74505805969E-08  0.10566000000E+00  0.10566000000E+00 0. -1.
     999900   -1    0    0    0    0 -0.00000000000E+00 -0.00000000000E+00 -0.74505805969E-08  0.93827000000E+00  0.93827000000E+00 0. -1.
     999902    2    1    2    0    0  0.13181405601E-02  0.20767756300E-01  0.94819670096E-02  0.10210620116E+01  0.10208059005E+01 0.  0.
     999903    2    3    3    0    0  0.10748548917E+00  0.75170391348E-01  0.98737913125E-02  0.13301285407E+00  0.19779016041E-01 0.  0.
         14    1    1    2    0    0 -0.13181405601E-02 -0.20767756300E-01 -0.94819670096E-02  0.22867988426E-01  0.00000000000E+00 0.  1.
     999901    1    3    3    0    0 -0.10616734861E+00 -0.54402635048E-01 -0.39182430292E-03  0.88804915750E+00  0.88000000000E+00 0. -1.
        -11    1    4    4    0    0  0.16845688021E-01  0.20963256588E-01  0.44184670339E-02  0.27258380429E-01  0.51100000000E-03 0. -1.
         11    1    4    4    0    0  0.90639801152E-01  0.54207134760E-01  0.54553242786E-02  0.10575447364E+00  0.51100000000E-03 0.  1.
</event>
<event>
 8    1  0.1161271E+005  0.1043930E+01  0.7957747E-01            NaN
         13   -1    0    0    0    0  0.00000000000E+00  0.00000000000E+00  0.74505805969E-08  0.10566000000E+00  0.10566000000E+00 0.  1.
     999900   -1    0    0    0    0 -0.00000000000E+00 -0.00000000000E+00 -0.74505805969E-08  0.93827000000E+00  0.93827000000E+00 0. -1.
     999902    2    1    2    0    0  0.26216209829E-02 -0.58327497226E-03 -0.24282102524E-01  0.10194998218E+01  0.10192070707E+01 0.  0.
     999903    2    3    3    0    0 -0.28756752885E-02  0.10338110641E+00 -0.78949057392E-01  0.13167816803E+00  0.20254964850E-01 0.  0.
         14    1    1    2    0    0 -0.26216209829E-02  0.58327497226E-03  0.24282102524E-01  0.24430178248E-01  0.00000000000E+00 0.  1.
     999901    1    3    3    0    0  0.54972962714E-02 -0.10396438138E+00  0.54666954869E-01  0.88782165372E+00  0.88000000000E+00 0.  1.
        -11    1    4    4    0    0 -0.57593209675E-02  0.74676973271E-01 -0.46072636103E-01  0.87936164537E-01  0.51100000000E-03 0. -1.
         11    1    4    4    0    0  0.28836456789E-02  0.28704133142E-01 -0.32876421289E-01  0.43742003493E-01  0.51100000000E-03 0.  1.
</event>
<event>
 8    1  0.1161271E+005  0.1043930E+01  0.7957747E-01            NaN
         13   -1    0    0    0    0  0.00000000000E+00  0.00000000000E+00  0.74505805969E-08  0.10566000000E+00  0.10566000000E+00 0.  1.
     999900   -1    0    0    0    0 -0.00000000000E+00 -0.00000000000E+00 -0.74505805969E-08  0.93827000000E+00  0.93827000000E+00 0. -1.
     999902    2    1    2    0    0  0.17115971766E-02 -0.25047696806E-02 -0.22522364941E-01  0.10212042358E+01  0.10209513362E+01 0.  0.
     999903    2    3    3    0    0  0.10483335948E+00  0.43764416939E-02 -0.79768739487E-01  0.13330863589E+00  0.19973835482E-01 0.  0.
         14    1    1    2    0    0 -0.17115971766E-02  0.25047696806E-02  0.22522364941E-01  0.22725764202E-01  0.00000000000E+00 0.  1.
     999901    1    3    3    0    0 -0.10312176230E+00 -0.68812113745E-02  0.57246374546E-01  0.88789559990E+00  0.88000000000E+00 0.  1.
        -11    1    4    4    0    0  0.85398968727E-01 -0.23435714688E-02 -0.70417820531E-01  0.11071317336E+00  0.51100000000E-03 0. -1.
         11    1    4    4    0    0  0.19434390749E-01  0.67200131626E-02 -0.93509189565E-02  0.22595462531E-01  0.51100000000E-03 0.  1.
</event>
<event>
 8    1  0.1287075E+005  0.1043930E+01  0.7957747E-01            NaN
         13   -1    0    0    0    0  0.00000000000E+00  0.00000000000E+00  0.74505805969E-08  0.10566000000E+00  0.10566000000E+00 0.  1.
     999900   -1    0    0    0    0 -0.00000000000E+00 -0.00000000000E+00 -0.74505805969E-08  0.93827000000E+00  0.93827000000E+00 0.  1.
     999902    2    1    2    0    0 -0.92958772398E-02  0.18264073315E-01  0.23770101942E-01  0.10125451716E+01  0.10120586530E+01 0.  0.
     999903    2    3    3    0    0  0.67842065131E-01 -0.47846609822E-01 -0.84504694901E-01  0.12010788180E+00  0.19824629588E-01 0.  0.
         14    1    1    2    0    0  0.92958772398E-02 -0.18264073315E-01 -0.23770101942E-01  0.31384828406E-01  0.00000000000E+00 0. -1.
     999901    1    3    3    0    0 -0.77137942371E-01  0.66110683137E-01  0.10827479684E+00  0.89243728979E+00  0.88000000000E+00 0. -1.
        -11    1    4    4    0    0  0.42654330609E-01 -0.36024917800E-01 -0.44613401864E-01  0.71468897914E-01  0.51100000000E-03 0. -1.
         11    1    4    4    0    0  0.25187734522E-01 -0.11821692022E-01 -0.39891293037E-01  0.48638983889E-01  0.51100000000E-03 0.  1.
</event>
<event>
 8    1  0.1161271E+005  0.1043930E+01  0.7957747E-01            NaN
         13   -1    0    0    0    0  0.00000000000E+00  0.00000000000E+00  0.74505805969E-08  0.10566000000E+00  0.10566000000E+00 0. -1.
     999900   -1    0    0    0    0 -0.00000000000E+00 -0.00000000000E+00 -0.74505805969E-08  0.93827000000E+00  0.93827000000E+00 0. -1.
     999902    2    1    2    0    0 -0.12699139906E-01 -0.18606556299E-01 -0.13480043639E-01  0.10176776921E+01  0.10173390297E+01 0.  0.
     999903    2    3    3    0    0 -0.26428530217E-01 -0.12305680254E+00 -0.31409538228E-01  0.13121290610E+00  0.19718614962E-01 0.  0.
         14    1    1    2    0    0  0.12699139906E-01  0.18606556299E-01  0.13480043639E-01  0.26252307863E-01  0.00000000000E+00 0.  1.
     999901    1    3    3    0    0  0.13729390311E-01  0.10445024624E+00  0.17929494589E-01  0.88646478603E+00  0.88000000000E+00 0. -1.
        -11    1    4    4    0    0 -0.19390995048E-01 -0.55032041014E-01 -0.21110677785E-01  0.62052059311E-01  0.51100000000E-03 0.  1.
         11    1    4    4    0    0 -0.70375351693E-02 -0.68024761526E-01 -0.10298860443E-01  0.69160846794E-01  0.51100000000E-03 0. -1.
</event>
<event>
 8    1  0.1161271E+005  0.1043930E+01  0.7957747E-01            NaN
         13   -1    0    0    0    0  0.00000000000E+00  0.00000000000E+00  0.74505805969E-08  0.10566000000E+00  0.10566000000E+00 0. -1.
     999900   -1    0    0    0    0 -0.00000000000E+00 -0.00000000000E+00 -0.74505805969E-08  0.93827000000E+00  0.93827000000E+00 0. -1.
     999902    2    1    2    0    0  0.25175306388E-02 -0.26351608598E-03 -0.23395819038E-01  0.10203976446E+01  0.10201262576E+01 0.  0.
     999903    2    3    3    0    0  0.13736424321E-01  0.97752527363E-01 -0.86329219672E-01  0.13265127247E+00  0.19984492993E-01 0.  0.
         14    1    1    2    0    0 -0.25175306388E-02  0.26351608598E-03  0.23395819038E-01  0.23532355379E-01  0.00000000000E+00 0. -1.
     999901    1    3    3    0    0 -0.11218893682E-01 -0.98016043449E-01  0.62933400634E-01  0.88774637215E+00  0.88000000000E+00 0.  1.
        -11    1    4    4    0    0  0.62573309428E-03  0.67722138292E-01 -0.54032001820E-01  0.86639470788E-01  0.51100000000E-03 0. -1.
         11    1    4    4    0    0  0.13110691227E-01  0.30030389071E-01 -0.32297217851E-01  0.46011801683E-01  0.51100000000E-03 0.  1.
</event>
<event>
 8    1  0.1161271E+005  0.1043930E+01  0.7957747E-01            NaN
         13   -1    0    0    0    0  0.00000000000E+00  0.00000000000E+00  0.74505805969E-08  0.10566000000E+00  0.10566000000E+00 0. -1.
     999900   -1    0    0    0    0 -0.00000000000E+00 -0.00000000000E+00 -0.74505805969E-08  0.93827000000E+00  0.93827000000E+00 0. -1.
     999902    2    1    2    0    0  0.70835665847E-02  0.46824188264E-02  0.20540447713E-01  0.10217036203E+01  0.10214618328E+01 0.  0.
     999903    2    3    3    0    0  0.17837931526E-01 -0.12747800031E+00 -0.13415302294E-01  0.13112233503E+00  0.21077572031E-01 0.  0.
         14    1    1    2    0    0 -0.70835665847E-02 -0.46824188264E-02 -0.20540447713E-01  0.22226379684E-01  0.00000000000E+00 0.  1.
     999901    1    3    3    0    0 -0.10754364941E-01  0.13216041914E+00  0.33955750007E-01  0.89058128529E+00  0.88000000000E+00 0.  1.
        -11    1    4    4    0    0  0.42089000917E-02 -0.94906726368E-01 -0.72597599459E-02  0.95278364729E-01  0.51100000000E-03 0. -1.
         11    1    4    4    0    0  0.13629031434E-01 -0.32571273942E-01 -0.61555423486E-02  0.35843970297E-01  0.51100000000E-03 0.  1.
</event>
<event>
 8    1  0.1161271E+005  0.1043930E+01  0.7957747E-01            NaN
         13   -1    0    0    0    0  0.00000000000E+00  0.00000000000E+00  0.74505805969E-08  0.10566000000E+00  0.10566000000E+00 0.  1.
     999900   -1    0    0    0    0 -0.00000000000E+00 -0.00000000000E+00 -0.74505805969E-08  0.93827000000E+00  0.93827000000E+00 0.  1.
     999902    2    1    2    0    0 -0.97650858677E-03 -0.23236716447E-01 -0.46911710536E-02  0.10202043673E+01  0.10199284511E+01 0.  0.
     999903    2    3    3    0    0  0.12768264445E+00  0.29348503405E-02  0.15967496396E-01  0.13022408152E+00  0.19795944699E-01 0.  0.
         14    1    1    2    0    0  0.97650858677E-03  0.23236716447E-01  0.46911710536E-02  0.23725632681E-01  0.00000000000E+00 0.  1.
     999901    1    3    3    0    0 -0.12865915304E+00 -0.26171566787E-01 -0.20658667450E-01  0.88998028580E+00  0.88000000000E+00 0. -1.
        -11    1    4    4    0    0  0.59674411687E-01  0.63940824475E-02 -0.10674693208E-02  0.60027662892E-01  0.51100000000E-03 0. -1.
         11    1    4    4    0    0  0.68008232763E-01 -0.34592321070E-02  0.17034965717E-01  0.70196418629E-01  0.51100000000E-03 0.  1.
</event>
<event>
 8    1  0.1161271E+005  0.1043930E+01  0.7957747E-01            NaN
         13   -1    0    0    0    0  0.00000000000E+00  0.00000000000E+00  0.74505805969E-08  0.10566000000E+00  0.10566000000E+00 0.  1.
     999900   -1    0    0    0    0 -0.00000000000E+00 -0.00000000000E+00 -0.74505805969E-08  0.93827000000E+00  0.93827000000E+00 0. -1.
     999902    2    1    2    0    0 -0.76666639418E-02 -0.66398429267E-02  0.21463400208E-01  0.10201909436E+01  0.10199147114E+01 0.  0.
     999903    2    3    3    0    0  0.15400482118E-01 -0.86986276633E-01  0.97358274470E-01  0.13297751123E+00  0.20014937285E-01 0.  0.
         14    1    1    2    0    0  0.76666639418E-02  0.66398429267E-02 -0.21463400208E-01  0.23739056396E-01  0.00000000000E+00 0. -1.
     999901    1    3    3    0    0 -0.23067146059E-01  0.80346433707E-01 -0.75894874262E-01  0.88721343237E+00  0.88000000000E+00 0. -1.
        -11    1    4    4    0    0  0.73532021584E-02 -0.71100339654E-01  0.68135031258E-01  0.98752070796E-01  0.51100000000E-03 0. -1.
         11    1    4    4    0    0  0.80472799591E-02 -0.15885936979E-01  0.29223243212E-01  0.34225440439E-01  0.51100000000E-03 0.  1.
</event>
<event>
 8    1  0.1161271E+005  0.1043930E+01  0.7957747E-01            NaN
         13   -1    0    0    0    0  0.00000000000E+00  0.00000000000E+00  0.74505805969E-08  0.10566000000E+00  0.10566000000E+00 0.  1.
     999900   -1    0    0    0    0 -0.00000000000E+00 -0.00000000000E+00 -0.74505805969E-08  0.93827000000E+00  0.93827000000E+00 0. -1.
     999902    2    1    2    0    0 -0.86092905055E-02  0.59252111388E-02  0.11770928017E-01  0.10281888833E+01  0.10280683814E+01 0.  0.
     999903    2    3    3    0    0 -0.21593229767E-02 -0.18243434453E-01 -0.13325571466E+00  0.13596780494E+00  0.19815976233E-01 0.  0.
         14    1    1    2    0    0  0.86092905055E-02 -0.59252111388E-02 -0.11770928017E-01  0.15741116746E-01  0.00000000000E+00 0. -1.
     999901    1    3    3    0    0 -0.64499675288E-02  0.24168645592E-01  0.14502664267E+00  0.89222107832E+00  0.88000000000E+00 0.  1.
        -11    1    4    4    0    0  0.38735992729E-02 -0.10356893769E-01 -0.26080266347E-01  0.28332162530E-01  0.51100000000E-03 0. -1.
         11    1    4    4    0    0 -0.60329222497E-02 -0.78865406833E-02 -0.10717544831E+00  0.10763564241E+00  0.51100000000E-03 0.  1.
</event>
<event>
 8    1  0.1161271E+005  0.1043930E+01  0.7957747E-01            NaN
         13   -1    0    0    0    0  0.00000000000E+00  0.00000000000E+00  0.74505805969E-08  0.10566000000E+00  0.10566000000E+00 0.  1.
     999900   -1    0    0    0    0 -0.00000000000E+00 -0.00000000000E+00 -0.74505805969E-08  0.93827000000E+00  0.93827000000E+00 0. -1.
     999902    2    1    2    0    0  0.93676302682E-02  0.17867790328E-01 -0.69504570572E-02  0.10225917882E+01  0.10223691340E+01 0.  0.
     999903    2    3    3    0    0  0.11141322773E+00  0.72308405416E-01 -0.14480700865E-01  0.13499177184E+00  0.19278873379E-01 0.  0.
         14    1    1    2    0    0 -0.93676302682E-02 -0.17867790328E-01  0.69504570572E-02  0.21338211765E-01  0.00000000000E+00 0.  1.
     999901    1    3    3    0    0 -0.10204559747E+00 -0.54440615089E-01  0.75302438077E-02  0.88760001640E+00  0.88000000000E+00 0. -1.
        -11    1    4    4    0    0  0.34722290201E-01  0.14770168225E-01 -0.98594979299E-02  0.39003411730E-01  0.51100000000E-03 0.  1.
         11    1    4    4    0    0  0.76690937534E-01  0.57538237191E-01 -0.46212029350E-02  0.95988360109E-01  0.51100000000E-03 0. -1.
</event>
<event>
 8    1  0.1161271E+005  0.1043930E+01  0.7957747E-01            NaN
         13   -1    0    0    0    0  0.00000000000E+00  0.00000000000E+00  0.74505805969E-08  0.10566000000E+00  0.10566000000E+00 0. -1.
     999900   -1    0    0    0    0 -0.00000000000E+00 -0.00000000000E+00 -0.74505805969E-08  0.93827000000E+00  0.93827000000E+00 0.  1.
     999902    2    1    2    0    0  0.23869778836E-01 -0.28305971292E-02 -0.28597801793E-03  0.10198912728E+01  0.10196079383E+01 0.  0.
     999903    2    3    3    0    0  0.21914370170E-01 -0.66338600429E-03  0.12737324738E+00  0.13067510209E+00  0.19270663128E-01 0.  0.
         14    1    1    2    0    0 -0.23869778836E-01  0.28305971292E-02  0.28597801793E-03  0.24038727196E-01  0.00000000000E+00 0.  1.
     999901    1    3    3    0    0  0.19554086658E-02 -0.21672111249E-02 -0.12765922540E+00  0.88921617071E+00  0.88000000000E+00 0.  1.
        -11    1    4    4    0    0  0.17421899065E-01 -0.64562580110E-02  0.11314241613E+00  0.11465894332E+00  0.51100000000E-03 0.  1.
         11    1    4    4    0    0  0.44924711053E-02  0.57928720067E-02  0.14230831253E-01  0.16016158774E-01  0.51100000000E-03 0. -1.
</event>
<event>
 8    1  0.1161271E+005  0.1043930E+01  0.7957747E-01            NaN
         13   -1    0    0    0    0  0.00000000000E+00  0.00000000000E+00  0.74505805969E-08  0.10566000000E+00  0.10566000000E+00 0.  1.
     999900   -1    0    0    0    0 -0.00000000000E+00 -0.00000000000E+00 -0.74505805969E-08  0.93827000000E+00  0.93827000000E+00 0.  1.
     999902    2    1    2    0    0  0.93793802074E-02  0.68575393759E-02 -0.52520857969E-02  0.10311791951E+01  0.10311003586E+01 0.  0.
     999903    2    3    3    0    0 -0.21583148922E-01 -0.41074977897E-01  0.12960387784E+00  0.13907923698E+00  0.19821273473E-01 0.  0.
         14    1    1    2    0    0 -0.93793802074E-02 -0.68575393759E-02  0.52520857969E-02  0.12750804860E-01  0.00000000000E+00 0.  1.
     999901    1    3    3    0    0  0.30962529129E-01  0.47932517272E-01 -0.13485596363E+00  0.89209995816E+00  0.88000000000E+00 0.  1.
        -11    1    4    4    0    0 -0.63098352535E-02 -0.23691318114E-01  0.43684020675E-01  0.50096380690E-01  0.51100000000E-03 0. -1.
         11    1    4    4    0    0 -0.15273313668E-01 -0.17383659782E-01  0.85919857161E-01  0.88982856290E-01  0.51100000000E-03 0.  1.
</event>
<event>
 8    1  0.1161271E+005  0.1043930E+01  0.7957747E-01            NaN
         13   -1    0    0    0    0  0.00000000000E+00  0.00000000000E+00  0.74505805969E-08  0.10566000000E+00  0.10566000000E+00 0.  1.
     999900   -1    0    0    0    0 -0.00000000000E+00 -0.00000000000E+00 -0.74505805969E-08  0.93827000000E+00  0.93827000000E+00 0.  1.
     999902    2    1    2    0    0  0.20770089723E-01 -0.39846760075E-03 -0.11348869923E-01  0.10202582394E+01  0.10199835894E+01 0.  0.
     999903    2    3    3    0    0 -0.10990579168E+00  0.20110539297E-01 -0.61376406746E-01  0.12896728810E+00  0.19539223653E-01 0.  0.
         14    1    1    2    0    0 -0.20770089723E-01  0.39846760075E-03  0.11348869923E-01  0.23671760646E-01  0.00000000000E+00 0.  1.
     999901    1    3    3    0    0  0.13067588140E+00 -0.20509006898E-01  0.50027536823E-01  0.89129095125E+00  0.88000000000E+00 0. -1.
        -11    1    4    4    0    0 -0.73571020920E-01  0.10831023759E-01 -0.30458124312E-01  0.80361462484E-01  0.51100000000E-03 0.  1.
         11    1    4    4    0    0 -0.36334770755E-01  0.92795155377E-02 -0.30918282434E-01  0.48605825619E-01  0.51100000000E-03 0. -1.
</event>
<event>
 8    1  0.1161271E+005  0.1043930E+01  0.7957747E-01            NaN
         13   -1    0    0    0    0  0.00000000000E+00  0.00000000000E+00  0.74505805969E-08  0.10566000000E+00  0.10566000000E+00 0. -1.
     999900   -1    0    0    0    0 -0.00000000000E+00 -0.00000000000E+00 -0.74505805969E-08  0.93827000000E+00  0.93827000000E+00 0. -1.
     999902    2    1    2    0    0  0.19219584669E-01 -0.19044729256E-02  0.98462725018E-02  0.10222512423E+01  0.10220213471E+01 0.  0.
     999903    2    3    3    0    0 -0.73510476709E-01 -0.10306331023E+00 -0.26704959991E-01  0.13086582219E+00  0.19669072865E-01 0.  0.
         14    1    1    2    0    0 -0.19219584669E-01  0.19044729256E-02 -0.98462725018E-02  0.21678757671E-01  0.00000000000E+00 0.  1.
     999901    1    3    3    0    0  0.92730061378E-01  0.10115883730E+00  0.36551232493E-01  0.89138542014E+00  0.88000000000E+00 0.  1.
        -11    1    4    4    0    0 -0.13181620173E-01 -0.21829314041E-01 -0.13389668911E-01  0.28806568981E-01  0.51100000000E-03 0. -1.
         11    1    4    4    0    0 -0.60328856536E-01 -0.81233996185E-01 -0.13315291080E-01  0.10205925320E+00  0.51100000000E-03 0.  1.
</event>
<event>
 8    1  0.1161271E+005  0.1043930E+01  0.7957747E-01            NaN
         13   -1    0    0    0    0  0.00000000000E+00  0.00000000000E+00  0.74505805969E-08  0.10566000000E+00  0.10566000000E+00 0. -1.
     999900   -1    0    0    0    0 -0.00000000000E+00 -0.00000000000E+00 -0.74505805969E-08  0.93827000000E+00  0.93827000000E+00 0. -1.
     999902    2    1    2    0    0  0.22012534486E-01  0.42875652332E-02  0.64738826872E-02  0.10205880625E+01  0.10203211001E+01 0.  0.
     999903    2    3    3    0    0 -0.93805648322E-01  0.22206722843E-01  0.84058573823E-01  0.12943469073E+00  0.19871012445E-01 0.  0.
         14    1    1    2    0    0 -0.22012534486E-01 -0.42875652332E-02 -0.64738826872E-02  0.23341937519E-01  0.00000000000E+00 0. -1.
     999901    1    3    3    0    0  0.11581818281E+00 -0.17919157610E-01 -0.77584691136E-01  0.89115337175E+00  0.88000000000E+00 0.  1.
        -11    1    4    4    0    0 -0.50827526298E-01  0.31415293760E-02  0.37322983415E-01  0.63139313018E-01  0.51100000000E-03 0.  1.
         11    1    4    4    0    0 -0.42978122023E-01  0.19065193467E-01  0.46735590408E-01  0.66295377715E-01  0.51100000000E-03 0. -1.
</event>
<event>
 8    1  0.1161271E+005  0.1043930E+01  0.7957747E-01            NaN
         13   -1    0    0    0    0  0.00000000000E+00  0.00000000000E+00  0.74505805969E-08  0.10566000000E+00  0.10566000000E+00 0. -1.
     999900   -1    0    0    0    0 -0.00000000000E+00 -0.00000000000E+00 -0.74505805969E-08  0.93827000000E+00  0.93827000000E+00 0.  1.
     999902    2    1    2    0    0 -0.13745201013E-01 -0.17581917342E-01 -0.68701081322E-02  0.10205793522E+01  0.10203121882E+01 0.  0.
     999903    2    3    3    0    0  0.11741681950E-01 -0.13076448824E+00  0.12805240220E-01  0.13274660053E+00  0.14848141168E-01 0.  0.
         14    1    1    2    0    0  0.13745201013E-01  0.17581917342E-01  0.68701081322E-02  0.23350647829E-01  0.00000000000E+00 0.  1.
     999901    1    3    3    0    0 -0.25486882963E-01  0.11318257089E+00 -0.19675348352E-01  0.88783275164E+00  0.88000000000E+00 0.  1.
        -11    1    4    4    0    0 -0.33293426598E-02 -0.31661132279E-01  0.16290795651E-02  0.31881449794E-01  0.51100000000E-03 0.  1.
         11    1    4    4    0    0  0.15071024610E-01 -0.99103355956E-01  0.11176160655E-01  0.10086515073E+00  0.51100000000E-03 0. -1.
</event>
<event>
 8    1  0.1161271E+005  0.1043930E+01  0.7957747E-01            NaN
         13   -1    0    0    0    0  0.00000000000E+00  0.00000000000E+00  0.74505805969E-08  0.10566000000E+00  0.10566000000E+00 0.  1.
     999900   -1    0    0    0    0 -0.00000000000E+00 -0.00000000000E+00 -0.74505805969E-08  0.93827000000E+00  0.93827000000E+00 0.  1.
     999902    2    1    2    0    0 -0.14495534353E-02 -0.17931143275E-01  0.10388659478E-01  0.10231561860E+01  0.10229452720E+01 0.  0.
     999903    2    3    3    0    0 -0.49799240805E-01 -0.12056714822E-01  0.12316199624E+00  0.13462367295E+00  0.18147375691E-01 0.  0.
         14    1    1    2    0    0  0.14495534353E-02  0.17931143275E-01 -0.10388659478E-01  0.20773814047E-01  0.00000000000E+00 0. -1.
     999901    1    3    3    0    0  0.48349687370E-01 -0.58744284531E-02 -0.11277333676E+00  0.88853251300E+00  0.88000000000E+00 0.  1.
        -11    1    4    4    0    0 -0.22007277124E-01 -0.69731227055E-02  0.34071098718E-01  0.41158784913E-01  0.51100000000E-03 0.  1.
         11    1    4    4    0    0 -0.27791963681E-01 -0.50835921165E-02  0.89090897519E-01  0.93464888037E-01  0.51100000000E-03 0. -1.
</event>
<event>
 8    1  0.1161271E+005  0.1043930E+01  0.7957747E-01            NaN
         13   -1    0    0    0    0  0.00000000000E+00  0.00000000000E+00  0.74505805969E-08  0.10566000000E+00  0.10566000000E+00 0. -1.
     999900   -1    0    0    0    0 -0.00000000000E+00 -0.00000000000E+00 -0.74505805969E-08  0.93827000000E+00  0.93827000000E+00 0. -1.
     999902    2    1    2    0    0 -0.71154979819E-02  0.15230352763E-01  0.16453590120E-01  0.10204073602E+01  0.10201361998E+01 0.  0.
     999903    2    3    3    0    0  0.12078060497E+00  0.41736655656E-01 -0.14805625210E-01  0.13021797819E+00  0.20189411669E-01 0.  0.
         14    1    1    2    0    0  0.71154979819E-02 -0.15230352763E-01 -0.16453590120E-01  0.23522639832E-01  0.00000000000E+00 0.  1.
     999901    1    3    3    0    0 -0.12789610295E+00 -0.26506302892E-01  0.31259215330E-01  0.89018938198E+00  0.88000000000E+00 0.  1.
        -11    1    4    4    0    0  0.56603471441E-01  0.19324401999E-01 -0.17066029867E-01  0.62200450064E-01  0.51100000000E-03 0. -1.
         11    1    4    4    0    0  0.64177133530E-01  0.22412253656E-01  0.22604046569E-02  0.68017528126E-01  0.51100000000E-03 0.  1.
</event>
<event>
 8    1  0.1161271E+005  0.1043930E+01  0.7957747E-01            NaN
         13   -1    0    0    0    0  0.00000000000E+00  0.00000000000E+00  0.74505805969E-08  0.10566000000E+00  0.10566000000E+00 0.  1.
     999900   -1    0    0    0    0 -0.00000000000E+00 -0.00000000000E+00 -0.74505805969E-08  0.93827000000E+00  0.93827000000E+00 0.  1.
     999902    2    1    2    0    0  0.24341556935E-01 -0.14240207675E-01 -0.21054724319E-02  0.10156505389E+01  0.10152567602E+01 0.  0.
     999903    2    3    3    0    0  0.19824632127E-01  0.37878910121E-01 -0.11773746520E+00  0.12654561658E+00  0.17995957738E-01 0.  0.
         14    1    1    2    0    0 -0.24341556935E-01  0.14240207675E-01  0.21054724319E-02  0.28279461148E-01  0.00000000000E+00 0. -1.
     999901    1    3    3    0    0  0.45169248079E-02 -0.52119117796E-01  0.11563199277E+00  0.88910492227E+00  0.88000000000E+00 0. -1.
        -11    1    4    4    0    0  0.37750431601E-03  0.19556011241E-01 -0.53818067698E-01  0.57264523197E-01  0.51100000000E-03 0. -1.
         11    1    4    4    0    0  0.19447127811E-01  0.18322898880E-01 -0.63919397499E-01  0.69281093388E-01  0.51100000000E-03 0.  1.
</event>
<event>
 8    1  0.1161271E+005  0.1043930E+01  0.7957747E-01            NaN
         13   -1    0    0    0    0  0.00000000000E+00  0.00000000000E+00  0.74505805969E-08  0.10566000000E+00  0.10566000000E+00 0. -1.
     999900   -1    0    0    0    0 -0.00000000000E+00 -0.00000000000E+00 -0.74505805969E-08  0.93827000000E+00  0.93827000000E+00 0. -1.
     999902    2    1    2    0    0 -0.86363650032E-02  0.17783457037E-01  0.11029575742E-01  0.10212917650E+01  0.10210408315E+01 0.  0.
     999903    2    3    3    0    0  0.22264086824E-01 -0.11205948433E+00 -0.55617625783E-01  0.12873595336E+00  0.20654486166E-01 0.  0.
         14    1    1    2    0    0  0.86363650032E-02 -0.17783457037E-01 -0.11029575742E-01  0.22638235039E-01  0.00000000000E+00 0.  1.
     999901    1    3    3    0    0 -0.30900451827E-01  0.12984294137E+00  0.66647201525E-01  0.89255581160E+00  0.88000000000E+00 0.  1.
        -11    1    4    4    0    0  0.11785267877E-01 -0.24206256561E-01 -0.71844786011E-02  0.27869575695E-01  0.51100000000E-03 0.  1.
         11    1    4    4    0    0  0.10478818947E-01 -0.87853227774E-01 -0.48433147182E-01  0.10086637767E+00  0.51100000000E-03 0. -1.
</event>
<event>
 8    1  0.1161271E+005  0.1043930E+01  0.7957747E-01            NaN
         13   -1    0    0    0    0  0.00000000000E+00  0.00000000000E+00  0.74505805969E-08  0.10566000000E+00  0.10566000000E+00 0.  1.
     999900   -1    0    0    0    0 -0.00000000000E+00 -0.00000000000E+00 -0.74505805969E-08  0.93827000000E+00  0.93827000000E+00 0.  1.
     999902    2    1    2    0    0 -0.96967452530E-02  0.13572151989E-02  0.20819889015E-01  0.10209226820E+01  0.10206634049E+01 0.  0.
     999903    2    3    3    0    0 -0.96105233287E-01  0.55600683313E-01 -0.67146518173E-01  0.13067166719E+00  0.15452438392E-01 0.  0.
         14    1    1    2    0    0  0.96967452530E-02 -0.13572151989E-02 -0.20819889015E-01  0.23007317970E-01  0.00000000000E+00 0. -1.
     999901    1    3    3    0    0  0.86408488034E-01 -0.54243468114E-01  0.87966407188E-01  0.89025101484E+00  0.88000000000E+00 0. -1.
        -11    1    4    4    0    0 -0.28046096002E-01  0.24378525781E-01 -0.24216812045E-01  0.44357762871E-01  0.51100000000E-03 0.  1.
         11    1    4    4    0    0 -0.68059137285E-01  0.31222157531E-01 -0.42929706128E-01  0.86313904315E-01  0.51100000000E-03 0. -1.
</event>
<event>
 8    1  0.1161271E+005  0.1043930E+01  0.7957747E-01            NaN
         13   -1    0    0    0    0  0.00000000000E+00  0.00000000000E+00  0.74505805969E-08  0.10566000000E+00  0.10566000000E+00 0.  1.
     999900   -1    0    0    0    0 -0.00000000000E+00 -0.00000000000E+00 -0.74505805969E-08  0.93827000000E+00  0.93827000000E+00 0.  1.
     999902    2    1    2    0    0 -0.19671628674E-01 -0.13973830184E-01  0.10711585539E-01  0.10175296407E+01  0.10171870972E+01 0.  0.
     999903    2    3    3    0    0  0.94034891581E-01 -0.40141234090E-01  0.73570595772E-01  0.12760539624E+00  0.20411395772E-01 0.  0.
         14    1    1    2    0    0  0.19671628674E-01  0.13973830184E-01 -0.10711585539E-01  0.26400359268E-01  0.00000000000E+00 0. -1.
     999901    1    3    3    0    0 -0.11370652025E+00  0.26167403906E-01 -0.62859010233E-01  0.88992424450E+00  0.88000000000E+00 0. -1.
        -11    1    4    4    0    0  0.89507833993E-01 -0.32324838713E-01  0.68238962863E-01  0.11710407643E+00  0.51100000000E-03 0. -1.
         11    1    4    4    0    0  0.45270575876E-02 -0.78163953768E-02  0.53316329092E-02  0.10501319801E-01  0.51100000000E-03 0.  1.
</event>
<event>
 8    1  0.1161271E+005  0.1043930E+01  0.7957747E-01            NaN
         13   -1    0    0    0    0  0.00000000000E+00  0.00000000000E+00  0.74505805969E-08  0.10566000000E+00  0.10566000000E+00 0. -1.
     999900   -1    0    0    0    0 -0.00000000000E+00 -0.00000000000E+00 -0.74505805969E-08  0.93827000000E+00  0.93827000000E+00 0.  1.
     999902    2    1    2    0    0  0.24949669879E-01  0.16021245879E-02 -0.27776900929E-02  0.10187751120E+01  0.10184645111E+01 0.  0.
     999903    2    3    3    0    0  0.10906053921E+00 -0.68626354868E-01  0.18276743819E-01  0.13172947229E+00  0.20367540573E-01 0.  0.
         14    1    1    2    0    0 -0.24949669879E-01 -0.16021245879E-02  0.27776900929E-02  0.25154888045E-01  0.00000000000E+00 0. -1.
     999901    1    3    3    0    0 -0.84110869332E-01  0.70228479456E-01 -0.21054433911E-01  0.88704563967E+00  0.88000000000E+00 0.  1.
        -11    1    4    4    0    0  0.61821000728E-01 -0.43716955757E-01  0.14424629538E-02  0.75732094729E-01  0.51100000000E-03 0.  1.
         11    1    4    4    0    0  0.47239538483E-01 -0.24909399111E-01  0.16834280865E-01  0.55997377558E-01  0.51100000000E-03 0. -1.
</event>
<event>
 8    1  0.1161271E+005  0.1043930E+01  0.7957747E-01            NaN
         13   -1    0    0    0    0  0.00000000000E+00  0.00000000000E+00  0.74505805969E-08  0.10566000000E+00  0.10566000000E+00 0. -1.
     999900   -1    0    0    0    0 -0.00000000000E+00 -0.00000000000E+00 -0.74505805969E-08  0.93827000000E+00  0.93827000000E+00 0.  1.
     999902    2    1    2    0    0  0.38958331711E-02  0.14885082667E-01 -0.17779023464E-01  0.10204175166E+01  0.10201465930E+01 0.  0.
     999903    2    3    3    0    0  0.58118268629E-01 -0.30561221281E-01  0.10864788230E+00  0.12857156487E+00  0.20360834216E-01 0.  0.
         14    1    1    2    0    0 -0.38958331711E-02 -0.14885082667E-01  0.17779023464E-01  0.23512483438E-01  0.00000000000E+00 0. -1.
     999901    1    3    3    0    0 -0.54222435458E-01  0.45446303948E-01 -0.12642690576E+00  0.89184595169E+00  0.88000000000E+00 0.  1.
        -11    1    4    4    0    0  0.10602509536E-01 -0.96725462593E-02  0.40059523409E-01  0.42555820945E-01  0.51100000000E-03 0.  1.
         11    1    4    4    0    0  0.47515759093E-01 -0.20888675022E-01  0.68588358891E-01  0.86015743924E-01  0.51100000000E-03 0. -1.
</event>
<event>
 8    1  0.1161271E+005  0.1043930E+01  0.7957747E-01            NaN
         13   -1    0    0    0    0  0.00000000000E+00  0.00000000000E+00  0.74505805969E-08  0.10566000000E+00  0.10566000000E+00 0. -1.
     999900   -1    0    0    0    0 -0.00000000000E+00 -0.00000000000E+00 -0.74505805969E-08  0.93827000000E+00  0.93827000000E+00 0. -1.
     999902    2    1    2    0    0 -0.20094010062E-01  0.92846978372E-02 -0.60510667396E-02  0.10209824454E+01  0.10207245287E+01 0.  0.
     999903    2    3    3    0    0  0.10790760216E+00 -0.66483180480E-01 -0.55366602421E-02  0.12849970116E+00  0.20431708241E-01 0.  0.
         14    1    1    2    0    0  0.20094010062E-01 -0.92846978372E-02  0.60510667396E-02  0.22947554619E-01  0.00000000000E+00 0.  1.
     999901    1    3    3    0    0 -0.12800161222E+00  0.75767878318E-01 -0.51440649753E-03  0.89248274422E+00  0.88000000000E+00 0. -1.
        -11    1    4    4    0    0  0.99819720909E-01 -0.64932733774E-01 -0.92725147001E-02  0.11944235952E+00  0.51100000000E-03 0. -1.
         11    1    4    4    0    0  0.80878812487E-02 -0.15504467065E-02  0.37358544581E-02  0.90573416417E-02  0.51100000000E-03 0.  1.
</event>
<event>
 8    1  0.1161271E+005  0.1043930E+01  0.7957747E-01            NaN
         13   -1    0    0    0    0  0.00000000000E+00  0.00000000000E+00  0.74505805969E-08  0.10566000000E+00  0.10566000000E+00 0.  1.
     999900   -1    0    0    0    0 -0.00000000000E+00 -0.00000000000E+00 -0.74505805969E-08  0.93827000000E+00  0.93827000000E+00 0.  1.
     999902    2    1    2    0    0  0.18363355004E-01 -0.55372436348E-02  0.13624570008E-01  0.10204033602E+01  0.10201321065E+01 0.  0.
     999903    2    3    3    0    0  0.12690933700E+00  0.14051634813E-01  0.33074967195E-01  0.13330456504E+00  0.19306096085E-01 0.  0.
         14    1    1    2    0    0 -0.18363355004E-01  0.55372436348E-02 -0.13624570008E-01  0.23526639836E-01  0.00000000000E+00 0. -1.
     999901    1    3    3    0    0 -0.10854598200E+00 -0.19588878448E-01 -0.19450397187E-01  0.88709879513E+00  0.88000000000E+00 0. -1.
        -11    1    4    4    0    0  0.50901519338E-01  0.89130440377E-02  0.42583839892E-02  0.51853659274E-01  0.51100000000E-03 0.  1.
         11    1    4    4    0    0  0.76007817661E-01  0.51385907754E-02  0.28816583206E-01  0.81450905762E-01  0.51100000000E-03 0. -1.
</event>
<event>
 8    1  0.1161271E+005  0.1043930E+01  0.7957747E-01            NaN
         13   -1    0    0    0    0  0.00000000000E+00  0.00000000000E+00  0.74505805969E-08  0.10566000000E+00  0.10566000000E+00 0.  1.
     999900   -1    0    0    0    0 -0.00000000000E+00 -0.00000000000E+00 -0.74505805969E-08  0.93827000000E+00  0.93827000000E+00 0.  1.
     999902    2    1    2    0    0 -0.12644432659E-01 -0.23931810113E-02  0.19735015499E-01  0.10203698678E+01  0.10200978322E+01 0.  0.
     999903    2    3    3    0    0 -0.12342090787E+00  0.37131235688E-01  0.23993888011E-01  0.13253444106E+00  0.19447936737E-01 0.  0.
         14    1    1    2    0    0  0.12644432659E-01  0.23931810113E-02 -0.19735015499E-01  0.23560132202E-01  0.00000000000E+00 0. -1.
     999901    1    3    3    0    0  0.11077647521E+00 -0.39524416699E-01 -0.42588725129E-02  0.88783542674E+00  0.88000000000E+00 0. -1.
        -11    1    4    4    0    0 -0.78649733385E-01  0.26028164519E-01  0.24528488891E-01  0.86401121509E-01  0.51100000000E-03 0. -1.
         11    1    4    4    0    0 -0.44771174481E-01  0.11103071169E-01 -0.53460088005E-03  0.46133319552E-01  0.51100000000E-03 0.  1.
</event>
<event>
 8    1  0.1161271E+005  0.1043930E+01  0.7957747E-01            NaN
         13   -1    0    0    0    0  0.00000000000E+00  0.00000000000E+00  0.74505805969E-08  0.10566000000E+00  0.10566000000E+00 0. -1.
     999900   -1    0    0    0    0 -0.00000000000E+00 -0.00000000000E+00 -0.74505805969E-08  0.93827000000E+00  0.93827000000E+00 0. -1.
     999902    2    1    2    0    0  0.10541451215E-01 -0.74305713840E-02  0.17519746827E-01  0.10221750669E+01  0.10219435358E+01 0.  0.
     999903    2    3    3    0    0  0.97354403625E-01  0.30204581713E-01 -0.80690916512E-01  0.13167058750E+00  0.20878767779E-01 0.  0.
         14    1    1    2    0    0 -0.10541451215E-01  0.74305713840E-02 -0.17519746827E-01  0.21754933088E-01  0.00000000000E+00 0.  1.
     999901    1    3    3    0    0 -0.86812952410E-01 -0.37635153097E-01  0.98210663338E-01  0.89050447941E+00  0.88000000000E+00 0.  1.
        -11    1    4    4    0    0  0.50511923641E-01  0.74799585953E-02 -0.31239167357E-01  0.59862767299E-01  0.51100000000E-03 0.  1.
         11    1    4    4    0    0  0.46842479984E-01  0.22724623118E-01 -0.49451749155E-01  0.71807820203E-01  0.51100000000E-03 0. -1.
</event>
<event>
 8    1  0.1161271E+005  0.1043930E+01  0.7957747E-01            NaN
         13   -1    0    0    0    0  0.00000000000E+00  0.00000000000E+00  0.74505805969E-08  0.10566000000E+00  0.10566000000E+00 0.  1.
     999900   -1    0    0    0    0 -0.00000000000E+00 -0.00000000000E+00 -0.74505805969E-08  0.93827000000E+00  0.93827000000E+00 0.  1.
     999902    2    1    2    0    0  0.13597527262E-01 -0.19205795972E-01 -0.63196033086E-02  0.10195641893E+01  0.10192729974E+01 0.  0.
     999903    2    3    3    0    0  0.95801878628E-01 -0.88966981589E-01  0.12619969096E-01  0.13278186772E+00  0.19458597451E-01 0.  0.
         14    1    1    2    0    0 -0.13597527262E-01  0.19205795972E-01  0.63196033086E-02  0.24365810730E-01  0.00000000000E+00 0. -1.
     999901    1    3    3    0    0 -0.82204351366E-01  0.69761185617E-01 -0.18939572405E-01  0.88678232155E+00  0.88000000000E+00 0. -1.
        -11    1    4    4    0    0  0.48350993884E-01 -0.42282407584E-01  0.15765881774E-01  0.66139585346E-01  0.51100000000E-03 0.  1.
         11    1    4    4    0    0  0.47450884744E-01 -0.46684574005E-01 -0.31459126778E-02  0.66642282378E-01  0.51100000000E-03 0. -1.
</event>
<event>
 8    1  0.1161271E+005  0.1043930E+01  0.7957747E-01            NaN
         13   -1    0    0    0    0  0.00000000000E+00  0.00000000000E+00  0.74505805969E-08  0.10566000000E+00  0.10566000000E+00 0.  1.
     999900   -1    0    0    0    0 -0.00000000000E+00 -0.00000000000E+00 -0.74505805969E-08  0.93827000000E+00  0.93827000000E+00 0. -1.
     999902    2    1    2    0    0 -0.21334898277E-01 -0.85953405179E-02  0.48868391012E-02  0.10204153459E+01  0.10201443717E+01 0.  0.
     999903    2    3    3    0    0  0.43395047808E-01  0.12329030149E-02 -0.12019743437E+00  0.12916193870E+00  0.18727865790E-01 0.  0.
         14    1    1    2    0    0  0.21334898277E-01  0.85953405179E-02 -0.48868391012E-02  0.23514654144E-01  0.00000000000E+00 0. -1.
     999901    1    3    3    0    0 -0.64729946085E-01 -0.98282435328E-02  0.12508427347E+00  0.89125340715E+00  0.88000000000E+00 0.  1.
        -11    1    4    4    0    0  0.17059709628E-01  0.86181014870E-02 -0.38129449240E-01  0.42654676018E-01  0.51100000000E-03 0.  1.
         11    1    4    4    0    0  0.26335338180E-01 -0.73851984721E-02 -0.82067985128E-01  0.86507262686E-01  0.51100000000E-03 0. -1.
</event>
<event>
 8    1  0.1161271E+005  0.1043930E+01  0.7957747E-01            NaN
         13   -1    0    0    0    0  0.00000000000E+00  0.00000000000E+00  0.74505805969E-08  0.10566000000E+00  0.10566000000E+00 0.  1.
     999900   -1    0    0    0    0 -0.00000000000E+00 -0.00000000000E+00 -0.74505805969E-08  0.93827000000E+00  0.93827000000E+00 0. -1.
     999902    2    1    2    0    0  0.14959181507E-01  0.16988305166E-01 -0.88925110393E-02  0.10196101238E+01  0.10193200421E+01 0.  0.
     999903    2    3    3    0    0 -0.52988066210E-01 -0.32907457782E-01  0.10939965778E+00  0.12770236357E+00  0.21188973556E-01 0.  0.
         14    1    1    2    0    0 -0.14959181507E-01 -0.16988305166E-01  0.88925110393E-02  0.24319876158E-01  0.00000000000E+00 0. -1.
     999901    1    3    3    0    0  0.67947247717E-01  0.49895762948E-01 -0.11829216882E+00  0.89190776027E+00  0.88000000000E+00 0. -1.
        -11    1    4    4    0    0 -0.26619447362E-01 -0.47268193144E-02  0.50479867776E-01  0.57266185226E-01  0.51100000000E-03 0.  1.
         11    1    4    4    0    0 -0.26368618848E-01 -0.28180638467E-01  0.58919790003E-01  0.70436178342E-01  0.51100000000E-03 0. -1.
</event>
<event>
 7    1  0.2728678E+005  0.1043930E+01  0.7957747E-01            NaN
         13   -1    0    0    0    0  0.00000000000E+00  0.00000000000E+00  0.74505805969E-08  0.10566000000E+00  0.10566000000E+00 0. -1.
     999900   -1    0    0    0    0 -0.00000000000E+00 -0.00000000000E+00 -0.74505805969E-08  0.93827000000E+00  0.93827000000E+00 0. -1.
     999903    2    1    2    0    0 -0.58759367942E-02  0.16242998726E-01  0.10844822955E+00  0.11152481692E+00  0.19452625924E-01 0.  0.
         14    1    1    2    0    0 -0.23042530189E-01 -0.27460423288E-02 -0.43663322959E-01  0.49446786729E-01  0.00000000000E+00 0.  1.
     999901    1    1    2    0    0  0.28918466984E-01 -0.13496956397E-01 -0.64784906593E-01  0.88295839635E+00  0.88000000000E+00 0. -1.
        -11    1    3    3    0    0 -0.11718651276E-01  0.51652930574E-02  0.67310187151E-01  0.68519555277E-01  0.51100000000E-03 0.  1.
         11    1    3    3    0    0  0.58427144822E-02  0.11077705668E-01  0.41138042401E-01  0.43005261643E-01  0.51100000000E-03 0. -1.
</event>
<event>
 8    1  0.1161271E+005  0.1043930E+01  0.7957747E-01            NaN
         13   -1    0    0    0    0  0.00000000000E+00  0.00000000000E+00  0.74505805969E-08  0.10566000000E+00  0.10566000000E+00 0.  1.
     999900   -1    0    0    0    0 -0.00000000000E+00 -0.00000000000E+00 -0.74505805969E-08  0.93827000000E+00  0.93827000000E+00 0. -1.
     999902    2    1    2    0    0 -0.18928968012E-01 -0.12257653735E-01  0.41522836550E-02  0.10209997282E+01  0.10207422043E+01 0.  0.
     999903    2    3    3    0    0  0.11626783760E+00 -0.20214487169E-01 -0.48496089692E-01  0.12908418363E+00  0.19596433243E-01 0.  0.
         14    1    1    2    0    0  0.18928968012E-01  0.12257653735E-01 -0.41522836550E-02  0.22930271795E-01  0.00000000000E+00 0. -1.
     999901    1    3    3    0    0 -0.13519680561E+00  0.79568334345E-02  0.52648373347E-01  0.89191554458E+00  0.88000000000E+00 0. -1.
        -11    1    4    4    0    0  0.79538917463E-01 -0.22849042051E-01 -0.31941914942E-01  0.88707751437E-01  0.51100000000E-03 0. -1.
         11    1    4    4    0    0  0.36728920134E-01  0.26345548816E-02 -0.16554174750E-01  0.40376432189E-01  0.51100000000E-03 0.  1.
</event>
<event>
 8    1  0.1161271E+005  0.1043930E+01  0.7957747E-01            NaN
         13   -1    0    0    0    0  0.00000000000E+00  0.00000000000E+00  0.74505805969E-08  0.10566000000E+00  0.10566000000E+00 0.  1.
     999900   -1    0    0    0    0 -0.00000000000E+00 -0.00000000000E+00 -0.74505805969E-08  0.93827000000E+00  0.93827000000E+00 0.  1.
     999902    2    1    2    0    0 -0.17430308431E-01  0.97958056157E-02  0.14084218805E-01  0.10194731261E+01  0.10191797272E+01 0.  0.
     999903    2    3    3    0    0  0.12224895775E+00 -0.11968528529E-01 -0.26946469830E-01  0.12724697709E+00  0.19432642514E-01 0.  0.
         14    1    1    2    0    0  0.17430308431E-01 -0.97958056157E-02 -0.14084218805E-01  0.24456873860E-01  0.00000000000E+00 0. -1.
     999901    1    3    3    0    0 -0.13967926618E+00  0.21764334145E-01  0.41030688635E-01  0.89222614905E+00  0.88000000000E+00 0. -1.
        -11    1    4    4    0    0  0.28718967678E-01 -0.98603481121E-02 -0.11242198086E-01  0.32382923095E-01  0.51100000000E-03 0. -1.
         11    1    4    4    0    0  0.93529990075E-01 -0.21081804168E-02 -0.15704271745E-01  0.94864053994E-01  0.51100000000E-03 0.  1.
</event>
<event>
 8    1  0.1161271E+005  0.1043930E+01  0.7957747E-01            NaN
         13   -1    0    0    0    0  0.00000000000E+00  0.00000000000E+00  0.74505805969E-08  0.10566000000E+00  0.10566000000E+00 0. -1.
     999900   -1    0    0    0    0 -0.00000000000E+00 -0.00000000000E+00 -0.74505805969E-08  0.93827000000E+00  0.93827000000E+00 0.  1.
     999902    2    1    2    0    0 -0.17997903336E-01  0.15637495593E-01  0.20448310314E-02  0.10200001624E+01  0.10197194193E+01 0.  0.
     999903    2    3    3    0    0  0.10354935344E+00 -0.51586782138E-01  0.48418055395E-01  0.12789965514E+00  0.25106752230E-01 0.  0.
         14    1    1    2    0    0  0.17997903336E-01 -0.15637495593E-01 -0.20448310314E-02  0.23929837585E-01  0.00000000000E+00 0. -1.
     999901    1    3    3    0    0 -0.12154725677E+00  0.67224277731E-01 -0.46373224364E-01  0.89210050728E+00  0.88000000000E+00 0. -1.
        -11    1    4    4    0    0  0.26763924666E-01 -0.25887070195E-01  0.12107735797E-01  0.39157457195E-01  0.51100000000E-03 0.  1.
         11    1    4    4    0    0  0.76785428771E-01 -0.25699711943E-01  0.36310319598E-01  0.88742197943E-01  0.51100000000E-03 0. -1.
</event>
<event>
 8    1  0.1161271E+005  0.1043930E+01  0.7957747E-01            NaN
         13   -1    0    0    0    0  0.00000000000E+00  0.00000000000E+00  0.74505805969E-08  0.10566000000E+00  0.10566000000E+00 0.  1.
     999900   -1    0    0    0    0 -0.00000000000E+00 -0.00000000000E+00 -0.74505805969E-08  0.93827000000E+00  0.93827000000E+00 0. -1.
     999902    2    1    2    0    0 -0.22689887491E-01 -0.68527757967E-02 -0.42994157326E-02  0.10198410709E+01  0.10195565376E+01 0.  0.
     999903    2    3    3    0    0  0.22468457895E-01  0.23362051091E-01 -0.12428981933E+00  0.13003777302E+00  0.20279205947E-01 0.  0.
         14    1    1    2    0    0  0.22689887491E-01  0.68527757967E-02  0.42994157326E-02  0.24088929119E-01  0.00000000000E+00 0.  1.
     999901    1    3    3    0    0 -0.45158345386E-01 -0.30214826887E-01  0.11999040359E+00  0.88980329786E+00  0.88000000000E+00 0.  1.
        -11    1    4    4    0    0 -0.13544799664E-02  0.11546249177E-01 -0.37507127020E-01  0.39270805751E-01  0.51100000000E-03 0.  1.
         11    1    4    4    0    0  0.23822937861E-01  0.11815801913E-01 -0.86782692306E-01  0.90766967273E-01  0.51100000000E-03 0. -1.
</event>
<event>
 8    1  0.1161271E+005  0.1043930E+01  0.7957747E-01            NaN
         13   -1    0    0    0    0  0.00000000000E+00  0.00000000000E+00  0.74505805969E-08  0.10566000000E+00  0.10566000000E+00 0.  1.
     999900   -1    0    0    0    0 -0.00000000000E+00 -0.00000000000E+00 -0.74505805969E-08  0.93827000000E+00  0.93827000000E+00 0.  1.
     999902    2    1    2    0    0  0.18742025667E-01  0.13721758102E-01  0.44235920984E-02  0.10202843167E+01  0.10200102787E+01 0.  0.
     999903    2    3    3    0    0  0.24410447658E-01  0.12304881952E+00 -0.37172118477E-01  0.13252604977E+00  0.21083299920E-01 0.  0.
         14    1    1    2    0    0 -0.18742025667E-01 -0.13721758102E-01 -0.44235920984E-02  0.23645683296E-01  0.00000000000E+00 0.  1.
     999901    1    3    3    0    0 -0.56684219916E-02 -0.10932706142E+00  0.41595710576E-01  0.88775826693E+00  0.88000000000E+00 0.  1.
        -11    1    4    4    0    0  0.13446044566E-01  0.75701591453E-01 -0.12090255015E-01  0.77832913670E-01  0.51100000000E-03 0. -1.
         11    1    4    4    0    0  0.10964403092E-01  0.47347228069E-01 -0.25081863463E-01  0.54693136103E-01  0.51100000000E-03 0.  1.
</event>
<event>
 8    1  0.1161271E+005  0.1043930E+01  0.7957747E-01            NaN
         13   -1    0    0    0    0  0.00000000000E+00  0.00000000000E+00  0.74505805969E-08  0.10566000000E+00  0.10566000000E+00 0.  1.
     999900   -1    0    0    0    0 -0.00000000000E+00 -0.00000000000E+00 -0.74505805969E-08  0.93827000000E+00  0.93827000000E+00 0.  1.
     999902    2    1    2    0    0 -0.20689035753E-01 -0.62984143501E-02  0.81590422574E-02  0.10208155847E+01  0.10205538603E+01 0.  0.
     999903    2    3    3    0    0  0.11323841398E+00  0.52617076227E-01 -0.21183845181E-01  0.12825264471E+00  0.20211147101E-01 0.  0.
         14    1    1    2    0    0  0.20689035753E-01  0.62984143501E-02 -0.81590422574E-02  0.23114415291E-01  0.00000000000E+00 0. -1.
     999901    1    3    3    0    0 -0.13392744973E+00 -0.58915490577E-01  0.29342887438E-01  0.89256294000E+00  0.88000000000E+00 0. -1.
        -11    1    4    4    0    0  0.77094133593E-01  0.26031303515E-01 -0.98045221636E-02  0.81960502518E-01  0.51100000000E-03 0.  1.
         11    1    4    4    0    0  0.36144280383E-01  0.26585772712E-01 -0.11379323017E-01  0.46292142189E-01  0.51100000000E-03 0. -1.
</event>
<event>
 8    1  0.1161271E+005  0.1043930E+01  0.7957747E-01            NaN
         13   -1    0    0    0    0  0.00000000000E+00  0.00000000000E+00  0.74505805969E-08  0.10566000000E+00  0.10566000000E+00 0.  1.
     999900   -1    0    0    0    0 -0.00000000000E+00 -0.00000000000E+00 -0.74505805969E-08  0.93827000000E+00  0.93827000000E+00 0.  1.
     999902    2    1    2    0    0 -0.77816501511E-02 -0.17414967644E-01 -0.18717125595E-01  0.10172061162E+01  0.10168550127E+01 0.  0.
     999903    2    3    3    0    0 -0.21969280857E-01 -0.64275803017E-01 -0.11033126139E+00  0.13109642959E+00  0.19981452782E-01 0.  0.
         14    1    1    2    0    0  0.77816501511E-02  0.17414967644E-01  0.18717125595E-01  0.26723883843E-01  0.00000000000E+00 0. -1.
     999901    1    3    3    0    0  0.14187630706E-01  0.46860835373E-01  0.91614135796E-01  0.88610968657E+00  0.88000000000E+00 0. -1.
        -11    1    4    4    0    0 -0.21543902365E-02 -0.37100855239E-01 -0.58392928133E-01  0.69217844763E-01  0.51100000000E-03 0. -1.
         11    1    4    4    0    0 -0.19814890621E-01 -0.27174947777E-01 -0.51938333258E-01  0.61878584823E-01  0.51100000000E-03 0.  1.
</event>
<event>
 8    1  0.1161271E+005  0.1043930E+01  0.7957747E-01            NaN
         13   -1    0    0    0    0  0.00000000000E+00  0.00000000000E+00  0.74505805969E-08  0.10566000000E+00  0.10566000000E+00 0. -1.
     999900   -1    0    0    0    0 -0.00000000000E+00 -0.00000000000E+00 -0.74505805969E-08  0.93827000000E+00  0.93827000000E+00 0. -1.
     999902    2    1    2    0    0  0.14154996176E-02  0.22580855179E-01 -0.62078969684E-02  0.10204686138E+01  0.10201988801E+01 0.  0.
     999903    2    3    3    0    0  0.58230922352E-01  0.11229593148E+00  0.36160200380E-01  0.13307251119E+00  0.19987911298E-01 0.  0.
         14    1    1    2    0    0 -0.14154996176E-02 -0.22580855179E-01  0.62078969684E-02  0.23461386245E-01  0.00000000000E+00 0. -1.
     999901    1    3    3    0    0 -0.56815422734E-01 -0.89715076300E-01 -0.42368097348E-01  0.88739610257E+00  0.88000000000E+00 0. -1.
        -11    1    4    4    0    0  0.33634938806E-01  0.77254750546E-01  0.16073966366E-01  0.85780178982E-01  0.51100000000E-03 0.  1.
         11    1    4    4    0    0  0.24595983546E-01  0.35041180933E-01  0.20086234014E-01  0.47292332207E-01  0.51100000000E-03 0. -1.
</event>
<event>
 8    1  0.1161271E+005  0.1043930E+01  0.7957747E-01            NaN
         13   -1    0    0    0    0  0.00000000000E+00  0.00000000000E+00  0.74505805969E-08  0.10566000000E+00  0.10566000000E+00 0.  1.
     999900   -1    0    0    0    0 -0.00000000000E+00 -0.00000000000E+00 -0.74505805969E-08  0.93827000000E+00  0.93827000000E+00 0. -1.
     999902    2    1    2    0    0  0.18705749645E-01 -0.17839732579E-01 -0.59819111689E-02  0.10173980496E+01  0.10170520375E+01 0.  0.
     999903    2    3    3    0    0 -0.10192116649E-01 -0.12615710464E+00 -0.23577391349E-01  0.13011154536E+00  0.18804961075E-01 0.  0.
         14    1    1    2    0    0 -0.18705749645E-01  0.17839732579E-01  0.59819111689E-02  0.26531950352E-01  0.00000000000E+00 0.  1.
     999901    1    3    3    0    0  0.28897866295E-01  0.10831737206E+00  0.17595480180E-01  0.88728650429E+00  0.88000000000E+00 0.  1.
        -11    1    4    4    0    0 -0.57547569319E-02 -0.63925655499E-01 -0.21479179577E-01  0.67684731916E-01  0.51100000000E-03 0.  1.
         11    1    4    4    0    0 -0.44373597175E-02 -0.62231449139E-01 -0.20982117717E-02  0.62426813445E-01  0.51100000000E-03 0. -1.
</event>
<event>
 8    1  0.1161271E+005  0.1043930E+01  0.7957747E-01            NaN
         13   -1    0    0    0    0  0.00000000000E+00  0.00000000000E+00  0.74505805969E-08  0.10566000000E+00  0.10566000000E+00 0. -1.
     999900   -1    0    0    0    0 -0.00000000000E+00 -0.00000000000E+00 -0.74505805969E-08  0.93827000000E+00  0.93827000000E+00 0.  1.
     999902    2    1    2    0    0 -0.95340802357E-02  0.62626304719E-02  0.20424410777E-01  0.10205360738E+01  0.10202679071E+01 0.  0.
     999903    2    3    3    0    0  0.25707258396E-01 -0.82422585384E-01 -0.92688169071E-01  0.12817881623E+00  0.19605267884E-01 0.  0.
         14    1    1    2    0    0  0.95340802357E-02 -0.62626304719E-02 -0.20424410777E-01  0.23393926176E-01  0.00000000000E+00 0.  1.
     999901    1    3    3    0    0 -0.35241338631E-01  0.88685215856E-01  0.11311257985E+00  0.89235725759E+00  0.88000000000E+00 0. -1.
        -11    1    4    4    0    0  0.12192435310E-01 -0.55761115374E-01 -0.71723050635E-01  0.91664685566E-01  0.51100000000E-03 0. -1.
         11    1    4    4    0    0  0.13514823085E-01 -0.26661470010E-01 -0.20965118437E-01  0.36514130664E-01  0.51100000000E-03 0.  1.
</event>
<event>
 8    1  0.1161271E+005  0.1043930E+01  0.7957747E-01            NaN
         13   -1    0    0    0    0  0.00000000000E+00  0.00000000000E+00  0.74505805969E-08  0.10566000000E+00  0.10566000000E+00 0. -1.
     999900   -1    0    0    0    0 -0.00000000000E+00 -0.00000000000E+00 -0.74505805969E-08  0.93827000000E+00  0.93827000000E+00 0. -1.
     999902    2    1    2    0    0 -0.20953230762E-01  0.52170413149E-02  0.91628565408E-02  0.10204733732E+01  0.10202037503E+01 0.  0.
     999903    2    3    3    0    0  0.10808816139E+00 -0.10130895428E-01  0.66891949445E-01  0.12905882981E+00  0.19898818506E-01 0.  0.
         14    1    1    2    0    0  0.20953230762E-01 -0.52170413149E-02 -0.91628565408E-02  0.23456626770E-01  0.00000000000E+00 0.  1.
     999901    1    3    3    0    0 -0.12904139215E+00  0.15347936743E-01 -0.57729092904E-01  0.89141454342E+00  0.88000000000E+00 0.  1.
        -11    1    4    4    0    0  0.25393353452E-01 -0.10463517540E-01  0.20136696466E-01  0.34059584031E-01  0.51100000000E-03 0. -1.
         11    1    4    4    0    0  0.82694807934E-01  0.33262211180E-03  0.46755252979E-01  0.94999245781E-01  0.51100000000E-03 0.  1.
</event>
<event>
 8    1  0.1161271E+005  0.1043930E+01  0.7957747E-01            NaN
         13   -1    0    0    0    0  0.00000000000E+00  0.00000000000E+00  0.74505805969E-08  0.10566000000E+00  0.10566000000E+00 0. -1.
     999900   -1    0    0    0    0 -0.00000000000E+00 -0.00000000000E+00 -0.74505805969E-08  0.93827000000E+00  0.93827000000E+00 0. -1.
     999902    2    1    2    0    0  0.13769055661E-01 -0.14416964329E-01  0.15594385441E-01  0.10186195158E+01  0.10183050119E+01 0.  0.
     999903    2    3    3    0    0  0.21331303464E-01 -0.40926129590E-01  0.12117512872E+00  0.13187986019E+00  0.24060613325E-01 0.  0.
         14    1    1    2    0    0 -0.13769055661E-01  0.14416964329E-01 -0.15594385441E-01  0.25310484222E-01  0.00000000000E+00 0.  1.
     999901    1    3    3    0    0 -0.75622478031E-02  0.26509165261E-01 -0.10558074328E+00  0.88673965558E+00  0.88000000000E+00 0. -1.
        -11    1    4    4    0    0  0.17942603888E-01 -0.36374963139E-01  0.11909775832E+00  0.12581578651E+00  0.51100000000E-03 0.  1.
         11    1    4    4    0    0  0.33886995756E-02 -0.45511664508E-02  0.20773704054E-02  0.60640736867E-02  0.51100000000E-03 0. -1.
</event>
<event>
 8    1  0.1161271E+005  0.1043930E+01  0.7957747E-01            NaN
         13   -1    0    0    0    0  0.00000000000E+00  0.00000000000E+00  0.74505805969E-08  0.10566000000E+00  0.10566000000E+00 0.  1.
     999900   -1    0    0    0    0 -0.00000000000E+00 -0.00000000000E+00 -0.74505805969E-08  0.93827000000E+00  0.93827000000E+00 0.  1.
     999902    2    1    2    0    0  0.21969760522E-01 -0.77863560445E-02 -0.24496400390E-02  0.10204928830E+01  0.10202237136E+01 0.  0.
     999903    2    3    3    0    0  0.64206848523E-02  0.12194862181E+00  0.40744710615E-01  0.12979726148E+00  0.16568225295E-01 0.  0.
         14    1    1    2    0    0 -0.21969760522E-01  0.77863560445E-02  0.24496400390E-02  0.23437117019E-01  0.00000000000E+00 0.  1.
     999901    1    3    3    0    0  0.15549075670E-01 -0.12973497785E+00 -0.43194350654E-01  0.89069562150E+00  0.88000000000E+00 0.  1.
        -11    1    4    4    0    0 -0.50757035833E-02  0.60163702964E-01  0.19167754677E-01  0.63349016264E-01  0.51100000000E-03 0. -1.
         11    1    4    4    0    0  0.11496388436E-01  0.61784918845E-01  0.21576955938E-01  0.66448245216E-01  0.51100000000E-03 0.  1.
</event>
<event>
 8    1  0.1161271E+005  0.1043930E+01  0.7957747E-01            NaN
         13   -1    0    0    0    0  0.00000000000E+00  0.00000000000E+00  0.74505805969E-08  0.10566000000E+00  0.10566000000E+00 0.  1.
     999900   -1    0    0    0    0 -0.00000000000E+00 -0.00000000000E+00 -0.74505805969E-08  0.93827000000E+00  0.93827000000E+00 0.  1.
     999902    2    1    2    0    0  0.31427700688E-02 -0.22869003202E-01  0.77235255349E-02  0.10195882425E+01  0.10192976322E+01 0.  0.
     999903    2    3    3    0    0 -0.47878557065E-01  0.81780711555E-03  0.12000374361E+00  0.13067256137E+00  0.19529331227E-01 0.  0.
         14    1    1    2    0    0 -0.31427700688E-02  0.22869003202E-01 -0.77235255349E-02  0.24341757493E-01  0.00000000000E+00 0.  1.
     999901    1    3    3    0    0  0.51021327134E-01 -0.23686810317E-01 -0.11228021808E+00  0.88891568114E+00  0.88000000000E+00 0.  1.
        -11    1    4    4    0    0 -0.19424803454E-01 -0.88046720390E-02  0.57342808340E-01  0.61182546762E-01  0.51100000000E-03 0. -1.
         11    1    4    4    0    0 -0.28453753612E-01  0.96224791546E-02  0.62660935272E-01  0.69490014605E-01  0.51100000000E-03 0.  1.
</event>
<event>
 8    1  0.1161271E+005  0.1043930E+01  0.7957747E-01            NaN
         13   -1    0    0    0    0  0.00000000000E+00  0.00000000000E+00  0.74505805969E-08  0.10566000000E+00  0.10566000000E+00 0. -1.
     999900   -1    0    0    0    0 -0.00000000000E+00 -0.00000000000E+00 -0.74505805969E-08  0.93827000000E+00  0.93827000000E+00 0.  1.
     999902    2    1    2    0    0  0.50542676245E-02  0.12963606224E-01  0.19318221194E-01  0.10201225563E+01  0.10198447114E+01 0.  0.
     999903    2    3    3    0    0 -0.13293341025E-01 -0.12391234498E+00  0.28020822454E-01  0.12930978354E+00  0.20121418295E-01 0.  0.
         14    1    1    2    0    0 -0.50542676245E-02 -0.12963606224E-01 -0.19318221194E-01  0.23807443744E-01  0.00000000000E+00 0.  1.
     999901    1    3    3    0    0  0.18347608650E-01  0.13687595121E+00 -0.87026012600E-02  0.89081277271E+00  0.88000000000E+00 0. -1.
        -11    1    4    4    0    0 -0.16780422225E-01 -0.63628799651E-01  0.12896274855E-01  0.67058047550E-01  0.51100000000E-03 0.  1.
         11    1    4    4    0    0  0.34870812003E-02 -0.60283545331E-01  0.15124547598E-01  0.62251735992E-01  0.51100000000E-03 0. -1.
</event>
<event>
 8    1  0.1161271E+005  0.1043930E+01  0.7957747E-01            NaN
         13   -1    0    0    0    0  0.00000000000E+00  0.00000000000E+00  0.74505805969E-08  0.10566000000E+00  0.10566000000E+00 0. -1.
     999900   -1    0    0    0    0 -0.00000000000E+00 -0.00000000000E+00 -0.74505805969E-08  0.93827000000E+00  0.93827000000E+00 0. -1.
     999902    2    1    2    0    0 -0.21384502163E-01  0.30239711627E-02 -0.98684225465E-02  0.10201849564E+01  0.10199085832E+01 0.  0.
     999903    2    3    3    0    0 -0.12474231592E-01  0.12900321569E+00  0.31958114854E-02  0.13107256909E+00  0.19296866177E-01 0.  0.
         14    1    1    2    0    0  0.21384502163E-01 -0.30239711627E-02  0.98684225465E-02  0.23745043649E-01  0.00000000000E+00 0. -1.
     999901    1    3    3    0    0 -0.89102705712E-02 -0.12597924453E+00 -0.13064234032E-01  0.88911238726E+00  0.88000000000E+00 0. -1.
        -11    1    4    4    0    0 -0.20800644305E-02  0.89687960666E-01 -0.38564550774E-02  0.89796382574E-01  0.51100000000E-03 0. -1.
         11    1    4    4    0    0 -0.10394167161E-01  0.39315255023E-01  0.70522665628E-02  0.41276186515E-01  0.51100000000E-03 0.  1.
</event>
<event>
 8    1  0.1161271E+005  0.1043930E+01  0.7957747E-01            NaN
         13   -1    0    0    0    0  0.00000000000E+00  0.00000000000E+00  0.74505805969E-08  0.10566000000E+00  0.10566000000E+00 0. -1.
     999900   -1    0    0    0    0 -0.00000000000E+00 -0.00000000000E+00 -0.74505805969E-08  0.93827000000E+00  0.93827000000E+00 0.  1.
     999902    2    1    2    0    0 -0.20795287476E-01 -0.70193743822E-02 -0.91159610290E-02  0.10201641349E+01  0.10198872711E+01 0.  0.
     999903    2    3    3    0    0  0.11793652225E+00 -0.16290584482E-01  0.42551517322E-01  0.12775055440E+00  0.18307542127E-01 0.  0.
         14    1    1    2    0    0  0.20795287476E-01  0.70193743822E-02  0.91159610290E-02  0.23765865088E-01  0.00000000000E+00 0. -1.
     999901    1    3    3    0    0 -0.13873180973E+00  0.92712101000E-02 -0.51667478351E-01  0.89241358051E+00  0.88000000000E+00 0.  1.
        -11    1    4    4    0    0  0.50759884148E-01 -0.15824153658E-01  0.21436490582E-01  0.57330218273E-01  0.51100000000E-03 0.  1.
         11    1    4    4    0    0  0.67176638104E-01 -0.46643082376E-03  0.21115026740E-01  0.70420336125E-01  0.51100000000E-03 0. -1.
</event>
<event>
 8    1  0.1161271E+005  0.1043930E+01  0.7957747E-01            NaN
         13   -1    0    0    0    0  0.00000000000E+00  0.00000000000E+00  0.74505805969E-08  0.10566000000E+00  0.10566000000E+00 0. -1.
     999900   -1    0    0    0    0 -0.00000000000E+00 -0.00000000000E+00 -0.74505805969E-08  0.93827000000E+00  0.93827000000E+00 0.  1.
     999902    2    1    2    0    0 -0.15030035932E-01  0.22163182949E-01  0.58828045958E-02  0.10165125594E+01  0.10161427397E+01 0.  0.
     999903    2    3    3    0    0  0.53995330478E-02 -0.20059660634E-01 -0.12273376981E+00  0.12592715698E+00  0.19040106936E-01 0.  0.
         14    1    1    2    0    0  0.15030035932E-01 -0.22163182949E-01 -0.58828045958E-02  0.27417440589E-01  0.00000000000E+00 0.  1.
     999901    1    3    3    0    0 -0.20429568980E-01  0.42222843583E-01  0.12861657440E+00  0.89058540243E+00  0.88000000000E+00 0. -1.
        -11    1    4    4    0    0  0.30345012867E-02 -0.23147981308E-01 -0.90857601533E-01  0.93810458447E-01  0.51100000000E-03 0.  1.
         11    1    4    4    0    0  0.23650317611E-02  0.30883206746E-02 -0.31876168275E-01  0.32116698534E-01  0.51100000000E-03 0. -1.
</event>
<event>
 8    1  0.1161271E+005  0.1043930E+01  0.7957747E-01            NaN
         13   -1    0    0    0    0  0.00000000000E+00  0.00000000000E+00  0.74505805969E-08  0.10566000000E+00  0.10566000000E+00 0.  1.
     999900   -1    0    0    0    0 -0.00000000000E+00 -0.00000000000E+00 -0.74505805969E-08  0.93827000000E+00  0.93827000000E+00 0. -1.
     999902    2    1    2    0    0  0.16195411052E-01  0.12726265132E-01 -0.10730795638E-01  0.10207050320E+01  0.10204407691E+01 0.  0.
     999903    2    3    3    0    0  0.87037194911E-01  0.98004877767E-01  0.13341039473E-01  0.13342240885E+00  0.21050569683E-01 0.  0.
         14    1    1    2    0    0 -0.16195411052E-01 -0.12726265132E-01  0.10730795638E-01  0.23224967995E-01  0.00000000000E+00 0.  1.
     999901    1    3    3    0    0 -0.70841783859E-01 -0.85278612635E-01 -0.24071835111E-01  0.88728262316E+00  0.88000000000E+00 0. -1.
        -11    1    4    4    0    0  0.47534596677E-01  0.40460911460E-01  0.12240812949E-01  0.63613849593E-01  0.51100000000E-03 0. -1.
         11    1    4    4    0    0  0.39502598235E-01  0.57543966307E-01  0.11002265243E-02  0.69808559253E-01  0.51100000000E-03 0.  1.
</event>
<event>
 8    1  0.1161271E+005  0.1043930E+01  0.7957747E-01            NaN
         13   -1    0    0    0    0  0.00000000000E+00  0.00000000000E+00  0.74505805969E-08  0.10566000000E+00  0.10566000000E+00 0.  1.
     999900   -1    0    0    0    0 -0.00000000000E+00 -0.00000000000E+00 -0.74505805969E-08  0.93827000000E+00  0.93827000000E+00 0.  1.
     999902    2    1    2    0    0 -0.20153317833E-01  0.90446161423E-02 -0.69931841614E-02  0.10207596326E+01  0.10204966250E+01 0.  0.
     999903    2    3    3    0    0 -0.40876170520E-01  0.12020858430E+00  0.31867200912E-01  0.13267349152E+00  0.21581746985E-01 0.  0.
         14    1    1    2    0    0  0.20153317833E-01 -0.90446161423E-02  0.69931841614E-02  0.23170367402E-01  0.00000000000E+00 0. -1.
     999901    1    3    3    0    0  0.20722852687E-01 -0.11116396816E+00 -0.38860385074E-01  0.88808614107E+00  0.88000000000E+00 0.  1.
        -11    1    4    4    0    0 -0.15118594388E-01  0.68556385500E-01  0.25100383398E-01  0.74557630440E-01  0.51100000000E-03 0.  1.
         11    1    4    4    0    0 -0.25757576132E-01  0.51652198801E-01  0.67668175143E-02  0.58115861083E-01  0.51100000000E-03 0. -1.
</event>
<event>
 8    1  0.1161271E+005  0.1043930E+01  0.7957747E-01            NaN
         13   -1    0    0    0    0  0.00000000000E+00  0.00000000000E+00  0.74505805969E-08  0.10566000000E+00  0.10566000000E+00 0.  1.
     999900   -1    0    0    0    0 -0.00000000000E+00 -0.00000000000E+00 -0.74505805969E-08  0.93827000000E+00  0.93827000000E+00 0. -1.
     999902    2    1    2    0    0 -0.21892908775E-01  0.80475498505E-02  0.35479946972E-02  0.10203365522E+01  0.10200637377E+01 0.  0.
     999903    2    3    3    0    0 -0.99524213755E-01  0.22660402063E-01  0.83419808680E-01  0.13319526602E+00  0.19067025564E-01 0.  0.
         14    1    1    2    0    0  0.21892908775E-01 -0.80475498505E-02 -0.35479946972E-02  0.23593447811E-01  0.00000000000E+00 0. -1.
     999901    1    3    3    0    0  0.77631304981E-01 -0.14612852213E-01 -0.79871813982E-01  0.88714128617E+00  0.88000000000E+00 0. -1.
        -11    1    4    4    0    0 -0.94272809397E-01  0.19488409745E-01  0.71972692132E-01  0.12019771312E+00  0.51100000000E-03 0.  1.
         11    1    4    4    0    0 -0.52514043583E-02  0.31719923189E-02  0.11447116548E-01  0.12997552895E-01  0.51100000000E-03 0. -1.
</event>
<event>
 8    1  0.1161271E+005  0.1043930E+01  0.7957747E-01            NaN
         13   -1    0    0    0    0  0.00000000000E+00  0.00000000000E+00  0.74505805969E-08  0.10566000000E+00  0.10566000000E+00 0. -1.
     999900   -1    0    0    0    0 -0.00000000000E+00 -0.00000000000E+00 -0.74505805969E-08  0.93827000000E+00  0.93827000000E+00 0. -1.
     999902    2    1    2    0    0 -0.13995039925E-01 -0.17837022385E-01 -0.10241938773E-01  0.10190519410E+01  0.10187482224E+01 0.  0.
     999903    2    3    3    0    0 -0.83915059032E-01  0.94402632343E-01  0.14658451076E-01  0.12882355537E+00  0.20665045448E-01 0.  0.
         14    1    1    2    0    0  0.13995039925E-01  0.17837022385E-01  0.10241938773E-01  0.24878059006E-01  0.00000000000E+00 0. -1.
     999901    1    3    3    0    0  0.69920019107E-01 -0.11223965473E+00 -0.24900389849E-01  0.89022838563E+00  0.88000000000E+00 0. -1.
        -11    1    4    4    0    0 -0.17491895133E-01  0.29206404686E-01  0.10604651532E-01  0.35660906118E-01  0.51100000000E-03 0. -1.
         11    1    4    4    0    0 -0.66423163899E-01  0.65196227657E-01  0.40537995439E-02  0.93162649247E-01  0.51100000000E-03 0.  1.
</event>
<event>
 8    1  0.1161271E+005  0.1043930E+01  0.7957747E-01            NaN
         13   -1    0    0    0    0  0.00000000000E+00  0.00000000000E+00  0.74505805969E-08  0.10566000000E+00  0.10566000000E+00 0.  1.
     999900   -1    0    0    0    0 -0.00000000000E+00 -0.00000000000E+00 -0.74505805969E-08  0.93827000000E+00  0.93827000000E+00 0.  1.
     999902    2    1    2    0    0  0.13619314974E-01  0.18098457693E-01  0.53955675472E-02  0.10206458410E+01  0.10203802138E+01 0.  0.
     999903    2    3    3    0    0  0.19411683047E-01 -0.10273843325E+00 -0.72838894350E-01  0.12893078743E+00  0.19637828554E-01 0.  0.
         14    1    1    2    0    0 -0.13619314974E-01 -0.18098457693E-01 -0.53955675472E-02  0.23284159001E-01  0.00000000000E+00 0. -1.
     999901    1    3    3    0    0 -0.57923680730E-02  0.12083689094E+00  0.78234461897E-01  0.89171505357E+00  0.88000000000E+00 0. -1.
        -11    1    4    4    0    0  0.15211109849E-02 -0.40879239537E-01 -0.37386111396E-01  0.55420289155E-01  0.51100000000E-03 0. -1.
         11    1    4    4    0    0  0.17890572062E-01 -0.61859193715E-01 -0.35452782954E-01  0.73510498270E-01  0.51100000000E-03 0.  1.
</event>
<event>
 8    1  0.1161271E+005  0.1043930E+01  0.7957747E-01            NaN
         13   -1    0    0    0    0  0.00000000000E+00  0.00000000000E+00  0.74505805969E-08  0.10566000000E+00  0.10566000000E+00 0.  1.
     999900   -1    0    0    0    0 -0.00000000000E+00 -0.00000000000E+00 -0.74505805969E-08  0.93827000000E+00  0.93827000000E+00 0.  1.
     999902    2    1    2    0    0  0.11867981535E-01  0.18484131730E-01 -0.98864628279E-02  0.10198415327E+01  0.10195570104E+01 0.  0.
     999903    2    3    3    0    0  0.69015266619E-01  0.39602193341E-02 -0.11062624402E+00  0.13213366419E+00  0.21032094118E-01 0.  0.
         14    1    1    2    0    0 -0.11867981535E-01 -0.18484131730E-01  0.98864628279E-02  0.24088467340E-01  0.00000000000E+00 0. -1.
     999901    1    3    3    0    0 -0.57147285084E-01  0.14523912396E-01  0.10073978119E+00  0.88770786847E+00  0.88000000000E+00 0. -1.
        -11    1    4    4    0    0  0.48271284963E-01  0.72122809377E-02 -0.91604524122E-01  0.10379683959E+00  0.51100000000E-03 0. -1.
         11    1    4    4    0    0  0.20743981656E-01 -0.32520616036E-02 -0.19021719900E-01  0.28336824603E-01  0.51100000000E-03 0.  1.
</event>
<event>
 8    1  0.1161271E+005  0.1043930E+01  0.7957747E-01            NaN
         13   -1    0    0    0    0  0.00000000000E+00  0.00000000000E+00  0.74505805969E-08  0.10566000000E+00  0.10566000000E+00 0.  1.
     999900   -1    0    0    0    0 -0.00000000000E+00 -0.00000000000E+00 -0.74505805969E-08  0.93827000000E+00  0.93827000000E+00 0.  1.
     999902    2    1    2    0    0  0.15395781772E-01 -0.20626670790E-01 -0.16527165757E-02  0.10181381192E+01  0.10178113816E+01 0.  0.
     999903    2    3    3    0    0 -0.28709827965E-01  0.52527070825E-01  0.11004198568E+00  0.12697456447E+00  0.20735332649E-01 0.  0.
         14    1    1    2    0    0 -0.15395781772E-01  0.20626670790E-01  0.16527165757E-02  0.25791880822E-01  0.00000000000E+00 0.  1.
     999901    1    3    3    0    0  0.44105609737E-01 -0.73153741615E-01 -0.11169470225E+00  0.89116355470E+00  0.88000000000E+00 0.  1.
        -11    1    4    4    0    0 -0.43210398364E-02  0.22184528046E-01  0.26685468007E-01  0.34974276170E-01  0.51100000000E-03 0. -1.
         11    1    4    4    0    0 -0.24388788129E-01  0.30342542780E-01  0.83356517670E-01  0.92000288303E-01  0.51100000000E-03 0.  1.
</event>
<event>
 8    1  0.1161271E+005  0.1043930E+01  0.7957747E-01            NaN
         13   -1    0    0    0    0  0.00000000000E+00  0.00000000000E+00  0.74505805969E-08  0.10566000000E+00  0.10566000000E+00 0. -1.
     999900   -1    0    0    0    0 -0.00000000000E+00 -0.00000000000E+00 -0.74505805969E-08  0.93827000000E+00  0.93827000000E+00 0. -1.
     999902    2    1    2    0    0  0.15205777258E-01 -0.14395219620E-01  0.13341140948E-01  0.10191021114E+01  0.10187996316E+01 0.  0.
     999903    2    3    3    0    0 -0.50491596445E-01 -0.11825420257E+00 -0.52552734816E-02  0.13036780923E+00  0.20849221744E-01 0.  0.
         14    1    1    2    0    0 -0.15205777258E-01  0.14395219620E-01 -0.13341140948E-01  0.24827888588E-01  0.00000000000E+00 0.  1.
     999901    1    3    3    0    0  0.65697373703E-01  0.10385898295E+00  0.18596414430E-01  0.88873430218E+00  0.88000000000E+00 0.  1.
        -11    1    4    4    0    0 -0.21061482842E-01 -0.72146549366E-01 -0.80813687075E-02  0.75592858698E-01  0.51100000000E-03 0. -1.
         11    1    4    4    0    0 -0.29430113603E-01 -0.46107653200E-01  0.28260952259E-02  0.54774950530E-01  0.51100000000E-03 0.  1.
</event>
<event>
 8    1  0.1161271E+005  0.1043930E+01  0.7957747E-01            NaN
         13   -1    0    0    0    0  0.00000000000E+00  0.00000000000E+00  0.74505805969E-08  0.10566000000E+00  0.10566000000E+00 0.  1.
     999900   -1    0    0    0    0 -0.00000000000E+00 -0.00000000000E+00 -0.74505805969E-08  0.93827000000E+00  0.93827000000E+00 0.  1.
     999902    2    1    2    0    0  0.88086674743E-02 -0.10445517581E-01  0.18954067599E-01  0.10205642529E+01  0.10202967392E+01 0.  0.
     999903    2    3    3    0    0 -0.63703137998E-01 -0.10861989583E+00 -0.31038156288E-01  0.13073539690E+00  0.16492583024E-01 0.  0.
         14    1    1    2    0    0 -0.88086674743E-02  0.10445517581E-01 -0.18954067599E-01  0.23365747126E-01  0.00000000000E+00 0. -1.
     999901    1    3    3    0    0  0.72511805473E-01  0.98174378252E-01  0.49992223888E-01  0.88982885598E+00  0.88000000000E+00 0. -1.
        -11    1    4    4    0    0 -0.31896313597E-01 -0.39605623903E-01 -0.15560524843E-01  0.53182434321E-01  0.51100000000E-03 0. -1.
         11    1    4    4    0    0 -0.31806824401E-01 -0.69014271929E-01 -0.15477631445E-01  0.77552962577E-01  0.51100000000E-03 0.  1.
</event>
<event>
 8    1  0.1161271E+005  0.1043930E+01  0.7957747E-01            NaN
         13   -1    0    0    0    0  0.00000000000E+00  0.00000000000E+00  0.74505805969E-08  0.10566000000E+00  0.10566000000E+00 0. -1.
     999900   -1    0    0    0    0 -0.00000000000E+00 -0.00000000000E+00 -0.74505805969E-08  0.93827000000E+00  0.93827000000E+00 0.  1.
     999902    2    1    2    0    0 -0.52504385618E-02 -0.10489365225E-01  0.19199480530E-01  0.10214308013E+01  0.10211829748E+01 0.  0.
     999903    2    3    3    0    0 -0.62334570524E-01  0.48202900320E-01 -0.10085979130E+00  0.12951286290E+00  0.19793076371E-01 0.  0.
         14    1    1    2    0    0  0.52504385618E-02  0.10489365225E-01 -0.19199480530E-01  0.22499198664E-01  0.00000000000E+00 0.  1.
     999901    1    3    3    0    0  0.57084131962E-01 -0.58692265545E-01  0.12005927183E+00  0.89191793844E+00  0.88000000000E+00 0. -1.
        -11    1    4    4    0    0 -0.50232715176E-01  0.36434805419E-01 -0.90391578153E-01  0.10964360101E+00  0.51100000000E-03 0. -1.
         11    1    4    4    0    0 -0.12101855348E-01  0.11768094901E-01 -0.10468213151E-01  0.19869261890E-01  0.51100000000E-03 0.  1.
</event>
<event>
 8    1  0.1161271E+005  0.1043930E+01  0.7957747E-01            NaN
         13   -1    0    0    0    0  0.00000000000E+00  0.00000000000E+00  0.74505805969E-08  0.10566000000E+00  0.10566000000E+00 0. -1.
     999900   -1    0    0    0    0 -0.00000000000E+00 -0.00000000000E+00 -0.74505805969E-08  0.93827000000E+00  0.93827000000E+00 0. -1.
     999902    2    1    2    0    0  0.76114644236E-02 -0.10156544291E-01 -0.20292058826E-01  0.10199955597E+01  0.10197147073E+01 0.  0.
     999903    2    3    3    0    0  0.76422719733E-01 -0.25435715663E-01  0.98860624836E-01  0.12917245492E+00  0.20608062586E-01 0.  0.
         14    1    1    2    0    0 -0.76114644236E-02  0.10156544291E-01  0.20292058826E-01  0.23934440332E-01  0.00000000000E+00 0. -1.
     999901    1    3    3    0    0 -0.68811255309E-01  0.15279171372E-01 -0.11915268366E+00  0.89082310475E+00  0.88000000000E+00 0. -1.
        -11    1    4    4    0    0  0.46452178228E-01 -0.48508915814E-02  0.58186163266E-01  0.74613850778E-01  0.51100000000E-03 0. -1.
         11    1    4    4    0    0  0.29970541505E-01 -0.20584824082E-01  0.40674461570E-01  0.54558604139E-01  0.51100000000E-03 0.  1.
</event>
<event>
 8    1  0.1161271E+005  0.1043930E+01  0.7957747E-01            NaN
         13   -1    0    0    0    0  0.00000000000E+00  0.00000000000E+00  0.74505805969E-08  0.10566000000E+00  0.10566000000E+00 0.  1.
     999900   -1    0    0    0    0 -0.00000000000E+00 -0.00000000000E+00 -0.74505805969E-08  0.93827000000E+00  0.93827000000E+00 0. -1.
     999902    2    1    2    0    0  0.21617976400E-01  0.73362015099E-02  0.52411349315E-02  0.10205072279E+01  0.10202383917E+01 0.  0.
     999903    2    3    3    0    0  0.55226475303E-01  0.47267201947E-01 -0.10687229530E+00  0.13186025796E+00  0.26101497506E-01 0.  0.
         14    1    1    2    0    0 -0.21617976400E-01 -0.73362015099E-02 -0.52411349315E-02  0.23422772073E-01  0.00000000000E+00 0. -1.
     999901    1    3    3    0    0 -0.33608498903E-01 -0.39931000438E-01  0.11211343023E+00  0.88864696997E+00  0.88000000000E+00 0.  1.
        -11    1    4    4    0    0  0.80976652383E-02  0.21227946507E-01 -0.24194032271E-01  0.33193526684E-01  0.51100000000E-03 0. -1.
         11    1    4    4    0    0  0.47128810065E-01  0.26039255441E-01 -0.82678263028E-01  0.98666731275E-01  0.51100000000E-03 0.  1.
</event>
<event>
 8    1  0.1161271E+005  0.1043930E+01  0.7957747E-01            NaN
         13   -1    0    0    0    0  0.00000000000E+00  0.00000000000E+00  0.74505805969E-08  0.10566000000E+00  0.10566000000E+00 0. -1.
     999900   -1    0    0    0    0 -0.00000000000E+00 -0.00000000000E+00 -0.74505805969E-08  0.93827000000E+00  0.93827000000E+00 0. -1.
     999902    2    1    2    0    0  0.35863797016E-02 -0.22507913234E-02 -0.24517066042E-01  0.10190499938E+01  0.10187462271E+01 0.  0.
     999903    2    3    3    0    0 -0.47202960266E-02  0.12228299272E+00  0.33808064392E-01  0.12833147201E+00  0.18723514317E-01 0.  0.
         14    1    1    2    0    0 -0.35863797016E-02  0.22507913234E-02  0.24517066042E-01  0.24880006194E-01  0.00000000000E+00 0. -1.
     999901    1    3    3    0    0  0.83066757281E-02 -0.12453378404E+00 -0.58325130433E-01  0.89071852180E+00  0.88000000000E+00 0. -1.
        -11    1    4    4    0    0 -0.47037225840E-02  0.59264341054E-01  0.25779242227E-01  0.64801370183E-01  0.51100000000E-03 0.  1.
         11    1    4    4    0    0 -0.16573442573E-04  0.63018651661E-01  0.80288221648E-02  0.63530101828E-01  0.51100000000E-03 0. -1.
</event>
<event>
 8    1  0.1161271E+005  0.1043930E+01  0.7957747E-01            NaN
         13   -1    0    0    0    0  0.00000000000E+00  0.00000000000E+00  0.74505805969E-08  0.10566000000E+00  0.10566000000E+00 0.  1.
     999900   -1    0    0    0    0 -0.00000000000E+00 -0.00000000000E+00 -0.74505805969E-08  0.93827000000E+00  0.93827000000E+00 0.  1.
     999902    2    1    2    0    0 -0.12706990599E-01 -0.11890557256E-01  0.15762801563E-01  0.10204498195E+01  0.10201796485E+01 0.  0.
     999903    2    3    3    0    0 -0.71236048692E-01  0.18293935177E-01  0.10936827433E+00  0.13303856269E+00  0.18127245700E-01 0.  0.
         14    1    1    2    0    0  0.12706990599E-01  0.11890557256E-01 -0.15762801563E-01  0.23480180473E-01  0.00000000000E+00 0. -1.
     999901    1    3    3    0    0  0.58529058093E-01 -0.30184492433E-01 -0.93605472764E-01  0.88741125683E+00  0.88000000000E+00 0.  1.
        -11    1    4    4    0    0 -0.69063125098E-01  0.20500527225E-01  0.10068298302E+00  0.12380351795E+00  0.51100000000E-03 0. -1.
         11    1    4    4    0    0 -0.21729235939E-02 -0.22065920480E-02  0.86852913050E-02  0.92350447462E-02  0.51100000000E-03 0.  1.
</event>
<event>
 8    1  0.1161271E+005  0.1043930E+01  0.7957747E-01            NaN
         13   -1    0    0    0    0  0.00000000000E+00  0.00000000000E+00  0.74505805969E-08  0.10566000000E+00  0.10566000000E+00 0.  1.
     999900   -1    0    0    0    0 -0.00000000000E+00 -0.00000000000E+00 -0.74505805969E-08  0.93827000000E+00  0.93827000000E+00 0. -1.
     999902    2    1    2    0    0  0.47273223229E-02  0.19841838809E-01  0.11424003139E-01  0.10205515058E+01  0.10202836968E+01 0.  0.
     999903    2    3    3    0    0  0.50406611613E-01 -0.90683951456E-01  0.76051408431E-01  0.13011383290E+00  0.19529138300E-01 0.  0.
         14    1    1    2    0    0 -0.47273223229E-02 -0.19841838809E-01 -0.11424003139E-01  0.23378494207E-01  0.00000000000E+00 0. -1.
     999901    1    3    3    0    0 -0.45679289290E-01  0.11052579027E+00 -0.64627405292E-01  0.89043767289E+00  0.88000000000E+00 0.  1.
        -11    1    4    4    0    0  0.38947147933E-01 -0.62818270937E-01  0.43539643215E-01  0.85784480810E-01  0.51100000000E-03 0.  1.
         11    1    4    4    0    0  0.11459463680E-01 -0.27865680520E-01  0.32511765216E-01  0.44329352094E-01  0.51100000000E-03 0. -1.
</event>
<event>
 8    1  0.1161271E+005  0.1043930E+01  0.7957747E-01            NaN
         13   -1    0    0    0    0  0.00000000000E+00  0.00000000000E+00  0.74505805969E-08  0.10566000000E+00  0.10566000000E+00 0. -1.
     999900   -1    0    0    0    0 -0.00000000000E+00 -0.00000000000E+00 -0.74505805969E-08  0.93827000000E+00  0.93827000000E+00 0.  1.
     999902    2    1    2    0    0 -0.15037373451E-01  0.18100413358E-01  0.80919206949E-02  0.10190457330E+01  0.10187418609E+01 0.  0.
     999903    2    3    3    0    0  0.73194956939E-01 -0.97221216872E-01  0.30334132785E-01  0.12686932750E+00  0.19136350648E-01 0.  0.
         14    1    1    2    0    0  0.15037373451E-01 -0.18100413358E-01 -0.80919206949E-02  0.24884267008E-01  0.00000000000E+00 0. -1.
     999901    1    3    3    0    0 -0.88232330390E-01  0.11532163023E+00 -0.22242212090E-01  0.89217640550E+00  0.88000000000E+00 0.  1.
        -11    1    4    4    0    0  0.17649452065E-01 -0.35953684854E-01  0.14927985434E-01  0.42746654640E-01  0.51100000000E-03 0. -1.
         11    1    4    4    0    0  0.55545504875E-01 -0.61267532017E-01  0.15406147351E-01  0.84122672856E-01  0.51100000000E-03 0.  1.
</event>
<event>
 8    1  0.1161271E+005  0.1043930E+01  0.7957747E-01            NaN
         13   -1    0    0    0    0  0.00000000000E+00  0.00000000000E+00  0.74505805969E-08  0.10566000000E+00  0.10566000000E+00 0.  1.
     999900   -1    0    0    0    0 -0.00000000000E+00 -0.00000000000E+00 -0.74505805969E-08  0.93827000000E+00  0.93827000000E+00 0.  1.
     999902    2    1    2    0    0 -0.18997978690E-01  0.13797878582E-01 -0.46030115411E-03  0.10204456110E+01  0.10201753421E+01 0.  0.
     999903    2    3    3    0    0  0.35255421026E-01  0.73218007494E-01 -0.10084330424E+00  0.13109139004E+00  0.20291850557E-01 0.  0.
         14    1    1    2    0    0  0.18997978690E-01 -0.13797878582E-01  0.46030115411E-03  0.23484388960E-01  0.00000000000E+00 0.  1.
     999901    1    3    3    0    0 -0.54253399716E-01 -0.59420128912E-01  0.10038300309E+00  0.88935422100E+00  0.88000000000E+00 0.  1.
        -11    1    4    4    0    0  0.27880679138E-01  0.36843583818E-01 -0.49235908768E-01  0.67521979910E-01  0.51100000000E-03 0.  1.
         11    1    4    4    0    0  0.73747418884E-02  0.36374423676E-01 -0.51607395474E-01  0.63569410130E-01  0.51100000000E-03 0. -1.
</event>
<event>
 8    1  0.1161271E+005  0.1043930E+01  0.7957747E-01            NaN
         13   -1    0    0    0    0  0.00000000000E+00  0.00000000000E+00  0.74505805969E-08  0.10566000000E+00  0.10566000000E+00 0.  1.
     999900   -1    0    0    0    0 -0.00000000000E+00 -0.00000000000E+00 -0.74505805969E-08  0.93827000000E+00  0.93827000000E+00 0. -1.
     999902    2    1    2    0    0  0.99124244901E-02  0.20718763914E-01 -0.87252460531E-02  0.10193606440E+01  0.10190645069E+01 0.  0.
     999903    2    3    3    0    0  0.65628894340E-01  0.96729686784E-01  0.57867681574E-01  0.13182664269E+00  0.19126188174E-01 0.  0.
         14    1    1    2    0    0 -0.99124244901E-02 -0.20718763914E-01  0.87252460531E-02  0.24569356037E-01  0.00000000000E+00 0.  1.
     999901    1    3    3    0    0 -0.55716469850E-01 -0.76010922870E-01 -0.66592927628E-01  0.88753400127E+00  0.88000000000E+00 0. -1.
        -11    1    4    4    0    0  0.44818464271E-01  0.58479675761E-01  0.45338283996E-01  0.86512359425E-01  0.51100000000E-03 0. -1.
         11    1    4    4    0    0  0.20810430069E-01  0.38250011024E-01  0.12529397579E-01  0.45314283263E-01  0.51100000000E-03 0.  1.
</event>
<event>
 8    1  0.1161271E+005  0.1043930E+01  0.7957747E-01            NaN
         13   -1    0    0    0    0  0.00000000000E+00  0.00000000000E+00  0.74505805969E-08  0.10566000000E+00  0.10566000000E+00 0.  1.
     999900   -1    0    0    0    0 -0.00000000000E+00 -0.00000000000E+00 -0.74505805969E-08  0.93827000000E+00  0.93827000000E+00 0.  1.
     999902    2    1    2    0    0 -0.26462895714E-02 -0.16979543239E-01 -0.15883988165E-01  0.10205289569E+01  0.10202606251E+01 0.  0.
     999903    2    3    3    0    0  0.10249354319E+00  0.10675614256E-01 -0.79179318374E-01  0.13158267565E+00  0.20633490647E-01 0.  0.
         14    1    1    2    0    0  0.26462895714E-02  0.16979543239E-01  0.15883988165E-01  0.23401043078E-01  0.00000000000E+00 0.  1.
     999901    1    3    3    0    0 -0.10513983276E+00 -0.27655157495E-01  0.63295330209E-01  0.88894628128E+00  0.88000000000E+00 0. -1.
        -11    1    4    4    0    0  0.74913584597E-01  0.13921935011E-01 -0.49132692450E-01  0.90665031958E-01  0.51100000000E-03 0. -1.
         11    1    4    4    0    0  0.27579958594E-01 -0.32463207552E-02 -0.30046625924E-01  0.40917643687E-01  0.51100000000E-03 0.  1.
</event>
<event>
 8    1  0.1161271E+005  0.1043930E+01  0.7957747E-01            NaN
         13   -1    0    0    0    0  0.00000000000E+00  0.00000000000E+00  0.74505805969E-08  0.10566000000E+00  0.10566000000E+00 0. -1.
     999900   -1    0    0    0    0 -0.00000000000E+00 -0.00000000000E+00 -0.74505805969E-08  0.93827000000E+00  0.93827000000E+00 0. -1.
     999902    2    1    2    0    0 -0.15774823056E-01  0.55740349471E-02 -0.17353752598E-01  0.10198246554E+01  0.10195397296E+01 0.  0.
     999903    2    3    3    0    0 -0.72577511989E-01 -0.19156921214E-01 -0.10791443850E+00  0.13301046773E+00  0.20292254958E-01 0.  0.
         14    1    1    2    0    0  0.15774823056E-01 -0.55740349471E-02  0.17353752598E-01  0.24105344579E-01  0.00000000000E+00 0. -1.
     999901    1    3    3    0    0  0.56802688933E-01  0.24730956161E-01  0.90560685904E-01  0.88681418769E+00  0.88000000000E+00 0.  1.
        -11    1    4    4    0    0 -0.30751463418E-01  0.19539288572E-02 -0.39791411688E-01  0.50329791431E-01  0.51100000000E-03 0.  1.
         11    1    4    4    0    0 -0.41826048571E-01 -0.21110850071E-01 -0.68123026814E-01  0.82680676297E-01  0.51100000000E-03 0. -1.
</event>
<event>
 8    1  0.1161271E+005  0.1043930E+01  0.7957747E-01            NaN
         13   -1    0    0    0    0  0.00000000000E+00  0.00000000000E+00  0.74505805969E-08  0.10566000000E+00  0.10566000000E+00 0. -1.
     999900   -1    0    0    0    0 -0.00000000000E+00 -0.00000000000E+00 -0.74505805969E-08  0.93827000000E+00  0.93827000000E+00 0.  1.
     999902    2    1    2    0    0 -0.22005967612E-01 -0.90495787274E-02 -0.21718549411E-02  0.10200370211E+01  0.10197571525E+01 0.  0.
     999903    2    3    3    0    0 -0.10713075205E+00 -0.76224614310E-01  0.88651942670E-02  0.13331241292E+00  0.20159809234E-01 0.  0.
         14    1    1    2    0    0  0.22005967612E-01  0.90495787274E-02  0.21718549411E-02  0.23892978876E-01  0.00000000000E+00 0. -1.
     999901    1    3    3    0    0  0.85124784440E-01  0.67175035583E-01 -0.11037049208E-01  0.88672460820E+00  0.88000000000E+00 0.  1.
        -11    1    4    4    0    0 -0.77734435858E-01 -0.64751255100E-01  0.30252622418E-02  0.10121650502E+00  0.51100000000E-03 0.  1.
         11    1    4    4    0    0 -0.29396316194E-01 -0.11473359210E-01  0.58399320252E-02  0.32095907907E-01  0.51100000000E-03 0. -1.
</event>
<event>
 8    1  0.1161271E+005  0.1043930E+01  0.7957747E-01            NaN
         13   -1    0    0    0    0  0.00000000000E+00  0.00000000000E+00  0.74505805969E-08  0.10566000000E+00  0.10566000000E+00 0. -1.
     999900   -1    0    0    0    0 -0.00000000000E+00 -0.00000000000E+00 -0.74505805969E-08  0.93827000000E+00  0.93827000000E+00 0.  1.
     999902    2    1    2    0    0  0.20696938852E-01 -0.10726581481E-01  0.45274502311E-02  0.10201829868E+01  0.10199065673E+01 0.  0.
     999903    2    3    3    0    0 -0.80508995284E-01 -0.89733629997E-01  0.44277226775E-01  0.12997806687E+00  0.20000059539E-01 0.  0.
         14    1    1    2    0    0 -0.20696938852E-01  0.10726581481E-01 -0.45274502311E-02  0.23747013154E-01  0.00000000000E+00 0.  1.
     999901    1    3    3    0    0  0.10120593414E+00  0.79007048516E-01 -0.39749776544E-01  0.89020491998E+00  0.88000000000E+00 0.  1.
        -11    1    4    4    0    0 -0.36713560707E-01 -0.34060831012E-01  0.91549289971E-02  0.50912666351E-01  0.51100000000E-03 0.  1.
         11    1    4    4    0    0 -0.43795434577E-01 -0.55672798985E-01  0.35122297778E-01  0.79065400516E-01  0.51100000000E-03 0. -1.
</event>
<event>
 8    1  0.1161271E+005  0.1043930E+01  0.7957747E-01            NaN
         13   -1    0    0    0    0  0.00000000000E+00  0.00000000000E+00  0.74505805969E-08  0.10566000000E+00  0.10566000000E+00 0. -1.
     999900   -1    0    0    0    0 -0.00000000000E+00 -0.00000000000E+00 -0.74505805969E-08  0.93827000000E+00  0.93827000000E+00 0.  1.
     999902    2    1    2    0    0  0.64983015931E-02 -0.21693045527E-01 -0.88727387478E-02  0.10196083709E+01  0.10193182469E+01 0.  0.
     999903    2    3    3    0    0  0.43162410029E-01  0.83752960365E-01  0.83677111676E-01  0.12774033595E+00  0.20932806794E-01 0.  0.
         14    1    1    2    0    0 -0.64983015931E-02  0.21693045527E-01  0.88727387478E-02  0.24321629072E-01  0.00000000000E+00 0. -1.
     999901    1    3    3    0    0 -0.36664108436E-01 -0.10544600589E+00 -0.92549850424E-01  0.89186803498E+00  0.88000000000E+00 0.  1.
        -11    1    4    4    0    0  0.38357235978E-01  0.74891781492E-01  0.64328089482E-01  0.10591704633E+00  0.51100000000E-03 0. -1.
         11    1    4    4    0    0  0.48051740510E-02  0.88611788733E-02  0.19349022194E-01  0.21823289613E-01  0.51100000000E-03 0.  1.
</event>
<event>
 8    1  0.1161271E+005  0.1043930E+01  0.7957747E-01            NaN
         13   -1    0    0    0    0  0.00000000000E+00  0.00000000000E+00  0.74505805969E-08  0.10566000000E+00  0.10566000000E+00 0.  1.
     999900   -1    0    0    0    0 -0.00000000000E+00 -0.00000000000E+00 -0.74505805969E-08  0.93827000000E+00  0.93827000000E+00 0. -1.
     999902    2    1    2    0    0  0.23464279605E-01  0.79924735516E-02  0.23535836574E-02  0.10190303734E+01  0.10187261214E+01 0.  0.
     999903    2    3    3    0    0  0.12942487553E+00  0.17635310218E-01  0.11806119279E-01  0.13257113424E+00  0.19336975150E-01 0.  0.
         14    1    1    2    0    0 -0.23464279605E-01 -0.79924735516E-02 -0.23535836574E-02  0.24899626641E-01  0.00000000000E+00 0.  1.
     999901    1    3    3    0    0 -0.10596059593E+00 -0.96428366664E-02 -0.94525356214E-02  0.88645923912E+00  0.88000000000E+00 0.  1.
        -11    1    4    4    0    0  0.56083328209E-01  0.15011668203E-01 -0.10183639012E-02  0.58068821852E-01  0.51100000000E-03 0.  1.
         11    1    4    4    0    0  0.73341547325E-01  0.26236420154E-02  0.12824483180E-01  0.74502312389E-01  0.51100000000E-03 0. -1.
</event>
<event>
 8    1  0.1161271E+005  0.1043930E+01  0.7957747E-01            NaN
         13   -1    0    0    0    0  0.00000000000E+00  0.00000000000E+00  0.74505805969E-08  0.10566000000E+00  0.10566000000E+00 0.  1.
     999900   -1    0    0    0    0 -0.00000000000E+00 -0.00000000000E+00 -0.74505805969E-08  0.93827000000E+00  0.93827000000E+00 0. -1.
     999902    2    1    2    0    0  0.19004703851E-01 -0.80230236817E-02 -0.10203902317E-01  0.10209154981E+01  0.10206560571E+01 0.  0.
     999903    2    3    3    0    0 -0.82868557133E-01  0.31586912533E-01 -0.93130739922E-01  0.13028427878E+00  0.20874093355E-01 0.  0.
         14    1    1    2    0    0 -0.19004703851E-01  0.80230236817E-02  0.10203902317E-01  0.23014501949E-01  0.00000000000E+00 0.  1.
     999901    1    3    3    0    0  0.10187326098E+00 -0.39609936215E-01  0.82926837606E-01  0.89063121927E+00  0.88000000000E+00 0.  1.
        -11    1    4    4    0    0 -0.51558002308E-01  0.87333447855E-02 -0.55518182098E-01  0.76269447209E-01  0.51100000000E-03 0. -1.
         11    1    4    4    0    0 -0.31310554824E-01  0.22853567748E-01 -0.37612557824E-01  0.54014831568E-01  0.51100000000E-03 0.  1.
</event>
<event>
 8    1  0.1161271E+005  0.1043930E+01  0.7957747E-01            NaN
         13   -1    0    0    0    0  0.00000000000E+00  0.00000000000E+00  0.74505805969E-08  0.10566000000E+00  0.10566000000E+00 0. -1.
     999900   -1    0    0    0    0 -0.00000000000E+00 -0.00000000000E+00 -0.74505805969E-08  0.93827000000E+00  0.93827000000E+00 0.  1.
     999902    2    1    2    0    0  0.11710750170E-01 -0.98471810070E-02 -0.19642134002E-01  0.10190317657E+01  0.10187275482E+01 0.  0.
     999903    2    3    3    0    0 -0.33524580465E-01 -0.53526433138E-01  0.10912873398E+00  0.12743990355E+00  0.18516800423E-01 0.  0.
         14    1    1    2    0    0 -0.11710750170E-01  0.98471810070E-02  0.19642134002E-01  0.24898234304E-01  0.00000000000E+00 0. -1.
     999901    1    3    3    0    0  0.45235330635E-01  0.43679252132E-01 -0.12877086798E+00  0.89159186215E+00  0.88000000000E+00 0.  1.
        -11    1    4    4    0    0 -0.11229180682E-01 -0.72518550385E-02  0.32932597240E-01  0.35545758991E-01  0.51100000000E-03 0.  1.
         11    1    4    4    0    0 -0.22295399783E-01 -0.46274578100E-01  0.76196136736E-01  0.91894144559E-01  0.51100000000E-03 0. -1.
</event>
<event>
 8    1  0.1592457E+005  0.1043930E+01  0.7957747E-01            NaN
         13   -1    0    0    0    0  0.00000000000E+00  0.00000000000E+00  0.74505805969E-08  0.10566000000E+00  0.10566000000E+00 0. -1.
     999900   -1    0    0    0    0 -0.00000000000E+00 -0.00000000000E+00 -0.74505805969E-08  0.93827000000E+00  0.93827000000E+00 0.  1.
     999902    2    1    2    0    0 -0.72930832489E-03  0.14393294775E-02  0.23729579070E-01  0.10201456252E+01  0.10198683249E+01 0.  0.
     999903    2    3    3    0    0 -0.10786477757E+00 -0.32982348704E-01 -0.58682129991E-01  0.12916046796E+00  0.22719782932E-01 0.  0.
         14    1    1    2    0    0  0.72930832489E-03 -0.14393294775E-02 -0.23729579070E-01  0.23784374762E-01  0.00000000000E+00 0.  1.
     999901    1    3    3    0    0  0.10713546925E+00  0.34421678181E-01  0.82411709061E-01  0.89098515728E+00  0.88000000000E+00 0. -1.
        -11    1    4    4    0    0 -0.53476848864E-01 -0.48567364126E-02 -0.30470171290E-01  0.61741831139E-01  0.51100000000E-03 0.  1.
         11    1    4    4    0    0 -0.54387928709E-01 -0.28125612291E-01 -0.28211958701E-01  0.67418636821E-01  0.51100000000E-03 0. -1.
</event>
<event>
 8    1  0.1161271E+005  0.1043930E+01  0.7957747E-01            NaN
         13   -1    0    0    0    0  0.00000000000E+00  0.00000000000E+00  0.74505805969E-08  0.10566000000E+00  0.10566000000E+00 0. -1.
     999900   -1    0    0    0    0 -0.00000000000E+00 -0.00000000000E+00 -0.74505805969E-08  0.93827000000E+00  0.93827000000E+00 0.  1.
     999902    2    1    2    0    0  0.49051739902E-03  0.13071120364E-01  0.19500476038E-01  0.10204488722E+01  0.10201786792E+01 0.  0.
     999903    2    3    3    0    0 -0.16590510294E-01  0.10175405831E+00  0.81998504804E-01  0.13362170273E+00  0.22402482815E-01 0.  0.
         14    1    1    2    0    0 -0.49051739902E-03 -0.13071120364E-01 -0.19500476038E-01  0.23481127754E-01  0.00000000000E+00 0.  1.
     999901    1    3    3    0    0  0.17081027693E-01 -0.88682937947E-01 -0.62498028765E-01  0.88682716951E+00  0.88000000000E+00 0.  1.
        -11    1    4    4    0    0 -0.20454489495E-01  0.58197135522E-01  0.50590304422E-01  0.79780528615E-01  0.51100000000E-03 0.  1.
         11    1    4    4    0    0  0.38639792011E-02  0.43556922788E-01  0.31408200381E-01  0.53841174116E-01  0.51100000000E-03 0. -1.
</event>
<event>
 8    1  0.1161271E+005  0.1043930E+01  0.7957747E-01            NaN
         13   -1    0    0    0    0  0.00000000000E+00  0.00000000000E+00  0.74505805969E-08  0.10566000000E+00  0.10566000000E+00 0.  1.
     999900   -1    0    0    0    0 -0.00000000000E+00 -0.00000000000E+00 -0.74505805969E-08  0.93827000000E+00  0.93827000000E+00 0. -1.
     999902    2    1    2    0    0 -0.55729638522E-02 -0.21889573406E-01 -0.81438809781E-02  0.10199188745E+01  0.10196361981E+01 0.  0.
     999903    2    3    3    0    0 -0.11542217051E+00 -0.15789008318E-01  0.55718645624E-01  0.13077181839E+00  0.20618699903E-01 0.  0.
         14    1    1    2    0    0  0.55729638522E-02  0.21889573406E-01  0.81438809781E-02  0.24011125492E-01  0.00000000000E+00 0. -1.
     999901    1    3    3    0    0  0.10984920666E+00 -0.61005650876E-02 -0.63862526602E-01  0.88914705612E+00  0.88000000000E+00 0. -1.
        -11    1    4    4    0    0 -0.33508676299E-01  0.34611103351E-02  0.21292888654E-01  0.39855475160E-01  0.51100000000E-03 0. -1.
         11    1    4    4    0    0 -0.81913494214E-01 -0.19250118653E-01  0.34425756971E-01  0.90916343231E-01  0.51100000000E-03 0.  1.
</event>
<event>
 8    1  0.1161271E+005  0.1043930E+01  0.7957747E-01            NaN
         13   -1    0    0    0    0  0.00000000000E+00  0.00000000000E+00  0.74505805969E-08  0.10566000000E+00  0.10566000000E+00 0. -1.
     999900   -1    0    0    0    0 -0.00000000000E+00 -0.00000000000E+00 -0.74505805969E-08  0.93827000000E+00  0.93827000000E+00 0.  1.
     999902    2    1    2    0    0  0.24077122475E-01  0.62658665431E-02  0.23930673348E-02  0.10189360871E+01  0.10186294979E+01 0.  0.
     999903    2    3    3    0    0 -0.11635265486E+00 -0.25496920865E-01 -0.37640935424E-01  0.12633756683E+00  0.18876109410E-01 0.  0.
         14    1    1    2    0    0 -0.24077122475E-01 -0.62658665431E-02 -0.23930673348E-02  0.24993912889E-01  0.00000000000E+00 0. -1.
     999901    1    3    3    0    0  0.14042977734E+00  0.31762787409E-01  0.40034002759E-01  0.89259852028E+00  0.88000000000E+00 0. -1.
        -11    1    4    4    0    0 -0.20521814107E-01 -0.10254043150E-01 -0.22846647242E-02  0.23060161948E-01  0.51100000000E-03 0.  1.
         11    1    4    4    0    0 -0.95830840755E-01 -0.15242877716E-01 -0.35356270700E-01  0.10327740488E+00  0.51100000000E-03 0. -1.
</event>
<event>
 8    1  0.1161271E+005  0.1043930E+01  0.7957747E-01            NaN
         13   -1    0    0    0    0  0.00000000000E+00  0.00000000000E+00  0.74505805969E-08  0.10566000000E+00  0.10566000000E+00 0.  1.
     999900   -1    0    0    0    0 -0.00000000000E+00 -0.00000000000E+00 -0.74505805969E-08  0.93827000000E+00  0.93827000000E+00 0. -1.
     999902    2    1    2    0    0 -0.65641772858E-02 -0.22707514244E-01 -0.32169192368E-02  0.10200748497E+01  0.10197958770E+01 0.  0.
     999903    2    3    3    0    0  0.46828523797E-01 -0.58974144210E-01 -0.10620219581E+00  0.13172130737E+00  0.20018393894E-01 0.  0.
         14    1    1    2    0    0  0.65641772858E-02  0.22707514244E-01  0.32169192368E-02  0.23855150302E-01  0.00000000000E+00 0. -1.
     999901    1    3    3    0    0 -0.53392701083E-01  0.36266629966E-01  0.10298527657E+00  0.88835354233E+00  0.88000000000E+00 0.  1.
        -11    1    4    4    0    0  0.23148975288E-01 -0.19925486774E-01 -0.29588930662E-01  0.42528414252E-01  0.51100000000E-03 0. -1.
         11    1    4    4    0    0  0.23679548509E-01 -0.39048657435E-01 -0.76613265147E-01  0.89192893117E-01  0.51100000000E-03 0.  1.
</event>
<event>
 8    1  0.1161271E+005  0.1043930E+01  0.7957747E-01            NaN
         13   -1    0    0    0    0  0.00000000000E+00  0.00000000000E+00  0.74505805969E-08  0.10566000000E+00  0.10566000000E+00 0. -1.
     999900   -1    0    0    0    0 -0.00000000000E+00 -0.00000000000E+00 -0.74505805969E-08  0.93827000000E+00  0.93827000000E+00 0.  1.
     999902    2    1    2    0    0 -0.17269774723E-01  0.11514014582E-02 -0.16294639561E-01  0.10201584598E+01  0.10198814622E+01 0.  0.
     999903    2    3    3    0    0  0.90197187640E-01  0.88303574241E-01  0.19807997832E-01  0.12861594841E+00  0.14719087101E-01 0.  0.
         14    1    1    2    0    0  0.17269774723E-01 -0.11514014582E-02  0.16294639561E-01  0.23771540184E-01  0.00000000000E+00 0.  1.
     999901    1    3    3    0    0 -0.10746696236E+00 -0.87152172782E-01 -0.36102637394E-01  0.89154251141E+00  0.88000000000E+00 0. -1.
        -11    1    4    4    0    0  0.20056038614E-01  0.25010863442E-01  0.10222561919E-01  0.33653378259E-01  0.51100000000E-03 0.  1.
         11    1    4    4    0    0  0.70141149026E-01  0.63292710798E-01  0.95854359130E-02  0.94962570150E-01  0.51100000000E-03 0. -1.
</event>
<event>
 8    1  0.1161271E+005  0.1043930E+01  0.7957747E-01            NaN
         13   -1    0    0    0    0  0.00000000000E+00  0.00000000000E+00  0.74505805969E-08  0.10566000000E+00  0.10566000000E+00 0.  1.
     999900   -1    0    0    0    0 -0.00000000000E+00 -0.00000000000E+00 -0.74505805969E-08  0.93827000000E+00  0.93827000000E+00 0. -1.
     999902    2    1    2    0    0 -0.29824986153E-02 -0.35610556532E-02 -0.23379205047E-01  0.10200938165E+01  0.10198152925E+01 0.  0.
     999903    2    3    3    0    0  0.25172469266E-01 -0.84644917410E-02 -0.12910719475E+00  0.13330457789E+00  0.19903314290E-01 0.  0.
         14    1    1    2    0    0  0.29824986153E-02  0.35610556532E-02  0.23379205047E-01  0.23836183503E-01  0.00000000000E+00 0.  1.
     999901    1    3    3    0    0 -0.28154967881E-01  0.49034360877E-02  0.10572798971E+00  0.88678923861E+00  0.88000000000E+00 0.  1.
        -11    1    4    4    0    0  0.25989177150E-01 -0.25802752589E-02 -0.88922032356E-01  0.92679469726E-01  0.51100000000E-03 0.  1.
         11    1    4    4    0    0 -0.81670788378E-03 -0.58842164820E-02 -0.40185162398E-01  0.40625108164E-01  0.51100000000E-03 0. -1.
</event>
<event>
 8    1  0.1161271E+005  0.1043930E+01  0.7957747E-01            NaN
         13   -1    0    0    0    0  0.00000000000E+00  0.00000000000E+00  0.74505805969E-08  0.10566000000E+00  0.10566000000E+00 0.  1.
     999900   -1    0    0    0    0 -0.00000000000E+00 -0.00000000000E+00 -0.74505805969E-08  0.93827000000E+00  0.93827000000E+00 0.  1.
     999902    2    1    2    0    0 -0.11272489935E-01  0.19577901661E-01  0.34527090401E-02  0.10210764562E+01  0.10208206723E+01 0.  0.
     999903    2    3    3    0    0  0.25051519615E-02  0.12980946062E+00 -0.24494504706E-01  0.13365216833E+00  0.20153150764E-01 0.  0.
         14    1    1    2    0    0  0.11272489935E-01 -0.19577901661E-01 -0.34527090401E-02  0.22853543762E-01  0.00000000000E+00 0.  1.
     999901    1    3    3    0    0 -0.13777641897E-01 -0.11023155896E+00  0.27947213746E-01  0.88742428790E+00  0.88000000000E+00 0.  1.
        -11    1    4    4    0    0 -0.25815486559E-02  0.28053709838E-01  0.23978087423E-02  0.28278713494E-01  0.51100000000E-03 0. -1.
         11    1    4    4    0    0  0.50867006174E-02  0.10175575079E+00 -0.26892313449E-01  0.10537345484E+00  0.51100000000E-03 0.  1.
</event>
<event>
 8    1  0.1161271E+005  0.1043930E+01  0.7957747E-01            NaN
         13   -1    0    0    0    0  0.00000000000E+00  0.00000000000E+00  0.74505805969E-08  0.10566000000E+00  0.10566000000E+00 0.  1.
     999900   -1    0    0    0    0 -0.00000000000E+00 -0.00000000000E+00 -0.74505805969E-08  0.93827000000E+00  0.93827000000E+00 0.  1.
     999902    2    1    2    0    0 -0.11339014320E-01  0.15677536271E-01  0.12307352137E-01  0.10209990317E+01  0.10207414920E+01 0.  0.
     999903    2    3    3    0    0 -0.70918740058E-01  0.69145635627E-01  0.88063317194E-01  0.13412387275E+00  0.20578600263E-01 0.  0.
         14    1    1    2    0    0  0.11339014320E-01 -0.15677536271E-01 -0.12307352137E-01  0.22930968272E-01  0.00000000000E+00 0. -1.
     999901    1    3    3    0    0  0.59579725738E-01 -0.53468099356E-01 -0.75755965058E-01  0.88687515898E+00  0.88000000000E+00 0.  1.
        -11    1    4    4    0    0 -0.29093707849E-01  0.18744181450E-01  0.39920698773E-01  0.52836649081E-01  0.51100000000E-03 0.  1.
         11    1    4    4    0    0 -0.41825032209E-01  0.50401454177E-01  0.48142618422E-01  0.81287223670E-01  0.51100000000E-03 0. -1.
</event>
<event>
 8    1  0.1161271E+005  0.1043930E+01  0.7957747E-01            NaN
         13   -1    0    0    0    0  0.00000000000E+00  0.00000000000E+00  0.74505805969E-08  0.10566000000E+00  0.10566000000E+00 0.  1.
     999900   -1    0    0    0    0 -0.00000000000E+00 -0.00000000000E+00 -0.74505805969E-08  0.93827000000E+00  0.93827000000E+00 0.  1.
     999902    2    1    2    0    0 -0.21431803856E-01  0.36277972265E-02 -0.70943794414E-02  0.10210648880E+01  0.10208088421E+01 0.  0.
     999903    2    3    3    0    0 -0.54799579327E-01  0.38216540352E-01  0.11286140960E+00  0.13162732358E+00  0.11160496630E-01 0.  0.
         14    1    1    2    0    0  0.21431803856E-01 -0.36277972265E-02  0.70943794414E-02  0.22865112046E-01  0.00000000000E+00 0. -1.
     999901    1    3    3    0    0  0.33367775471E-01 -0.34588743126E-01 -0.11995578904E+00  0.88943756437E+00  0.88000000000E+00 0.  1.
        -11    1    4    4    0    0 -0.39857576822E-01  0.22421233367E-01  0.81645220529E-01  0.93581735889E-01  0.51100000000E-03 0.  1.
         11    1    4    4    0    0 -0.14942002504E-01  0.15795306985E-01  0.31216189073E-01  0.38045587692E-01  0.51100000000E-03 0. -1.
</event>
<event>
 8    1  0.1161271E+005  0.1043930E+01  0.7957747E-01            NaN
         13   -1    0    0    0    0  0.00000000000E+00  0.00000000000E+00  0.74505805969E-08  0.10566000000E+00  0.10566000000E+00 0. -1.
     999900   -1    0    0    0    0 -0.00000000000E+00 -0.00000000000E+00 -0.74505805969E-08  0.93827000000E+00  0.93827000000E+00 0.  1.
     999902    2    1    2    0    0  0.14138490482E-01 -0.12725430801E-01 -0.12790914847E-01  0.10210075000E+01  0.10207501526E+01 0.  0.
     999903    2    3    3    0    0  0.29954757092E-01  0.13653803522E-01 -0.12737187153E+00  0.13304645701E+00  0.19850749189E-01 0.  0.
         14    1    1    2    0    0 -0.14138490482E-01  0.12725430801E-01  0.12790914847E-01  0.22922499969E-01  0.00000000000E+00 0. -1.
     999901    1    3    3    0    0 -0.15816266611E-01 -0.26379234323E-01  0.11458095668E+00  0.88796104302E+00  0.88000000000E+00 0. -1.
        -11    1    4    4    0    0  0.11416378201E-01 -0.36436167369E-02 -0.56897548159E-01  0.58148101789E-01  0.51100000000E-03 0.  1.
         11    1    4    4    0    0  0.18538378892E-01  0.17297420259E-01 -0.70474323367E-01  0.74898355219E-01  0.51100000000E-03 0. -1.
</event>
<event>
 8    1  0.1161271E+005  0.1043930E+01  0.7957747E-01            NaN
         13   -1    0    0    0    0  0.00000000000E+00  0.00000000000E+00  0.74505805969E-08  0.10566000000E+00  0.10566000000E+00 0. -1.
     999900   -1    0    0    0    0 -0.00000000000E+00 -0.00000000000E+00 -0.74505805969E-08  0.93827000000E+00  0.93827000000E+00 0. -1.
     999902    2    1    2    0    0  0.70966360691E-02  0.18241280109E-01 -0.15023050982E-01  0.10192561555E+01  0.10189574632E+01 0.  0.
     999903    2    3    3    0    0 -0.25247449254E-01 -0.11314040754E+00 -0.50354657151E-01  0.12821428770E+00  0.21566793009E-01 0.  0.
         14    1    1    2    0    0 -0.70966360691E-02 -0.18241280109E-01  0.15023050982E-01  0.24673844539E-01  0.00000000000E+00 0. -1.
     999901    1    3    3    0    0  0.32344085323E-01  0.13138168765E+00  0.35331606169E-01  0.89104186776E+00  0.88000000000E+00 0.  1.
        -11    1    4    4    0    0 -0.17618947636E-01 -0.96342355844E-01 -0.49496828652E-01  0.10973820671E+00  0.51100000000E-03 0.  1.
         11    1    4    4    0    0 -0.76285016179E-02 -0.16798051701E-01 -0.85782849867E-03  0.18476080986E-01  0.51100000000E-03 0. -1.
</event>
<event>
 8    1  0.1161271E+005  0.1043930E+01  0.7957747E-01            NaN
         13   -1    0    0    0    0  0.00000000000E+00  0.00000000000E+00  0.74505805969E-08  0.10566000000E+00  0.10566000000E+00 0. -1.
     999900   -1    0    0    0    0 -0.00000000000E+00 -0.00000000000E+00 -0.74505805969E-08  0.93827000000E+00  0.93827000000E+00 0.  1.
     999902    2    1    2    0    0  0.25182731154E-02 -0.17243086502E-01  0.17264352442E-01  0.10193999450E+01  0.10191047661E+01 0.  0.
     999903    2    3    3    0    0 -0.11824923032E+00  0.69839630117E-02 -0.45701894484E-01  0.12859329481E+00  0.20394021195E-01 0.  0.
         14    1    1    2    0    0 -0.25182731154E-02  0.17243086502E-01 -0.17264352442E-01  0.24530054970E-01  0.00000000000E+00 0.  1.
     999901    1    3    3    0    0  0.12076750344E+00 -0.24227049514E-01  0.62966246926E-01  0.89080665021E+00  0.88000000000E+00 0. -1.
        -11    1    4    4    0    0 -0.38092019062E-01  0.61157453509E-02 -0.56952344351E-02  0.39001295795E-01  0.51100000000E-03 0. -1.
         11    1    4    4    0    0 -0.80157211262E-01  0.86821766083E-03 -0.40006660049E-01  0.89591999020E-01  0.51100000000E-03 0.  1.
</event>
<event>
 8    1  0.1161271E+005  0.1043930E+01  0.7957747E-01            NaN
         13   -1    0    0    0    0  0.00000000000E+00  0.00000000000E+00  0.74505805969E-08  0.10566000000E+00  0.10566000000E+00 0.  1.
     999900   -1    0    0    0    0 -0.00000000000E+00 -0.00000000000E+00 -0.74505805969E-08  0.93827000000E+00  0.93827000000E+00 0. -1.
     999902    2    1    2    0    0  0.12523639846E-01 -0.55459418518E-02  0.19781835594E-01  0.10198692426E+01  0.10195853824E+01 0.  0.
     999903    2    3    3    0    0  0.53656395428E-01  0.82092286731E-01  0.86177172553E-01  0.13207382505E+00  0.19970925967E-01 0.  0.
         14    1    1    2    0    0 -0.12523639846E-01  0.55459418518E-02 -0.19781835594E-01  0.24060757376E-01  0.00000000000E+00 0. -1.
     999901    1    3    3    0    0 -0.41132755581E-01 -0.87638228583E-01 -0.66395336959E-01  0.88779541757E+00  0.88000000000E+00 0. -1.
        -11    1    4    4    0    0  0.25900495097E-01  0.50049752602E-01  0.59655154386E-01  0.82065900029E-01  0.51100000000E-03 0.  1.
         11    1    4    4    0    0  0.27755900330E-01  0.32042534128E-01  0.26522018167E-01  0.50007925024E-01  0.51100000000E-03 0. -1.
</event>
<event>
 8    1  0.1161271E+005  0.1043930E+01  0.7957747E-01            NaN
         13   -1    0    0    0    0  0.00000000000E+00  0.00000000000E+00  0.74505805969E-08  0.10566000000E+00  0.10566000000E+00 0.  1.
     999900   -1    0    0    0    0 -0.00000000000E+00 -0.00000000000E+00 -0.74505805969E-08  0.93827000000E+00  0.93827000000E+00 0.  1.
     999902    2    1    2    0    0  0.20288134817E-01 -0.63428879578E-02  0.92866872102E-02  0.10207333795E+01  0.10204697687E+01 0.  0.
     999903    2    3    3    0    0  0.99533693623E-02  0.92845899823E-01 -0.88001416494E-01  0.12977311211E+00  0.19426287493E-01 0.  0.
         14    1    1    2    0    0 -0.20288134817E-01  0.63428879578E-02 -0.92866872102E-02  0.23196620472E-01  0.00000000000E+00 0. -1.
     999901    1    3    3    0    0  0.10334765454E-01 -0.99188787781E-01  0.97288103704E-01  0.89096026742E+00  0.88000000000E+00 0. -1.
        -11    1    4    4    0    0  0.81732881777E-02  0.20036058468E-01 -0.13109788228E-01  0.25305610978E-01  0.51100000000E-03 0. -1.
         11    1    4    4    0    0  0.17800811846E-02  0.72809841354E-01 -0.74891628266E-01  0.10446750113E+00  0.51100000000E-03 0.  1.
</event>
<event>
 8    1  0.1161271E+005  0.1043930E+01  0.7957747E-01            NaN
         13   -1    0    0    0    0  0.00000000000E+00  0.00000000000E+00  0.74505805969E-08  0.10566000000E+00  0.10566000000E+00 0. -1.
     999900   -1    0    0    0    0 -0.00000000000E+00 -0.00000000000E+00 -0.74505805969E-08  0.93827000000E+00  0.93827000000E+00 0. -1.
     999902    2    1    2    0    0  0.13696797143E-01 -0.58035123543E-02 -0.17452315746E-01  0.10209982244E+01  0.10207406663E+01 0.  0.
     999903    2    3    3    0    0 -0.65958174632E-01  0.36440303092E-01 -0.10646776468E+00  0.13192387170E+00  0.19752126937E-01 0.  0.
         14    1    1    2    0    0 -0.13696797143E-01  0.58035123543E-02  0.17452315746E-01  0.22931775607E-01  0.00000000000E+00 0.  1.
     999901    1    3    3    0    0  0.79654971775E-01 -0.42243815446E-01  0.89015448930E-01  0.88907435270E+00  0.88000000000E+00 0.  1.
        -11    1    4    4    0    0 -0.53707432101E-01  0.26505024519E-01 -0.69614480617E-01  0.91833771675E-01  0.51100000000E-03 0. -1.
         11    1    4    4    0    0 -0.12250742532E-01  0.99352785728E-02 -0.36853284059E-01  0.40090100022E-01  0.51100000000E-03 0.  1.
</event>
<event>
 8    1  0.1161271E+005  0.1043930E+01  0.7957747E-01            NaN
         13   -1    0    0    0    0  0.00000000000E+00  0.00000000000E+00  0.74505805969E-08  0.10566000000E+00  0.10566000000E+00 0. -1.
     999900   -1    0    0    0    0 -0.00000000000E+00 -0.00000000000E+00 -0.74505805969E-08  0.93827000000E+00  0.93827000000E+00 0. -1.
     999902    2    1    2    0    0 -0.12149790289E-01  0.17181058770E-01 -0.11921667771E-01  0.10197446253E+01  0.10194577817E+01 0.  0.
     999903    2    3    3    0    0 -0.11346653883E+00 -0.14930278066E-01  0.59842564068E-01  0.13044921523E+00  0.18392842182E-01 0.  0.
         14    1    1    2    0    0  0.12149790289E-01 -0.17181058770E-01  0.11921667771E-01  0.24185374651E-01  0.00000000000E+00 0.  1.
     999901    1    3    3    0    0  0.10131674854E+00  0.32111336836E-01 -0.71764231840E-01  0.88929541012E+00  0.88000000000E+00 0. -1.
        -11    1    4    4    0    0 -0.14135695880E-01  0.35747925843E-02  0.10690310302E-01  0.18087036667E-01  0.51100000000E-03 0.  1.
         11    1    4    4    0    0 -0.99330842946E-01 -0.18505070650E-01  0.49152253767E-01  0.11236217856E+00  0.51100000000E-03 0. -1.
</event>
<event>
 8    1  0.1161271E+005  0.1043930E+01  0.7957747E-01            NaN
         13   -1    0    0    0    0  0.00000000000E+00  0.00000000000E+00  0.74505805969E-08  0.10566000000E+00  0.10566000000E+00 0.  1.
     999900   -1    0    0    0    0 -0.00000000000E+00 -0.00000000000E+00 -0.74505805969E-08  0.93827000000E+00  0.93827000000E+00 0.  1.
     999902    2    1    2    0    0  0.75623948520E-02 -0.35948454860E-02  0.22085524137E-01  0.10203104508E+01  0.10200370252E+01 0.  0.
     999903    2    3    3    0    0 -0.12301247825E+00  0.93295910692E-02 -0.31670630199E-01  0.12895947461E+00  0.20209062316E-01 0.  0.
         14    1    1    2    0    0 -0.75623948520E-02  0.35948454860E-02 -0.22085524137E-01  0.23619549242E-01  0.00000000000E+00 0. -1.
     999901    1    3    3    0    0  0.13057487311E+00 -0.12924436555E-01  0.53756154336E-01  0.89135097615E+00  0.88000000000E+00 0.  1.
        -11    1    4    4    0    0 -0.61755210867E-01  0.20963415322E-02 -0.25913292073E-01  0.67006421663E-01  0.51100000000E-03 0.  1.
         11    1    4    4    0    0 -0.61257267386E-01  0.72332495370E-02 -0.57573381261E-02  0.61953052949E-01  0.51100000000E-03 0. -1.
</event>
<event>
 8    1  0.1161271E+005  0.1043930E+01  0.7957747E-01            NaN
         13   -1    0    0    0    0  0.00000000000E+00  0.00000000000E+00  0.74505805969E-08  0.10566000000E+00  0.10566000000E+00 0. -1.
     999900   -1    0    0    0    0 -0.00000000000E+00 -0.00000000000E+00 -0.74505805969E-08  0.93827000000E+00  0.93827000000E+00 0.  1.
     999902    2    1    2    0    0 -0.20666843453E-01  0.47377725032E-02 -0.29979179747E-01  0.10072105756E+01  0.10065410213E+01 0.  0.
     999903    2    3    3    0    0 -0.91713139477E-01 -0.88092459343E-02 -0.79017899236E-01  0.12288264219E+00  0.19168009399E-01 0.  0.
         14    1    1    2    0    0  0.20666843453E-01 -0.47377725032E-02  0.29979179747E-01  0.36719424354E-01  0.00000000000E+00 0. -1.
     999901    1    3    3    0    0  0.71046296024E-01  0.13547018438E-01  0.49038719489E-01  0.88432793346E+00  0.88000000000E+00 0. -1.
        -11    1    4    4    0    0 -0.20419334281E-01 -0.94638790470E-02 -0.23267416315E-01  0.32375113931E-01  0.51100000000E-03 0. -1.
         11    1    4    4    0    0 -0.71293805197E-01  0.65463311267E-03 -0.55750482921E-01  0.90507528255E-01  0.51100000000E-03 0.  1.
</event>
<event>
 8    1  0.1161271E+005  0.1043930E+01  0.7957747E-01            NaN
         13   -1    0    0    0    0  0.00000000000E+00  0.00000000000E+00  0.74505805969E-08  0.10566000000E+00  0.10566000000E+00 0. -1.
     999900   -1    0    0    0    0 -0.00000000000E+00 -0.00000000000E+00 -0.74505805969E-08  0.93827000000E+00  0.93827000000E+00 0. -1.
     999902    2    1    2    0    0  0.18632470064E-01 -0.84409175856E-02  0.93152749465E-02  0.10214535150E+01  0.10212061941E+01 0.  0.
     999903    2    3    3    0    0 -0.33303128475E-01 -0.73135170188E-01 -0.10113247198E+00  0.13067780950E+00  0.19775275531E-01 0.  0.
         14    1    1    2    0    0 -0.18632470064E-01  0.84409175856E-02 -0.93152749465E-02  0.22476484994E-01  0.00000000000E+00 0.  1.
     999901    1    3    3    0    0  0.51935598538E-01  0.64694252603E-01  0.11044774693E+00  0.89077570550E+00  0.88000000000E+00 0.  1.
        -11    1    4    4    0    0 -0.22191023408E-01 -0.55642007383E-01 -0.86838061376E-01  0.10549684607E+00  0.51100000000E-03 0.  1.
         11    1    4    4    0    0 -0.11112105067E-01 -0.17493162805E-01 -0.14294410606E-01  0.25180963435E-01  0.51100000000E-03 0. -1.
</event>
<event>
 8    1  0.1161271E+005  0.1043930E+01  0.7957747E-01            NaN
         13   -1    0    0    0    0  0.00000000000E+00  0.00000000000E+00  0.74505805969E-08  0.10566000000E+00  0.10566000000E+00 0.  1.
     999900   -1    0    0    0    0 -0.00000000000E+00 -0.00000000000E+00 -0.74505805969E-08  0.93827000000E+00  0.93827000000E+00 0. -1.
     999902    2    1    2    0    0 -0.25684154728E-02  0.19092353454E-01 -0.14256292018E-01  0.10199642624E+01  0.10196826663E+01 0.  0.
     999903    2    3    3    0    0 -0.94174619359E-01  0.90569357199E-01 -0.23527767053E-02  0.13224676657E+00  0.20297889440E-01 0.  0.
         14    1    1    2    0    0  0.25684154728E-02 -0.19092353454E-01  0.14256292018E-01  0.23965737638E-01  0.00000000000E+00 0.  1.
     999901    1    3    3    0    0  0.91606203886E-01 -0.71477003745E-01 -0.11903515312E-01  0.88771749579E+00  0.88000000000E+00 0.  1.
        -11    1    4    4    0    0 -0.62734999539E-01  0.72739300105E-01 -0.27750770654E-02  0.96097076546E-01  0.51100000000E-03 0.  1.
         11    1    4    4    0    0 -0.31439619820E-01  0.17830057093E-01  0.42230036012E-03  0.36149690026E-01  0.51100000000E-03 0. -1.
</event>
<event>
 8    1  0.1161271E+005  0.1043930E+01  0.7957747E-01            NaN
         13   -1    0    0    0    0  0.00000000000E+00  0.00000000000E+00  0.74505805969E-08  0.10566000000E+00  0.10566000000E+00 0.  1.
     999900   -1    0    0    0    0 -0.00000000000E+00 -0.00000000000E+00 -0.74505805969E-08  0.93827000000E+00  0.93827000000E+00 0.  1.
     999902    2    1    2    0    0 -0.16306984043E-01 -0.17196806339E-01 -0.52358967287E-02  0.10196593904E+01  0.10193704969E+01 0.  0.
     999903    2    3    3    0    0 -0.74615029035E-01 -0.10506205218E+00 -0.26765989914E-01  0.13310218723E+00  0.19857911887E-01 0.  0.
         14    1    1    2    0    0  0.16306984043E-01  0.17196806339E-01  0.52358967287E-02  0.24270609621E-01  0.00000000000E+00 0. -1.
     999901    1    3    3    0    0  0.58308044992E-01  0.87865245839E-01  0.21530093185E-01  0.88655720315E+00  0.88000000000E+00 0.  1.
        -11    1    4    4    0    0 -0.48263233195E-01 -0.58206563979E-01 -0.23753662525E-01  0.79258068189E-01  0.51100000000E-03 0. -1.
         11    1    4    4    0    0 -0.26351795839E-01 -0.46855488200E-01 -0.30123273884E-02  0.53844119044E-01  0.51100000000E-03 0.  1.
</event>
<event>
 8    1  0.1161271E+005  0.1043930E+01  0.7957747E-01            NaN
         13   -1    0    0    0    0  0.00000000000E+00  0.00000000000E+00  0.74505805969E-08  0.10566000000E+00  0.10566000000E+00 0.  1.
     999900   -1    0    0    0    0 -0.00000000000E+00 -0.00000000000E+00 -0.74505805969E-08  0.93827000000E+00  0.93827000000E+00 0.  1.
     999902    2    1    2    0    0  0.24187903114E-01 -0.10879619324E-01  0.28473244748E-03  0.10174063908E+01  0.10170605991E+01 0.  0.
     999903    2    3    3    0    0  0.81621154883E-02  0.62187694529E-01 -0.10918740239E+00  0.12747391776E+00  0.19843925712E-01 0.  0.
         14    1    1    2    0    0 -0.24187903114E-01  0.10879619324E-01 -0.28473244748E-03  0.26523609224E-01  0.00000000000E+00 0. -1.
     999901    1    3    3    0    0  0.16025787626E-01 -0.73067313852E-01  0.10947213484E+00  0.88993247302E+00  0.88000000000E+00 0. -1.
        -11    1    4    4    0    0  0.17138314322E-02  0.16073521781E-01 -0.47543681095E-01  0.50219100487E-01  0.51100000000E-03 0.  1.
         11    1    4    4    0    0  0.64482840562E-02  0.46114172747E-01 -0.61643721298E-01  0.77254817273E-01  0.51100000000E-03 0. -1.
</event>
<event>
 8    1  0.1161271E+005  0.1043930E+01  0.7957747E-01            NaN
         13   -1    0    0    0    0  0.00000000000E+00  0.00000000000E+00  0.74505805969E-08  0.10566000000E+00  0.10566000000E+00 0. -1.
     999900   -1    0    0    0    0 -0.00000000000E+00 -0.00000000000E+00 -0.74505805969E-08  0.93827000000E+00  0.93827000000E+00 0.  1.
     999902    2    1    2    0    0  0.94079952479E-02  0.97377491671E-02  0.19514345962E-01  0.10201782878E+01  0.10199017576E+01 0.  0.
     999903    2    3    3    0    0 -0.60441032413E-01  0.10519209205E+00 -0.42350261268E-01  0.13011219596E+00  0.20424110268E-01 0.  0.
         14    1    1    2    0    0 -0.94079952479E-02 -0.97377491671E-02 -0.19514345962E-01  0.23751712186E-01  0.00000000000E+00 0. -1.
     999901    1    3    3    0    0  0.69849027661E-01 -0.95454342878E-01  0.61864607230E-01  0.89006609185E+00  0.88000000000E+00 0. -1.
        -11    1    4    4    0    0 -0.36833174201E-01  0.71358592107E-01 -0.37299923397E-01  0.88545337515E-01  0.51100000000E-03 0. -1.
         11    1    4    4    0    0 -0.23607858212E-01  0.33833499939E-01 -0.50503378709E-02  0.41566858446E-01  0.51100000000E-03 0.  1.
</event>
<event>
 8    1  0.1161271E+005  0.1043930E+01  0.7957747E-01            NaN
         13   -1    0    0    0    0  0.00000000000E+00  0.00000000000E+00  0.74505805969E-08  0.10566000000E+00  0.10566000000E+00 0. -1.
     999900   -1    0    0    0    0 -0.00000000000E+00 -0.00000000000E+00 -0.74505805969E-08  0.93827000000E+00  0.93827000000E+00 0. -1.
     999902    2    1    2    0    0  0.43507639099E-02  0.15320315070E-01 -0.17800507982E-01  0.10200448731E+01  0.10197651906E+01 0.  0.
     999903    2    3    3    0    0  0.79751489699E-01  0.66937648157E-01 -0.80431536715E-01  0.13309940454E+00  0.20131332287E-01 0.  0.
         14    1    1    2    0    0 -0.43507639099E-02 -0.15320315070E-01  0.17800507982E-01  0.23885126855E-01  0.00000000000E+00 0. -1.
     999901    1    3    3    0    0 -0.75400725789E-01 -0.51617333086E-01  0.62631028733E-01  0.88694546861E+00  0.88000000000E+00 0.  1.
        -11    1    4    4    0    0  0.36478482685E-01  0.33992726058E-01 -0.26348246552E-01  0.56397485238E-01  0.51100000000E-03 0.  1.
         11    1    4    4    0    0  0.43273007015E-01  0.32944922099E-01 -0.54083290163E-01  0.76701919298E-01  0.51100000000E-03 0. -1.
</event>
<event>
 8    1  0.1161271E+005  0.1043930E+01  0.7957747E-01            NaN
         13   -1    0    0    0    0  0.00000000000E+00  0.00000000000E+00  0.74505805969E-08  0.10566000000E+00  0.10566000000E+00 0.  1.
     999900   -1    0    0    0    0 -0.00000000000E+00 -0.00000000000E+00 -0.74505805969E-08  0.93827000000E+00  0.93827000000E+00 0.  1.
     999902    2    1    2    0    0  0.11387833014E-01 -0.18086341820E-01 -0.98531350862E-02  0.10203952858E+01  0.10201238437E+01 0.  0.
     999903    2    3    3    0    0 -0.67615212257E-01 -0.17181812132E-01  0.10696369327E+00  0.12916665592E+00  0.19384574463E-01 0.  0.
         14    1    1    2    0    0 -0.11387833014E-01  0.18086341820E-01  0.98531350862E-02  0.23534714195E-01  0.00000000000E+00 0. -1.
     999901    1    3    3    0    0  0.79003045271E-01 -0.90452968784E-03 -0.11681682836E+00  0.89122862988E+00  0.88000000000E+00 0.  1.
        -11    1    4    4    0    0 -0.51956908766E-01 -0.51109848273E-02  0.71092319493E-01  0.88204430424E-01  0.51100000000E-03 0. -1.
         11    1    4    4    0    0 -0.15658303491E-01 -0.12070827305E-01  0.35871373778E-01  0.40962225499E-01  0.51100000000E-03 0.  1.
</event>
<event>
 8    1  0.1161271E+005  0.1043930E+01  0.7957747E-01            NaN
         13   -1    0    0    0    0  0.00000000000E+00  0.00000000000E+00  0.74505805969E-08  0.10566000000E+00  0.10566000000E+00 0.  1.
     999900   -1    0    0    0    0 -0.00000000000E+00 -0.00000000000E+00 -0.74505805969E-08  0.93827000000E+00  0.93827000000E+00 0.  1.
     999902    2    1    2    0    0 -0.31443543773E-02 -0.30967507671E-02 -0.23569824724E-01  0.10199505616E+01  0.10196686396E+01 0.  0.
     999903    2    3    3    0    0 -0.10399779921E+00  0.69650284215E-01 -0.33614880864E-01  0.13115111761E+00  0.20098534886E-01 0.  0.
         14    1    1    2    0    0  0.31443543773E-02  0.30967507671E-02  0.23569824724E-01  0.23979438427E-01  0.00000000000E+00 0.  1.
     999901    1    3    3    0    0  0.10085344483E+00 -0.72747034982E-01  0.10045056141E-01  0.88879944396E+00  0.88000000000E+00 0. -1.
        -11    1    4    4    0    0 -0.74327100119E-01  0.54424380119E-01 -0.16242344556E-01  0.93544672970E-01  0.51100000000E-03 0.  1.
         11    1    4    4    0    0 -0.29670699087E-01  0.15225904096E-01 -0.17372536308E-01  0.37606444642E-01  0.51100000000E-03 0. -1.
</event>
<event>
 8    1  0.1161271E+005  0.1043930E+01  0.7957747E-01            NaN
         13   -1    0    0    0    0  0.00000000000E+00  0.00000000000E+00  0.74505805969E-08  0.10566000000E+00  0.10566000000E+00 0. -1.
     999900   -1    0    0    0    0 -0.00000000000E+00 -0.00000000000E+00 -0.74505805969E-08  0.93827000000E+00  0.93827000000E+00 0.  1.
     999902    2    1    2    0    0 -0.55218928693E-02 -0.85574198978E-02 -0.22029425890E-01  0.10196603411E+01  0.10193714705E+01 0.  0.
     999903    2    3    3    0    0 -0.59398597708E-01 -0.99912594007E-01 -0.60440004914E-01  0.13246034128E+00  0.19545535764E-01 0.  0.
         14    1    1    2    0    0  0.55218928693E-02  0.85574198978E-02  0.22029425890E-01  0.24269658861E-01  0.00000000000E+00 0. -1.
     999901    1    3    3    0    0  0.53876704839E-01  0.91355174110E-01  0.38410579023E-01  0.88719999985E+00  0.88000000000E+00 0. -1.
        -11    1    4    4    0    0 -0.12201113099E-01 -0.90358269840E-02 -0.10941322676E-01  0.18721297846E-01  0.51100000000E-03 0.  1.
         11    1    4    4    0    0 -0.47197484609E-01 -0.90876767023E-01 -0.49498682238E-01  0.11373904344E+00  0.51100000000E-03 0. -1.
</event>
<event>
 8    1  0.1183018E+005  0.1043930E+01  0.7957747E-01            NaN
         13   -1    0    0    0    0  0.00000000000E+00  0.00000000000E+00  0.74505805969E-08  0.10566000000E+00  0.10566000000E+00 0.  1.
     999900   -1    0    0    0    0 -0.00000000000E+00 -0.00000000000E+00 -0.74505805969E-08  0.93827000000E+00  0.93827000000E+00 0.  1.
     999902    2    1    2    0    0 -0.12658669879E-01  0.21583092145E-01 -0.18618767903E-01  0.10127413753E+01  0.10122610153E+01 0.  0.
     999903    2    3    3    0    0  0.31910183616E-01  0.64738706639E-01 -0.10204411114E+00  0.12662141865E+00  0.20263836884E-01 0.  0.
         14    1    1    2    0    0  0.12658669879E-01 -0.21583092145E-01  0.18618767903E-01  0.31188624655E-01  0.00000000000E+00 0.  1.
     999901    1    3    3    0    0 -0.44568853494E-01 -0.43155614494E-01  0.83425343240E-01  0.88611995670E+00  0.88000000000E+00 0. -1.
        -11    1    4    4    0    0  0.26146015569E-02  0.27175393329E-01 -0.35722067762E-01  0.44962933513E-01  0.51100000000E-03 0. -1.
         11    1    4    4    0    0  0.29295582059E-01  0.37563313310E-01 -0.66322043381E-01  0.81658485133E-01  0.51100000000E-03 0.  1.
</event>
<event>
 8    1  0.1161271E+005  0.1043930E+01  0.7957747E-01            NaN
         13   -1    0    0    0    0  0.00000000000E+00  0.00000000000E+00  0.74505805969E-08  0.10566000000E+00  0.10566000000E+00 0.  1.
     999900   -1    0    0    0    0 -0.00000000000E+00 -0.00000000000E+00 -0.74505805969E-08  0.93827000000E+00  0.93827000000E+00 0. -1.
     999902    2    1    2    0    0 -0.20169665330E-01 -0.11455712461E-01  0.49375666793E-02  0.10202144289E+01  0.10199387495E+01 0.  0.
     999903    2    3    3    0    0 -0.77924390780E-01  0.77560091574E-01  0.70223421220E-01  0.13143905544E+00  0.16034897061E-01 0.  0.
         14    1    1    2    0    0  0.20169665330E-01  0.11455712461E-01 -0.49375666793E-02  0.23715571092E-01  0.00000000000E+00 0.  1.
     999901    1    3    3    0    0  0.57754725449E-01 -0.89015804035E-01 -0.65285854541E-01  0.88877537347E+00  0.88000000000E+00 0. -1.
        -11    1    4    4    0    0 -0.16913142005E-01  0.86332863108E-02  0.10413884444E-01  0.21663289575E-01  0.51100000000E-03 0.  1.
         11    1    4    4    0    0 -0.61011248775E-01  0.68926805263E-01  0.59809536776E-01  0.10977576586E+00  0.51100000000E-03 0. -1.
</event>
<event>
 7    1  0.1161271E+005  0.1043930E+01  0.7957747E-01            NaN
         13   -1    0    0    0    0  0.00000000000E+00  0.00000000000E+00  0.74505805969E-08  0.10566000000E+00  0.10566000000E+00 0. -1.
     999900   -1    0    0    0    0 -0.00000000000E+00 -0.00000000000E+00 -0.74505805969E-08  0.93827000000E+00  0.93827000000E+00 0.  1.
     999902    2    1    2    0    0  0.52981403519E-02 -0.20821843630E-01 -0.11765822051E-01  0.10194339997E+01  0.10191396497E+01 0.  0.
         14    1    1    2    0    0 -0.52981403519E-02  0.20821843630E-01  0.11765822051E-01  0.24496000324E-01  0.00000000000E+00 0.  1.
     999901    1    3    3    0    0  0.12901380013E-01  0.13030800742E-01 -0.13099864476E+00  0.88988588724E+00  0.88000000000E+00 0.  1.
        -11    1    3    3    0    0 -0.20735791981E-01 -0.91561310276E-02  0.54611506913E-01  0.59131088378E-01  0.51100000000E-03 0.  1.
         11    1    3    3    0    0  0.13132552320E-01 -0.24696513345E-01  0.64621315793E-01  0.70417024061E-01  0.51100000000E-03 0. -1.
</event>
<event>
 8    1  0.1161271E+005  0.1043930E+01  0.7957747E-01            NaN
         13   -1    0    0    0    0  0.00000000000E+00  0.00000000000E+00  0.74505805969E-08  0.10566000000E+00  0.10566000000E+00 0.  1.
     999900   -1    0    0    0    0 -0.00000000000E+00 -0.00000000000E+00 -0.74505805969E-08  0.93827000000E+00  0.93827000000E+00 0. -1.
     999902    2    1    2    0    0  0.77759705036E-02  0.14259946638E-01 -0.16955492831E-01  0.10204502101E+01  0.10201800482E+01 0.  0.
     999903    2    3    3    0    0 -0.18838952099E-01 -0.12211146716E+00 -0.33053059229E-01  0.12940327071E+00  0.19661770443E-01 0.  0.
         14    1    1    2    0    0 -0.77759705036E-02 -0.14259946638E-01  0.16955492831E-01  0.23479789875E-01  0.00000000000E+00 0.  1.
     999901    1    3    3    0    0  0.26614922603E-01  0.13637141380E+00  0.16097566398E-01  0.89104693942E+00  0.88000000000E+00 0. -1.
        -11    1    4    4    0    0 -0.23371257886E-02 -0.59206133491E-01 -0.83776983074E-02  0.59843757819E-01  0.51100000000E-03 0.  1.
         11    1    4    4    0    0 -0.16501826310E-01 -0.62905333668E-01 -0.24675360922E-01  0.69559512887E-01  0.51100000000E-03 0. -1.
</event>
<event>
 8    1  0.1161271E+005  0.1043930E+01  0.7957747E-01            NaN
         13   -1    0    0    0    0  0.00000000000E+00  0.00000000000E+00  0.74505805969E-08  0.10566000000E+00  0.10566000000E+00 0. -1.
     999900   -1    0    0    0    0 -0.00000000000E+00 -0.00000000000E+00 -0.74505805969E-08  0.93827000000E+00  0.93827000000E+00 0. -1.
     999902    2    1    2    0    0  0.16776175544E-01  0.49727334975E-02 -0.15806020763E-01  0.10203503809E+01  0.10200778899E+01 0.  0.
     999903    2    3    3    0    0 -0.14082297377E-01 -0.43220868522E-01 -0.12235034829E+00  0.13207870942E+00  0.20219376391E-01 0.  0.
         14    1    1    2    0    0 -0.16776175544E-01 -0.49727334975E-02  0.15806020763E-01  0.23579619095E-01  0.00000000000E+00 0. -1.
     999901    1    3    3    0    0  0.30858472921E-01  0.48193602019E-01  0.10654432753E+00  0.88827167148E+00  0.88000000000E+00 0.  1.
        -11    1    4    4    0    0 -0.92666482374E-02 -0.42662811254E-01 -0.98613977232E-01  0.10784694646E+00  0.51100000000E-03 0. -1.
         11    1    4    4    0    0 -0.48156491396E-02 -0.55805726783E-03 -0.23736371057E-01  0.24231762967E-01  0.51100000000E-03 0.  1.
</event>
<event>
 8    1  0.1161271E+005  0.1043930E+01  0.7957747E-01            NaN
         13   -1    0    0    0    0  0.00000000000E+00  0.00000000000E+00  0.74505805969E-08  0.10566000000E+00  0.10566000000E+00 0.  1.
     999900   -1    0    0    0    0 -0.00000000000E+00 -0.00000000000E+00 -0.74505805969E-08  0.93827000000E+00  0.93827000000E+00 0.  1.
     999902    2    1    2    0    0  0.20633549993E-01 -0.56856295040E-02 -0.10934996295E-01  0.10198957762E+01  0.10196125492E+01 0.  0.
     999903    2    3    3    0    0 -0.12576191024E+00 -0.88393655987E-02 -0.72470709372E-02  0.12778862032E+00  0.19575980106E-01 0.  0.
         14    1    1    2    0    0 -0.20633549993E-01  0.56856295040E-02  0.10934996295E-01  0.24034223768E-01  0.00000000000E+00 0. -1.
     999901    1    3    3    0    0  0.14639546023E+00  0.31537360947E-02 -0.36879253574E-02  0.89210715591E+00  0.88000000000E+00 0.  1.
        -11    1    4    4    0    0 -0.11631977034E+00 -0.31557923046E-02 -0.46610918386E-02  0.11645700878E+00  0.51100000000E-03 0. -1.
         11    1    4    4    0    0 -0.94421398961E-02 -0.56835732941E-02 -0.25859790986E-02  0.11331611541E-01  0.51100000000E-03 0.  1.
</event>
<event>
 8    1  0.1161271E+005  0.1043930E+01  0.7957747E-01            NaN
         13   -1    0    0    0    0  0.00000000000E+00  0.00000000000E+00  0.74505805969E-08  0.10566000000E+00  0.10566000000E+00 0. -1.
     999900   -1    0    0    0    0 -0.00000000000E+00 -0.00000000000E+00 -0.74505805969E-08  0.93827000000E+00  0.93827000000E+00 0.  1.
     999902    2    1    2    0    0  0.11928415698E-01  0.16469547447E-01 -0.13283060375E-01  0.10196406446E+01  0.10193512992E+01 0.  0.
     999903    2    3    3    0    0  0.35607632860E-01 -0.70463458178E-01 -0.10199217222E+00  0.13060332290E+00  0.20538313050E-01 0.  0.
         14    1    1    2    0    0 -0.11928415698E-01 -0.16469547447E-01  0.13283060375E-01  0.24289355428E-01  0.00000000000E+00 0. -1.
     999901    1    3    3    0    0 -0.23679217161E-01  0.86933005626E-01  0.88709111847E-01  0.88903732167E+00  0.88000000000E+00 0. -1.
        -11    1    4    4    0    0  0.24329582677E-01 -0.63191872437E-01 -0.89766274623E-01  0.11244281443E+00  0.51100000000E-03 0. -1.
         11    1    4    4    0    0  0.11278050183E-01 -0.72715857416E-02 -0.12225897599E-01  0.18160508479E-01  0.51100000000E-03 0.  1.
</event>
<event>
 8    1  0.1161271E+005  0.1043930E+01  0.7957747E-01            NaN
         13   -1    0    0    0    0  0.00000000000E+00  0.00000000000E+00  0.74505805969E-08  0.10566000000E+00  0.10566000000E+00 0. -1.
     999900   -1    0    0    0    0 -0.00000000000E+00 -0.00000000000E+00 -0.74505805969E-08  0.93827000000E+00  0.93827000000E+00 0.  1.
     999902    2    1    2    0    0  0.12924758377E-02  0.34288625248E-02  0.23156165499E-01  0.10204856917E+01  0.10202163552E+01 0.  0.
     999903    2    3    3    0    0  0.66472436517E-01  0.49239915638E-01  0.10262368584E+00  0.13332044966E+00  0.19989179422E-01 0.  0.
         14    1    1    2    0    0 -0.12924758377E-02 -0.34288625248E-02 -0.23156165499E-01  0.23444308320E-01  0.00000000000E+00 0.  1.
     999901    1    3    3    0    0 -0.65179960679E-01 -0.45811053114E-01 -0.79467520337E-01  0.88716524202E+00  0.88000000000E+00 0.  1.
        -11    1    4    4    0    0  0.39349009253E-01  0.34120768202E-01  0.49906522226E-01  0.72135244046E-01  0.51100000000E-03 0.  1.
         11    1    4    4    0    0  0.27123427264E-01  0.15119147436E-01  0.52717163610E-01  0.61185205613E-01  0.51100000000E-03 0. -1.
</event>
<event>
 7    1  0.1161271E+005  0.1043930E+01  0.7957747E-01            NaN
         13   -1    0    0    0    0  0.00000000000E+00  0.00000000000E+00  0.74505805969E-08  0.10566000000E+00  0.10566000000E+00 0.  1.
     999900   -1    0    0    0    0 -0.00000000000E+00 -0.00000000000E+00 -0.74505805969E-08  0.93827000000E+00  0.93827000000E+00 0. -1.
     999903    2    1    2    0    0 -0.23450563388E-01 -0.54376457924E-01 -0.44563948056E-01  0.78054797630E-01  0.24492404275E-01 0.  0.
         14    1    1    2    0    0  0.23201735017E-01 -0.68857116289E-01  0.25751260738E-01  0.77089236609E-01  0.00000000000E+00 0.  1.
     999901    1    1    2    0    0  0.24882837132E-03  0.12323357421E+00  0.18812687318E-01  0.88878596576E+00  0.88000000000E+00 0. -1.
        -11    1    3    3    0    0 -0.26891130088E-01 -0.52963446192E-01 -0.44631208920E-01  0.74299834728E-01  0.51100000000E-03 0. -1.
         11    1    3    3    0    0  0.34405667000E-02 -0.14130117321E-02  0.67260863885E-04  0.37549629021E-02  0.51100000000E-03 0.  1.
</event>
<event>
 8    1  0.1161271E+005  0.1043930E+01  0.7957747E-01            NaN
         13   -1    0    0    0    0  0.00000000000E+00  0.00000000000E+00  0.74505805969E-08  0.10566000000E+00  0.10566000000E+00 0.  1.
     999900   -1    0    0    0    0 -0.00000000000E+00 -0.00000000000E+00 -0.74505805969E-08  0.93827000000E+00  0.93827000000E+00 0.  1.
     999902    2    1    2    0    0 -0.86240885604E-03 -0.24191066330E-01 -0.37476119759E-02  0.10194351835E+01  0.10191408624E+01 0.  0.
     999903    2    3    3    0    0 -0.18951504784E-02  0.93375499177E-01  0.84327947170E-01  0.12725792086E+00  0.18994744144E-01 0.  0.
         14    1    1    2    0    0  0.86240885604E-03  0.24191066330E-01  0.37476119759E-02  0.24494816487E-01  0.00000000000E+00 0. -1.
     999901    1    3    3    0    0  0.10327416224E-02 -0.11756656551E+00 -0.88075559146E-01  0.89217726266E+00  0.88000000000E+00 0.  1.
        -11    1    4    4    0    0  0.42152311544E-02  0.14634501248E-01  0.21418550491E-01  0.26285970148E-01  0.51100000000E-03 0. -1.
         11    1    4    4    0    0 -0.61103816329E-02  0.78740997929E-01  0.62909396679E-01  0.10097195071E+00  0.51100000000E-03 0.  1.
</event>
<event>
 8    1  0.1161271E+005  0.1043930E+01  0.7957747E-01            NaN
         13   -1    0    0    0    0  0.00000000000E+00  0.00000000000E+00  0.74505805969E-08  0.10566000000E+00  0.10566000000E+00 0. -1.
     999900   -1    0    0    0    0 -0.00000000000E+00 -0.00000000000E+00 -0.74505805969E-08  0.93827000000E+00  0.93827000000E+00 0.  1.
     999902    2    1    2    0    0  0.23184938501E-02  0.16912940679E-01 -0.15563962763E-01  0.10208289197E+01  0.10205675006E+01 0.  0.
     999903    2    3    3    0    0 -0.45089438236E-01 -0.10403756931E+00  0.56699278520E-01  0.12836126538E+00  0.20122947025E-01 0.  0.
         14    1    1    2    0    0 -0.23184938501E-02 -0.16912940679E-01  0.15563962763E-01  0.23101080344E-01  0.00000000000E+00 0. -1.
     999901    1    3    3    0    0  0.47407932086E-01  0.12095050999E+00 -0.72263241283E-01  0.89246765428E+00  0.88000000000E+00 0. -1.
        -11    1    4    4    0    0 -0.30161322252E-01 -0.63594895590E-01  0.24416527965E-01  0.74501302431E-01  0.51100000000E-03 0. -1.
         11    1    4    4    0    0 -0.14928115984E-01 -0.40442673719E-01  0.32282750555E-01  0.53859962948E-01  0.51100000000E-03 0.  1.
</event>
<event>
 8    1  0.1161271E+005  0.1043930E+01  0.7957747E-01            NaN
         13   -1    0    0    0    0  0.00000000000E+00  0.00000000000E+00  0.74505805969E-08  0.10566000000E+00  0.10566000000E+00 0.  1.
     999900   -1    0    0    0    0 -0.00000000000E+00 -0.00000000000E+00 -0.74505805969E-08  0.93827000000E+00  0.93827000000E+00 0. -1.
     999902    2    1    2    0    0 -0.21453304570E-01  0.13908833054E-01  0.60039837414E-02  0.10176669512E+01  0.10173280079E+01 0.  0.
     999903    2    3    3    0    0  0.62800518108E-01 -0.75324151771E-01  0.77024349317E-01  0.12631678172E+00  0.20138173772E-01 0.  0.
         14    1    1    2    0    0  0.21453304570E-01 -0.13908833054E-01 -0.60039837414E-02  0.26263048846E-01  0.00000000000E+00 0.  1.
     999901    1    3    3    0    0 -0.84253822678E-01  0.89232984825E-01 -0.71020365576E-01  0.89135016943E+00  0.88000000000E+00 0.  1.
        -11    1    4    4    0    0  0.39379971000E-01 -0.60364981520E-01  0.59462420809E-01  0.93438502338E-01  0.51100000000E-03 0.  1.
         11    1    4    4    0    0  0.23420547108E-01 -0.14959170251E-01  0.17561928509E-01  0.32878279386E-01  0.51100000000E-03 0. -1.
</event>
<event>
 8    1  0.1161271E+005  0.1043930E+01  0.7957747E-01            NaN
         13   -1    0    0    0    0  0.00000000000E+00  0.00000000000E+00  0.74505805969E-08  0.10566000000E+00  0.10566000000E+00 0. -1.
     999900   -1    0    0    0    0 -0.00000000000E+00 -0.00000000000E+00 -0.74505805969E-08  0.93827000000E+00  0.93827000000E+00 0. -1.
     999902    2    1    2    0    0  0.26519398686E-03 -0.59383276416E-02  0.22759342200E-01  0.10204072085E+01  0.10201360446E+01 0.  0.
     999903    2    3    3    0    0 -0.12577363455E+00 -0.29546099754E-01  0.62223195435E-02  0.13095985967E+00  0.20488739021E-01 0.  0.
         14    1    1    2    0    0 -0.26519398686E-03  0.59383276416E-02 -0.22759342200E-01  0.23522791509E-01  0.00000000000E+00 0.  1.
     999901    1    3    3    0    0  0.12603882853E+00  0.23607772113E-01  0.16537022656E-01  0.88944734882E+00  0.88000000000E+00 0. -1.
        -11    1    4    4    0    0 -0.38950836671E-01 -0.18604661118E-01 -0.70875806916E-03  0.43174813859E-01  0.51100000000E-03 0.  1.
         11    1    4    4    0    0 -0.86822797876E-01 -0.10941438636E-01  0.69310776126E-02  0.87785045813E-01  0.51100000000E-03 0. -1.
</event>
<event>
 8    1  0.1161271E+005  0.1043930E+01  0.7957747E-01            NaN
         13   -1    0    0    0    0  0.00000000000E+00  0.00000000000E+00  0.74505805969E-08  0.10566000000E+00  0.10566000000E+00 0. -1.
     999900   -1    0    0    0    0 -0.00000000000E+00 -0.00000000000E+00 -0.74505805969E-08  0.93827000000E+00  0.93827000000E+00 0. -1.
     999902    2    1    2    0    0 -0.26682056042E-02 -0.12819327002E-01  0.20047731335E-01  0.10199849379E+01  0.10197038333E+01 0.  0.
     999903    2    3    3    0    0 -0.16907376581E-01  0.94963645256E-01 -0.80716748971E-01  0.12758737877E+00  0.21433440089E-01 0.  0.
         14    1    1    2    0    0  0.26682056042E-02  0.12819327002E-01 -0.20047731335E-01  0.23945062072E-01  0.00000000000E+00 0.  1.
     999901    1    3    3    0    0  0.14239170976E-01 -0.10778297226E+00  0.10076448031E+00  0.89239755916E+00  0.88000000000E+00 0. -1.
        -11    1    4    4    0    0 -0.66557665901E-02  0.55569667674E-01 -0.59476820791E-01  0.81670316069E-01  0.51100000000E-03 0. -1.
         11    1    4    4    0    0 -0.10251609990E-01  0.39393977582E-01 -0.21239928180E-01  0.45917062702E-01  0.51100000000E-03 0.  1.
</event>
<event>
 8    1  0.1161271E+005  0.1043930E+01  0.7957747E-01            NaN
         13   -1    0    0    0    0  0.00000000000E+00  0.00000000000E+00  0.74505805969E-08  0.10566000000E+00  0.10566000000E+00 0.  1.
     999900   -1    0    0    0    0 -0.00000000000E+00 -0.00000000000E+00 -0.74505805969E-08  0.93827000000E+00  0.93827000000E+00 0. -1.
     999902    2    1    2    0    0 -0.22681540194E-01 -0.97529821952E-03  0.73006831747E-03  0.10212157650E+01  0.10209631248E+01 0.  0.
     999903    2    3    3    0    0 -0.10243112983E+00  0.75733619176E-01 -0.34576308624E-01  0.13358363663E+00  0.20526797726E-01 0.  0.
         14    1    1    2    0    0  0.22681540194E-01  0.97529821952E-03 -0.73006831747E-03  0.22714235007E-01  0.00000000000E+00 0.  1.
     999901    1    3    3    0    0  0.79749589635E-01 -0.76708917395E-01  0.35306376942E-01  0.88763212837E+00  0.88000000000E+00 0. -1.
        -11    1    4    4    0    0 -0.47393234357E-01  0.47624536398E-01 -0.19648069381E-01  0.70003734767E-01  0.51100000000E-03 0.  1.
         11    1    4    4    0    0 -0.55037895472E-01  0.28109082778E-01 -0.14928239243E-01  0.63579901860E-01  0.51100000000E-03 0. -1.
</event>
<event>
 8    1  0.1161271E+005  0.1043930E+01  0.7957747E-01            NaN
         13   -1    0    0    0    0  0.00000000000E+00  0.00000000000E+00  0.74505805969E-08  0.10566000000E+00  0.10566000000E+00 0. -1.
     999900   -1    0    0    0    0 -0.00000000000E+00 -0.00000000000E+00 -0.74505805969E-08  0.93827000000E+00  0.93827000000E+00 0. -1.
     999902    2    1    2    0    0 -0.17590668897E-01 -0.12785616661E-01 -0.12389480395E-01  0.10189019587E+01  0.10185945212E+01 0.  0.
     999903    2    3    3    0    0 -0.80235660870E-01  0.88116182859E-01  0.43298087774E-01  0.12917915166E+00  0.24704369273E-01 0.  0.
         14    1    1    2    0    0  0.17590668897E-01  0.12785616661E-01  0.12389480395E-01  0.25028041276E-01  0.00000000000E+00 0. -1.
     999901    1    3    3    0    0  0.62644991973E-01 -0.10090179952E+00 -0.55687568169E-01  0.88972280707E+00  0.88000000000E+00 0. -1.
        -11    1    4    4    0    0 -0.53447044625E-01  0.74385393939E-01  0.32957718594E-01  0.97346010430E-01  0.51100000000E-03 0.  1.
         11    1    4    4    0    0 -0.26788616244E-01  0.13730788920E-01  0.10340369180E-01  0.31833141228E-01  0.51100000000E-03 0. -1.
</event>
<event>
 8    1  0.1161271E+005  0.1043930E+01  0.7957747E-01            NaN
         13   -1    0    0    0    0  0.00000000000E+00  0.00000000000E+00  0.74505805969E-08  0.10566000000E+00  0.10566000000E+00 0. -1.
     999900   -1    0    0    0    0 -0.00000000000E+00 -0.00000000000E+00 -0.74505805969E-08  0.93827000000E+00  0.93827000000E+00 0.  1.
     999902    2    1    2    0    0  0.85439637315E-02 -0.87372799270E-02  0.19149907079E-01  0.10212130830E+01  0.10209603825E+01 0.  0.
     999903    2    3    3    0    0  0.36291442091E-01  0.11961324632E+00 -0.30340016698E-01  0.13009410514E+00  0.19482353990E-01 0.  0.
         14    1    1    2    0    0 -0.85439637315E-02  0.87372799270E-02 -0.19149907079E-01  0.22716916998E-01  0.00000000000E+00 0.  1.
     999901    1    3    3    0    0 -0.27747478360E-01 -0.12835052624E+00  0.49489923777E-01  0.89111897786E+00  0.88000000000E+00 0. -1.
        -11    1    4    4    0    0  0.22347502579E-01  0.97132894467E-01 -0.28011603322E-01  0.10353318840E+00  0.51100000000E-03 0.  1.
         11    1    4    4    0    0  0.13943939512E-01  0.22480351848E-01 -0.23284133759E-02  0.26560916742E-01  0.51100000000E-03 0. -1.
</event>
<event>
 8    1  0.1161271E+005  0.1043930E+01  0.7957747E-01            NaN
         13   -1    0    0    0    0  0.00000000000E+00  0.00000000000E+00  0.74505805969E-08  0.10566000000E+00  0.10566000000E+00 0.  1.
     999900   -1    0    0    0    0 -0.00000000000E+00 -0.00000000000E+00 -0.74505805969E-08  0.93827000000E+00  0.93827000000E+00 0.  1.
     999902    2    1    2    0    0  0.12735499998E-01  0.20318076480E-01 -0.24239222041E-03  0.10199492589E+01  0.10196673059E+01 0.  0.
     999903    2    3    3    0    0 -0.48999325086E-01  0.63634415237E-01  0.10140489757E+00  0.13089376826E+00  0.19998816360E-01 0.  0.
         14    1    1    2    0    0 -0.12735499998E-01 -0.20318076480E-01  0.24239222041E-03  0.23980741149E-01  0.00000000000E+00 0.  1.
     999901    1    3    3    0    0  0.61734825085E-01 -0.43316338757E-01 -0.10164728979E+00  0.88905549059E+00  0.88000000000E+00 0.  1.
        -11    1    4    4    0    0 -0.21014747227E-02 -0.41272772834E-03  0.80740131336E-02  0.83688320135E-02  0.51100000000E-03 0.  1.
         11    1    4    4    0    0 -0.46897850363E-01  0.64047142966E-01  0.93330884438E-01  0.12252493624E+00  0.51100000000E-03 0. -1.
</event>
<event>
 8    1  0.1161271E+005  0.1043930E+01  0.7957747E-01            NaN
         13   -1    0    0    0    0  0.00000000000E+00  0.00000000000E+00  0.74505805969E-08  0.10566000000E+00  0.10566000000E+00 0. -1.
     999900   -1    0    0    0    0 -0.00000000000E+00 -0.00000000000E+00 -0.74505805969E-08  0.93827000000E+00  0.93827000000E+00 0. -1.
     999902    2    1    2    0    0  0.23270025299E-01 -0.49194818750E-02  0.47565352107E-06  0.10201456484E+01  0.10198683487E+01 0.  0.
     999903    2    3    3    0    0 -0.31015801052E-01 -0.22683493388E-01  0.12232771191E+00  0.12984993139E+00  0.20504018945E-01 0.  0.
         14    1    1    2    0    0 -0.23270025299E-01  0.49194818750E-02 -0.47565352107E-06  0.23784351569E-01  0.00000000000E+00 0.  1.
     999901    1    3    3    0    0  0.54285826351E-01  0.17764011513E-01 -0.12232723626E+00  0.89029571704E+00  0.88000000000E+00 0. -1.
        -11    1    4    4    0    0 -0.14464672863E-01 -0.11576358679E-01  0.89836913663E-01  0.91728790566E-01  0.51100000000E-03 0. -1.
         11    1    4    4    0    0 -0.16551128189E-01 -0.11107134709E-01  0.32490798252E-01  0.38121140825E-01  0.51100000000E-03 0.  1.
</event>
<event>
 8    1  0.1161271E+005  0.1043930E+01  0.7957747E-01            NaN
         13   -1    0    0    0    0  0.00000000000E+00  0.00000000000E+00  0.74505805969E-08  0.10566000000E+00  0.10566000000E+00 0. -1.
     999900   -1    0    0    0    0 -0.00000000000E+00 -0.00000000000E+00 -0.74505805969E-08  0.93827000000E+00  0.93827000000E+00 0. -1.
     999902    2    1    2    0    0  0.75762289348E-02  0.10081594982E-01  0.16481904653E-01  0.10231769042E+01  0.10229664151E+01 0.  0.
     999903    2    3    3    0    0 -0.53594575609E-01  0.98074183373E-01 -0.68446421788E-01  0.13261675267E+00  0.20282170876E-01 0.  0.
         14    1    1    2    0    0 -0.75762289348E-02 -0.10081594982E-01 -0.16481904653E-01  0.20753095751E-01  0.00000000000E+00 0.  1.
     999901    1    3    3    0    0  0.61170804543E-01 -0.87992588392E-01  0.84928326441E-01  0.89056015157E+00  0.88000000000E+00 0.  1.
        -11    1    4    4    0    0 -0.67153172077E-02  0.27271984928E-01 -0.22984804480E-01  0.36296267096E-01  0.51100000000E-03 0. -1.
         11    1    4    4    0    0 -0.46879258401E-01  0.70802198445E-01 -0.45461617308E-01  0.96320485579E-01  0.51100000000E-03 0.  1.
</event>
<event>
 8    1  0.1161271E+005  0.1043930E+01  0.7957747E-01            NaN
         13   -1    0    0    0    0  0.00000000000E+00  0.00000000000E+00  0.74505805969E-08  0.10566000000E+00  0.10566000000E+00 0. -1.
     999900   -1    0    0    0    0 -0.00000000000E+00 -0.00000000000E+00 -0.74505805969E-08  0.93827000000E+00  0.93827000000E+00 0.  1.
     999902    2    1    2    0    0 -0.77902127463E-02  0.91245135501E-02 -0.19272560267E-01  0.10212281115E+01  0.10209757490E+01 0.  0.
     999903    2    3    3    0    0  0.28967115161E-01  0.11420049780E+00  0.52826733266E-01  0.13128970254E+00  0.23779713750E-01 0.  0.
         14    1    1    2    0    0  0.77902127463E-02 -0.91245135501E-02  0.19272560267E-01  0.22701888498E-01  0.00000000000E+00 0. -1.
     999901    1    3    3    0    0 -0.36757327907E-01 -0.10507598425E+00 -0.72099293533E-01  0.88993840896E+00  0.88000000000E+00 0.  1.
        -11    1    4    4    0    0  0.60637199389E-04  0.43262842365E-01  0.14478537238E-01  0.45624186217E-01  0.51100000000E-03 0. -1.
         11    1    4    4    0    0  0.28906477961E-01  0.70937655436E-01  0.38348196029E-01  0.85665516321E-01  0.51100000000E-03 0.  1.
</event>
<event>
 8    1  0.1161271E+005  0.1043930E+01  0.7957747E-01            NaN
         13   -1    0    0    0    0  0.00000000000E+00  0.00000000000E+00  0.74505805969E-08  0.10566000000E+00  0.10566000000E+00 0. -1.
     999900   -1    0    0    0    0 -0.00000000000E+00 -0.00000000000E+00 -0.74505805969E-08  0.93827000000E+00  0.93827000000E+00 0. -1.
     999902    2    1    2    0    0 -0.21901318032E-01  0.40587165527E-02 -0.85049125532E-02  0.10200872978E+01  0.10198086196E+01 0.  0.
     999903    2    3    3    0    0 -0.10775320567E+00  0.58386668822E-01  0.46313823016E-01  0.13254734556E+00  0.20101546831E-01 0.  0.
         14    1    1    2    0    0  0.21901318032E-01 -0.40587165527E-02  0.85049125532E-02  0.23842702220E-01  0.00000000000E+00 0. -1.
     999901    1    3    3    0    0  0.85851887640E-01 -0.54327952270E-01 -0.54818735569E-01  0.88753995222E+00  0.88000000000E+00 0.  1.
        -11    1    4    4    0    0 -0.85420672723E-02  0.94022986141E-02  0.30616322339E-03  0.12717114037E-01  0.51100000000E-03 0.  1.
         11    1    4    4    0    0 -0.99211138400E-01  0.48984370208E-01  0.46007659792E-01  0.11983023153E+00  0.51100000000E-03 0. -1.
</event>
<event>
 8    1  0.1161271E+005  0.1043930E+01  0.7957747E-01            NaN
         13   -1    0    0    0    0  0.00000000000E+00  0.00000000000E+00  0.74505805969E-08  0.10566000000E+00  0.10566000000E+00 0.  1.
     999900   -1    0    0    0    0 -0.00000000000E+00 -0.00000000000E+00 -0.74505805969E-08  0.93827000000E+00  0.93827000000E+00 0.  1.
     999902    2    1    2    0    0  0.84864703364E-02  0.13652417652E-01  0.17236568731E-01  0.10203607830E+01  0.10200885352E+01 0.  0.
     999903    2    3    3    0    0 -0.45915284359E-01  0.68349272368E-01  0.10234538726E+00  0.13289539903E+00  0.20168599824E-01 0.  0.
         14    1    1    2    0    0 -0.84864703364E-02 -0.13652417652E-01 -0.17236568731E-01  0.23569216961E-01  0.00000000000E+00 0. -1.
     999901    1    3    3    0    0  0.54401754695E-01 -0.54696854716E-01 -0.85108818524E-01  0.88746538401E+00  0.88000000000E+00 0. -1.
        -11    1    4    4    0    0 -0.20236696247E-01  0.42954831881E-01  0.47038661415E-01  0.66839645762E-01  0.51100000000E-03 0. -1.
         11    1    4    4    0    0 -0.25678588112E-01  0.25394440487E-01  0.55306725840E-01  0.66055753264E-01  0.51100000000E-03 0.  1.
</event>
<event>
 8    1  0.1161271E+005  0.1043930E+01  0.7957747E-01            NaN
         13   -1    0    0    0    0  0.00000000000E+00  0.00000000000E+00  0.74505805969E-08  0.10566000000E+00  0.10566000000E+00 0. -1.
     999900   -1    0    0    0    0 -0.00000000000E+00 -0.00000000000E+00 -0.74505805969E-08  0.93827000000E+00  0.93827000000E+00 0.  1.
     999902    2    1    2    0    0  0.93312416932E-03  0.56865560376E-02  0.20446921653E-01  0.10226865482E+01  0.10224658877E+01 0.  0.
     999903    2    3    3    0    0 -0.12901942669E+00 -0.22655596338E-01  0.37027746931E-02  0.13253414014E+00  0.19806545727E-01 0.  0.
         14    1    1    2    0    0 -0.93312416932E-03 -0.56865560376E-02 -0.20446921653E-01  0.21243451824E-01  0.00000000000E+00 0.  1.
     999901    1    3    3    0    0  0.12995255086E+00  0.28342152376E-01  0.16744146960E-01  0.89015240804E+00  0.88000000000E+00 0. -1.
        -11    1    4    4    0    0 -0.55684639876E-02 -0.51882474102E-02 -0.13666664562E-02  0.77494903428E-02  0.51100000000E-03 0. -1.
         11    1    4    4    0    0 -0.12345096270E+00 -0.17467348928E-01  0.50694411493E-02  0.12478464980E+00  0.51100000000E-03 0.  1.
</event>
<event>
 8    1  0.1161271E+005  0.1043930E+01  0.7957747E-01            NaN
         13   -1    0    0    0    0  0.00000000000E+00  0.00000000000E+00  0.74505805969E-08  0.10566000000E+00  0.10566000000E+00 0.  1.
     999900   -1    0    0    0    0 -0.00000000000E+00 -0.00000000000E+00 -0.74505805969E-08  0.93827000000E+00  0.93827000000E+00 0. -1.
     999902    2    1    2    0    0 -0.34497896868E-02 -0.10986087713E-01 -0.20870905973E-01  0.10200932660E+01  0.10198147290E+01 0.  0.
     999903    2    3    3    0    0  0.68259485853E-01 -0.10078894876E+00 -0.47245734841E-01  0.13222930927E+00  0.20848529161E-01 0.  0.
         14    1    1    2    0    0  0.34497896868E-02  0.10986087713E-01  0.20870905973E-01  0.23836734010E-01  0.00000000000E+00 0.  1.
     999901    1    3    3    0    0 -0.71709275540E-01  0.89802861043E-01  0.26374828868E-01  0.88786395672E+00  0.88000000000E+00 0. -1.
        -11    1    4    4    0    0  0.36694005265E-01 -0.59250291224E-01 -0.16323634796E-01  0.71580508565E-01  0.51100000000E-03 0. -1.
         11    1    4    4    0    0  0.31565480588E-01 -0.41538657533E-01 -0.30922100045E-01  0.60648800702E-01  0.51100000000E-03 0.  1.
</event>
<event>
 8    1  0.1161271E+005  0.1043930E+01  0.7957747E-01            NaN
         13   -1    0    0    0    0  0.00000000000E+00  0.00000000000E+00  0.74505805969E-08  0.10566000000E+00  0.10566000000E+00 0.  1.
     999900   -1    0    0    0    0 -0.00000000000E+00 -0.00000000000E+00 -0.74505805969E-08  0.93827000000E+00  0.93827000000E+00 0. -1.
     999902    2    1    2    0    0  0.94658764162E-02 -0.36702697092E-02  0.19817828445E-01  0.10216629836E+01  0.10214203013E+01 0.  0.
     999903    2    3    3    0    0  0.53627133241E-01  0.26604956186E-01  0.11893998328E+00  0.13448092363E+00  0.18833642384E-01 0.  0.
         14    1    1    2    0    0 -0.94658764162E-02  0.36702697092E-02 -0.19817828445E-01  0.22267016422E-01  0.00000000000E+00 0. -1.
     999901    1    3    3    0    0 -0.44161256825E-01 -0.30275225895E-01 -0.99122154835E-01  0.88718205994E+00  0.88000000000E+00 0. -1.
        -11    1    4    4    0    0  0.10955144737E-01 -0.21421649787E-02  0.18086421575E-01  0.21259911415E-01  0.51100000000E-03 0. -1.
         11    1    4    4    0    0  0.42671988504E-01  0.28747121165E-01  0.10085356171E+00  0.11322101222E+00  0.51100000000E-03 0.  1.
</event>
<event>
 8    1  0.1161271E+005  0.1043930E+01  0.7957747E-01            NaN
         13   -1    0    0    0    0  0.00000000000E+00  0.00000000000E+00  0.74505805969E-08  0.10566000000E+00  0.10566000000E+00 0.  1.
     999900   -1    0    0    0    0 -0.00000000000E+00 -0.00000000000E+00 -0.74505805969E-08  0.93827000000E+00  0.93827000000E+00 0.  1.
     999902    2    1    2    0    0 -0.85332755085E-03  0.11265552009E-01  0.20697065658E-01  0.10203501493E+01  0.10200776529E+01 0.  0.
     999903    2    3    3    0    0 -0.11801931546E+00  0.53828635883E-01  0.16126395773E-02  0.13135987935E+00  0.20657599876E-01 0.  0.
         14    1    1    2    0    0  0.85332755085E-03 -0.11265552009E-01 -0.20697065658E-01  0.23579850653E-01  0.00000000000E+00 0. -1.
     999901    1    3    3    0    0  0.11716598791E+00 -0.42563083874E-01  0.19084426081E-01  0.88899027000E+00  0.88000000000E+00 0. -1.
        -11    1    4    4    0    0 -0.19668261733E-01  0.16458904037E-01 -0.41714557077E-02  0.25988424451E-01  0.51100000000E-03 0.  1.
         11    1    4    4    0    0 -0.98351053730E-01  0.37369731846E-01  0.57840952850E-02  0.10537145490E+00  0.51100000000E-03 0. -1.
</event>
<event>
 8    1  0.1161271E+005  0.1043930E+01  0.7957747E-01            NaN
         13   -1    0    0    0    0  0.00000000000E+00  0.00000000000E+00  0.74505805969E-08  0.10566000000E+00  0.10566000000E+00 0. -1.
     999900   -1    0    0    0    0 -0.00000000000E+00 -0.00000000000E+00 -0.74505805969E-08  0.93827000000E+00  0.93827000000E+00 0. -1.
     999902    2    1    2    0    0 -0.38134821803E-02  0.21624700878E-01 -0.81911739422E-02  0.10204935825E+01  0.10202244294E+01 0.  0.
     999903    2    3    3    0    0 -0.27869546974E-01  0.12286942542E+00  0.40325973528E-01  0.13303479355E+00  0.14087753618E-01 0.  0.
         14    1    1    2    0    0  0.38134821803E-02 -0.21624700878E-01  0.81911739422E-02  0.23436417494E-01  0.00000000000E+00 0. -1.
     999901    1    3    3    0    0  0.24056064794E-01 -0.10124472454E+00 -0.48517147470E-01  0.88745878896E+00  0.88000000000E+00 0. -1.
        -11    1    4    4    0    0 -0.17318359468E-01  0.56266073270E-01  0.13117581983E-01  0.60316901893E-01  0.51100000000E-03 0.  1.
         11    1    4    4    0    0 -0.10551187506E-01  0.66603352149E-01  0.27208391545E-01  0.72717891655E-01  0.51100000000E-03 0. -1.
</event>
<event>
 8    1  0.1161271E+005  0.1043930E+01  0.7957747E-01            NaN
         13   -1    0    0    0    0  0.00000000000E+00  0.00000000000E+00  0.74505805969E-08  0.10566000000E+00  0.10566000000E+00 0.  1.
     999900   -1    0    0    0    0 -0.00000000000E+00 -0.00000000000E+00 -0.74505805969E-08  0.93827000000E+00  0.93827000000E+00 0. -1.
     999902    2    1    2    0    0  0.23086543932E-01  0.42190363155E-02 -0.25125235157E-02  0.10203270012E+01  0.10200539632E+01 0.  0.
     999903    2    3    3    0    0  0.45149347553E-01  0.11992890899E+00 -0.20097079829E-01  0.13230405185E+00  0.26058831948E-01 0.  0.
         14    1    1    2    0    0 -0.23086543932E-01 -0.42190363155E-02  0.25125235157E-02  0.23602998804E-01  0.00000000000E+00 0.  1.
     999901    1    3    3    0    0 -0.22062803621E-01 -0.11570987268E+00  0.17584556314E-01  0.88802294934E+00  0.88000000000E+00 0.  1.
        -11    1    4    4    0    0  0.18349266447E-01  0.82117952409E-01 -0.88362055663E-02  0.84607288910E-01  0.51100000000E-03 0.  1.
         11    1    4    4    0    0  0.26800081105E-01  0.37810956584E-01 -0.11260874263E-01  0.47696762943E-01  0.51100000000E-03 0. -1.
</event>
<event>
 8    1  0.1161271E+005  0.1043930E+01  0.7957747E-01            NaN
         13   -1    0    0    0    0  0.00000000000E+00  0.00000000000E+00  0.74505805969E-08  0.10566000000E+00  0.10566000000E+00 0.  1.
     999900   -1    0    0    0    0 -0.00000000000E+00 -0.00000000000E+00 -0.74505805969E-08  0.93827000000E+00  0.93827000000E+00 0. -1.
     999902    2    1    2    0    0 -0.47752718817E-03  0.21082423066E-01  0.10851499120E-01  0.10202139373E+01  0.10199382463E+01 0.  0.
     999903    2    3    3    0    0 -0.69567928578E-01  0.10113635194E+00 -0.45282460096E-01  0.13210744797E+00  0.18265219588E-01 0.  0.
         14    1    1    2    0    0  0.47752718817E-03 -0.21082423066E-01 -0.10851499120E-01  0.23716062652E-01  0.00000000000E+00 0. -1.
     999901    1    3    3    0    0  0.69090401390E-01 -0.80053928877E-01  0.56133959216E-01  0.88810648938E+00  0.88000000000E+00 0. -1.
        -11    1    4    4    0    0 -0.31289169346E-01  0.34882429008E-01 -0.24178111366E-01  0.52731756675E-01  0.51100000000E-03 0. -1.
         11    1    4    4    0    0 -0.38278759233E-01  0.66253922935E-01 -0.21104348730E-01  0.79375691298E-01  0.51100000000E-03 0.  1.
</event>
<event>
 8    1  0.1161271E+005  0.1043930E+01  0.7957747E-01            NaN
         13   -1    0    0    0    0  0.00000000000E+00  0.00000000000E+00  0.74505805969E-08  0.10566000000E+00  0.10566000000E+00 0.  1.
     999900   -1    0    0    0    0 -0.00000000000E+00 -0.00000000000E+00 -0.74505805969E-08  0.93827000000E+00  0.93827000000E+00 0. -1.
     999902    2    1    2    0    0 -0.22840977234E-01 -0.15924514273E-02  0.36103578457E-02  0.10207506811E+01  0.10204874679E+01 0.  0.
     999903    2    3    3    0    0  0.84215301063E-01 -0.77548647975E-02 -0.95106777694E-01  0.12876183870E+00  0.19543722261E-01 0.  0.
         14    1    1    2    0    0  0.22840977234E-01  0.15924514273E-02 -0.36103578457E-02  0.23179318936E-01  0.00000000000E+00 0.  1.
     999901    1    3    3    0    0 -0.10705627830E+00  0.61624133702E-02  0.98717135540E-01  0.89198884237E+00  0.88000000000E+00 0.  1.
        -11    1    4    4    0    0  0.24011294729E-01  0.65882204679E-02 -0.27937583401E-01  0.37426148757E-01  0.51100000000E-03 0.  1.
         11    1    4    4    0    0  0.60204006334E-01 -0.14343085265E-01 -0.67169194293E-01  0.91335689939E-01  0.51100000000E-03 0. -1.
</event>
<event>
 8    1  0.1161271E+005  0.1043930E+01  0.7957747E-01            NaN
         13   -1    0    0    0    0  0.00000000000E+00  0.00000000000E+00  0.74505805969E-08  0.10566000000E+00  0.10566000000E+00 0.  1.
     999900   -1    0    0    0    0 -0.00000000000E+00 -0.00000000000E+00 -0.74505805969E-08  0.93827000000E+00  0.93827000000E+00 0. -1.
     999902    2    1    2    0    0  0.16006940592E-02  0.12932702032E-01 -0.19728570214E-01  0.10202861110E+01  0.10200121151E+01 0.  0.
     999903    2    3    3    0    0  0.28974713735E-01 -0.80609251162E-01  0.92775156611E-01  0.12778595836E+00  0.19612140622E-01 0.  0.
         14    1    1    2    0    0 -0.16006940592E-02 -0.12932702032E-01  0.19728570214E-01  0.23643888978E-01  0.00000000000E+00 0.  1.
     999901    1    3    3    0    0 -0.27374019676E-01  0.93541953194E-01 -0.11250372682E+00  0.89250015267E+00  0.88000000000E+00 0. -1.
        -11    1    4    4    0    0  0.27951937158E-01 -0.50411868040E-01  0.61831007987E-01  0.84534028059E-01  0.51100000000E-03 0.  1.
         11    1    4    4    0    0  0.10227765773E-02 -0.30197383122E-01  0.30944148624E-01  0.43251930297E-01  0.51100000000E-03 0. -1.
</event>
<event>
 8    1  0.1161271E+005  0.1043930E+01  0.7957747E-01            NaN
         13   -1    0    0    0    0  0.00000000000E+00  0.00000000000E+00  0.74505805969E-08  0.10566000000E+00  0.10566000000E+00 0. -1.
     999900   -1    0    0    0    0 -0.00000000000E+00 -0.00000000000E+00 -0.74505805969E-08  0.93827000000E+00  0.93827000000E+00 0. -1.
     999902    2    1    2    0    0  0.16968116859E-01 -0.64067928510E-02  0.14524393800E-01  0.10206937783E+01  0.10204292563E+01 0.  0.
     999903    2    3    3    0    0 -0.12384798585E+00 -0.28437595099E-01  0.64720152608E-02  0.12918978400E+00  0.22385104292E-01 0.  0.
         14    1    1    2    0    0 -0.16968116859E-01  0.64067928510E-02 -0.14524393800E-01  0.23236221716E-01  0.00000000000E+00 0.  1.
     999901    1    3    3    0    0  0.14081610271E+00  0.22030802248E-01  0.80523785396E-02  0.89150399429E+00  0.88000000000E+00 0. -1.
        -11    1    4    4    0    0 -0.26277001816E-01 -0.15563635397E-01 -0.20974712293E-03  0.30545256359E-01  0.51100000000E-03 0. -1.
         11    1    4    4    0    0 -0.97570984031E-01 -0.12873959702E-01  0.66817623837E-02  0.98644527637E-01  0.51100000000E-03 0.  1.
</event>
<event>
 8    1  0.1161271E+005  0.1043930E+01  0.7957747E-01            NaN
         13   -1    0    0    0    0  0.00000000000E+00  0.00000000000E+00  0.74505805969E-08  0.10566000000E+00  0.10566000000E+00 0.  1.
     999900   -1    0    0    0    0 -0.00000000000E+00 -0.00000000000E+00 -0.74505805969E-08  0.93827000000E+00  0.93827000000E+00 0.  1.
     999902    2    1    2    0    0  0.22859120297E-01  0.65981762848E-02  0.79556278698E-02  0.10188428055E+01  0.10185338949E+01 0.  0.
     999903    2    3    3    0    0  0.10582636920E+00 -0.12096893519E-01  0.75507297843E-01  0.13216569512E+00  0.20514962567E-01 0.  0.
         14    1    1    2    0    0 -0.22859120297E-01 -0.65981762848E-02 -0.79556278698E-02  0.25087194459E-01  0.00000000000E+00 0. -1.
     999901    1    3    3    0    0 -0.82967248901E-01  0.18695069804E-01 -0.67551669973E-01  0.88667711042E+00  0.88000000000E+00 0.  1.
        -11    1    4    4    0    0  0.51655890814E-01  0.43803731921E-02  0.36783867416E-01  0.63567544771E-01  0.51100000000E-03 0. -1.
         11    1    4    4    0    0  0.54170478383E-01 -0.16477266711E-01  0.38723430427E-01  0.68598150351E-01  0.51100000000E-03 0.  1.
</event>
<event>
 8    1  0.1161271E+005  0.1043930E+01  0.7957747E-01            NaN
         13   -1    0    0    0    0  0.00000000000E+00  0.00000000000E+00  0.74505805969E-08  0.10566000000E+00  0.10566000000E+00 0. -1.
     999900   -1    0    0    0    0 -0.00000000000E+00 -0.00000000000E+00 -0.74505805969E-08  0.93827000000E+00  0.93827000000E+00 0.  1.
     999902    2    1    2    0    0 -0.94787474967E-02  0.11848618312E-01 -0.14196927566E-01  0.10231504629E+01  0.10229394315E+01 0.  0.
     999903    2    3    3    0    0  0.89478266908E-01  0.96092783070E-01 -0.15368584454E-01  0.13360510555E+00  0.19337725653E-01 0.  0.
         14    1    1    2    0    0  0.94787474967E-02 -0.11848618312E-01  0.14196927566E-01  0.20779537105E-01  0.00000000000E+00 0. -1.
     999901    1    3    3    0    0 -0.98957014405E-01 -0.84244164758E-01  0.11716568880E-02  0.88954535735E+00  0.88000000000E+00 0. -1.
        -11    1    4    4    0    0  0.33937151925E-01  0.25652643747E-01 -0.10208877444E-01  0.43752379497E-01  0.51100000000E-03 0. -1.
         11    1    4    4    0    0  0.55541114984E-01  0.70440139323E-01 -0.51597070100E-02  0.89852726052E-01  0.51100000000E-03 0.  1.
</event>
<event>
 8    1  0.1161271E+005  0.1043930E+01  0.7957747E-01            NaN
         13   -1    0    0    0    0  0.00000000000E+00  0.00000000000E+00  0.74505805969E-08  0.10566000000E+00  0.10566000000E+00 0.  1.
     999900   -1    0    0    0    0 -0.00000000000E+00 -0.00000000000E+00 -0.74505805969E-08  0.93827000000E+00  0.93827000000E+00 0. -1.
     999902    2    1    2    0    0 -0.10738848737E-01  0.21120284802E-01  0.19146507408E-02  0.10201591105E+01  0.10198821282E+01 0.  0.
     999903    2    3    3    0    0  0.10825621098E+00 -0.14478924770E-02 -0.68394688220E-01  0.12908529196E+00  0.16238091508E-01 0.  0.
         14    1    1    2    0    0  0.10738848737E-01 -0.21120284802E-01 -0.19146507408E-02  0.23770889546E-01  0.00000000000E+00 0. -1.
     999901    1    3    3    0    0 -0.11899505971E+00  0.22568177279E-01  0.70309338961E-01  0.89107381849E+00  0.88000000000E+00 0. -1.
        -11    1    4    4    0    0  0.92352112090E-01 -0.19472166528E-03 -0.51090114173E-01  0.10554341008E+00  0.51100000000E-03 0.  1.
         11    1    4    4    0    0  0.15904098887E-01 -0.12531708118E-02 -0.17304574048E-01  0.23541881880E-01  0.51100000000E-03 0. -1.
</event>
<event>
 8    1  0.1161271E+005  0.1043930E+01  0.7957747E-01            NaN
         13   -1    0    0    0    0  0.00000000000E+00  0.00000000000E+00  0.74505805969E-08  0.10566000000E+00  0.10566000000E+00 0.  1.
     999900   -1    0    0    0    0 -0.00000000000E+00 -0.00000000000E+00 -0.74505805969E-08  0.93827000000E+00  0.93827000000E+00 0. -1.
     999902    2    1    2    0    0  0.24146999436E-01  0.29216011874E-02 -0.46078539844E-02  0.10191742804E+01  0.10188735781E+01 0.  0.
     999903    2    3    3    0    0  0.31619811741E-01  0.22249200073E-01 -0.12354583142E+00  0.13093127226E+00  0.19610869325E-01 0.  0.
         14    1    1    2    0    0 -0.24146999436E-01 -0.29216011874E-02  0.46078539844E-02  0.24755719614E-01  0.00000000000E+00 0.  1.
     999901    1    3    3    0    0 -0.74728123053E-02 -0.19327598886E-01  0.11893797744E+00  0.88824300812E+00  0.88000000000E+00 0.  1.
        -11    1    4    4    0    0  0.31223258199E-01  0.12986136122E-01 -0.90783068914E-01  0.96878058953E-01  0.51100000000E-03 0. -1.
         11    1    4    4    0    0  0.39655354174E-03  0.92630639510E-02 -0.32762762510E-01  0.34053213310E-01  0.51100000000E-03 0.  1.
</event>
<event>
 8    1  0.1161271E+005  0.1043930E+01  0.7957747E-01            NaN
         13   -1    0    0    0    0  0.00000000000E+00  0.00000000000E+00  0.74505805969E-08  0.10566000000E+00  0.10566000000E+00 0. -1.
     999900   -1    0    0    0    0 -0.00000000000E+00 -0.00000000000E+00 -0.74505805969E-08  0.93827000000E+00  0.93827000000E+00 0. -1.
     999902    2    1    2    0    0 -0.13619672173E-01  0.18827334469E-01  0.91227097916E-03  0.10206749741E+01  0.10204100188E+01 0.  0.
     999903    2    3    3    0    0 -0.55672544866E-02  0.12847101556E+00  0.29198917109E-01  0.13338318857E+00  0.20067438082E-01 0.  0.
         14    1    1    2    0    0  0.13619672173E-01 -0.18827334469E-01 -0.91227097916E-03  0.23255025944E-01  0.00000000000E+00 0.  1.
     999901    1    3    3    0    0 -0.80524176868E-02 -0.10964368110E+00 -0.28286646130E-01  0.88729178548E+00  0.88000000000E+00 0. -1.
        -11    1    4    4    0    0  0.14224490109E-02  0.37360842930E-01 -0.19737735224E-03  0.37391924589E-01  0.51100000000E-03 0. -1.
         11    1    4    4    0    0 -0.69897034975E-02  0.91110172635E-01  0.29396294461E-01  0.95991263985E-01  0.51100000000E-03 0.  1.
</event>
<event>
 8    1  0.1161271E+005  0.1043930E+01  0.7957747E-01            NaN
         13   -1    0    0    0    0  0.00000000000E+00  0.00000000000E+00  0.74505805969E-08  0.10566000000E+00  0.10566000000E+00 0. -1.
     999900   -1    0    0    0    0 -0.00000000000E+00 -0.00000000000E+00 -0.74505805969E-08  0.93827000000E+00  0.93827000000E+00 0.  1.
     999902    2    1    2    0    0 -0.15051037876E-01 -0.24203815453E-02  0.18583366448E-01  0.10198939126E+01  0.10196106411E+01 0.  0.
     999903    2    3    3    0    0 -0.80438247442E-01  0.93618486784E-01 -0.37125976097E-01  0.13051070935E+00  0.20493277821E-01 0.  0.
         14    1    1    2    0    0  0.15051037876E-01  0.24203815453E-02 -0.18583366448E-01  0.24036087379E-01  0.00000000000E+00 0.  1.
     999901    1    3    3    0    0  0.65387209566E-01 -0.96038868330E-01  0.55709342545E-01  0.88938320327E+00  0.88000000000E+00 0.  1.
        -11    1    4    4    0    0 -0.53838922357E-01  0.51779775565E-01 -0.14877207668E-01  0.76166706290E-01  0.51100000000E-03 0.  1.
         11    1    4    4    0    0 -0.26599325085E-01  0.41838711219E-01 -0.22248768428E-01  0.54344003064E-01  0.51100000000E-03 0. -1.
</event>
<event>
 8    1  0.1161271E+005  0.1043930E+01  0.7957747E-01            NaN
         13   -1    0    0    0    0  0.00000000000E+00  0.00000000000E+00  0.74505805969E-08  0.10566000000E+00  0.10566000000E+00 0. -1.
     999900   -1    0    0    0    0 -0.00000000000E+00 -0.00000000000E+00 -0.74505805969E-08  0.93827000000E+00  0.93827000000E+00 0. -1.
     999902    2    1    2    0    0  0.63959662224E-02 -0.46520724789E-02  0.21904239294E-01  0.10206416797E+01  0.10203759565E+01 0.  0.
     999903    2    3    3    0    0 -0.30167931785E-02  0.12772567259E+00  0.19144389326E-01  0.13068657737E+00  0.19736397400E-01 0.  0.
         14    1    1    2    0    0 -0.63959662224E-02  0.46520724789E-02 -0.21904239294E-01  0.23288320277E-01  0.00000000000E+00 0.  1.
     999901    1    3    3    0    0  0.94127594009E-02 -0.13237774507E+00  0.27598499683E-02  0.88995510235E+00  0.88000000000E+00 0. -1.
        -11    1    4    4    0    0 -0.44452538823E-02  0.89440648132E-01  0.22158340760E-01  0.92253146323E-01  0.51100000000E-03 0.  1.
         11    1    4    4    0    0  0.14284607038E-02  0.38285024460E-01 -0.30139514344E-02  0.38433431048E-01  0.51100000000E-03 0. -1.
</event>
<event>
 8    1  0.1161271E+005  0.1043930E+01  0.7957747E-01            NaN
         13   -1    0    0    0    0  0.00000000000E+00  0.00000000000E+00  0.74505805969E-08  0.10566000000E+00  0.10566000000E+00 0. -1.
     999900   -1    0    0    0    0 -0.00000000000E+00 -0.00000000000E+00 -0.74505805969E-08  0.93827000000E+00  0.93827000000E+00 0. -1.
     999902    2    1    2    0    0 -0.10601957206E-01 -0.67095209706E-02  0.20283172428E-01  0.10200799213E+01  0.10198010687E+01 0.  0.
     999903    2    3    3    0    0 -0.67297158828E-01  0.20167741362E-01 -0.10617369934E+00  0.12882907364E+00  0.19708637809E-01 0.  0.
         14    1    1    2    0    0  0.10601957206E-01  0.67095209706E-02 -0.20283172428E-01  0.23850078658E-01  0.00000000000E+00 0.  1.
     999901    1    3    3    0    0  0.56695201622E-01 -0.26877262333E-01  0.12645687177E+00  0.89125084771E+00  0.88000000000E+00 0.  1.
        -11    1    4    4    0    0 -0.11615761105E-01  0.11951960891E-01 -0.23618890566E-01  0.28911734430E-01  0.51100000000E-03 0. -1.
         11    1    4    4    0    0 -0.55681397723E-01  0.82157804706E-02 -0.82554808776E-01  0.99917339207E-01  0.51100000000E-03 0.  1.
</event>
<event>
 8    1  0.1161271E+005  0.1043930E+01  0.7957747E-01            NaN
         13   -1    0    0    0    0  0.00000000000E+00  0.00000000000E+00  0.74505805969E-08  0.10566000000E+00  0.10566000000E+00 0. -1.
     999900   -1    0    0    0    0 -0.00000000000E+00 -0.00000000000E+00 -0.74505805969E-08  0.93827000000E+00  0.93827000000E+00 0.  1.
     999902    2    1    2    0    0 -0.17982092020E-01 -0.12928996836E-01  0.76431180438E-02  0.10205007054E+01  0.10202317177E+01 0.  0.
     999903    2    3    3    0    0  0.65347239836E-01  0.27663371890E-01  0.10713270093E+00  0.13005716700E+00  0.20048121656E-01 0.  0.
         14    1    1    2    0    0  0.17982092020E-01  0.12928996836E-01 -0.76431180438E-02  0.23429294612E-01  0.00000000000E+00 0. -1.
     999901    1    3    3    0    0 -0.83329331855E-01 -0.40592368726E-01 -0.99489582887E-01  0.89044353838E+00  0.88000000000E+00 0.  1.
        -11    1    4    4    0    0  0.19330948769E-01  0.10645835401E-01  0.18723548779E-01  0.28945669651E-01  0.51100000000E-03 0.  1.
         11    1    4    4    0    0  0.46016291067E-01  0.17017536489E-01  0.88409152152E-01  0.10111149735E+00  0.51100000000E-03 0. -1.
</event>
<event>
 8    1  0.1161271E+005  0.1043930E+01  0.7957747E-01            NaN
         13   -1    0    0    0    0  0.00000000000E+00  0.00000000000E+00  0.74505805969E-08  0.10566000000E+00  0.10566000000E+00 0. -1.
     999900   -1    0    0    0    0 -0.00000000000E+00 -0.00000000000E+00 -0.74505805969E-08  0.93827000000E+00  0.93827000000E+00 0.  1.
     999902    2    1    2    0    0 -0.20454719523E-01 -0.12296743544E-01  0.10043037984E-02  0.10200424702E+01  0.10197627307E+01 0.  0.
     999903    2    3    3    0    0 -0.11311344877E+00 -0.44508202570E-01  0.50504323301E-01  0.13320907543E+00  0.20453330197E-01 0.  0.
         14    1    1    2    0    0  0.20454719523E-01  0.12296743544E-01 -0.10043037984E-02  0.23887529774E-01  0.00000000000E+00 0. -1.
     999901    1    3    3    0    0  0.92658729245E-01  0.32211459026E-01 -0.49500019502E-01  0.88683339480E+00  0.88000000000E+00 0.  1.
        -11    1    4    4    0    0 -0.80668743236E-01 -0.23543905952E-01  0.40591169285E-01  0.93325590208E-01  0.51100000000E-03 0. -1.
         11    1    4    4    0    0 -0.32444705532E-01 -0.20964296618E-01  0.99131540154E-02  0.39883485220E-01  0.51100000000E-03 0.  1.
</event>
<event>
 8    1  0.1161271E+005  0.1043930E+01  0.7957747E-01            NaN
         13   -1    0    0    0    0  0.00000000000E+00  0.00000000000E+00  0.74505805969E-08  0.10566000000E+00  0.10566000000E+00 0.  1.
     999900   -1    0    0    0    0 -0.00000000000E+00 -0.00000000000E+00 -0.74505805969E-08  0.93827000000E+00  0.93827000000E+00 0.  1.
     999902    2    1    2    0    0  0.51906805060E-03 -0.22308207079E-01 -0.47029322323E-03  0.10216107995E+01  0.10213669659E+01 0.  0.
     999903    2    3    3    0    0 -0.15659248855E-01 -0.97524340561E-01 -0.87991058047E-01  0.13392893705E+00  0.20936208010E-01 0.  0.
         14    1    1    2    0    0 -0.51906805060E-03  0.22308207079E-01  0.47029322323E-03  0.22319200488E-01  0.00000000000E+00 0.  1.
     999901    1    3    3    0    0  0.16178316905E-01  0.75216133483E-01  0.87520764824E-01  0.88768186246E+00  0.88000000000E+00 0. -1.
        -11    1    4    4    0    0 -0.92410488505E-02 -0.72237532438E-01 -0.75836959404E-01  0.10514353812E+00  0.51100000000E-03 0.  1.
         11    1    4    4    0    0 -0.64182000044E-02 -0.25286808123E-01 -0.12154098643E-01  0.28785398923E-01  0.51100000000E-03 0. -1.
</event>
<event>
 8    1  0.1161271E+005  0.1043930E+01  0.7957747E-01            NaN
         13   -1    0    0    0    0  0.00000000000E+00  0.00000000000E+00  0.74505805969E-08  0.10566000000E+00  0.10566000000E+00 0. -1.
     999900   -1    0    0    0    0 -0.00000000000E+00 -0.00000000000E+00 -0.74505805969E-08  0.93827000000E+00  0.93827000000E+00 0. -1.
     999902    2    1    2    0    0 -0.39874393830E-02  0.22992570325E-01  0.11052435648E-02  0.10205680753E+01  0.10203006502E+01 0.  0.
     999903    2    3    3    0    0 -0.53940652549E-01  0.19979612320E-01 -0.11636626220E+00  0.13135271549E+00  0.20091042371E-01 0.  0.
         14    1    1    2    0    0  0.39874393830E-02 -0.22992570325E-01 -0.11052435648E-02  0.23361924714E-01  0.00000000000E+00 0. -1.
     999901    1    3    3    0    0  0.49953213166E-01  0.30129580059E-02  0.11747150577E+00  0.88921535979E+00  0.88000000000E+00 0.  1.
        -11    1    4    4    0    0 -0.31716808038E-01  0.14706566648E-01 -0.48833327502E-01  0.60059920168E-01  0.51100000000E-03 0. -1.
         11    1    4    4    0    0 -0.22223844510E-01  0.52730456718E-02 -0.67532934699E-01  0.71292795327E-01  0.51100000000E-03 0.  1.
</event>
<event>
 8    1  0.1161271E+005  0.1043930E+01  0.7957747E-01            NaN
         13   -1    0    0    0    0  0.00000000000E+00  0.00000000000E+00  0.74505805969E-08  0.10566000000E+00  0.10566000000E+00 0. -1.
     999900   -1    0    0    0    0 -0.00000000000E+00 -0.00000000000E+00 -0.74505805969E-08  0.93827000000E+00  0.93827000000E+00 0.  1.
     999902    2    1    2    0    0 -0.63596124653E-02 -0.39885143618E-02  0.20496927131E-01  0.10221016483E+01  0.10218685348E+01 0.  0.
     999903    2    3    3    0    0  0.12412383367E+00  0.10026107236E-01 -0.34350414330E-01  0.13068111328E+00  0.19757365508E-01 0.  0.
         14    1    1    2    0    0  0.63596124653E-02  0.39885143618E-02 -0.20496927131E-01  0.21828351732E-01  0.00000000000E+00 0.  1.
     999901    1    3    3    0    0 -0.13048344614E+00 -0.14014621598E-01  0.54847341461E-01  0.89142053499E+00  0.88000000000E+00 0.  1.
        -11    1    4    4    0    0  0.29790673859E-01 -0.60085040458E-02 -0.86823779926E-02  0.31610618128E-01  0.51100000000E-03 0. -1.
         11    1    4    4    0    0  0.94333159812E-01  0.16034611282E-01 -0.25668036337E-01  0.99070495151E-01  0.51100000000E-03 0.  1.
</event>
<event>
 8    1  0.1161271E+005  0.1043930E+01  0.7957747E-01            NaN
         13   -1    0    0    0    0  0.00000000000E+00  0.00000000000E+00  0.74505805969E-08  0.10566000000E+00  0.10566000000E+00 0.  1.
     999900   -1    0    0    0    0 -0.00000000000E+00 -0.00000000000E+00 -0.74505805969E-08  0.93827000000E+00  0.93827000000E+00 0.  1.
     999902    2    1    2    0    0 -0.19549078642E-01  0.23455617926E-02 -0.14320290723E-01  0.10195837711E+01  0.10192930528E+01 0.  0.
     999903    2    3    3    0    0 -0.55878866384E-01  0.10520162335E+00  0.49534798148E-01  0.13055244698E+00  0.20010395287E-01 0.  0.
         14    1    1    2    0    0  0.19549078642E-01 -0.23455617926E-02  0.14320290723E-01  0.24346228913E-01  0.00000000000E+00 0. -1.
     999901    1    3    3    0    0  0.36329787742E-01 -0.10285606156E+00 -0.63855088871E-01  0.88903132411E+00  0.88000000000E+00 0. -1.
        -11    1    4    4    0    0 -0.39558366131E-01  0.87935653680E-01  0.44786647190E-01  0.10631861740E+00  0.51100000000E-03 0. -1.
         11    1    4    4    0    0 -0.16320500252E-01  0.17265969673E-01  0.47481509580E-02  0.24233829573E-01  0.51100000000E-03 0.  1.
</event>
<event>
 8    1  0.1161271E+005  0.1043930E+01  0.7957747E-01            NaN
         13   -1    0    0    0    0  0.00000000000E+00  0.00000000000E+00  0.74505805969E-08  0.10566000000E+00  0.10566000000E+00 0.  1.
     999900   -1    0    0    0    0 -0.00000000000E+00 -0.00000000000E+00 -0.74505805969E-08  0.93827000000E+00  0.93827000000E+00 0.  1.
     999902    2    1    2    0    0  0.45021621725E-02 -0.18456602275E-01 -0.15996032146E-01  0.10190947695E+01  0.10187921086E+01 0.  0.
     999903    2    3    3    0    0 -0.66251379449E-01 -0.27247731577E-01  0.10407202647E+00  0.12808428337E+00  0.21045493548E-01 0.  0.
         14    1    1    2    0    0 -0.45021621725E-02  0.18456602275E-01  0.15996032146E-01  0.24835230544E-01  0.00000000000E+00 0.  1.
     999901    1    3    3    0    0  0.70753541621E-01  0.87911293018E-02 -0.12006805862E+00  0.89101048608E+00  0.88000000000E+00 0.  1.
        -11    1    4    4    0    0 -0.17946327848E-01 -0.11317257401E-01  0.47387579221E-01  0.51922969712E-01  0.51100000000E-03 0.  1.
         11    1    4    4    0    0 -0.48305051601E-01 -0.15930474176E-01  0.56684447250E-01  0.76161313662E-01  0.51100000000E-03 0. -1.
</event>
<event>
 8    1  0.1161271E+005  0.1043930E+01  0.7957747E-01            NaN
         13   -1    0    0    0    0  0.00000000000E+00  0.00000000000E+00  0.74505805969E-08  0.10566000000E+00  0.10566000000E+00 0.  1.
     999900   -1    0    0    0    0 -0.00000000000E+00 -0.00000000000E+00 -0.74505805969E-08  0.93827000000E+00  0.93827000000E+00 0. -1.
     999902    2    1    2    0    0 -0.26201828204E-02  0.18743420233E-01 -0.13516093470E-01  0.10206734753E+01  0.10204084854E+01 0.  0.
     999903    2    3    3    0    0  0.11671254510E+00  0.39880314021E-01  0.38904160022E-01  0.13082239154E+00  0.19715649403E-01 0.  0.
         14    1    1    2    0    0  0.26201828204E-02 -0.18743420233E-01  0.13516093470E-01  0.23256524735E-01  0.00000000000E+00 0.  1.
     999901    1    3    3    0    0 -0.11933272792E+00 -0.21136893788E-01 -0.52420253491E-01  0.88985108373E+00  0.88000000000E+00 0. -1.
        -11    1    4    4    0    0  0.27907745210E-01  0.18062963899E-02  0.12628577193E-01  0.30689526427E-01  0.51100000000E-03 0.  1.
         11    1    4    4    0    0  0.88804799888E-01  0.38074017631E-01  0.26275582829E-01  0.10013286511E+00  0.51100000000E-03 0. -1.
</event>
<event>
 8    1  0.1161271E+005  0.1043930E+01  0.7957747E-01            NaN
         13   -1    0    0    0    0  0.00000000000E+00  0.00000000000E+00  0.74505805969E-08  0.10566000000E+00  0.10566000000E+00 0.  1.
     999900   -1    0    0    0    0 -0.00000000000E+00 -0.00000000000E+00 -0.74505805969E-08  0.93827000000E+00  0.93827000000E+00 0.  1.
     999902    2    1    2    0    0  0.88831732743E-02  0.23012916012E-01  0.27522257925E-03  0.10192605692E+01  0.10189619851E+01 0.  0.
     999903    2    3    3    0    0  0.74126047660E-02  0.12993910760E+00 -0.98002134057E-02  0.13272975332E+00  0.24125190941E-01 0.  0.
         14    1    1    2    0    0 -0.88831732743E-02 -0.23012916012E-01 -0.27522257925E-03  0.24669430846E-01  0.00000000000E+00 0. -1.
     999901    1    3    3    0    0  0.14705685083E-02 -0.10692619159E+00  0.10075435985E-01  0.88653081584E+00  0.88000000000E+00 0. -1.
        -11    1    4    4    0    0  0.24544733874E-02  0.32307417622E-01  0.79667834306E-02  0.33369513515E-01  0.51100000000E-03 0. -1.
         11    1    4    4    0    0  0.49581313786E-02  0.97631689983E-01 -0.17766996836E-01  0.99360239801E-01  0.51100000000E-03 0.  1.
</event>
<event>
 8    1  0.1161271E+005  0.1043930E+01  0.7957747E-01            NaN
         13   -1    0    0    0    0  0.00000000000E+00  0.00000000000E+00  0.74505805969E-08  0.10566000000E+00  0.10566000000E+00 0.  1.
     999900   -1    0    0    0    0 -0.00000000000E+00 -0.00000000000E+00 -0.74505805969E-08  0.93827000000E+00  0.93827000000E+00 0.  1.
     999902    2    1    2    0    0 -0.16510520116E-01  0.17633272459E-01 -0.51899651732E-02  0.10192224038E+01  0.10189228838E+01 0.  0.
     999903    2    3    3    0    0 -0.11107558888E-01  0.93118514785E-01  0.88936766681E-01  0.13097297066E+00  0.21206954424E-01 0.  0.
         14    1    1    2    0    0  0.16510520116E-01 -0.17633272459E-01  0.51899651732E-02  0.24707596213E-01  0.00000000000E+00 0. -1.
     999901    1    3    3    0    0 -0.54029612282E-02 -0.75485242326E-01 -0.94126731854E-01  0.88824943313E+00  0.88000000000E+00 0.  1.
        -11    1    4    4    0    0 -0.20010423969E-02  0.80523032456E-01  0.76009022144E-01  0.11075014896E+00  0.51100000000E-03 0. -1.
         11    1    4    4    0    0 -0.91065164914E-02  0.12595482330E-01  0.12927744536E-01  0.20222821700E-01  0.51100000000E-03 0.  1.
</event>
<event>
 8    1  0.1161271E+005  0.1043930E+01  0.7957747E-01            NaN
         13   -1    0    0    0    0  0.00000000000E+00  0.00000000000E+00  0.74505805969E-08  0.10566000000E+00  0.10566000000E+00 0.  1.
     999900   -1    0    0    0    0 -0.00000000000E+00 -0.00000000000E+00 -0.74505805969E-08  0.93827000000E+00  0.93827000000E+00 0.  1.
     999902    2    1    2    0    0 -0.19425535437E-01  0.13962737366E-01  0.46392283669E-02  0.10195613336E+01  0.10192700727E+01 0.  0.
     999903    2    3    3    0    0  0.25041943078E-01 -0.10581545749E+00  0.65355279239E-01  0.12826418258E+00  0.18877977935E-01 0.  0.
         14    1    1    2    0    0  0.19425535437E-01 -0.13962737366E-01 -0.46392283669E-02  0.24368666389E-01  0.00000000000E+00 0.  1.
     999901    1    3    3    0    0 -0.44467478515E-01  0.11977819485E+00 -0.60716050872E-01  0.89129715103E+00  0.88000000000E+00 0. -1.
        -11    1    4    4    0    0  0.86523620373E-02 -0.18993706463E-01  0.56582590718E-02  0.21631025652E-01  0.51100000000E-03 0.  1.
         11    1    4    4    0    0  0.16389581041E-01 -0.86821751026E-01  0.59697020167E-01  0.10663315692E+00  0.51100000000E-03 0. -1.
</event>
<event>
 8    1  0.1161271E+005  0.1043930E+01  0.7957747E-01            NaN
         13   -1    0    0    0    0  0.00000000000E+00  0.00000000000E+00  0.74505805969E-08  0.10566000000E+00  0.10566000000E+00 0.  1.
     999900   -1    0    0    0    0 -0.00000000000E+00 -0.00000000000E+00 -0.74505805969E-08  0.93827000000E+00  0.93827000000E+00 0. -1.
     999902    2    1    2    0    0 -0.21445511525E-02 -0.75783710307E-02  0.22445008799E-01  0.10201432552E+01  0.10198658990E+01 0.  0.
     999903    2    3    3    0    0 -0.12404972185E+00  0.28767637952E-01  0.23563823152E-01  0.13099582383E+00  0.19716531468E-01 0.  0.
         14    1    1    2    0    0  0.21445511525E-02  0.75783710307E-02 -0.22445008799E-01  0.23786744777E-01  0.00000000000E+00 0. -1.
     999901    1    3    3    0    0  0.12190517070E+00 -0.36346008982E-01 -0.11188143534E-02  0.88914743140E+00  0.88000000000E+00 0. -1.
        -11    1    4    4    0    0 -0.81074529650E-01  0.18485328007E-01  0.57696181013E-02  0.83356681337E-01  0.51100000000E-03 0.  1.
         11    1    4    4    0    0 -0.42975192204E-01  0.10282309944E-01  0.17794205051E-01  0.47639142490E-01  0.51100000000E-03 0. -1.
</event>
<event>
 8    1  0.1161271E+005  0.1043930E+01  0.7957747E-01            NaN
         13   -1    0    0    0    0  0.00000000000E+00  0.00000000000E+00  0.74505805969E-08  0.10566000000E+00  0.10566000000E+00 0. -1.
     999900   -1    0    0    0    0 -0.00000000000E+00 -0.00000000000E+00 -0.74505805969E-08  0.93827000000E+00  0.93827000000E+00 0.  1.
     999902    2    1    2    0    0  0.64411520578E-02 -0.19509670077E-01  0.87898713516E-02  0.10215832440E+01  0.10213388012E+01 0.  0.
     999903    2    3    3    0    0  0.58636091940E-01  0.10859267976E+00  0.36808328741E-01  0.13033717373E+00  0.20059023288E-01 0.  0.
         14    1    1    2    0    0 -0.64411520578E-02  0.19509670077E-01 -0.87898713516E-02  0.22346756022E-01  0.00000000000E+00 0. -1.
     999901    1    3    3    0    0 -0.52194939883E-01 -0.12810234984E+00 -0.28018457390E-01  0.89124607025E+00  0.88000000000E+00 0.  1.
        -11    1    4    4    0    0  0.21669510696E-01  0.27115082481E-01  0.35988206481E-02  0.34899971674E-01  0.51100000000E-03 0. -1.
         11    1    4    4    0    0  0.36966581244E-01  0.81477597278E-01  0.33209508093E-01  0.95437202054E-01  0.51100000000E-03 0.  1.
</event>
<event>
 8    1  0.1161271E+005  0.1043930E+01  0.7957747E-01            NaN
         13   -1    0    0    0    0  0.00000000000E+00  0.00000000000E+00  0.74505805969E-08  0.10566000000E+00  0.10566000000E+00 0.  1.
     999900   -1    0    0    0    0 -0.00000000000E+00 -0.00000000000E+00 -0.74505805969E-08  0.93827000000E+00  0.93827000000E+00 0. -1.
     999902    2    1    2    0    0  0.10441152434E-01 -0.51853543004E-02 -0.19179537020E-01  0.10214853970E+01  0.10212387850E+01 0.  0.
     999903    2    3    3    0    0  0.11042865534E+00  0.68779871009E-01 -0.16882014800E-01  0.13273704460E+00  0.20222809155E-01 0.  0.
         14    1    1    2    0    0 -0.10441152434E-01  0.51853543004E-02  0.19179537020E-01  0.22444602997E-01  0.00000000000E+00 0.  1.
     999901    1    3    3    0    0 -0.99987502901E-01 -0.73965225310E-01 -0.22975222202E-02  0.88874835240E+00  0.88000000000E+00 0. -1.
        -11    1    4    4    0    0  0.77333982114E-01  0.57414796069E-01 -0.16611591722E-01  0.97740522291E-01  0.51100000000E-03 0.  1.
         11    1    4    4    0    0  0.33094673221E-01  0.11365074940E-01 -0.27042307784E-03  0.34996522308E-01  0.51100000000E-03 0. -1.
</event>
<event>
 8    1  0.1161271E+005  0.1043930E+01  0.7957747E-01            NaN
         13   -1    0    0    0    0  0.00000000000E+00  0.00000000000E+00  0.74505805969E-08  0.10566000000E+00  0.10566000000E+00 0.  1.
     999900   -1    0    0    0    0 -0.00000000000E+00 -0.00000000000E+00 -0.74505805969E-08  0.93827000000E+00  0.93827000000E+00 0.  1.
     999902    2    1    2    0    0  0.21928434355E-01 -0.60797602762E-04  0.91076760310E-02  0.10201853229E+01  0.10199089583E+01 0.  0.
     999903    2    3    3    0    0  0.10089964690E+00  0.62013398772E-01 -0.55441968243E-01  0.13212208478E+00  0.18868838633E-01 0.  0.
         14    1    1    2    0    0 -0.21928434355E-01  0.60797602762E-04 -0.91076760310E-02  0.23744677136E-01  0.00000000000E+00 0.  1.
     999901    1    3    3    0    0 -0.78971212544E-01 -0.62074196374E-01  0.64549644274E-01  0.88806323809E+00  0.88000000000E+00 0. -1.
        -11    1    4    4    0    0  0.78348130206E-02  0.81024500262E-02 -0.10971964571E-01  0.15737824470E-01  0.51100000000E-03 0. -1.
         11    1    4    4    0    0  0.93064833879E-01  0.53910948746E-01 -0.44470003673E-01  0.11638426031E+00  0.51100000000E-03 0.  1.
</event>
<event>
 8    1  0.1161271E+005  0.1043930E+01  0.7957747E-01            NaN
         13   -1    0    0    0    0  0.00000000000E+00  0.00000000000E+00  0.74505805969E-08  0.10566000000E+00  0.10566000000E+00 0.  1.
     999900   -1    0    0    0    0 -0.00000000000E+00 -0.00000000000E+00 -0.74505805969E-08  0.93827000000E+00  0.93827000000E+00 0. -1.
     999902    2    1    2    0    0  0.21813197155E-01 -0.22220583325E-02  0.76097501041E-02  0.10207209197E+01  0.10204570223E+01 0.  0.
     999903    2    3    3    0    0 -0.61944186865E-02  0.11080440727E+00  0.66825667159E-01  0.13107720822E+00  0.19989427989E-01 0.  0.
         14    1    1    2    0    0 -0.21813197155E-01  0.22220583325E-02 -0.76097501041E-02  0.23209080335E-01  0.00000000000E+00 0.  1.
     999901    1    3    3    0    0  0.28007615842E-01 -0.11302646560E+00 -0.59215917055E-01  0.88964371144E+00  0.88000000000E+00 0.  1.
        -11    1    4    4    0    0  0.17396444732E-02  0.79675503145E-01  0.55042879775E-01  0.96856553207E-01  0.51100000000E-03 0.  1.
         11    1    4    4    0    0 -0.79340631598E-02  0.31128904126E-01  0.11782787384E-01  0.34220655017E-01  0.51100000000E-03 0. -1.
</event>
<event>
 8    1  0.1161271E+005  0.1043930E+01  0.7957747E-01            NaN
         13   -1    0    0    0    0  0.00000000000E+00  0.00000000000E+00  0.74505805969E-08  0.10566000000E+00  0.10566000000E+00 0.  1.
     999900   -1    0    0    0    0 -0.00000000000E+00 -0.00000000000E+00 -0.74505805969E-08  0.93827000000E+00  0.93827000000E+00 0. -1.
     999902    2    1    2    0    0 -0.12731013700E-01  0.17779889816E-01  0.94631816722E-03  0.10220416764E+01  0.10218072664E+01 0.  0.
     999903    2    3    3    0    0 -0.10624254754E+00  0.36429152882E-01 -0.70345177799E-01  0.13402440215E+00  0.19988352743E-01 0.  0.
         14    1    1    2    0    0  0.12731013700E-01 -0.17779889816E-01 -0.94631816722E-03  0.21888323594E-01  0.00000000000E+00 0. -1.
     999901    1    3    3    0    0  0.93511533841E-01 -0.18649263066E-01  0.71291495966E-01  0.88801727425E+00  0.88000000000E+00 0.  1.
        -11    1    4    4    0    0 -0.22440770749E-01  0.15269256595E-01 -0.22318230032E-01  0.35144030810E-01  0.51100000000E-03 0.  1.
         11    1    4    4    0    0 -0.83801776791E-01  0.21159896287E-01 -0.48026947767E-01  0.98880371343E-01  0.51100000000E-03 0. -1.
</event>
<event>
 8    1  0.1161271E+005  0.1043930E+01  0.7957747E-01            NaN
         13   -1    0    0    0    0  0.00000000000E+00  0.00000000000E+00  0.74505805969E-08  0.10566000000E+00  0.10566000000E+00 0. -1.
     999900   -1    0    0    0    0 -0.00000000000E+00 -0.00000000000E+00 -0.74505805969E-08  0.93827000000E+00  0.93827000000E+00 0.  1.
     999902    2    1    2    0    0 -0.13089045196E-01 -0.71089713961E-02  0.18834879217E-01  0.10199172273E+01  0.10196345116E+01 0.  0.
     999903    2    3    3    0    0  0.76223595877E-01 -0.84706352066E-01  0.61499623509E-01  0.13097494471E+00  0.19673072995E-01 0.  0.
         14    1    1    2    0    0  0.13089045196E-01  0.71089713961E-02 -0.18834879217E-01  0.24012772717E-01  0.00000000000E+00 0.  1.
     999901    1    3    3    0    0 -0.89312641073E-01  0.77597380669E-01 -0.42664744292E-01  0.88894228257E+00  0.88000000000E+00 0.  1.
        -11    1    4    4    0    0  0.42781566279E-02 -0.91356685137E-02  0.11391053460E-01  0.15224331948E-01  0.51100000000E-03 0. -1.
         11    1    4    4    0    0  0.71945439249E-01 -0.75570683552E-01  0.50108570049E-01  0.11575061276E+00  0.51100000000E-03 0.  1.
</event>
<event>
 8    1  0.1161271E+005  0.1043930E+01  0.7957747E-01            NaN
         13   -1    0    0    0    0  0.00000000000E+00  0.00000000000E+00  0.74505805969E-08  0.10566000000E+00  0.10566000000E+00 0. -1.
     999900   -1    0    0    0    0 -0.00000000000E+00 -0.00000000000E+00 -0.74505805969E-08  0.93827000000E+00  0.93827000000E+00 0.  1.
     999902    2    1    2    0    0  0.10008638145E-01 -0.17752958358E-01 -0.10331624695E-01  0.10210808679E+01  0.10208251839E+01 0.  0.
     999903    2    3    3    0    0 -0.75959348609E-01  0.10103182612E+00 -0.16904792114E-01  0.12892419653E+00  0.18932087167E-01 0.  0.
         14    1    1    2    0    0 -0.10008638145E-01  0.17752958358E-01  0.10331624695E-01  0.22849132081E-01  0.00000000000E+00 0.  1.
     999901    1    3    3    0    0  0.85967986755E-01 -0.11878478448E+00  0.65731674188E-02  0.89215667139E+00  0.88000000000E+00 0. -1.
        -11    1    4    4    0    0 -0.49958005485E-01  0.78058689196E-01 -0.16998144129E-01  0.94223984717E-01  0.51100000000E-03 0.  1.
         11    1    4    4    0    0 -0.26001343124E-01  0.22973136925E-01  0.93352014527E-04  0.34700211815E-01  0.51100000000E-03 0. -1.
</event>
<event>
 8    1  0.1161271E+005  0.1043930E+01  0.7957747E-01            NaN
         13   -1    0    0    0    0  0.00000000000E+00  0.00000000000E+00  0.74505805969E-08  0.10566000000E+00  0.10566000000E+00 0. -1.
     999900   -1    0    0    0    0 -0.00000000000E+00 -0.00000000000E+00 -0.74505805969E-08  0.93827000000E+00  0.93827000000E+00 0. -1.
     999902    2    1    2    0    0 -0.14857037526E-01  0.88353566637E-02  0.16120016220E-01  0.10202942217E+01  0.10200204159E+01 0.  0.
     999903    2    3    3    0    0 -0.11179995821E+00 -0.61574746362E-01 -0.22765441786E-01  0.13132426086E+00  0.20907321845E-01 0.  0.
         14    1    1    2    0    0  0.14857037526E-01 -0.88353566637E-02 -0.16120016220E-01  0.23635778269E-01  0.00000000000E+00 0.  1.
     999901    1    3    3    0    0  0.96942920684E-01  0.70410103026E-01  0.38885458006E-01  0.88896996087E+00  0.88000000000E+00 0. -1.
        -11    1    4    4    0    0 -0.52966134253E-01 -0.40775633922E-01 -0.93769920408E-02  0.67500020742E-01  0.51100000000E-03 0. -1.
         11    1    4    4    0    0 -0.58833823956E-01 -0.20799112440E-01 -0.13388449745E-01  0.63824240123E-01  0.51100000000E-03 0.  1.
</event>
<event>
 8    1  0.1161271E+005  0.1043930E+01  0.7957747E-01            NaN
         13   -1    0    0    0    0  0.00000000000E+00  0.00000000000E+00  0.74505805969E-08  0.10566000000E+00  0.10566000000E+00 0.  1.
     999900   -1    0    0    0    0 -0.00000000000E+00 -0.00000000000E+00 -0.74505805969E-08  0.93827000000E+00  0.93827000000E+00 0. -1.
     999902    2    1    2    0    0  0.10740059743E-01  0.17473474229E-01  0.12446685243E-01  0.10199385190E+01  0.10196563105E+01 0.  0.
     999903    2    3    3    0    0 -0.63952029697E-01  0.98661429466E-01  0.56122811304E-01  0.13197568407E+00  0.21068257436E-01 0.  0.
         14    1    1    2    0    0 -0.10740059743E-01 -0.17473474229E-01 -0.12446685243E-01  0.23991480956E-01  0.00000000000E+00 0. -1.
     999901    1    3    3    0    0  0.74692089440E-01 -0.81187955237E-01 -0.43676126061E-01  0.88796283497E+00  0.88000000000E+00 0. -1.
        -11    1    4    4    0    0 -0.76320207732E-02  0.14256429181E-01  0.16310793419E-01  0.22973824606E-01  0.51100000000E-03 0.  1.
         11    1    4    4    0    0 -0.56320008924E-01  0.84405000285E-01  0.39812017885E-01  0.10900185947E+00  0.51100000000E-03 0. -1.
</event>
<event>
 8    1  0.1161271E+005  0.1043930E+01  0.7957747E-01            NaN
         13   -1    0    0    0    0  0.00000000000E+00  0.00000000000E+00  0.74505805969E-08  0.10566000000E+00  0.10566000000E+00 0.  1.
     999900   -1    0    0    0    0 -0.00000000000E+00 -0.00000000000E+00 -0.74505805969E-08  0.93827000000E+00  0.93827000000E+00 0. -1.
     999902    2    1    2    0    0 -0.18850007518E-01 -0.48176639159E-02  0.97629248623E-02  0.10221619645E+01  0.10219301513E+01 0.  0.
     999903    2    3    3    0    0  0.11742824278E+00  0.43108397128E-01  0.30570313285E-01  0.13014087938E+00  0.18824938921E-01 0.  0.
         14    1    1    2    0    0  0.18850007518E-01  0.48176639159E-02 -0.97629248623E-02  0.21768035531E-01  0.00000000000E+00 0. -1.
     999901    1    3    3    0    0 -0.13627825030E+00 -0.47926061044E-01 -0.20807388423E-01  0.89202108509E+00  0.88000000000E+00 0. -1.
        -11    1    4    4    0    0  0.84880701656E-01  0.25955958561E-01  0.14286610998E-01  0.89904469707E-01  0.51100000000E-03 0. -1.
         11    1    4    4    0    0  0.32547541126E-01  0.17152438567E-01  0.16283702287E-01  0.40236409672E-01  0.51100000000E-03 0.  1.
</event>
<event>
 8    1  0.1161271E+005  0.1043930E+01  0.7957747E-01            NaN
         13   -1    0    0    0    0  0.00000000000E+00  0.00000000000E+00  0.74505805969E-08  0.10566000000E+00  0.10566000000E+00 0. -1.
     999900   -1    0    0    0    0 -0.00000000000E+00 -0.00000000000E+00 -0.74505805969E-08  0.93827000000E+00  0.93827000000E+00 0. -1.
     999902    2    1    2    0    0 -0.58304643243E-02  0.22932932707E-01  0.12177750072E-02  0.10202361887E+01  0.10199610209E+01 0.  0.
     999903    2    3    3    0    0  0.59542054929E-01  0.85446452170E-01  0.78834263246E-01  0.13220137768E+00  0.20396340461E-01 0.  0.
         14    1    1    2    0    0  0.58304643243E-02 -0.22932932707E-01 -0.12177750072E-02  0.23693811275E-01  0.00000000000E+00 0. -1.
     999901    1    3    3    0    0 -0.65372519253E-01 -0.62513519464E-01 -0.77616488238E-01  0.88803481105E+00  0.88000000000E+00 0.  1.
        -11    1    4    4    0    0  0.39998959141E-01  0.54979593603E-01  0.62990460147E-01  0.92686199812E-01  0.51100000000E-03 0.  1.
         11    1    4    4    0    0  0.19543095788E-01  0.30466858568E-01  0.15843803098E-01  0.39515177864E-01  0.51100000000E-03 0. -1.
</event>
<event>
 8    1  0.1161271E+005  0.1043930E+01  0.7957747E-01            NaN
         13   -1    0    0    0    0  0.00000000000E+00  0.00000000000E+00  0.74505805969E-08  0.10566000000E+00  0.10566000000E+00 0.  1.
     999900   -1    0    0    0    0 -0.00000000000E+00 -0.00000000000E+00 -0.74505805969E-08  0.93827000000E+00  0.93827000000E+00 0.  1.
     999902    2    1    2    0    0 -0.21365689813E-01  0.74938365965E-02 -0.97965200608E-02  0.10192597326E+01  0.10189611280E+01 0.  0.
     999903    2    3    3    0    0  0.87764979430E-01 -0.71791385192E-01  0.50782064936E-01  0.12692268063E+00  0.25958700603E-01 0.  0.
         14    1    1    2    0    0  0.21365689813E-01 -0.74938365965E-02  0.97965200608E-02  0.24670267397E-01  0.00000000000E+00 0. -1.
     999901    1    3    3    0    0 -0.10913066924E+00  0.79285221788E-01 -0.60578584997E-01  0.89233705197E+00  0.88000000000E+00 0. -1.
        -11    1    4    4    0    0  0.61008791769E-01 -0.54260456911E-01  0.23732620675E-01  0.85028043976E-01  0.51100000000E-03 0. -1.
         11    1    4    4    0    0  0.26756187662E-01 -0.17530928281E-01  0.27049444261E-01  0.41894636655E-01  0.51100000000E-03 0.  1.
</event>
<event>
 8    1  0.1161271E+005  0.1043930E+01  0.7957747E-01            NaN
         13   -1    0    0    0    0  0.00000000000E+00  0.00000000000E+00  0.74505805969E-08  0.10566000000E+00  0.10566000000E+00 0. -1.
     999900   -1    0    0    0    0 -0.00000000000E+00 -0.00000000000E+00 -0.74505805969E-08  0.93827000000E+00  0.93827000000E+00 0. -1.
     999902    2    1    2    0    0 -0.12709386681E-01  0.13585526459E-01  0.14398703304E-01  0.10204051685E+01  0.10201339570E+01 0.  0.
     999903    2    3    3    0    0  0.10788645798E-01 -0.59587183309E-01  0.11478257897E+00  0.13137011552E+00  0.20397046908E-01 0.  0.
         14    1    1    2    0    0  0.12709386681E-01 -0.13585526459E-01 -0.14398703304E-01  0.23524831473E-01  0.00000000000E+00 0.  1.
     999901    1    3    3    0    0 -0.23498032479E-01  0.73172709768E-01 -0.10038387567E+00  0.88903505301E+00  0.88000000000E+00 0. -1.
        -11    1    4    4    0    0  0.10178519403E-01 -0.31024690019E-01  0.79653843200E-01  0.86087917302E-01  0.51100000000E-03 0.  1.
         11    1    4    4    0    0  0.61012639562E-03 -0.28562493290E-01  0.35128735773E-01  0.45282198215E-01  0.51100000000E-03 0. -1.
</event>
<event>
 8    1  0.1161271E+005  0.1043930E+01  0.7957747E-01            NaN
         13   -1    0    0    0    0  0.00000000000E+00  0.00000000000E+00  0.74505805969E-08  0.10566000000E+00  0.10566000000E+00 0.  1.
     999900   -1    0    0    0    0 -0.00000000000E+00 -0.00000000000E+00 -0.74505805969E-08  0.93827000000E+00  0.93827000000E+00 0.  1.
     999902    2    1    2    0    0  0.48679105827E-02 -0.98713263964E-02 -0.15426304260E-01  0.10249797889E+01  0.10248045946E+01 0.  0.
     999903    2    3    3    0    0  0.12630025205E+00  0.37821087296E-01  0.19308777524E-01  0.13468382361E+00  0.19614156590E-01 0.  0.
         14    1    1    2    0    0 -0.48679105827E-02  0.98713263964E-02  0.15426304260E-01  0.18950211117E-01  0.00000000000E+00 0.  1.
     999901    1    3    3    0    0 -0.12143234147E+00 -0.47692413693E-01 -0.34735081784E-01  0.89029596528E+00  0.88000000000E+00 0.  1.
        -11    1    4    4    0    0  0.97606117165E-01  0.23609265613E-01  0.21077031294E-01  0.10261020368E+00  0.51100000000E-03 0. -1.
         11    1    4    4    0    0  0.28694134890E-01  0.14211821683E-01 -0.17682537705E-02  0.32073619924E-01  0.51100000000E-03 0.  1.
</event>
<event>
 8    1  0.1161271E+005  0.1043930E+01  0.7957747E-01            NaN
         13   -1    0    0    0    0  0.00000000000E+00  0.00000000000E+00  0.74505805969E-08  0.10566000000E+00  0.10566000000E+00 0. -1.
     999900   -1    0    0    0    0 -0.00000000000E+00 -0.00000000000E+00 -0.74505805969E-08  0.93827000000E+00  0.93827000000E+00 0. -1.
     999902    2    1    2    0    0 -0.22930956411E-01  0.67357540242E-02 -0.68617540751E-02  0.10190647067E+01  0.10187613035E+01 0.  0.
     999903    2    3    3    0    0 -0.15042589728E-01  0.11945190372E+00 -0.47473857963E-01  0.13091128538E+00  0.19722085184E-01 0.  0.
         14    1    1    2    0    0  0.22930956411E-01 -0.67357540242E-02  0.68617540751E-02  0.24865293346E-01  0.00000000000E+00 0. -1.
     999901    1    3    3    0    0 -0.78883666829E-02 -0.11271614969E+00  0.40612103888E-01  0.88815342127E+00  0.88000000000E+00 0.  1.
        -11    1    4    4    0    0 -0.21878335304E-02  0.83267335344E-01 -0.36707776907E-01  0.91027236349E-01  0.51100000000E-03 0. -1.
         11    1    4    4    0    0 -0.12854756197E-01  0.36184568372E-01 -0.10766081056E-01  0.39884049036E-01  0.51100000000E-03 0.  1.
</event>
<event>
 8    1  0.1161271E+005  0.1043930E+01  0.7957747E-01            NaN
         13   -1    0    0    0    0  0.00000000000E+00  0.00000000000E+00  0.74505805969E-08  0.10566000000E+00  0.10566000000E+00 0. -1.
     999900   -1    0    0    0    0 -0.00000000000E+00 -0.00000000000E+00 -0.74505805969E-08  0.93827000000E+00  0.93827000000E+00 0. -1.
     999902    2    1    2    0    0 -0.21296274296E-01  0.11850966240E-01  0.88150799045E-03  0.10195424262E+01  0.10192507077E+01 0.  0.
     999903    2    3    3    0    0 -0.22382980664E-02 -0.11747181513E+00  0.47971816741E-01  0.12864114916E+00  0.21038363248E-01 0.  0.
         14    1    1    2    0    0  0.21296274296E-01 -0.11850966240E-01 -0.88150799045E-03  0.24387573804E-01  0.00000000000E+00 0. -1.
     999901    1    3    3    0    0 -0.19057976230E-01  0.12932278137E+00 -0.47090308751E-01  0.89090127703E+00  0.88000000000E+00 0. -1.
        -11    1    4    4    0    0 -0.81374682035E-02 -0.94522590763E-01  0.32272486480E-01  0.10021233985E+00  0.51100000000E-03 0.  1.
         11    1    4    4    0    0  0.58991701371E-02 -0.22949224368E-01  0.15699330261E-01  0.28428809315E-01  0.51100000000E-03 0. -1.
</event>
<event>
 8    1  0.1161271E+005  0.1043930E+01  0.7957747E-01            NaN
         13   -1    0    0    0    0  0.00000000000E+00  0.00000000000E+00  0.74505805969E-08  0.10566000000E+00  0.10566000000E+00 0. -1.
     999900   -1    0    0    0    0 -0.00000000000E+00 -0.00000000000E+00 -0.74505805969E-08  0.93827000000E+00  0.93827000000E+00 0. -1.
     999902    2    1    2    0    0  0.15293771237E-01 -0.17437603772E-01  0.20591788842E-03  0.10207349172E+01  0.10204713417E+01 0.  0.
     999903    2    3    3    0    0 -0.61465480073E-01  0.10190773969E+00 -0.43525379800E-01  0.12829572035E+00  0.20053441700E-01 0.  0.
         14    1    1    2    0    0 -0.15293771237E-01  0.17437603772E-01 -0.20591788842E-03  0.23195082801E-01  0.00000000000E+00 0. -1.
     999901    1    3    3    0    0  0.76759251310E-01 -0.11934534347E+00  0.43731297689E-01  0.89243919685E+00  0.88000000000E+00 0.  1.
        -11    1    4    4    0    0 -0.49309447250E-01  0.86271120235E-01 -0.43522704653E-01  0.10848324625E+00  0.51100000000E-03 0. -1.
         11    1    4    4    0    0 -0.12156032822E-01  0.15636619460E-01 -0.26751469618E-05  0.19812474108E-01  0.51100000000E-03 0.  1.
</event>
<event>
 8    1  0.1161271E+005  0.1043930E+01  0.7957747E-01            NaN
         13   -1    0    0    0    0  0.00000000000E+00  0.00000000000E+00  0.74505805969E-08  0.10566000000E+00  0.10566000000E+00 0. -1.
     999900   -1    0    0    0    0 -0.00000000000E+00 -0.00000000000E+00 -0.74505805969E-08  0.93827000000E+00  0.93827000000E+00 0.  1.
     999902    2    1    2    0    0 -0.62501280426E-03  0.17195059301E-01 -0.17411484459E-02  0.10266357147E+01  0.10264900382E+01 0.  0.
     999903    2    3    3    0    0 -0.10368115028E+00 -0.77434291250E-01 -0.33092515558E-01  0.13503143609E+00  0.19812212448E-01 0.  0.
         14    1    1    2    0    0  0.62501280426E-03 -0.17195059301E-01  0.17411484459E-02  0.17294285278E-01  0.00000000000E+00 0. -1.
     999901    1    3    3    0    0  0.10305613747E+00  0.94629350551E-01  0.31351367112E-01  0.89160427863E+00  0.88000000000E+00 0. -1.
        -11    1    4    4    0    0 -0.76890300879E-01 -0.49214310738E-01 -0.29545943191E-01  0.95955149057E-01  0.51100000000E-03 0.  1.
         11    1    4    4    0    0 -0.26790849399E-01 -0.28219980513E-01 -0.35465723672E-02  0.39076287032E-01  0.51100000000E-03 0. -1.
</event>
<event>
 8    1  0.1161271E+005  0.1043930E+01  0.7957747E-01            NaN
         13   -1    0    0    0    0  0.00000000000E+00  0.00000000000E+00  0.74505805969E-08  0.10566000000E+00  0.10566000000E+00 0. -1.
     999900   -1    0    0    0    0 -0.00000000000E+00 -0.00000000000E+00 -0.74505805969E-08  0.93827000000E+00  0.93827000000E+00 0.  1.
     999902    2    1    2    0    0  0.81662908636E-02  0.14528287213E-01  0.15358787959E-01  0.10212661124E+01  0.10210146034E+01 0.  0.
     999903    2    3    3    0    0  0.82849033050E-02  0.10160421948E+00 -0.81090770504E-01  0.13172423623E+00  0.19583266083E-01 0.  0.
         14    1    1    2    0    0 -0.81662908636E-02 -0.14528287213E-01 -0.15358787959E-01  0.22663887649E-01  0.00000000000E+00 0.  1.
     999901    1    3    3    0    0 -0.11861244136E-03 -0.87075932265E-01  0.96449558462E-01  0.88954187612E+00  0.88000000000E+00 0. -1.
        -11    1    4    4    0    0  0.12308818762E-01  0.87453473501E-01 -0.63439700320E-01  0.10874039610E+00  0.51100000000E-03 0.  1.
         11    1    4    4    0    0 -0.40239154573E-02  0.14150745977E-01 -0.17651070184E-01  0.22983840126E-01  0.51100000000E-03 0. -1.
</event>
<event>
 8    1  0.1161271E+005  0.1043930E+01  0.7957747E-01            NaN
         13   -1    0    0    0    0  0.00000000000E+00  0.00000000000E+00  0.74505805969E-08  0.10566000000E+00  0.10566000000E+00 0.  1.
     999900   -1    0    0    0    0 -0.00000000000E+00 -0.00000000000E+00 -0.74505805969E-08  0.93827000000E+00  0.93827000000E+00 0. -1.
     999902    2    1    2    0    0  0.10190794651E-01  0.11798685682E-01  0.17917502922E-01  0.10201792486E+01  0.10199027410E+01 0.  0.
     999903    2    3    3    0    0  0.43463796551E-01  0.10513141960E+00 -0.62130010306E-01  0.13100789493E+00  0.19005613774E-01 0.  0.
         14    1    1    2    0    0 -0.10190794651E-01 -0.11798685682E-01 -0.17917502922E-01  0.23750751365E-01  0.00000000000E+00 0. -1.
     999901    1    3    3    0    0 -0.33273001900E-01 -0.93332733920E-01  0.80047513228E-01  0.88917135371E+00  0.88000000000E+00 0.  1.
        -11    1    4    4    0    0  0.19168095219E-01  0.28861760793E-01 -0.12570907732E-01  0.36860628760E-01  0.51100000000E-03 0. -1.
         11    1    4    4    0    0  0.24295701332E-01  0.76269658809E-01 -0.49559102575E-01  0.94147266169E-01  0.51100000000E-03 0.  1.
</event>
<event>
 8    1  0.1161271E+005  0.1043930E+01  0.7957747E-01            NaN
         13   -1    0    0    0    0  0.00000000000E+00  0.00000000000E+00  0.74505805969E-08  0.10566000000E+00  0.10566000000E+00 0.  1.
     999900   -1    0    0    0    0 -0.00000000000E+00 -0.00000000000E+00 -0.74505805969E-08  0.93827000000E+00  0.93827000000E+00 0. -1.
     999902    2    1    2    0    0 -0.14492346573E-01  0.18119989407E-01 -0.56740698719E-02  0.10200436609E+01  0.10197639497E+01 0.  0.
     999903    2    3    3    0    0  0.98017815376E-01  0.43858021850E-01  0.69885817129E-01  0.12929662648E+00  0.17394596049E-01 0.  0.
         14    1    1    2    0    0  0.14492346573E-01 -0.18119989407E-01  0.56740698719E-02  0.23886339071E-01  0.00000000000E+00 0.  1.
     999901    1    3    3    0    0 -0.11251016195E+00 -0.25738032443E-01 -0.75559887001E-01  0.89074703445E+00  0.88000000000E+00 0.  1.
        -11    1    4    4    0    0  0.37698620541E-01  0.21458329305E-01  0.37088600876E-01  0.57074261478E-01  0.51100000000E-03 0.  1.
         11    1    4    4    0    0  0.60319194834E-01  0.22399692545E-01  0.32797216253E-01  0.72222365002E-01  0.51100000000E-03 0. -1.
</event>
<event>
 8    1  0.1161271E+005  0.1043930E+01  0.7957747E-01            NaN
         13   -1    0    0    0    0  0.00000000000E+00  0.00000000000E+00  0.74505805969E-08  0.10566000000E+00  0.10566000000E+00 0. -1.
     999900   -1    0    0    0    0 -0.00000000000E+00 -0.00000000000E+00 -0.74505805969E-08  0.93827000000E+00  0.93827000000E+00 0.  1.
     999902    2    1    2    0    0  0.46923945462E-02  0.14505367465E-01 -0.18709770944E-01  0.10197953821E+01  0.10195097555E+01 0.  0.
     999903    2    3    3    0    0 -0.93417024459E-01  0.27712217140E-01  0.80997051156E-01  0.12864930579E+00  0.22257900752E-01 0.  0.
         14    1    1    2    0    0 -0.46923945462E-02 -0.14505367465E-01  0.18709770944E-01  0.24134617889E-01  0.00000000000E+00 0.  1.
     999901    1    3    3    0    0  0.98109419005E-01 -0.13206849675E-01 -0.99706822099E-01  0.89114607632E+00  0.88000000000E+00 0. -1.
        -11    1    4    4    0    0 -0.76444167823E-01  0.24739080847E-01  0.54684520383E-01  0.97192545012E-01  0.51100000000E-03 0. -1.
         11    1    4    4    0    0 -0.16972856635E-01  0.29731362933E-02  0.26312530772E-01  0.31456760774E-01  0.51100000000E-03 0.  1.
</event>
<event>
 8    1  0.1161271E+005  0.1043930E+01  0.7957747E-01            NaN
         13   -1    0    0    0    0  0.00000000000E+00  0.00000000000E+00  0.74505805969E-08  0.10566000000E+00  0.10566000000E+00 0.  1.
     999900   -1    0    0    0    0 -0.00000000000E+00 -0.00000000000E+00 -0.74505805969E-08  0.93827000000E+00  0.93827000000E+00 0.  1.
     999902    2    1    2    0    0  0.21829421060E-01 -0.62601357724E-02  0.61762256156E-02  0.10203957975E+01  0.10201243674E+01 0.  0.
     999903    2    3    3    0    0  0.12009184470E+00  0.31542901947E-02 -0.49713426691E-01  0.13311467603E+00  0.28567314732E-01 0.  0.
         14    1    1    2    0    0 -0.21829421060E-01  0.62601357724E-02 -0.61762256156E-02  0.23534202484E-01  0.00000000000E+00 0. -1.
     999901    1    3    3    0    0 -0.98262423637E-01 -0.94144259672E-02  0.55889652307E-01  0.88728112149E+00  0.88000000000E+00 0. -1.
        -11    1    4    4    0    0  0.30441776459E-01  0.12991163617E-01 -0.16670499914E-01  0.37062633129E-01  0.51100000000E-03 0.  1.
         11    1    4    4    0    0  0.89650068238E-01 -0.98368734218E-02 -0.33042926777E-01  0.96052042898E-01  0.51100000000E-03 0. -1.
</event>
<event>
 8    1  0.1161271E+005  0.1043930E+01  0.7957747E-01            NaN
         13   -1    0    0    0    0  0.00000000000E+00  0.00000000000E+00  0.74505805969E-08  0.10566000000E+00  0.10566000000E+00 0. -1.
     999900   -1    0    0    0    0 -0.00000000000E+00 -0.00000000000E+00 -0.74505805969E-08  0.93827000000E+00  0.93827000000E+00 0. -1.
     999902    2    1    2    0    0  0.13953601877E-01  0.13616049777E-01  0.16841652579E-01  0.10181668271E+01  0.10178408258E+01 0.  0.
     999903    2    3    3    0    0  0.83294821204E-01  0.78033336887E-01 -0.58774909496E-01  0.12986752165E+00  0.19592199704E-01 0.  0.
         14    1    1    2    0    0 -0.13953601877E-01 -0.13616049777E-01 -0.16841652579E-01  0.25763172911E-01  0.00000000000E+00 0.  1.
     999901    1    3    3    0    0 -0.69341219327E-01 -0.64417287110E-01  0.75616562075E-01  0.88829930543E+00  0.88000000000E+00 0.  1.
        -11    1    4    4    0    0  0.67794526719E-01  0.64182320285E-01 -0.56062544062E-01  0.10889783312E+00  0.51100000000E-03 0.  1.
         11    1    4    4    0    0  0.15500294484E-01  0.13851016601E-01 -0.27123654333E-02  0.20969688534E-01  0.51100000000E-03 0. -1.
</event>
<event>
 8    1  0.1161271E+005  0.1043930E+01  0.7957747E-01            NaN
         13   -1    0    0    0    0  0.00000000000E+00  0.00000000000E+00  0.74505805969E-08  0.10566000000E+00  0.10566000000E+00 0.  1.
     999900   -1    0    0    0    0 -0.00000000000E+00 -0.00000000000E+00 -0.74505805969E-08  0.93827000000E+00  0.93827000000E+00 0.  1.
     999902    2    1    2    0    0  0.24014532177E-02  0.21999982540E-01  0.91208138355E-02  0.10199935121E+01  0.10197126111E+01 0.  0.
     999903    2    3    3    0    0  0.21720270782E-01 -0.11492370706E+00 -0.46993305496E-01  0.12742972843E+00  0.18727955530E-01 0.  0.
         14    1    1    2    0    0 -0.24014532177E-02 -0.21999982540E-01 -0.91208138355E-02  0.23936487929E-01  0.00000000000E+00 0. -1.
     999901    1    3    3    0    0 -0.19318817564E-01  0.13692368960E+00  0.56114119331E-01  0.89256378364E+00  0.88000000000E+00 0.  1.
        -11    1    4    4    0    0  0.83465041674E-02 -0.29481034862E-01 -0.20907118963E-01  0.37096688432E-01  0.51100000000E-03 0.  1.
         11    1    4    4    0    0  0.13373766614E-01 -0.85442672198E-01 -0.26086186533E-01  0.90333039994E-01  0.51100000000E-03 0. -1.
</event>
<event>
 8    1  0.1161271E+005  0.1043930E+01  0.7957747E-01            NaN
         13   -1    0    0    0    0  0.00000000000E+00  0.00000000000E+00  0.74505805969E-08  0.10566000000E+00  0.10566000000E+00 0.  1.
     999900   -1    0    0    0    0 -0.00000000000E+00 -0.00000000000E+00 -0.74505805969E-08  0.93827000000E+00  0.93827000000E+00 0.  1.
     999902    2    1    2    0    0 -0.21480974807E-01  0.39199607645E-02 -0.86534194204E-02  0.10204421300E+01  0.10201717799E+01 0.  0.
     999903    2    3    3    0    0  0.11176994494E-01  0.12678053183E+00  0.22558778083E-01  0.13075934147E+00  0.19770646299E-01 0.  0.
         14    1    1    2    0    0  0.21480974807E-01 -0.39199607645E-02  0.86534194204E-02  0.23487870033E-01  0.00000000000E+00 0. -1.
     999901    1    3    3    0    0 -0.32657969300E-01 -0.12286057107E+00 -0.31212197503E-01  0.88968278850E+00  0.88000000000E+00 0.  1.
        -11    1    4    4    0    0  0.30890478115E-02  0.68332611638E-01  0.25488505895E-02  0.68451777113E-01  0.51100000000E-03 0.  1.
         11    1    4    4    0    0  0.80879466821E-02  0.58447920192E-01  0.20009927493E-01  0.62307564353E-01  0.51100000000E-03 0. -1.
</event>
<event>
 8    1  0.1161271E+005  0.1043930E+01  0.7957747E-01            NaN
         13   -1    0    0    0    0  0.00000000000E+00  0.00000000000E+00  0.74505805969E-08  0.10566000000E+00  0.10566000000E+00 0.  1.
     999900   -1    0    0    0    0 -0.00000000000E+00 -0.00000000000E+00 -0.74505805969E-08  0.93827000000E+00  0.93827000000E+00 0.  1.
     999902    2    1    2    0    0  0.96187013053E-02 -0.16334835678E-01  0.13225027592E-01  0.10208162027E+01  0.10205544924E+01 0.  0.
     999903    2    3    3    0    0 -0.93707179388E-01 -0.88924097888E-01  0.17326261881E-01  0.13179299785E+00  0.19510619631E-01 0.  0.
         14    1    1    2    0    0 -0.96187013053E-02  0.16334835678E-01 -0.13225027592E-01  0.23113797313E-01  0.00000000000E+00 0.  1.
     999901    1    3    3    0    0  0.10332588069E+00  0.72589262210E-01 -0.41012342888E-02  0.88902320483E+00  0.88000000000E+00 0.  1.
        -11    1    4    4    0    0 -0.40157351461E-01 -0.33485968859E-01 -0.20000898239E-02  0.52327664453E-01  0.51100000000E-03 0. -1.
         11    1    4    4    0    0 -0.53549827927E-01 -0.55438129030E-01  0.19326351705E-01  0.79465333401E-01  0.51100000000E-03 0.  1.
</event>
<event>
 8    1  0.1161271E+005  0.1043930E+01  0.7957747E-01            NaN
         13   -1    0    0    0    0  0.00000000000E+00  0.00000000000E+00  0.74505805969E-08  0.10566000000E+00  0.10566000000E+00 0. -1.
     999900   -1    0    0    0    0 -0.00000000000E+00 -0.00000000000E+00 -0.74505805969E-08  0.93827000000E+00  0.93827000000E+00 0. -1.
     999902    2    1    2    0    0 -0.11579495936E-01 -0.17159809653E-01 -0.15295214676E-01  0.10181911697E+01  0.10178657921E+01 0.  0.
     999903    2    3    3    0    0 -0.11436366473E+00  0.53512265113E-01 -0.20017340776E-01  0.12938217673E+00  0.19910886340E-01 0.  0.
         14    1    1    2    0    0  0.11579495936E-01  0.17159809653E-01  0.15295214676E-01  0.25738830304E-01  0.00000000000E+00 0. -1.
     999901    1    3    3    0    0  0.10278416879E+00 -0.70672074766E-01  0.47221261005E-02  0.88880899297E+00  0.88000000000E+00 0.  1.
        -11    1    4    4    0    0 -0.70454342548E-01  0.24782243771E-01 -0.52685348798E-02  0.74873176579E-01  0.51100000000E-03 0.  1.
         11    1    4    4    0    0 -0.43909322182E-01  0.28730021343E-01 -0.14748805896E-01  0.54509000149E-01  0.51100000000E-03 0. -1.
</event>
<event>
 7    1  0.2105560E+005  0.1043930E+01  0.7957747E-01            NaN
         13   -1    0    0    0    0  0.00000000000E+00  0.00000000000E+00  0.74505805969E-08  0.10566000000E+00  0.10566000000E+00 0.  1.
     999900   -1    0    0    0    0 -0.00000000000E+00 -0.00000000000E+00 -0.74505805969E-08  0.93827000000E+00  0.93827000000E+00 0.  1.
     999903    2    1    2    0    0  0.63658723947E-01 -0.75253912204E-01 -0.18137525933E-01  0.10229161792E+00  0.20469997860E-01 0.  0.
         14    1    1    2    0    0  0.10424410067E-01 -0.24021865147E-01  0.45549578462E-01  0.52540293380E-01  0.00000000000E+00 0.  1.
     999901    1    1    2    0    0 -0.74083134013E-01  0.99275777351E-01 -0.27412052529E-01  0.88909808870E+00  0.88000000000E+00 0.  1.
        -11    1    3    3    0    0  0.47323151424E-01 -0.40774949197E-01 -0.12752846289E-01  0.63757143539E-01  0.51100000000E-03 0. -1.
         11    1    3    3    0    0  0.16335572522E-01 -0.34478963006E-01 -0.53846796444E-02  0.38534474377E-01  0.51100000000E-03 0.  1.
</event>
<event>
 8    1  0.1161271E+005  0.1043930E+01  0.7957747E-01            NaN
         13   -1    0    0    0    0  0.00000000000E+00  0.00000000000E+00  0.74505805969E-08  0.10566000000E+00  0.10566000000E+00 0. -1.
     999900   -1    0    0    0    0 -0.00000000000E+00 -0.00000000000E+00 -0.74505805969E-08  0.93827000000E+00  0.93827000000E+00 0.  1.
     999902    2    1    2    0    0  0.22326430353E-01  0.24145767014E-04 -0.82010446884E-02  0.10201449793E+01  0.10198676638E+01 0.  0.
     999903    2    3    3    0    0 -0.46835931766E-01  0.61397395867E-01  0.10090739466E+00  0.12859870474E+00  0.19801006051E-01 0.  0.
         14    1    1    2    0    0 -0.22326430353E-01 -0.24145767014E-04  0.82010446884E-02  0.23785020692E-01  0.00000000000E+00 0.  1.
     999901    1    3    3    0    0  0.69162362119E-01 -0.61373250100E-01 -0.10910843934E+00  0.89154627457E+00  0.88000000000E+00 0.  1.
        -11    1    4    4    0    0 -0.96267349406E-02  0.24123307222E-02  0.11272942876E-01  0.15027765211E-01  0.51100000000E-03 0. -1.
         11    1    4    4    0    0 -0.37209196825E-01  0.58985065144E-01  0.89634451780E-01  0.11357093953E+00  0.51100000000E-03 0.  1.
</event>
<event>
 8    1  0.1161271E+005  0.1043930E+01  0.7957747E-01            NaN
         13   -1    0    0    0    0  0.00000000000E+00  0.00000000000E+00  0.74505805969E-08  0.10566000000E+00  0.10566000000E+00 0.  1.
     999900   -1    0    0    0    0 -0.00000000000E+00 -0.00000000000E+00 -0.74505805969E-08  0.93827000000E+00  0.93827000000E+00 0. -1.
     999902    2    1    2    0    0 -0.29380695883E-01 -0.12324391942E-01  0.13733303382E-02  0.10120395318E+01  0.10115369553E+01 0.  0.
     999903    2    3    3    0    0  0.94344991887E-01  0.65885428911E-02 -0.71463936195E-01  0.12020377766E+00  0.19936589393E-01 0.  0.
         14    1    1    2    0    0  0.29380695883E-01  0.12324391942E-01 -0.13733303382E-02  0.31890468223E-01  0.00000000000E+00 0.  1.
     999901    1    3    3    0    0 -0.12372568777E+00 -0.18912934833E-01  0.72837266533E-01  0.89183575411E+00  0.88000000000E+00 0. -1.
        -11    1    4    4    0    0  0.61440984173E-02  0.52165755749E-02 -0.91314172603E-02  0.12190426911E-01  0.51100000000E-03 0.  1.
         11    1    4    4    0    0  0.88200893470E-01  0.13719673162E-02 -0.62332518934E-01  0.10801335075E+00  0.51100000000E-03 0. -1.
</event>
<event>
 8    1  0.1161271E+005  0.1043930E+01  0.7957747E-01            NaN
         13   -1    0    0    0    0  0.00000000000E+00  0.00000000000E+00  0.74505805969E-08  0.10566000000E+00  0.10566000000E+00 0.  1.
     999900   -1    0    0    0    0 -0.00000000000E+00 -0.00000000000E+00 -0.74505805969E-08  0.93827000000E+00  0.93827000000E+00 0. -1.
     999902    2    1    2    0    0  0.20994679177E-01 -0.85972217095E-02 -0.45572434601E-02  0.10207900509E+01  0.10205277413E+01 0.  0.
     999903    2    3    3    0    0 -0.36808232785E-01  0.96965766674E-01 -0.75459470025E-01  0.12977274084E+00  0.19738965067E-01 0.  0.
         14    1    1    2    0    0 -0.20994679177E-01  0.85972217095E-02  0.45572434601E-02  0.23139949067E-01  0.00000000000E+00 0. -1.
     999901    1    3    3    0    0  0.57802911962E-01 -0.10556298838E+00  0.70902226565E-01  0.89101731009E+00  0.88000000000E+00 0.  1.
        -11    1    4    4    0    0 -0.30798849923E-01  0.65450178943E-01 -0.60803326269E-01  0.94496564417E-01  0.51100000000E-03 0.  1.
         11    1    4    4    0    0 -0.60093828623E-02  0.31515587732E-01 -0.14656143756E-01  0.35276176426E-01  0.51100000000E-03 0. -1.
</event>
<event>
 8    1  0.1161271E+005  0.1043930E+01  0.7957747E-01            NaN
         13   -1    0    0    0    0  0.00000000000E+00  0.00000000000E+00  0.74505805969E-08  0.10566000000E+00  0.10566000000E+00 0. -1.
     999900   -1    0    0    0    0 -0.00000000000E+00 -0.00000000000E+00 -0.74505805969E-08  0.93827000000E+00  0.93827000000E+00 0.  1.
     999902    2    1    2    0    0 -0.20186853552E-01 -0.13692513832E-01 -0.18687311069E-03  0.10195367855E+01  0.10192449304E+01 0.  0.
     999903    2    3    3    0    0 -0.12221144077E+00  0.42025230253E-01 -0.16403769521E-01  0.13174375156E+00  0.19636094062E-01 0.  0.
         14    1    1    2    0    0  0.20186853552E-01  0.13692513832E-01  0.18687311069E-03  0.24393214485E-01  0.00000000000E+00 0.  1.
     999901    1    3    3    0    0  0.10202458721E+00 -0.55717744085E-01  0.16216896410E-01  0.88779303395E+00  0.88000000000E+00 0.  1.
        -11    1    4    4    0    0 -0.88169022225E-01  0.32437285059E-01 -0.32423713565E-02  0.94003872447E-01  0.51100000000E-03 0. -1.
         11    1    4    4    0    0 -0.34042418540E-01  0.95879451947E-02 -0.13161398164E-01  0.37739879117E-01  0.51100000000E-03 0.  1.
</event>
<event>
 8    1  0.1161271E+005  0.1043930E+01  0.7957747E-01            NaN
         13   -1    0    0    0    0  0.00000000000E+00  0.00000000000E+00  0.74505805969E-08  0.10566000000E+00  0.10566000000E+00 0.  1.
     999900   -1    0    0    0    0 -0.00000000000E+00 -0.00000000000E+00 -0.74505805969E-08  0.93827000000E+00  0.93827000000E+00 0.  1.
     999902    2    1    2    0    0 -0.16609102039E-01  0.49391098297E-02  0.16055312391E-01  0.10203073386E+01  0.10200338401E+01 0.  0.
     999903    2    3    3    0    0  0.11986050175E+00  0.41051838853E-01 -0.10895696391E-01  0.12864908632E+00  0.19495585586E-01 0.  0.
         14    1    1    2    0    0  0.16609102039E-01 -0.49391098297E-02 -0.16055312391E-01  0.23622661417E-01  0.00000000000E+00 0. -1.
     999901    1    3    3    0    0 -0.13646960379E+00 -0.36112729023E-01  0.26951008782E-01  0.89165825226E+00  0.88000000000E+00 0.  1.
        -11    1    4    4    0    0  0.33127421784E-01  0.26207023833E-02 -0.48780683436E-02  0.33590933700E-01  0.51100000000E-03 0.  1.
         11    1    4    4    0    0  0.86733079968E-01  0.38431136469E-01 -0.60176280473E-02  0.95058152619E-01  0.51100000000E-03 0. -1.
</event>
<event>
 8    1  0.1161271E+005  0.1043930E+01  0.7957747E-01            NaN
         13   -1    0    0    0    0  0.00000000000E+00  0.00000000000E+00  0.74505805969E-08  0.10566000000E+00  0.10566000000E+00 0.  1.
     999900   -1    0    0    0    0 -0.00000000000E+00 -0.00000000000E+00 -0.74505805969E-08  0.93827000000E+00  0.93827000000E+00 0. -1.
     999902    2    1    2    0    0 -0.18490330466E-01  0.14569258481E-01 -0.78270915090E-02  0.10191223606E+01  0.10188203801E+01 0.  0.
     999903    2    3    3    0    0  0.37179592511E-01 -0.13100969516E-01 -0.12185107224E+00  0.12959088274E+00  0.19802918509E-01 0.  0.
         14    1    1    2    0    0  0.18490330466E-01 -0.14569258481E-01  0.78270915090E-02  0.24807639446E-01  0.00000000000E+00 0. -1.
     999901    1    3    3    0    0 -0.55669922977E-01  0.27670227997E-01  0.11402398073E+00  0.88953147781E+00  0.88000000000E+00 0.  1.
        -11    1    4    4    0    0  0.31149909511E-01 -0.71415008583E-02 -0.68769949353E-01  0.75834589417E-01  0.51100000000E-03 0.  1.
         11    1    4    4    0    0  0.60296830002E-02 -0.59594686573E-02 -0.53081122887E-01  0.53756293322E-01  0.51100000000E-03 0. -1.
</event>
<event>
 8    1  0.1161271E+005  0.1043930E+01  0.7957747E-01            NaN
         13   -1    0    0    0    0  0.00000000000E+00  0.00000000000E+00  0.74505805969E-08  0.10566000000E+00  0.10566000000E+00 0. -1.
     999900   -1    0    0    0    0 -0.00000000000E+00 -0.00000000000E+00 -0.74505805969E-08  0.93827000000E+00  0.93827000000E+00 0. -1.
     999902    2    1    2    0    0  0.15723300532E-01 -0.17395957711E-01 -0.56805278185E-03  0.10204744205E+01  0.10202048220E+01 0.  0.
     999903    2    3    3    0    0  0.12636623254E+00  0.31922391147E-01 -0.87938850821E-02  0.13213787268E+00  0.19890228679E-01 0.  0.
         14    1    1    2    0    0 -0.15723300532E-01  0.17395957711E-01  0.56805278185E-03  0.23455579470E-01  0.00000000000E+00 0.  1.
     999901    1    3    3    0    0 -0.11064293201E+00 -0.49318348858E-01  0.82258323003E-02  0.88833654785E+00  0.88000000000E+00 0. -1.
        -11    1    4    4    0    0  0.11640025946E+00  0.31433864230E-01 -0.30418618943E-02  0.12060937886E+00  0.51100000000E-03 0. -1.
         11    1    4    4    0    0  0.99659730775E-02  0.48852691685E-03 -0.57520231878E-02  0.11528493817E-01  0.51100000000E-03 0.  1.
</event>
<event>
 8    1  0.1161271E+005  0.1043930E+01  0.7957747E-01            NaN
         13   -1    0    0    0    0  0.00000000000E+00  0.00000000000E+00  0.74505805969E-08  0.10566000000E+00  0.10566000000E+00 0.  1.
     999900   -1    0    0    0    0 -0.00000000000E+00 -0.00000000000E+00 -0.74505805969E-08  0.93827000000E+00  0.93827000000E+00 0.  1.
     999902    2    1    2    0    0  0.20206395902E-01  0.44044696664E-02  0.10641918735E-01  0.10206717064E+01  0.10204066758E+01 0.  0.
     999903    2    3    3    0    0 -0.31314537704E-01 -0.10133045360E+00  0.73651622490E-01  0.13061299855E+00  0.19665522999E-01 0.  0.
         14    1    1    2    0    0 -0.20206395902E-01 -0.44044696664E-02 -0.10641918735E-01  0.23258293634E-01  0.00000000000E+00 0.  1.
     999901    1    3    3    0    0  0.51520933606E-01  0.10573492327E+00 -0.63009703755E-01  0.89005870782E+00  0.88000000000E+00 0.  1.
        -11    1    4    4    0    0 -0.24898709872E-01 -0.53630084953E-01  0.47422780076E-01  0.75797842690E-01  0.51100000000E-03 0.  1.
         11    1    4    4    0    0 -0.64158278312E-02 -0.47700368651E-01  0.26228842414E-01  0.54815155856E-01  0.51100000000E-03 0. -1.
</event>
<event>
 8    1  0.1161271E+005  0.1043930E+01  0.7957747E-01            NaN
         13   -1    0    0    0    0  0.00000000000E+00  0.00000000000E+00  0.74505805969E-08  0.10566000000E+00  0.10566000000E+00 0.  1.
     999900   -1    0    0    0    0 -0.00000000000E+00 -0.00000000000E+00 -0.74505805969E-08  0.93827000000E+00  0.93827000000E+00 0.  1.
     999902    2    1    2    0    0 -0.62295803254E-02 -0.16566047692E-01 -0.16118007081E-01  0.10199919182E+01  0.10197109794E+01 0.  0.
     999903    2    3    3    0    0  0.16859512595E-01 -0.24305773587E-02 -0.12965047858E+00  0.13228558174E+00  0.20001941648E-01 0.  0.
         14    1    1    2    0    0  0.62295803254E-02  0.16566047692E-01  0.16118007081E-01  0.23938081782E-01  0.00000000000E+00 0.  1.
     999901    1    3    3    0    0 -0.23089092920E-01 -0.14135470333E-01  0.11353247150E+00  0.88770633648E+00  0.88000000000E+00 0. -1.
        -11    1    4    4    0    0  0.21273932368E-02  0.75647148859E-02 -0.53732117165E-01  0.54306097717E-01  0.51100000000E-03 0. -1.
         11    1    4    4    0    0  0.14732119358E-01 -0.99952922446E-02 -0.75918361416E-01  0.77979484025E-01  0.51100000000E-03 0.  1.
</event>
<event>
 8    1  0.1161271E+005  0.1043930E+01  0.7957747E-01            NaN
         13   -1    0    0    0    0  0.00000000000E+00  0.00000000000E+00  0.74505805969E-08  0.10566000000E+00  0.10566000000E+00 0. -1.
     999900   -1    0    0    0    0 -0.00000000000E+00 -0.00000000000E+00 -0.74505805969E-08  0.93827000000E+00  0.93827000000E+00 0. -1.
     999902    2    1    2    0    0  0.29443960994E-02  0.21203190189E-01 -0.16266639356E-01  0.10170441617E+01  0.10166887324E+01 0.  0.
     999903    2    3    3    0    0 -0.10051595738E+00  0.78200369538E-01  0.13894318875E-02  0.12897633774E+00  0.20352142180E-01 0.  0.
         14    1    1    2    0    0 -0.29443960994E-02 -0.21203190189E-01  0.16266639356E-01  0.26885838252E-01  0.00000000000E+00 0.  1.
     999901    1    3    3    0    0  0.10346035348E+00 -0.56997179349E-01 -0.17656071243E-01  0.88806782401E+00  0.88000000000E+00 0.  1.
        -11    1    4    4    0    0 -0.41046339430E-01  0.21646941637E-01  0.59180982802E-02  0.46783299062E-01  0.51100000000E-03 0.  1.
         11    1    4    4    0    0 -0.59469617947E-01  0.56553427900E-01 -0.45286663927E-02  0.82193038674E-01  0.51100000000E-03 0. -1.
</event>
<event>
 8    1  0.1161271E+005  0.1043930E+01  0.7957747E-01            NaN
         13   -1    0    0    0    0  0.00000000000E+00  0.00000000000E+00  0.74505805969E-08  0.10566000000E+00  0.10566000000E+00 0.  1.
     999900   -1    0    0    0    0 -0.00000000000E+00 -0.00000000000E+00 -0.74505805969E-08  0.93827000000E+00  0.93827000000E+00 0. -1.
     999902    2    1    2    0    0 -0.17072273116E-01 -0.40651474505E-02  0.13729353967E-01  0.10216480994E+01  0.10214050891E+01 0.  0.
     999903    2    3    3    0    0 -0.28357452645E-01 -0.12426860852E+00 -0.29809652394E-01  0.13233832639E+00  0.19441838154E-01 0.  0.
         14    1    1    2    0    0  0.17072273116E-01  0.40651474505E-02 -0.13729353967E-01  0.22281900581E-01  0.00000000000E+00 0. -1.
     999901    1    3    3    0    0  0.11285179530E-01  0.12020346107E+00  0.43539006361E-01  0.88930977303E+00  0.88000000000E+00 0.  1.
        -11    1    4    4    0    0 -0.20041577387E-01 -0.45831130798E-01 -0.13058945866E-01  0.51700624392E-01  0.51100000000E-03 0. -1.
         11    1    4    4    0    0 -0.83158752582E-02 -0.78437477726E-01 -0.16750706528E-01  0.80637701998E-01  0.51100000000E-03 0.  1.
</event>
<event>
 8    1  0.1161271E+005  0.1043930E+01  0.7957747E-01            NaN
         13   -1    0    0    0    0  0.00000000000E+00  0.00000000000E+00  0.74505805969E-08  0.10566000000E+00  0.10566000000E+00 0.  1.
     999900   -1    0    0    0    0 -0.00000000000E+00 -0.00000000000E+00 -0.74505805969E-08  0.93827000000E+00  0.93827000000E+00 0.  1.
     999902    2    1    2    0    0  0.59554543277E-02 -0.66566543898E-02 -0.21593940076E-01  0.10205617153E+01  0.10202941428E+01 0.  0.
     999903    2    3    3    0    0  0.66786953252E-01  0.88531476820E-01  0.63607132080E-01  0.12925903138E+00  0.19071193708E-01 0.  0.
         14    1    1    2    0    0 -0.59554543277E-02  0.66566543898E-02  0.21593940076E-01  0.23368284745E-01  0.00000000000E+00 0.  1.
     999901    1    3    3    0    0 -0.60831498925E-01 -0.95188131210E-01 -0.85201072156E-01  0.89130268387E+00  0.88000000000E+00 0.  1.
        -11    1    4    4    0    0  0.18986502075E-02  0.41698679313E-02 -0.10485817331E-02  0.47279293381E-02  0.51100000000E-03 0.  1.
         11    1    4    4    0    0  0.64888303045E-01  0.84361608889E-01  0.64655713813E-01  0.12453110204E+00  0.51100000000E-03 0. -1.
</event>
<event>
 8    1  0.1161271E+005  0.1043930E+01  0.7957747E-01            NaN
         13   -1    0    0    0    0  0.00000000000E+00  0.00000000000E+00  0.74505805969E-08  0.10566000000E+00  0.10566000000E+00 0.  1.
     999900   -1    0    0    0    0 -0.00000000000E+00 -0.00000000000E+00 -0.74505805969E-08  0.93827000000E+00  0.93827000000E+00 0. -1.
     999902    2    1    2    0    0 -0.11944177857E-01 -0.19763817306E-01  0.14240438966E-02  0.10207934540E+01  0.10205312225E+01 0.  0.
     999903    2    3    3    0    0  0.65474089437E-01  0.72087123507E-01  0.82577018331E-01  0.12893248464E+00  0.17922384741E-01 0.  0.
         14    1    1    2    0    0  0.11944177857E-01  0.19763817306E-01 -0.14240438966E-02  0.23136545987E-01  0.00000000000E+00 0. -1.
     999901    1    3    3    0    0 -0.77418267294E-01 -0.91850940813E-01 -0.81152974434E-01  0.89186096938E+00  0.88000000000E+00 0.  1.
        -11    1    4    4    0    0  0.56705622737E-01  0.58535172465E-01  0.76188435638E-01  0.11156537506E+00  0.51100000000E-03 0.  1.
         11    1    4    4    0    0  0.87684667007E-02  0.13551951043E-01  0.63885826929E-02  0.17367109580E-01  0.51100000000E-03 0. -1.
</event>
<event>
 8    1  0.1161271E+005  0.1043930E+01  0.7957747E-01            NaN
         13   -1    0    0    0    0  0.00000000000E+00  0.00000000000E+00  0.74505805969E-08  0.10566000000E+00  0.10566000000E+00 0.  1.
     999900   -1    0    0    0    0 -0.00000000000E+00 -0.00000000000E+00 -0.74505805969E-08  0.93827000000E+00  0.93827000000E+00 0.  1.
     999902    2    1    2    0    0 -0.52105439460E-02 -0.19641900588E-01  0.86960351303E-02  0.10218262661E+01  0.10215871686E+01 0.  0.
     999903    2    3    3    0    0 -0.75822379554E-01  0.23683140354E-01  0.10449783219E+00  0.13275873498E+00  0.19878641886E-01 0.  0.
         14    1    1    2    0    0  0.52105439460E-02  0.19641900588E-01 -0.86960351303E-02  0.22103733936E-01  0.00000000000E+00 0. -1.
     999901    1    3    3    0    0  0.70611835608E-01 -0.43325040942E-01 -0.95801797063E-01  0.88906753108E+00  0.88000000000E+00 0.  1.
        -11    1    4    4    0    0 -0.29437769269E-01  0.10997909087E-01  0.57430510868E-01  0.65468014812E-01  0.51100000000E-03 0. -1.
         11    1    4    4    0    0 -0.46384610285E-01  0.12685231267E-01  0.47067321325E-01  0.67290720172E-01  0.51100000000E-03 0.  1.
</event>
<event>
 8    1  0.1161271E+005  0.1043930E+01  0.7957747E-01            NaN
         13   -1    0    0    0    0  0.00000000000E+00  0.00000000000E+00  0.74505805969E-08  0.10566000000E+00  0.10566000000E+00 0.  1.
     999900   -1    0    0    0    0 -0.00000000000E+00 -0.00000000000E+00 -0.74505805969E-08  0.93827000000E+00  0.93827000000E+00 0.  1.
     999902    2    1    2    0    0  0.18027778683E-01 -0.57702024329E-02 -0.13132961886E-01  0.10208915381E+01  0.10206315504E+01 0.  0.
     999903    2    3    3    0    0  0.16554118453E-02  0.66717924319E-01  0.10889275569E+00  0.12936876289E+00  0.20606376578E-01 0.  0.
         14    1    1    2    0    0 -0.18027778683E-01  0.57702024329E-02  0.13132961886E-01  0.23038461934E-01  0.00000000000E+00 0.  1.
     999901    1    3    3    0    0  0.16372366838E-01 -0.72488126752E-01 -0.12202571757E+00  0.89152277518E+00  0.88000000000E+00 0.  1.
        -11    1    4    4    0    0  0.85713281481E-02  0.28743382819E-01  0.59930968045E-01  0.67019637227E-01  0.51100000000E-03 0. -1.
         11    1    4    4    0    0 -0.69159163028E-02  0.37974541500E-01  0.48961787642E-01  0.62349125659E-01  0.51100000000E-03 0.  1.
</event>
<event>
 8    1  0.1161271E+005  0.1043930E+01  0.7957747E-01            NaN
         13   -1    0    0    0    0  0.00000000000E+00  0.00000000000E+00  0.74505805969E-08  0.10566000000E+00  0.10566000000E+00 0.  1.
     999900   -1    0    0    0    0 -0.00000000000E+00 -0.00000000000E+00 -0.74505805969E-08  0.93827000000E+00  0.93827000000E+00 0.  1.
     999902    2    1    2    0    0  0.22875941792E-01  0.37373310650E-02 -0.37140252457E-02  0.10204551126E+01  0.10201850648E+01 0.  0.
     999903    2    3    3    0    0  0.38263814134E-01  0.60261666177E-01  0.10854185653E+00  0.13139202703E+00  0.19670848114E-01 0.  0.
         14    1    1    2    0    0 -0.22875941792E-01 -0.37373310650E-02  0.37140252457E-02  0.23474887431E-01  0.00000000000E+00 0.  1.
     999901    1    3    3    0    0 -0.15387872342E-01 -0.56524335112E-01 -0.11225588178E+00  0.88906308554E+00  0.88000000000E+00 0.  1.
        -11    1    4    4    0    0  0.26113784426E-01  0.51175562509E-01  0.74197797329E-01  0.93842645874E-01  0.51100000000E-03 0.  1.
         11    1    4    4    0    0  0.12150029708E-01  0.90861036675E-02  0.34344059201E-01  0.37549381156E-01  0.51100000000E-03 0. -1.
</event>
<event>
 8    1  0.1161271E+005  0.1043930E+01  0.7957747E-01            NaN
         13   -1    0    0    0    0  0.00000000000E+00  0.00000000000E+00  0.74505805969E-08  0.10566000000E+00  0.10566000000E+00 0. -1.
     999900   -1    0    0    0    0 -0.00000000000E+00 -0.00000000000E+00 -0.74505805969E-08  0.93827000000E+00  0.93827000000E+00 0.  1.
     999902    2    1    2    0    0 -0.21134813843E-01 -0.93595191036E-03  0.10345752988E-01  0.10203802449E+01  0.10201084517E+01 0.  0.
     999903    2    3    3    0    0 -0.62003750659E-01  0.93667434947E-01  0.67435081010E-01  0.13252932147E+00  0.19961899510E-01 0.  0.
         14    1    1    2    0    0  0.21134813843E-01  0.93595191036E-03 -0.10345752988E-01  0.23549755138E-01  0.00000000000E+00 0. -1.
     999901    1    3    3    0    0  0.40868936815E-01 -0.94603386858E-01 -0.57089328022E-01  0.88785092340E+00  0.88000000000E+00 0.  1.
        -11    1    4    4    0    0 -0.32581240718E-01  0.40963074028E-01  0.21110817186E-01  0.56439688198E-01  0.51100000000E-03 0.  1.
         11    1    4    4    0    0 -0.29422509940E-01  0.52704360919E-01  0.46324263824E-01  0.76089633268E-01  0.51100000000E-03 0. -1.
</event>
<event>
 8    1  0.1161271E+005  0.1043930E+01  0.7957747E-01            NaN
         13   -1    0    0    0    0  0.00000000000E+00  0.00000000000E+00  0.74505805969E-08  0.10566000000E+00  0.10566000000E+00 0. -1.
     999900   -1    0    0    0    0 -0.00000000000E+00 -0.00000000000E+00 -0.74505805969E-08  0.93827000000E+00  0.93827000000E+00 0.  1.
     999902    2    1    2    0    0  0.14937739713E-01  0.69266522827E-02 -0.17620526175E-01  0.10198136669E+01  0.10195284781E+01 0.  0.
     999903    2    3    3    0    0  0.17711830657E-01  0.12763855894E+00 -0.17941288966E-01  0.13156867655E+00  0.19573352432E-01 0.  0.
         14    1    1    2    0    0 -0.14937739713E-01 -0.69266522827E-02  0.17620526175E-01  0.24116333102E-01  0.00000000000E+00 0. -1.
     999901    1    3    3    0    0 -0.27740909433E-02 -0.12071190666E+00  0.32076279074E-03  0.88824499035E+00  0.88000000000E+00 0.  1.
        -11    1    4    4    0    0  0.60902890577E-02  0.65941527554E-01 -0.18580385403E-01  0.68781309378E-01  0.51100000000E-03 0.  1.
         11    1    4    4    0    0  0.11621541599E-01  0.61697031388E-01  0.63909643701E-03  0.62787367172E-01  0.51100000000E-03 0. -1.
</event>
<event>
 8    1  0.1161271E+005  0.1043930E+01  0.7957747E-01            NaN
         13   -1    0    0    0    0  0.00000000000E+00  0.00000000000E+00  0.74505805969E-08  0.10566000000E+00  0.10566000000E+00 0.  1.
     999900   -1    0    0    0    0 -0.00000000000E+00 -0.00000000000E+00 -0.74505805969E-08  0.93827000000E+00  0.93827000000E+00 0. -1.
     999902    2    1    2    0    0 -0.18023449045E-01 -0.13760780439E-01 -0.20203640576E-02  0.10211641118E+01  0.10209103083E+01 0.  0.
     999903    2    3    3    0    0  0.35417399647E-01 -0.11363561795E+00 -0.53968443227E-01  0.13238432447E+00  0.21108544144E-01 0.  0.
         14    1    1    2    0    0  0.18023449045E-01  0.13760780439E-01  0.20203640576E-02  0.22765888181E-01  0.00000000000E+00 0.  1.
     999901    1    3    3    0    0 -0.53440848691E-01  0.99874837510E-01  0.51948079169E-01  0.88877978735E+00  0.88000000000E+00 0.  1.
        -11    1    4    4    0    0  0.10372601967E-01 -0.62578271795E-01 -0.34902047385E-01  0.72401968240E-01  0.51100000000E-03 0. -1.
         11    1    4    4    0    0  0.25044797679E-01 -0.51057346154E-01 -0.19066395841E-01  0.59982356227E-01  0.51100000000E-03 0.  1.
</event>
<event>
 8    1  0.1161271E+005  0.1043930E+01  0.7957747E-01            NaN
         13   -1    0    0    0    0  0.00000000000E+00  0.00000000000E+00  0.74505805969E-08  0.10566000000E+00  0.10566000000E+00 0.  1.
     999900   -1    0    0    0    0 -0.00000000000E+00 -0.00000000000E+00 -0.74505805969E-08  0.93827000000E+00  0.93827000000E+00 0.  1.
     999902    2    1    2    0    0 -0.17143016858E-02  0.22173114048E-01  0.96259431883E-02  0.10196968698E+01  0.10194088786E+01 0.  0.
     999903    2    3    3    0    0 -0.79578529039E-01  0.39866293607E-01 -0.92578331118E-01  0.13019048973E+00  0.21371770485E-01 0.  0.
         14    1    1    2    0    0  0.17143016858E-02 -0.22173114048E-01 -0.96259431883E-02  0.24233130197E-01  0.00000000000E+00 0. -1.
     999901    1    3    3    0    0  0.77864227354E-01 -0.17693179559E-01  0.10220427431E+00  0.88950638007E+00  0.88000000000E+00 0. -1.
        -11    1    4    4    0    0 -0.53890255921E-02  0.84754651046E-02 -0.51224708620E-02  0.11286094732E-01  0.51100000000E-03 0.  1.
         11    1    4    4    0    0 -0.74189503447E-01  0.31390828502E-01 -0.87455860256E-01  0.11890439500E+00  0.51100000000E-03 0. -1.
</event>
<event>
 8    1  0.1161271E+005  0.1043930E+01  0.7957747E-01            NaN
         13   -1    0    0    0    0  0.00000000000E+00  0.00000000000E+00  0.74505805969E-08  0.10566000000E+00  0.10566000000E+00 0.  1.
     999900   -1    0    0    0    0 -0.00000000000E+00 -0.00000000000E+00 -0.74505805969E-08  0.93827000000E+00  0.93827000000E+00 0. -1.
     999902    2    1    2    0    0 -0.11703662964E-01  0.17772089874E-01 -0.10664864777E-01  0.10201274319E+01  0.10198497022E+01 0.  0.
     999903    2    3    3    0    0 -0.11918236533E-01  0.13055209842E+00  0.72341875271E-02  0.13274941078E+00  0.19600454870E-01 0.  0.
         14    1    1    2    0    0  0.11703662964E-01 -0.17772089874E-01  0.10664864777E-01  0.23802568054E-01  0.00000000000E+00 0.  1.
     999901    1    3    3    0    0  0.21457356850E-03 -0.11278000854E+00 -0.17899052304E-01  0.88737802116E+00  0.88000000000E+00 0. -1.
        -11    1    4    4    0    0 -0.13535784309E-01  0.84312910233E-01  0.12005125125E-01  0.86233801024E-01  0.51100000000E-03 0. -1.
         11    1    4    4    0    0  0.16175477766E-02  0.46239188183E-01 -0.47709375983E-02  0.46515609759E-01  0.51100000000E-03 0.  1.
</event>
<event>
 8    1  0.1161271E+005  0.1043930E+01  0.7957747E-01            NaN
         13   -1    0    0    0    0  0.00000000000E+00  0.00000000000E+00  0.74505805969E-08  0.10566000000E+00  0.10566000000E+00 0.  1.
     999900   -1    0    0    0    0 -0.00000000000E+00 -0.00000000000E+00 -0.74505805969E-08  0.93827000000E+00  0.93827000000E+00 0. -1.
     999902    2    1    2    0    0  0.57524419478E-02 -0.20949908824E-01  0.10302492593E-01  0.10198856530E+01  0.10196021845E+01 0.  0.
     999903    2    3    3    0    0 -0.12385347742E+00 -0.30403036074E-02  0.33192215574E-01  0.12991802006E+00  0.20689162565E-01 0.  0.
         14    1    1    2    0    0 -0.57524419478E-02  0.20949908824E-01 -0.10302492593E-01  0.24044346981E-01  0.00000000000E+00 0. -1.
     999901    1    3    3    0    0  0.12960591937E+00 -0.17909605217E-01 -0.22889722981E-01  0.88996763296E+00  0.88000000000E+00 0. -1.
        -11    1    4    4    0    0 -0.77346244543E-01  0.14769102197E-02  0.30351277493E-01  0.83102851787E-01  0.51100000000E-03 0. -1.
         11    1    4    4    0    0 -0.46507232874E-01 -0.45172138270E-02  0.28409380808E-02  0.46815168274E-01  0.51100000000E-03 0.  1.
</event>
<event>
 8    1  0.1161271E+005  0.1043930E+01  0.7957747E-01            NaN
         13   -1    0    0    0    0  0.00000000000E+00  0.00000000000E+00  0.74505805969E-08  0.10566000000E+00  0.10566000000E+00 0.  1.
     999900   -1    0    0    0    0 -0.00000000000E+00 -0.00000000000E+00 -0.74505805969E-08  0.93827000000E+00  0.93827000000E+00 0. -1.
     999902    2    1    2    0    0 -0.49951469214E-02  0.19410114098E-01  0.79313398481E-02  0.10223751821E+01  0.10221479359E+01 0.  0.
     999903    2    3    3    0    0  0.67691821815E-01  0.83686444072E-01  0.77795819478E-01  0.13428966398E+00  0.19897755171E-01 0.  0.
         14    1    1    2    0    0  0.49951469214E-02 -0.19410114098E-01 -0.79313398481E-02  0.21554817881E-01  0.00000000000E+00 0.  1.
     999901    1    3    3    0    0 -0.72686968737E-01 -0.64276329973E-01 -0.69864479630E-01  0.88808551814E+00  0.88000000000E+00 0.  1.
        -11    1    4    4    0    0  0.41717912300E-01  0.42712045709E-01  0.52842242295E-01  0.79732469842E-01  0.51100000000E-03 0.  1.
         11    1    4    4    0    0  0.25973909515E-01  0.40974398363E-01  0.24953577183E-01  0.54557194136E-01  0.51100000000E-03 0. -1.
</event>
<event>
 8    1  0.1161271E+005  0.1043930E+01  0.7957747E-01            NaN
         13   -1    0    0    0    0  0.00000000000E+00  0.00000000000E+00  0.74505805969E-08  0.10566000000E+00  0.10566000000E+00 0. -1.
     999900   -1    0    0    0    0 -0.00000000000E+00 -0.00000000000E+00 -0.74505805969E-08  0.93827000000E+00  0.93827000000E+00 0.  1.
     999902    2    1    2    0    0 -0.16030291730E-01 -0.14293140619E-01 -0.35863768721E-02  0.10221555604E+01  0.10219236094E+01 0.  0.
     999903    2    3    3    0    0 -0.89039527498E-01  0.86950108651E-01  0.40118977240E-01  0.13227315129E+00  0.19957338645E-01 0.  0.
         14    1    1    2    0    0  0.16030291730E-01  0.14293140619E-01  0.35863768721E-02  0.21774439620E-01  0.00000000000E+00 0. -1.
     999901    1    3    3    0    0  0.73009235768E-01 -0.10124324927E+00 -0.43705354112E-01  0.88988240909E+00  0.88000000000E+00 0. -1.
        -11    1    4    4    0    0 -0.61580290411E-01  0.71422289239E-01  0.26908892652E-01  0.98069491648E-01  0.51100000000E-03 0.  1.
         11    1    4    4    0    0 -0.27459237087E-01  0.15527819412E-01  0.13210084588E-01  0.34203659642E-01  0.51100000000E-03 0. -1.
</event>
<event>
 8    1  0.1161271E+005  0.1043930E+01  0.7957747E-01            NaN
         13   -1    0    0    0    0  0.00000000000E+00  0.00000000000E+00  0.74505805969E-08  0.10566000000E+00  0.10566000000E+00 0. -1.
     999900   -1    0    0    0    0 -0.00000000000E+00 -0.00000000000E+00 -0.74505805969E-08  0.93827000000E+00  0.93827000000E+00 0.  1.
     999902    2    1    2    0    0 -0.12577158326E-01  0.18538581482E-01 -0.96522760985E-02  0.10195367561E+01  0.10192449002E+01 0.  0.
     999903    2    3    3    0    0  0.34379492053E-02 -0.96054488992E-01  0.81016255668E-01  0.12734348211E+00  0.20357907633E-01 0.  0.
         14    1    1    2    0    0  0.12577158326E-01 -0.18538581482E-01  0.96522760985E-02  0.24393243917E-01  0.00000000000E+00 0.  1.
     999901    1    3    3    0    0 -0.16015107531E-01  0.11459307047E+00 -0.90668531767E-01  0.89219327397E+00  0.88000000000E+00 0.  1.
        -11    1    4    4    0    0 -0.73620170207E-02 -0.61637382666E-01  0.48515198784E-01  0.78786749334E-01  0.51100000000E-03 0. -1.
         11    1    4    4    0    0  0.10799966226E-01 -0.34417106326E-01  0.32501056884E-01  0.48556732776E-01  0.51100000000E-03 0.  1.
</event>
<event>
 8    1  0.1161271E+005  0.1043930E+01  0.7957747E-01            NaN
         13   -1    0    0    0    0  0.00000000000E+00  0.00000000000E+00  0.74505805969E-08  0.10566000000E+00  0.10566000000E+00 0. -1.
     999900   -1    0    0    0    0 -0.00000000000E+00 -0.00000000000E+00 -0.74505805969E-08  0.93827000000E+00  0.93827000000E+00 0.  1.
     999902    2    1    2    0    0  0.22332080806E-01  0.65991001608E-02 -0.56553878316E-02  0.10199664158E+01  0.10196848709E+01 0.  0.
     999903    2    3    3    0    0  0.63087974617E-01  0.10108539100E+00 -0.54792668329E-01  0.13260900508E+00  0.19610275625E-01 0.  0.
         14    1    1    2    0    0 -0.22332080806E-01 -0.65991001608E-02  0.56553878316E-02  0.23963584197E-01  0.00000000000E+00 0.  1.
     999901    1    3    3    0    0 -0.40755893811E-01 -0.94486290838E-01  0.49137280497E-01  0.88735741073E+00  0.88000000000E+00 0.  1.
        -11    1    4    4    0    0  0.26802974711E-01  0.60118735084E-01 -0.33773861082E-01  0.73983758858E-01  0.51100000000E-03 0. -1.
         11    1    4    4    0    0  0.36284999906E-01  0.40966655914E-01 -0.21018807247E-01  0.58625246218E-01  0.51100000000E-03 0.  1.
</event>
<event>
 8    1  0.1161271E+005  0.1043930E+01  0.7957747E-01            NaN
         13   -1    0    0    0    0  0.00000000000E+00  0.00000000000E+00  0.74505805969E-08  0.10566000000E+00  0.10566000000E+00 0. -1.
     999900   -1    0    0    0    0 -0.00000000000E+00 -0.00000000000E+00 -0.74505805969E-08  0.93827000000E+00  0.93827000000E+00 0.  1.
     999902    2    1    2    0    0  0.17535518440E-01  0.14268179440E-01 -0.12572577039E-01  0.10180621620E+01  0.10177334723E+01 0.  0.
     999903    2    3    3    0    0  0.86388586338E-02 -0.17896474856E-01  0.12372112809E+00  0.12694505989E+00  0.20327739739E-01 0.  0.
         14    1    1    2    0    0 -0.17535518440E-01 -0.14268179440E-01  0.12572577039E-01  0.25867838041E-01  0.00000000000E+00 0. -1.
     999901    1    3    3    0    0  0.88966598063E-02  0.32164654297E-01 -0.13629370513E+00  0.89111710207E+00  0.88000000000E+00 0.  1.
        -11    1    4    4    0    0 -0.51892668275E-02  0.67703817979E-03  0.24084930688E-01  0.24652218524E-01  0.51100000000E-03 0.  1.
         11    1    4    4    0    0  0.13828125461E-01 -0.18573513036E-01  0.99636197405E-01  0.10229284137E+00  0.51100000000E-03 0. -1.
</event>
<event>
 8    1  0.1161271E+005  0.1043930E+01  0.7957747E-01            NaN
         13   -1    0    0    0    0  0.00000000000E+00  0.00000000000E+00  0.74505805969E-08  0.10566000000E+00  0.10566000000E+00 0. -1.
     999900   -1    0    0    0    0 -0.00000000000E+00 -0.00000000000E+00 -0.74505805969E-08  0.93827000000E+00  0.93827000000E+00 0.  1.
     999902    2    1    2    0    0 -0.67715646356E-02 -0.21131184648E-01  0.62919946545E-02  0.10208655198E+01  0.10206049379E+01 0.  0.
     999903    2    3    3    0    0  0.38692016476E-01  0.38526434357E-01  0.11713176907E+00  0.13074674998E+00  0.19836910616E-01 0.  0.
         14    1    1    2    0    0  0.67715646356E-02  0.21131184648E-01 -0.62919946545E-02  0.23064480245E-01  0.00000000000E+00 0.  1.
     999901    1    3    3    0    0 -0.45463581111E-01 -0.59657619005E-01 -0.11083977441E+00  0.89011876977E+00  0.88000000000E+00 0.  1.
        -11    1    4    4    0    0  0.13859997970E-01  0.18498582540E-01  0.29457528255E-01  0.37447352265E-01  0.51100000000E-03 0. -1.
         11    1    4    4    0    0  0.24832018505E-01  0.20027851817E-01  0.87674240811E-01  0.93299397716E-01  0.51100000000E-03 0.  1.
</event>
<event>
 8    1  0.1161271E+005  0.1043930E+01  0.7957747E-01            NaN
         13   -1    0    0    0    0  0.00000000000E+00  0.00000000000E+00  0.74505805969E-08  0.10566000000E+00  0.10566000000E+00 0.  1.
     999900   -1    0    0    0    0 -0.00000000000E+00 -0.00000000000E+00 -0.74505805969E-08  0.93827000000E+00  0.93827000000E+00 0.  1.
     999902    2    1    2    0    0  0.10066507439E-01 -0.14056773570E-01  0.17226664605E-01  0.10195233323E+01  0.10192311512E+01 0.  0.
     999903    2    3    3    0    0  0.25612980472E-01  0.17281655830E-01 -0.12260645664E+00  0.12779630468E+00  0.18570726529E-01 0.  0.
         14    1    1    2    0    0 -0.10066507439E-01  0.14056773570E-01 -0.17226664605E-01  0.24406667708E-01  0.00000000000E+00 0. -1.
     999901    1    3    3    0    0 -0.15546473033E-01 -0.31338429399E-01  0.13983312124E+00  0.89172702761E+00  0.88000000000E+00 0. -1.
        -11    1    4    4    0    0  0.70708203023E-02  0.15873875146E-01 -0.62973406313E-01  0.65329070372E-01  0.51100000000E-03 0. -1.
         11    1    4    4    0    0  0.18542160169E-01  0.14077806840E-02 -0.59633050322E-01  0.62467234307E-01  0.51100000000E-03 0.  1.
</event>
<event>
 8    1  0.1161271E+005  0.1043930E+01  0.7957747E-01            NaN
         13   -1    0    0    0    0  0.00000000000E+00  0.00000000000E+00  0.74505805969E-08  0.10566000000E+00  0.10566000000E+00 0.  1.
     999900   -1    0    0    0    0 -0.00000000000E+00 -0.00000000000E+00 -0.74505805969E-08  0.93827000000E+00  0.93827000000E+00 0.  1.
     999902    2    1    2    0    0  0.76692773400E-02  0.14702753903E-01 -0.16842933589E-01  0.10202937313E+01  0.10200199140E+01 0.  0.
     999903    2    3    3    0    0  0.33617992123E-01  0.81678371453E-01 -0.98242159367E-01  0.13362304658E+00  0.20051706719E-01 0.  0.
         14    1    1    2    0    0 -0.76692773400E-02 -0.14702753903E-01  0.16842933589E-01  0.23636268723E-01  0.00000000000E+00 0.  1.
     999901    1    3    3    0    0 -0.25948714783E-01 -0.66975617549E-01  0.81399225778E-01  0.88667068470E+00  0.88000000000E+00 0.  1.
        -11    1    4    4    0    0  0.57876528298E-02  0.27629709025E-01 -0.43227924944E-01  0.51631505518E-01  0.51100000000E-03 0. -1.
         11    1    4    4    0    0  0.27830339294E-01  0.54048662427E-01 -0.55014234424E-01  0.81991541061E-01  0.51100000000E-03 0.  1.
</event>
<event>
 8    1  0.1161271E+005  0.1043930E+01  0.7957747E-01            NaN
         13   -1    0    0    0    0  0.00000000000E+00  0.00000000000E+00  0.74505805969E-08  0.10566000000E+00  0.10566000000E+00 0.  1.
     999900   -1    0    0    0    0 -0.00000000000E+00 -0.00000000000E+00 -0.74505805969E-08  0.93827000000E+00  0.93827000000E+00 0.  1.
     999902    2    1    2    0    0  0.13263925424E-01  0.19625107252E-02 -0.20224384795E-01  0.10196646151E+01  0.10193758474E+01 0.  0.
     999903    2    3    3    0    0  0.16142361782E-02  0.30545033686E-02 -0.13127792117E+00  0.13260779859E+00  0.18411950215E-01 0.  0.
         14    1    1    2    0    0 -0.13263925424E-01 -0.19625107252E-02  0.20224384795E-01  0.24265384941E-01  0.00000000000E+00 0.  1.
     999901    1    3    3    0    0  0.11649689246E-01 -0.10919926434E-02  0.11105353637E+00  0.88705681647E+00  0.88000000000E+00 0. -1.
        -11    1    4    4    0    0 -0.37158939610E-02  0.95822990921E-02 -0.71944709240E-01  0.72676892011E-01  0.51100000000E-03 0.  1.
         11    1    4    4    0    0  0.53301301392E-02 -0.65277957234E-02 -0.59333211929E-01  0.59930906577E-01  0.51100000000E-03 0. -1.
</event>
<event>
 8    1  0.1161271E+005  0.1043930E+01  0.7957747E-01            NaN
         13   -1    0    0    0    0  0.00000000000E+00  0.00000000000E+00  0.74505805969E-08  0.10566000000E+00  0.10566000000E+00 0.  1.
     999900   -1    0    0    0    0 -0.00000000000E+00 -0.00000000000E+00 -0.74505805969E-08  0.93827000000E+00  0.93827000000E+00 0.  1.
     999902    2    1    2    0    0  0.66435264535E-02 -0.17853845128E-01 -0.16521238965E-01  0.10187139819E+01  0.10184018507E+01 0.  0.
     999903    2    3    3    0    0  0.44888828892E-01  0.56816567906E-01 -0.10634371619E+00  0.13017222651E+00  0.19816488889E-01 0.  0.
         14    1    1    2    0    0 -0.66435264535E-02  0.17853845128E-01  0.16521238965E-01  0.25216018055E-01  0.00000000000E+00 0.  1.
     999901    1    3    3    0    0 -0.38245302439E-01 -0.74670413034E-01  0.89822477229E-01  0.88854175544E+00  0.88000000000E+00 0. -1.
        -11    1    4    4    0    0  0.12856087551E-01  0.13890086537E-01 -0.14490012286E-01  0.23841876356E-01  0.51100000000E-03 0. -1.
         11    1    4    4    0    0  0.32032741341E-01  0.42926481369E-01 -0.91853703909E-01  0.10633035015E+00  0.51100000000E-03 0.  1.
</event>
<event>
 8    1  0.1161271E+005  0.1043930E+01  0.7957747E-01            NaN
         13   -1    0    0    0    0  0.00000000000E+00  0.00000000000E+00  0.74505805969E-08  0.10566000000E+00  0.10566000000E+00 0.  1.
     999900   -1    0    0    0    0 -0.00000000000E+00 -0.00000000000E+00 -0.74505805969E-08  0.93827000000E+00  0.93827000000E+00 0.  1.
     999902    2    1    2    0    0 -0.15820609864E-01 -0.12968394718E-01 -0.25333113545E-02  0.10233171733E+01  0.10231095487E+01 0.  0.
     999903    2    3    3    0    0 -0.63628864708E-01 -0.10377536865E+00  0.56162297258E-01  0.13541137300E+00  0.19080795055E-01 0.  0.
         14    1    1    2    0    0  0.15820609864E-01  0.12968394718E-01  0.25333113545E-02  0.20612826697E-01  0.00000000000E+00 0. -1.
     999901    1    3    3    0    0  0.47808254845E-01  0.90806973936E-01 -0.58695608613E-01  0.88790580031E+00  0.88000000000E+00 0.  1.
        -11    1    4    4    0    0 -0.19581613823E-01 -0.28172661508E-01  0.25286255426E-01  0.42623869965E-01  0.51100000000E-03 0. -1.
         11    1    4    4    0    0 -0.44047250885E-01 -0.75602707147E-01  0.30876041832E-01  0.92787503031E-01  0.51100000000E-03 0.  1.
</event>
<event>
 8    1  0.1161271E+005  0.1043930E+01  0.7957747E-01            NaN
         13   -1    0    0    0    0  0.00000000000E+00  0.00000000000E+00  0.74505805969E-08  0.10566000000E+00  0.10566000000E+00 0.  1.
     999900   -1    0    0    0    0 -0.00000000000E+00 -0.00000000000E+00 -0.74505805969E-08  0.93827000000E+00  0.93827000000E+00 0. -1.
     999902    2    1    2    0    0 -0.20429285880E-01 -0.50719522263E-02  0.74626090122E-02  0.10215968194E+01  0.10213526769E+01 0.  0.
     999903    2    3    3    0    0  0.81113822352E-01  0.59424023230E-01  0.80623166296E-01  0.13040480824E+00  0.19865859007E-01 0.  0.
         14    1    1    2    0    0  0.20429285880E-01  0.50719522263E-02 -0.74626090122E-02  0.22333180567E-01  0.00000000000E+00 0. -1.
     999901    1    3    3    0    0 -0.10154310823E+00 -0.64495975456E-01 -0.73160557284E-01  0.89119201120E+00  0.88000000000E+00 0. -1.
        -11    1    4    4    0    0  0.74008996720E-01  0.58573658340E-01  0.69676787906E-01  0.11731718093E+00  0.51100000000E-03 0. -1.
         11    1    4    4    0    0  0.71048256320E-02  0.85036488940E-03  0.10946378390E-01  0.13087627308E-01  0.51100000000E-03 0.  1.
</event>
<event>
 8    1  0.1161271E+005  0.1043930E+01  0.7957747E-01            NaN
         13   -1    0    0    0    0  0.00000000000E+00  0.00000000000E+00  0.74505805969E-08  0.10566000000E+00  0.10566000000E+00 0. -1.
     999900   -1    0    0    0    0 -0.00000000000E+00 -0.00000000000E+00 -0.74505805969E-08  0.93827000000E+00  0.93827000000E+00 0. -1.
     999902    2    1    2    0    0 -0.51403745198E-02  0.21227137423E-01  0.71261077620E-02  0.10209561839E+01  0.10206976699E+01 0.  0.
     999903    2    3    3    0    0 -0.14852247930E-01 -0.17806960043E-01  0.12814919637E+00  0.13176297138E+00  0.20039635773E-01 0.  0.
         14    1    1    2    0    0  0.51403745198E-02 -0.21227137423E-01 -0.71261077620E-02  0.22973816079E-01  0.00000000000E+00 0.  1.
     999901    1    3    3    0    0  0.97118734102E-02  0.39034097466E-01 -0.12102308861E+00  0.88919321254E+00  0.88000000000E+00 0. -1.
        -11    1    4    4    0    0 -0.14548102284E-01 -0.15791241103E-01  0.62631999268E-01  0.66212076156E-01  0.51100000000E-03 0.  1.
         11    1    4    4    0    0 -0.30414564577E-03 -0.20157189394E-02  0.65517197104E-01  0.65550895225E-01  0.51100000000E-03 0. -1.
</event>
<event>
 8    1  0.1161271E+005  0.1043930E+01  0.7957747E-01            NaN
         13   -1    0    0    0    0  0.00000000000E+00  0.00000000000E+00  0.74505805969E-08  0.10566000000E+00  0.10566000000E+00 0.  1.
     999900   -1    0    0    0    0 -0.00000000000E+00 -0.00000000000E+00 -0.74505805969E-08  0.93827000000E+00  0.93827000000E+00 0. -1.
     999902    2    1    2    0    0 -0.16171741056E-01  0.65650849349E-02 -0.16192342177E-01  0.10201220708E+01  0.10198442145E+01 0.  0.
     999903    2    3    3    0    0 -0.54845089228E-01 -0.80410334875E-01 -0.87137177477E-01  0.13215049399E+00  0.19926354330E-01 0.  0.
         14    1    1    2    0    0  0.16171741056E-01 -0.65650849349E-02  0.16192342177E-01  0.23807929229E-01  0.00000000000E+00 0.  1.
     999901    1    3    3    0    0  0.38673348172E-01  0.86975419810E-01  0.70944835300E-01  0.88797157678E+00  0.88000000000E+00 0. -1.
        -11    1    4    4    0    0 -0.44046583486E-01 -0.50679855749E-01 -0.65651046654E-01  0.93908840603E-01  0.51100000000E-03 0.  1.
         11    1    4    4    0    0 -0.10798505742E-01 -0.29730479126E-01 -0.21486130823E-01  0.38241653390E-01  0.51100000000E-03 0. -1.
</event>
<event>
 8    1  0.1161271E+005  0.1043930E+01  0.7957747E-01            NaN
         13   -1    0    0    0    0  0.00000000000E+00  0.00000000000E+00  0.74505805969E-08  0.10566000000E+00  0.10566000000E+00 0. -1.
     999900   -1    0    0    0    0 -0.00000000000E+00 -0.00000000000E+00 -0.74505805969E-08  0.93827000000E+00  0.93827000000E+00 0. -1.
     999902    2    1    2    0    0 -0.26023805418E-02  0.20847152338E-01 -0.12361377869E-01  0.10195541963E+01  0.10192627626E+01 0.  0.
     999903    2    3    3    0    0 -0.56983163450E-01 -0.28729656940E-01  0.10931172318E+00  0.12813988569E+00  0.19957539326E-01 0.  0.
         14    1    1    2    0    0  0.26023805418E-02 -0.20847152338E-01  0.12361377869E-01  0.24375803738E-01  0.00000000000E+00 0. -1.
     999901    1    3    3    0    0  0.54380782909E-01  0.49576809278E-01 -0.12167310105E+00  0.89141431057E+00  0.88000000000E+00 0.  1.
        -11    1    4    4    0    0 -0.17470850237E-01 -0.12673128200E-01  0.54972127635E-01  0.59059586217E-01  0.51100000000E-03 0. -1.
         11    1    4    4    0    0 -0.39512313213E-01 -0.16056528740E-01  0.54339595545E-01  0.69080299476E-01  0.51100000000E-03 0.  1.
</event>
<event>
 8    1  0.1161271E+005  0.1043930E+01  0.7957747E-01            NaN
         13   -1    0    0    0    0  0.00000000000E+00  0.00000000000E+00  0.74505805969E-08  0.10566000000E+00  0.10566000000E+00 0. -1.
     999900   -1    0    0    0    0 -0.00000000000E+00 -0.00000000000E+00 -0.74505805969E-08  0.93827000000E+00  0.93827000000E+00 0.  1.
     999902    2    1    2    0    0 -0.21672263252E-01 -0.51993366508E-02 -0.92211831145E-02  0.10198104993E+01  0.10195252347E+01 0.  0.
     999903    2    3    3    0    0  0.11193005163E-01 -0.12858150926E+00  0.42718403116E-04  0.13054726141E+00  0.19598411878E-01 0.  0.
         14    1    1    2    0    0  0.21672263252E-01  0.51993366508E-02  0.92211831145E-02  0.24119500702E-01  0.00000000000E+00 0. -1.
     999901    1    3    3    0    0 -0.32865268415E-01  0.12338217261E+00 -0.92639015176E-02  0.88926323789E+00  0.88000000000E+00 0. -1.
        -11    1    4    4    0    0  0.39860935329E-02 -0.80443612646E-01  0.90263597919E-02  0.81048134150E-01  0.51100000000E-03 0. -1.
         11    1    4    4    0    0  0.72069116300E-02 -0.48137896617E-01 -0.89836413888E-02  0.49499127260E-01  0.51100000000E-03 0.  1.
</event>
<event>
 8    1  0.1161271E+005  0.1043930E+01  0.7957747E-01            NaN
         13   -1    0    0    0    0  0.00000000000E+00  0.00000000000E+00  0.74505805969E-08  0.10566000000E+00  0.10566000000E+00 0.  1.
     999900   -1    0    0    0    0 -0.00000000000E+00 -0.00000000000E+00 -0.74505805969E-08  0.93827000000E+00  0.93827000000E+00 0. -1.
     999902    2    1    2    0    0 -0.16677340163E-01 -0.29629795509E-01 -0.11107843378E-01  0.10081607025E+01  0.10075259597E+01 0.  0.
     999903    2    3    3    0    0  0.46161175280E-01  0.10237794177E+00 -0.19886410646E-01  0.11605544811E+00  0.21477910602E-01 0.  0.
         14    1    1    2    0    0  0.16677340163E-01  0.29629795509E-01  0.11107843378E-01  0.35769297468E-01  0.00000000000E+00 0.  1.
     999901    1    3    3    0    0 -0.62838515443E-01 -0.13200773728E+00  0.87785672675E-02  0.89210525442E+00  0.88000000000E+00 0.  1.
        -11    1    4    4    0    0  0.51918348512E-02  0.21468086358E-01  0.35678674188E-02  0.22379112581E-01  0.51100000000E-03 0. -1.
         11    1    4    4    0    0  0.40969340428E-01  0.80909855410E-01 -0.23454278065E-01  0.93676335529E-01  0.51100000000E-03 0.  1.
</event>
<event>
 8    1  0.1161271E+005  0.1043930E+01  0.7957747E-01            NaN
         13   -1    0    0    0    0  0.00000000000E+00  0.00000000000E+00  0.74505805969E-08  0.10566000000E+00  0.10566000000E+00 0.  1.
     999900   -1    0    0    0    0 -0.00000000000E+00 -0.00000000000E+00 -0.74505805969E-08  0.93827000000E+00  0.93827000000E+00 0. -1.
     999902    2    1    2    0    0 -0.18459291921E-01  0.11958324018E-01  0.87563009310E-02  0.10202568131E+01  0.10199821297E+01 0.  0.
     999903    2    3    3    0    0  0.83345461427E-01  0.84889704864E-01  0.49432903331E-01  0.13046033071E+00  0.20580525348E-01 0.  0.
         14    1    1    2    0    0  0.18459291921E-01 -0.11958324018E-01 -0.87563009310E-02  0.23673186890E-01  0.00000000000E+00 0.  1.
     999901    1    3    3    0    0 -0.10180475335E+00 -0.72931380847E-01 -0.40676602400E-01  0.88979648240E+00  0.88000000000E+00 0.  1.
        -11    1    4    4    0    0  0.34086758625E-01  0.30857324464E-01  0.29654256749E-01  0.54714875957E-01  0.51100000000E-03 0. -1.
         11    1    4    4    0    0  0.49258702802E-01  0.54032380400E-01  0.19778646582E-01  0.75745454749E-01  0.51100000000E-03 0.  1.
</event>
<event>
 8    1  0.1161271E+005  0.1043930E+01  0.7957747E-01            NaN
         13   -1    0    0    0    0  0.00000000000E+00  0.00000000000E+00  0.74505805969E-08  0.10566000000E+00  0.10566000000E+00 0.  1.
     999900   -1    0    0    0    0 -0.00000000000E+00 -0.00000000000E+00 -0.74505805969E-08  0.93827000000E+00  0.93827000000E+00 0.  1.
     999902    2    1    2    0    0 -0.15620320159E-01 -0.98297131298E-02  0.15247782666E-01  0.10199902310E+01  0.10197092521E+01 0.  0.
     999903    2    3    3    0    0 -0.11391856981E+00 -0.29361932569E-01 -0.55749235117E-01  0.13146075486E+00  0.18286312419E-01 0.  0.
         14    1    1    2    0    0  0.15620320159E-01  0.98297131298E-02 -0.15247782666E-01  0.23939768970E-01  0.00000000000E+00 0.  1.
     999901    1    3    3    0    0  0.98298249651E-01  0.19532219439E-01  0.70997017784E-01  0.88852947617E+00  0.88000000000E+00 0.  1.
        -11    1    4    4    0    0 -0.61666790986E-01 -0.25047243599E-01 -0.29093568633E-01  0.72641960183E-01  0.51100000000E-03 0.  1.
         11    1    4    4    0    0 -0.52251778824E-01 -0.43146889702E-02 -0.26655666485E-01  0.58818794682E-01  0.51100000000E-03 0. -1.
</event>
<event>
 8    1  0.1161271E+005  0.1043930E+01  0.7957747E-01            NaN
         13   -1    0    0    0    0  0.00000000000E+00  0.00000000000E+00  0.74505805969E-08  0.10566000000E+00  0.10566000000E+00 0. -1.
     999900   -1    0    0    0    0 -0.00000000000E+00 -0.00000000000E+00 -0.74505805969E-08  0.93827000000E+00  0.93827000000E+00 0.  1.
     999902    2    1    2    0    0 -0.59263474559E-02  0.30802217016E-04  0.22669345685E-01  0.10204987863E+01  0.10202297540E+01 0.  0.
     999903    2    3    3    0    0 -0.11220973962E+00 -0.40916004545E-01 -0.48238762869E-01  0.13032983585E+00  0.19842952831E-01 0.  0.
         14    1    1    2    0    0  0.59263474559E-02 -0.30802217016E-04 -0.22669345685E-01  0.23431213727E-01  0.00000000000E+00 0.  1.
     999901    1    3    3    0    0  0.10628339216E+00  0.40946806762E-01  0.70908108554E-01  0.89016895042E+00  0.88000000000E+00 0. -1.
        -11    1    4    4    0    0 -0.15301041231E-01 -0.12173841072E-01 -0.38724299441E-02  0.19939435896E-01  0.51100000000E-03 0.  1.
         11    1    4    4    0    0 -0.96908698387E-01 -0.28742163473E-01 -0.44366332925E-01  0.11039039996E+00  0.51100000000E-03 0. -1.
</event>
<event>
 8    1  0.1161271E+005  0.1043930E+01  0.7957747E-01            NaN
         13   -1    0    0    0    0  0.00000000000E+00  0.00000000000E+00  0.74505805969E-08  0.10566000000E+00  0.10566000000E+00 0. -1.
     999900   -1    0    0    0    0 -0.00000000000E+00 -0.00000000000E+00 -0.74505805969E-08  0.93827000000E+00  0.93827000000E+00 0. -1.
     999902    2    1    2    0    0 -0.11357006804E-02 -0.86879053581E-02 -0.22538116971E-01  0.10197486801E+01  0.10194619337E+01 0.  0.
     999903    2    3    3    0    0 -0.10091478521E+00  0.56666269977E-01 -0.58235080667E-01  0.13098475916E+00  0.19256751687E-01 0.  0.
         14    1    1    2    0    0  0.11357006804E-02  0.86879053581E-02  0.22538116971E-01  0.24181319901E-01  0.00000000000E+00 0. -1.
     999901    1    3    3    0    0  0.99779084528E-01 -0.65354175335E-01  0.35696963696E-01  0.88876392094E+00  0.88000000000E+00 0.  1.
        -11    1    4    4    0    0 -0.86107696960E-01  0.39954239731E-01 -0.45393147313E-01  0.10522203045E+00  0.51100000000E-03 0. -1.
         11    1    4    4    0    0 -0.14807088248E-01  0.16712030246E-01 -0.12841933355E-01  0.25762728711E-01  0.51100000000E-03 0.  1.
</event>
<event>
 8    1  0.1161271E+005  0.1043930E+01  0.7957747E-01            NaN
         13   -1    0    0    0    0  0.00000000000E+00  0.00000000000E+00  0.74505805969E-08  0.10566000000E+00  0.10566000000E+00 0. -1.
     999900   -1    0    0    0    0 -0.00000000000E+00 -0.00000000000E+00 -0.74505805969E-08  0.93827000000E+00  0.93827000000E+00 0.  1.
     999902    2    1    2    0    0  0.52849261868E-02 -0.23127653502E-01  0.46438099285E-03  0.10202016530E+01  0.10199256730E+01 0.  0.
     999903    2    3    3    0    0  0.51501511339E-01  0.11441301366E+00 -0.17069353429E-01  0.12814737231E+00  0.19688647476E-01 0.  0.
         14    1    1    2    0    0 -0.52849261868E-02  0.23127653502E-01 -0.46438099285E-03  0.23728346992E-01  0.00000000000E+00 0.  1.
     999901    1    3    3    0    0 -0.46216585152E-01 -0.13754066716E+00  0.17533734422E-01  0.89205428070E+00  0.88000000000E+00 0. -1.
        -11    1    4    4    0    0  0.30950548812E-01  0.64109842398E-01 -0.12765604533E-04  0.71191780762E-01  0.51100000000E-03 0. -1.
         11    1    4    4    0    0  0.20550962526E-01  0.50303171259E-01 -0.17056587825E-01  0.56955591549E-01  0.51100000000E-03 0.  1.
</event>
<event>
 8    1  0.1161271E+005  0.1043930E+01  0.7957747E-01            NaN
         13   -1    0    0    0    0  0.00000000000E+00  0.00000000000E+00  0.74505805969E-08  0.10566000000E+00  0.10566000000E+00 0.  1.
     999900   -1    0    0    0    0 -0.00000000000E+00 -0.00000000000E+00 -0.74505805969E-08  0.93827000000E+00  0.93827000000E+00 0.  1.
     999902    2    1    2    0    0  0.45255485456E-03  0.16185425459E-01 -0.17333782806E-01  0.10202101174E+01  0.10199343365E+01 0.  0.
     999903    2    3    3    0    0 -0.10911742219E+00 -0.40803430244E-02  0.66126177187E-01  0.12926576104E+00  0.20339730697E-01 0.  0.
         14    1    1    2    0    0 -0.45255485456E-03 -0.16185425459E-01  0.17333782806E-01  0.23719882579E-01  0.00000000000E+00 0.  1.
     999901    1    3    3    0    0  0.10956997704E+00  0.20265768483E-01 -0.83459959994E-01  0.89094435638E+00  0.88000000000E+00 0. -1.
        -11    1    4    4    0    0 -0.44159455869E-01  0.82613686215E-02  0.25509419527E-01  0.51665262602E-01  0.51100000000E-03 0.  1.
         11    1    4    4    0    0 -0.64957966316E-01 -0.12341711646E-01  0.40616757660E-01  0.77600498440E-01  0.51100000000E-03 0. -1.
</event>
<event>
 8    1  0.1161271E+005  0.1043930E+01  0.7957747E-01            NaN
         13   -1    0    0    0    0  0.00000000000E+00  0.00000000000E+00  0.74505805969E-08  0.10566000000E+00  0.10566000000E+00 0.  1.
     999900   -1    0    0    0    0 -0.00000000000E+00 -0.00000000000E+00 -0.74505805969E-08  0.93827000000E+00  0.93827000000E+00 0.  1.
     999902    2    1    2    0    0 -0.12340102327E-01  0.24576529879E-03  0.20747781158E-01  0.10197885637E+01  0.10195027737E+01 0.  0.
     999903    2    3    3    0    0  0.11283189262E-01 -0.39764308052E-01  0.12472354887E+00  0.13244994388E+00  0.16688721811E-01 0.  0.
         14    1    1    2    0    0  0.12340102327E-01 -0.24576529879E-03 -0.20747781158E-01  0.24141436349E-01  0.00000000000E+00 0. -1.
     999901    1    3    3    0    0 -0.23623291588E-01  0.40010073351E-01 -0.10397576771E+00  0.88733861978E+00  0.88000000000E+00 0.  1.
        -11    1    4    4    0    0  0.13222084877E-01 -0.19405416402E-01  0.77621198608E-01  0.81096888402E-01  0.51100000000E-03 0.  1.
         11    1    4    4    0    0 -0.19388956152E-02 -0.20358891650E-01  0.47102350260E-01  0.51353055473E-01  0.51100000000E-03 0. -1.
</event>
<event>
 8    1  0.1161271E+005  0.1043930E+01  0.7957747E-01            NaN
         13   -1    0    0    0    0  0.00000000000E+00  0.00000000000E+00  0.74505805969E-08  0.10566000000E+00  0.10566000000E+00 0.  1.
     999900   -1    0    0    0    0 -0.00000000000E+00 -0.00000000000E+00 -0.74505805969E-08  0.93827000000E+00  0.93827000000E+00 0. -1.
     999902    2    1    2    0    0 -0.17048967563E-01 -0.16621398227E-01 -0.83105311820E-02  0.10187108981E+01  0.10183986895E+01 0.  0.
     999903    2    3    3    0    0 -0.29924875826E-01 -0.80450919767E-01  0.95767665719E-01  0.13018837842E+00  0.20241526500E-01 0.  0.
         14    1    1    2    0    0  0.17048967563E-01  0.16621398227E-01  0.83105311820E-02  0.25219101937E-01  0.00000000000E+00 0. -1.
     999901    1    3    3    0    0  0.12875908263E-01  0.63829521540E-01 -0.10407819690E+00  0.88852251964E+00  0.88000000000E+00 0.  1.
        -11    1    4    4    0    0 -0.27135706593E-01 -0.49051485639E-01  0.53807923217E-01  0.77704237578E-01  0.51100000000E-03 0.  1.
         11    1    4    4    0    0 -0.27891692332E-02 -0.31399434128E-01  0.41959742502E-01  0.52484140847E-01  0.51100000000E-03 0. -1.
</event>
<event>
 8    1  0.1161271E+005  0.1043930E+01  0.7957747E-01            NaN
         13   -1    0    0    0    0  0.00000000000E+00  0.00000000000E+00  0.74505805969E-08  0.10566000000E+00  0.10566000000E+00 0. -1.
     999900   -1    0    0    0    0 -0.00000000000E+00 -0.00000000000E+00 -0.74505805969E-08  0.93827000000E+00  0.93827000000E+00 0. -1.
     999902    2    1    2    0    0  0.68323105053E-02 -0.69653103393E-02  0.22378114143E-01  0.10195173802E+01  0.10192250549E+01 0.  0.
     999903    2    3    3    0    0  0.26368665986E-02 -0.11837089223E+00 -0.48678925559E-01  0.12964215951E+00  0.20465349641E-01 0.  0.
         14    1    1    2    0    0 -0.68323105053E-02  0.69653103393E-02 -0.22378114143E-01  0.24412619842E-01  0.00000000000E+00 0.  1.
     999901    1    3    3    0    0  0.41954439068E-02  0.11140558189E+00  0.71057039702E-01  0.88987522065E+00  0.88000000000E+00 0.  1.
        -11    1    4    4    0    0 -0.62763080724E-03 -0.56165469022E-01 -0.33941152783E-01  0.65629389789E-01  0.51100000000E-03 0. -1.
         11    1    4    4    0    0  0.32644974058E-02 -0.62205423212E-01 -0.14737772776E-01  0.64012769724E-01  0.51100000000E-03 0.  1.
</event>
<event>
 8    1  0.1161271E+005  0.1043930E+01  0.7957747E-01            NaN
         13   -1    0    0    0    0  0.00000000000E+00  0.00000000000E+00  0.74505805969E-08  0.10566000000E+00  0.10566000000E+00 0. -1.
     999900   -1    0    0    0    0 -0.00000000000E+00 -0.00000000000E+00 -0.74505805969E-08  0.93827000000E+00  0.93827000000E+00 0. -1.
     999902    2    1    2    0    0  0.15278266917E-01 -0.14647225080E-01  0.11270653454E-01  0.10199509618E+01  0.10196690494E+01 0.  0.
     999903    2    3    3    0    0 -0.30672489603E-01 -0.12409720677E+00  0.25309828580E-01  0.13186995822E+00  0.20203467830E-01 0.  0.
         14    1    1    2    0    0 -0.15278266917E-01  0.14647225080E-01 -0.11270653454E-01  0.23979038176E-01  0.00000000000E+00 0.  1.
     999901    1    3    3    0    0  0.45950756520E-01  0.10944998169E+00 -0.14039175126E-01  0.88808100360E+00  0.88000000000E+00 0. -1.
        -11    1    4    4    0    0 -0.23131446754E-01 -0.54851902795E-01  0.15581612489E-01  0.61537328817E-01  0.51100000000E-03 0. -1.
         11    1    4    4    0    0 -0.75410428499E-02 -0.69245303976E-01  0.97282160911E-02  0.70332629407E-01  0.51100000000E-03 0.  1.
</event>
<event>
 8    1  0.1161271E+005  0.1043930E+01  0.7957747E-01            NaN
         13   -1    0    0    0    0  0.00000000000E+00  0.00000000000E+00  0.74505805969E-08  0.10566000000E+00  0.10566000000E+00 0.  1.
     999900   -1    0    0    0    0 -0.00000000000E+00 -0.00000000000E+00 -0.74505805969E-08  0.93827000000E+00  0.93827000000E+00 0. -1.
     999902    2    1    2    0    0  0.13255298300E-01  0.74390496898E-04  0.19967150253E-01  0.10199634492E+01  0.10196818338E+01 0.  0.
     999903    2    3    3    0    0 -0.24459610884E-01  0.88115800966E-01  0.92975322220E-01  0.13176082735E+00  0.18810585762E-01 0.  0.
         14    1    1    2    0    0 -0.13255298300E-01 -0.74390496898E-04 -0.19967150253E-01  0.23966550778E-01  0.00000000000E+00 0. -1.
     999901    1    3    3    0    0  0.37714909184E-01 -0.88041410469E-01 -0.73008171967E-01  0.88820262188E+00  0.88000000000E+00 0.  1.
        -11    1    4    4    0    0 -0.25469856273E-02  0.41644479022E-01  0.36845766233E-01  0.55665261870E-01  0.51100000000E-03 0.  1.
         11    1    4    4    0    0 -0.21912625257E-01  0.46471321944E-01  0.56129555987E-01  0.76095565476E-01  0.51100000000E-03 0. -1.
</event>
<event>
 8    1  0.1161271E+005  0.1043930E+01  0.7957747E-01            NaN
         13   -1    0    0    0    0  0.00000000000E+00  0.00000000000E+00  0.74505805969E-08  0.10566000000E+00  0.10566000000E+00 0. -1.
     999900   -1    0    0    0    0 -0.00000000000E+00 -0.00000000000E+00 -0.74505805969E-08  0.93827000000E+00  0.93827000000E+00 0. -1.
     999902    2    1    2    0    0  0.22595417017E-01  0.49618015435E-02 -0.44847548093E-02  0.10203655061E+01  0.10200933687E+01 0.  0.
     999903    2    3    3    0    0 -0.90824402088E-01  0.41062751371E-02  0.88194612985E-01  0.12825886874E+00  0.20152273854E-01 0.  0.
         14    1    1    2    0    0 -0.22595417017E-01 -0.49618015435E-02  0.44847548093E-02  0.23564493850E-01  0.00000000000E+00 0. -1.
     999901    1    3    3    0    0  0.11341981910E+00  0.85552640641E-03 -0.92679367794E-01  0.89210663741E+00  0.88000000000E+00 0. -1.
        -11    1    4    4    0    0 -0.80297439539E-01  0.10147463405E-01  0.75421421954E-01  0.11063137810E+00  0.51100000000E-03 0. -1.
         11    1    4    4    0    0 -0.10526962550E-01 -0.60411882681E-02  0.12773191031E-01  0.17627490642E-01  0.51100000000E-03 0.  1.
</event>
<event>
 8    1  0.1161271E+005  0.1043930E+01  0.7957747E-01            NaN
         13   -1    0    0    0    0  0.00000000000E+00  0.00000000000E+00  0.74505805969E-08  0.10566000000E+00  0.10566000000E+00 0. -1.
     999900   -1    0    0    0    0 -0.00000000000E+00 -0.00000000000E+00 -0.74505805969E-08  0.93827000000E+00  0.93827000000E+00 0.  1.
     999902    2    1    2    0    0 -0.93848872502E-02  0.14133720201E-01  0.51984230861E-02  0.10261856556E+01  0.10260322305E+01 0.  0.
     999903    2    3    3    0    0 -0.64608244045E-01 -0.11335895431E+00 -0.27172859030E-01  0.13469706841E+00  0.19505339002E-01 0.  0.
         14    1    1    2    0    0  0.93848872502E-02 -0.14133720201E-01 -0.51984230861E-02  0.17744344395E-01  0.00000000000E+00 0.  1.
     999901    1    3    3    0    0  0.55223356795E-01  0.12749267451E+00  0.32371282116E-01  0.89148858719E+00  0.88000000000E+00 0. -1.
        -11    1    4    4    0    0 -0.29866055369E-01 -0.71149758029E-01 -0.13432171678E-01  0.78325945177E-01  0.51100000000E-03 0. -1.
         11    1    4    4    0    0 -0.34742188675E-01 -0.42209196283E-01 -0.13740687353E-01  0.56371123235E-01  0.51100000000E-03 0.  1.
</event>
<event>
 8    1  0.1161271E+005  0.1043930E+01  0.7957747E-01            NaN
         13   -1    0    0    0    0  0.00000000000E+00  0.00000000000E+00  0.74505805969E-08  0.10566000000E+00  0.10566000000E+00 0. -1.
     999900   -1    0    0    0    0 -0.00000000000E+00 -0.00000000000E+00 -0.74505805969E-08  0.93827000000E+00  0.93827000000E+00 0. -1.
     999902    2    1    2    0    0 -0.21775040804E-02 -0.12157305337E-01  0.20313987013E-01  0.10201560717E+01  0.10198790178E+01 0.  0.
     999903    2    3    3    0    0 -0.10058745101E+00 -0.21516242287E-01  0.81202836491E-01  0.13253027256E+00  0.19737996581E-01 0.  0.
         14    1    1    2    0    0  0.21775040804E-02  0.12157305337E-01 -0.20313987013E-01  0.23773928271E-01  0.00000000000E+00 0.  1.
     999901    1    3    3    0    0  0.98409946927E-01  0.93589369496E-02 -0.60888849479E-01  0.88762579917E+00  0.88000000000E+00 0. -1.
        -11    1    4    4    0    0 -0.46812043061E-01 -0.20085775052E-01  0.39221623852E-01  0.64291544028E-01  0.51100000000E-03 0. -1.
         11    1    4    4    0    0 -0.53775407947E-01 -0.14304672346E-02  0.41981212639E-01  0.68238728534E-01  0.51100000000E-03 0.  1.
</event>
<event>
 8    1  0.1161271E+005  0.1043930E+01  0.7957747E-01            NaN
         13   -1    0    0    0    0  0.00000000000E+00  0.00000000000E+00  0.74505805969E-08  0.10566000000E+00  0.10566000000E+00 0. -1.
     999900   -1    0    0    0    0 -0.00000000000E+00 -0.00000000000E+00 -0.74505805969E-08  0.93827000000E+00  0.93827000000E+00 0. -1.
     999902    2    1    2    0    0  0.16460822730E-02 -0.21898602359E-01  0.78215197170E-02  0.10206183175E+01  0.10203520546E+01 0.  0.
     999903    2    3    3    0    0  0.32274247028E-01  0.12068182799E+00  0.22300277061E-01  0.12849898799E+00  0.20222683542E-01 0.  0.
         14    1    1    2    0    0 -0.16460822730E-02  0.21898602359E-01 -0.78215197170E-02  0.23311682539E-01  0.00000000000E+00 0.  1.
     999901    1    3    3    0    0 -0.30628164755E-01 -0.14258043035E+00 -0.14478757344E-01  0.89211932947E+00  0.88000000000E+00 0. -1.
        -11    1    4    4    0    0 -0.80836293655E-03  0.28857171751E-01  0.69224997440E-02  0.29691277100E-01  0.51100000000E-03 0. -1.
         11    1    4    4    0    0  0.33082609965E-01  0.91824656240E-01  0.15377777317E-01  0.98807710893E-01  0.51100000000E-03 0.  1.
</event>
<event>
 8    1  0.1161271E+005  0.1043930E+01  0.7957747E-01            NaN
         13   -1    0    0    0    0  0.00000000000E+00  0.00000000000E+00  0.74505805969E-08  0.10566000000E+00  0.10566000000E+00 0.  1.
     999900   -1    0    0    0    0 -0.00000000000E+00 -0.00000000000E+00 -0.74505805969E-08  0.93827000000E+00  0.93827000000E+00 0. -1.
     999902    2    1    2    0    0  0.56094298868E-02  0.20896517994E-01 -0.96465556796E-02  0.10202406310E+01  0.10199655675E+01 0.  0.
     999903    2    3    3    0    0 -0.86413765058E-01  0.42120719911E-01  0.85344692853E-01  0.13010464561E+00  0.20050146491E-01 0.  0.
         14    1    1    2    0    0 -0.56094298868E-02 -0.20896517994E-01  0.96465556796E-02  0.23689369017E-01  0.00000000000E+00 0.  1.
     999901    1    3    3    0    0  0.92023194945E-01 -0.21224201917E-01 -0.94991248533E-01  0.89013598537E+00  0.88000000000E+00 0. -1.
        -11    1    4    4    0    0 -0.30524755922E-01  0.24669653462E-01  0.28580142829E-01  0.48553457252E-01  0.51100000000E-03 0.  1.
         11    1    4    4    0    0 -0.55889009136E-01  0.17451066449E-01  0.56764550024E-01  0.81551188360E-01  0.51100000000E-03 0. -1.
</event>
<event>
 8    1  0.1161271E+005  0.1043930E+01  0.7957747E-01            NaN
         13   -1    0    0    0    0  0.00000000000E+00  0.00000000000E+00  0.74505805969E-08  0.10566000000E+00  0.10566000000E+00 0. -1.
     999900   -1    0    0    0    0 -0.00000000000E+00 -0.00000000000E+00 -0.74505805969E-08  0.93827000000E+00  0.93827000000E+00 0.  1.
     999902    2    1    2    0    0 -0.21402095311E-01 -0.81273445174E-02  0.71268035194E-02  0.10199530373E+01  0.10196711742E+01 0.  0.
     999903    2    3    3    0    0  0.90777414994E-01 -0.89124977369E-01 -0.74937872304E-02  0.12902171517E+00  0.20165452467E-01 0.  0.
         14    1    1    2    0    0  0.21402095311E-01  0.81273445174E-02 -0.71268035194E-02  0.23976962715E-01  0.00000000000E+00 0.  1.
     999901    1    3    3    0    0 -0.11217951031E+00  0.80997632852E-01  0.14620590750E-01  0.89093132212E+00  0.88000000000E+00 0. -1.
        -11    1    4    4    0    0  0.47964215167E-01 -0.58155336092E-01  0.16024115463E-02  0.75401842792E-01  0.51100000000E-03 0. -1.
         11    1    4    4    0    0  0.42813199827E-01 -0.30969641277E-01 -0.90961987767E-02  0.53619872374E-01  0.51100000000E-03 0.  1.
</event>
<event>
 8    1  0.1161271E+005  0.1043930E+01  0.7957747E-01            NaN
         13   -1    0    0    0    0  0.00000000000E+00  0.00000000000E+00  0.74505805969E-08  0.10566000000E+00  0.10566000000E+00 0.  1.
     999900   -1    0    0    0    0 -0.00000000000E+00 -0.00000000000E+00 -0.74505805969E-08  0.93827000000E+00  0.93827000000E+00 0. -1.
     999902    2    1    2    0    0  0.13138488781E-01  0.19229694791E-01 -0.73108760280E-02  0.10195199620E+01  0.10192276992E+01 0.  0.
     999903    2    3    3    0    0 -0.65719356536E-01 -0.10652986703E+00 -0.67436985811E-02  0.12708825653E+00  0.20935641480E-01 0.  0.
         14    1    1    2    0    0 -0.13138488781E-01 -0.19229694791E-01  0.73108760280E-02  0.24410038048E-01  0.00000000000E+00 0.  1.
     999901    1    3    3    0    0  0.78857845317E-01  0.12575956182E+00 -0.56717744688E-03  0.89243170542E+00  0.88000000000E+00 0.  1.
        -11    1    4    4    0    0 -0.65190183495E-02 -0.10471515159E-01  0.56421349778E-02  0.13573689184E-01  0.51100000000E-03 0. -1.
         11    1    4    4    0    0 -0.59200338187E-01 -0.96058351869E-01 -0.12385833559E-01  0.11351456734E+00  0.51100000000E-03 0.  1.
</event>
<event>
 8    1  0.1161271E+005  0.1043930E+01  0.7957747E-01            NaN
         13   -1    0    0    0    0  0.00000000000E+00  0.00000000000E+00  0.74505805969E-08  0.10566000000E+00  0.10566000000E+00 0. -1.
     999900   -1    0    0    0    0 -0.00000000000E+00 -0.00000000000E+00 -0.74505805969E-08  0.93827000000E+00  0.93827000000E+00 0.  1.
     999902    2    1    2    0    0 -0.15948009998E-01  0.15269455915E-01  0.68229398015E-02  0.10208205254E+01  0.10205589142E+01 0.  0.
     999903    2    3    3    0    0 -0.10242668916E+00  0.81439425764E-01  0.20220451064E-01  0.13400796341E+00  0.20631550970E-01 0.  0.
         14    1    1    2    0    0  0.15948009998E-01 -0.15269455915E-01 -0.68229398015E-02  0.23109474559E-01  0.00000000000E+00 0.  1.
     999901    1    3    3    0    0  0.86478679165E-01 -0.66169969849E-01 -0.13397511263E-01  0.88681256203E+00  0.88000000000E+00 0.  1.
        -11    1    4    4    0    0 -0.48465299335E-01  0.25580428748E-01  0.80623322106E-02  0.55394096222E-01  0.51100000000E-03 0.  1.
         11    1    4    4    0    0 -0.53961389828E-01  0.55858997017E-01  0.12158118854E-01  0.78613867192E-01  0.51100000000E-03 0. -1.
</event>
<event>
 8    1  0.1161271E+005  0.1043930E+01  0.7957747E-01            NaN
         13   -1    0    0    0    0  0.00000000000E+00  0.00000000000E+00  0.74505805969E-08  0.10566000000E+00  0.10566000000E+00 0. -1.
     999900   -1    0    0    0    0 -0.00000000000E+00 -0.00000000000E+00 -0.74505805969E-08  0.93827000000E+00  0.93827000000E+00 0.  1.
     999902    2    1    2    0    0  0.10423853173E-01  0.86434462108E-02  0.19297532172E-01  0.10203554242E+01  0.10200830510E+01 0.  0.
     999903    2    3    3    0    0  0.18631385308E-01 -0.98491400608E-01 -0.77861960020E-01  0.12851171258E+00  0.20126871101E-01 0.  0.
         14    1    1    2    0    0 -0.10423853173E-01 -0.86434462108E-02 -0.19297532172E-01  0.23574575825E-01  0.00000000000E+00 0.  1.
     999901    1    3    3    0    0 -0.82075321344E-02  0.10713484682E+00  0.97159492192E-01  0.89184371159E+00  0.88000000000E+00 0. -1.
        -11    1    4    4    0    0  0.74133665863E-03 -0.48409593098E-01 -0.44282457170E-01  0.65614292787E-01  0.51100000000E-03 0.  1.
         11    1    4    4    0    0  0.17890048649E-01 -0.50081807510E-01 -0.33579502849E-01  0.62897419794E-01  0.51100000000E-03 0. -1.
</event>
<event>
 8    1  0.1161271E+005  0.1043930E+01  0.7957747E-01            NaN
         13   -1    0    0    0    0  0.00000000000E+00  0.00000000000E+00  0.74505805969E-08  0.10566000000E+00  0.10566000000E+00 0. -1.
     999900   -1    0    0    0    0 -0.00000000000E+00 -0.00000000000E+00 -0.74505805969E-08  0.93827000000E+00  0.93827000000E+00 0.  1.
     999902    2    1    2    0    0  0.27106024949E-01  0.53707249549E-02  0.80845425822E-02  0.10151386627E+01  0.10147302910E+01 0.  0.
     999903    2    3    3    0    0  0.90737609683E-01 -0.17327965306E-01 -0.85887218568E-01  0.12756055289E+00  0.19013367582E-01 0.  0.
         14    1    1    2    0    0 -0.27106024949E-01 -0.53707249549E-02 -0.80845425822E-02  0.28791337306E-01  0.00000000000E+00 0.  1.
     999901    1    3    3    0    0 -0.63631584734E-01  0.22698690261E-01  0.93971761150E-01  0.88757810981E+00  0.88000000000E+00 0. -1.
        -11    1    4    4    0    0  0.44414871857E-01  0.11298381274E-03 -0.34810457760E-01  0.56433347392E-01  0.51100000000E-03 0.  1.
         11    1    4    4    0    0  0.46322737827E-01 -0.17440949119E-01 -0.51076760808E-01  0.71127205495E-01  0.51100000000E-03 0. -1.
</event>
<event>
 8    1  0.1161271E+005  0.1043930E+01  0.7957747E-01            NaN
         13   -1    0    0    0    0  0.00000000000E+00  0.00000000000E+00  0.74505805969E-08  0.10566000000E+00  0.10566000000E+00 0. -1.
     999900   -1    0    0    0    0 -0.00000000000E+00 -0.00000000000E+00 -0.74505805969E-08  0.93827000000E+00  0.93827000000E+00 0.  1.
     999902    2    1    2    0    0  0.10619969306E-01  0.21015701560E-01  0.32688007552E-02  0.10201575681E+01  0.10198805495E+01 0.  0.
     999903    2    3    3    0    0  0.30371013719E-01 -0.12167291370E-01 -0.12431944649E+00  0.13011825683E+00  0.20124475911E-01 0.  0.
         14    1    1    2    0    0 -0.10619969306E-01 -0.21015701560E-01 -0.32688007552E-02  0.23772431901E-01  0.00000000000E+00 0.  1.
     999901    1    3    3    0    0 -0.19751044413E-01  0.33182992930E-01  0.12758824724E+00  0.89003931127E+00  0.88000000000E+00 0. -1.
        -11    1    4    4    0    0  0.17138924290E-01 -0.81996246425E-02 -0.10279379099E+00  0.10453612369E+00  0.51100000000E-03 0. -1.
         11    1    4    4    0    0  0.13232089429E-01 -0.39676667274E-02 -0.21525655502E-01  0.25582133134E-01  0.51100000000E-03 0.  1.
</event>
<event>
 8    1  0.1161271E+005  0.1043930E+01  0.7957747E-01            NaN
         13   -1    0    0    0    0  0.00000000000E+00  0.00000000000E+00  0.74505805969E-08  0.10566000000E+00  0.10566000000E+00 0.  1.
     999900   -1    0    0    0    0 -0.00000000000E+00 -0.00000000000E+00 -0.74505805969E-08  0.93827000000E+00  0.93827000000E+00 0.  1.
     999902    2    1    2    0    0 -0.24341374098E-01 -0.44612863419E-02 -0.23930439036E-02  0.10190677349E+01  0.10187644065E+01 0.  0.
     999903    2    3    3    0    0 -0.23499594390E-01 -0.11905726485E-01  0.12543505454E+00  0.12980053596E+00  0.20499974857E-01 0.  0.
         14    1    1    2    0    0  0.24341374098E-01  0.44612863419E-02  0.23930439036E-02  0.24862265141E-01  0.00000000000E+00 0.  1.
     999901    1    3    3    0    0 -0.84177970797E-03  0.74444401435E-02 -0.12782809844E+00  0.88926719890E+00  0.88000000000E+00 0.  1.
        -11    1    4    4    0    0 -0.24613272985E-01 -0.59110903410E-02  0.78842294125E-01  0.82807745169E-01  0.51100000000E-03 0. -1.
         11    1    4    4    0    0  0.11136785949E-02 -0.59946361444E-02  0.46592760414E-01  0.46992790793E-01  0.51100000000E-03 0.  1.
</event>
<event>
 8    1  0.1161271E+005  0.1043930E+01  0.7957747E-01            NaN
         13   -1    0    0    0    0  0.00000000000E+00  0.00000000000E+00  0.74505805969E-08  0.10566000000E+00  0.10566000000E+00 0. -1.
     999900   -1    0    0    0    0 -0.00000000000E+00 -0.00000000000E+00 -0.74505805969E-08  0.93827000000E+00  0.93827000000E+00 0. -1.
     999902    2    1    2    0    0  0.15617004403E-01  0.12111535490E-01 -0.13502050939E-01  0.10199949734E+01  0.10197141071E+01 0.  0.
     999903    2    3    3    0    0 -0.11338020848E+00 -0.51027380009E-01  0.21264579890E-01  0.12767467094E+00  0.19742696244E-01 0.  0.
         14    1    1    2    0    0 -0.15617004403E-01 -0.12111535490E-01  0.13502050939E-01  0.23935026593E-01  0.00000000000E+00 0. -1.
     999901    1    3    3    0    0  0.12899721288E+00  0.63138915500E-01 -0.34766630829E-01  0.89232030247E+00  0.88000000000E+00 0. -1.
        -11    1    4    4    0    0 -0.16749317319E-01 -0.47658247992E-02  0.96397588487E-02  0.19910770661E-01  0.51100000000E-03 0.  1.
         11    1    4    4    0    0 -0.96630891162E-01 -0.46261555210E-01  0.11624821042E-01  0.10776390027E+00  0.51100000000E-03 0. -1.
</event>
<event>
 8    1  0.1161271E+005  0.1043930E+01  0.7957747E-01            NaN
         13   -1    0    0    0    0  0.00000000000E+00  0.00000000000E+00  0.74505805969E-08  0.10566000000E+00  0.10566000000E+00 0.  1.
     999900   -1    0    0    0    0 -0.00000000000E+00 -0.00000000000E+00 -0.74505805969E-08  0.93827000000E+00  0.93827000000E+00 0. -1.
     999902    2    1    2    0    0  0.22241069544E-01  0.10940095631E-02 -0.44883709094E-02  0.10212142014E+01  0.10209615261E+01 0.  0.
     999903    2    3    3    0    0  0.34896335803E-01 -0.90778994978E-01  0.86803940071E-01  0.13164402951E+00  0.18347923888E-01 0.  0.
         14    1    1    2    0    0 -0.22241069544E-01 -0.10940095631E-02  0.44883709094E-02  0.22715798573E-01  0.00000000000E+00 0.  1.
     999901    1    3    3    0    0 -0.12655266259E-01  0.91873004541E-01 -0.91292310980E-01  0.88957017192E+00  0.88000000000E+00 0. -1.
        -11    1    4    4    0    0  0.10587820928E-02 -0.17715543833E-01  0.22096051157E-01  0.28345336663E-01  0.51100000000E-03 0.  1.
         11    1    4    4    0    0  0.33837553710E-01 -0.73063451144E-01  0.64707888914E-01  0.10329869284E+00  0.51100000000E-03 0. -1.
</event>
<event>
 8    1  0.1161271E+005  0.1043930E+01  0.7957747E-01            NaN
         13   -1    0    0    0    0  0.00000000000E+00  0.00000000000E+00  0.74505805969E-08  0.10566000000E+00  0.10566000000E+00 0. -1.
     999900   -1    0    0    0    0 -0.00000000000E+00 -0.00000000000E+00 -0.74505805969E-08  0.93827000000E+00  0.93827000000E+00 0. -1.
     999902    2    1    2    0    0  0.18326262649E-02  0.20900539103E-01  0.10820799942E-01  0.10203232051E+01  0.10200500782E+01 0.  0.
     999903    2    3    3    0    0  0.48159773360E-02  0.12346607973E+00 -0.43787168909E-01  0.13267990920E+00  0.20483546094E-01 0.  0.
         14    1    1    2    0    0 -0.18326262649E-02 -0.20900539103E-01 -0.10820799942E-01  0.23606794895E-01  0.00000000000E+00 0.  1.
     999901    1    3    3    0    0 -0.29833510711E-02 -0.10256554063E+00  0.54607968851E-01  0.88764329591E+00  0.88000000000E+00 0.  1.
        -11    1    4    4    0    0 -0.11438266954E-02  0.63727621013E-02  0.20225415088E-02  0.68023695477E-02  0.51100000000E-03 0. -1.
         11    1    4    4    0    0  0.59598040314E-02  0.11709331763E+00 -0.45809710418E-01  0.12587753965E+00  0.51100000000E-03 0.  1.
</event>
<event>
 8    1  0.1161271E+005  0.1043930E+01  0.7957747E-01            NaN
         13   -1    0    0    0    0  0.00000000000E+00  0.00000000000E+00  0.74505805969E-08  0.10566000000E+00  0.10566000000E+00 0.  1.
     999900   -1    0    0    0    0 -0.00000000000E+00 -0.00000000000E+00 -0.74505805969E-08  0.93827000000E+00  0.93827000000E+00 0. -1.
     999902    2    1    2    0    0  0.21665832885E-01  0.22394217179E-02 -0.89601636230E-02  0.10203777632E+01  0.10201059121E+01 0.  0.
     999903    2    3    3    0    0 -0.10728050020E+00  0.58024717389E-01  0.33994191868E-01  0.12819827867E+00  0.20080339199E-01 0.  0.
         14    1    1    2    0    0 -0.21665832885E-01 -0.22394217179E-02  0.89601636230E-02  0.23552236759E-01  0.00000000000E+00 0.  1.
     999901    1    3    3    0    0  0.12894633309E+00 -0.55785295671E-01 -0.42954355491E-01  0.89217948457E+00  0.88000000000E+00 0.  1.
        -11    1    4    4    0    0 -0.48447251613E-01  0.20962864319E-01  0.55920874235E-02  0.53085877897E-01  0.51100000000E-03 0. -1.
         11    1    4    4    0    0 -0.58833248588E-01  0.37061853070E-01  0.28402104444E-01  0.75112400775E-01  0.51100000000E-03 0.  1.
</event>
<event>
 8    1  0.1161271E+005  0.1043930E+01  0.7957747E-01            NaN
         13   -1    0    0    0    0  0.00000000000E+00  0.00000000000E+00  0.74505805969E-08  0.10566000000E+00  0.10566000000E+00 0. -1.
     999900   -1    0    0    0    0 -0.00000000000E+00 -0.00000000000E+00 -0.74505805969E-08  0.93827000000E+00  0.93827000000E+00 0. -1.
     999902    2    1    2    0    0  0.17809988187E-02  0.22308905611E-01 -0.66299598112E-02  0.10205887148E+01  0.10203217675E+01 0.  0.
     999903    2    3    3    0    0  0.12030218371E+00  0.31552064856E-01  0.38594728100E-01  0.13144419359E+00  0.17885043710E-01 0.  0.
         14    1    1    2    0    0 -0.17809988187E-02 -0.22308905611E-01  0.66299598112E-02  0.23341285171E-01  0.00000000000E+00 0.  1.
     999901    1    3    3    0    0 -0.11852118489E+00 -0.92431592450E-02 -0.45224687911E-01  0.88914452124E+00  0.88000000000E+00 0. -1.
        -11    1    4    4    0    0  0.76992404505E-01  0.11244398401E-01  0.24289696137E-01  0.81513908667E-01  0.51100000000E-03 0. -1.
         11    1    4    4    0    0  0.43309779204E-01  0.20307666455E-01  0.14305031963E-01  0.49930284918E-01  0.51100000000E-03 0.  1.
</event>
<event>
 8    1  0.1161271E+005  0.1043930E+01  0.7957747E-01            NaN
         13   -1    0    0    0    0  0.00000000000E+00  0.00000000000E+00  0.74505805969E-08  0.10566000000E+00  0.10566000000E+00 0. -1.
     999900   -1    0    0    0    0 -0.00000000000E+00 -0.00000000000E+00 -0.74505805969E-08  0.93827000000E+00  0.93827000000E+00 0. -1.
     999902    2    1    2    0    0 -0.21393348669E-01 -0.94187514895E-02 -0.46218679560E-02  0.10201024968E+01  0.10198241780E+01 0.  0.
     999903    2    3    3    0    0 -0.46426304735E-01 -0.11443412117E+00  0.42727569647E-01  0.13224167096E+00  0.20289023432E-01 0.  0.
         14    1    1    2    0    0  0.21393348669E-01  0.94187514895E-02  0.46218679560E-02  0.23827503232E-01  0.00000000000E+00 0. -1.
     999901    1    3    3    0    0  0.25032956066E-01  0.10501536968E+00 -0.47349437603E-01  0.88786082581E+00  0.88000000000E+00 0. -1.
        -11    1    4    4    0    0 -0.12902399547E-01 -0.22012974083E-01  0.12960080755E-02  0.25553545742E-01  0.51100000000E-03 0.  1.
         11    1    4    4    0    0 -0.33523905188E-01 -0.92421147087E-01  0.41431561572E-01  0.10668812522E+00  0.51100000000E-03 0. -1.
</event>
<event>
 8    1  0.1161271E+005  0.1043930E+01  0.7957747E-01            NaN
         13   -1    0    0    0    0  0.00000000000E+00  0.00000000000E+00  0.74505805969E-08  0.10566000000E+00  0.10566000000E+00 0. -1.
     999900   -1    0    0    0    0 -0.00000000000E+00 -0.00000000000E+00 -0.74505805969E-08  0.93827000000E+00  0.93827000000E+00 0.  1.
     999902    2    1    2    0    0  0.19319407721E-01  0.10995829788E-01 -0.77382738132E-02  0.10203921864E+01  0.10201206720E+01 0.  0.
     999903    2    3    3    0    0  0.67418395620E-01 -0.30453625529E-01  0.10597796610E+00  0.13080635400E+00  0.20157122160E-01 0.  0.
         14    1    1    2    0    0 -0.19319407721E-01 -0.10995829788E-01  0.77382738132E-02  0.23537813599E-01  0.00000000000E+00 0.  1.
     999901    1    3    3    0    0 -0.48098987899E-01  0.41449455318E-01 -0.11371623991E+00  0.88958583240E+00  0.88000000000E+00 0.  1.
        -11    1    4    4    0    0  0.55497707442E-01 -0.17049935311E-01  0.87819706720E-01  0.10527705275E+00  0.51100000000E-03 0.  1.
         11    1    4    4    0    0  0.11920688179E-01 -0.13403690218E-01  0.18158259376E-01  0.25529301257E-01  0.51100000000E-03 0. -1.
</event>
<event>
 8    1  0.1161271E+005  0.1043930E+01  0.7957747E-01            NaN
         13   -1    0    0    0    0  0.00000000000E+00  0.00000000000E+00  0.74505805969E-08  0.10566000000E+00  0.10566000000E+00 0. -1.
     999900   -1    0    0    0    0 -0.00000000000E+00 -0.00000000000E+00 -0.74505805969E-08  0.93827000000E+00  0.93827000000E+00 0. -1.
     999902    2    1    2    0    0 -0.82283045529E-02 -0.21200844131E-01  0.71697320233E-02  0.10200849618E+01  0.10198062284E+01 0.  0.
     999903    2    3    3    0    0  0.29953814066E-01  0.10749007736E+00  0.60098029329E-01  0.12833352107E+00  0.20158665443E-01 0.  0.
         14    1    1    2    0    0  0.82283045529E-02  0.21200844131E-01 -0.71697320233E-02  0.23845038162E-01  0.00000000000E+00 0.  1.
     999901    1    3    3    0    0 -0.38182118619E-01 -0.12869092149E+00 -0.52928297306E-01  0.89175144077E+00  0.88000000000E+00 0. -1.
        -11    1    4    4    0    0 -0.66241888240E-03  0.28010714569E-02  0.57901767902E-02  0.64862985087E-02  0.51100000000E-03 0. -1.
         11    1    4    4    0    0  0.30616232948E-01  0.10468900590E+00  0.54307852539E-01  0.12184722256E+00  0.51100000000E-03 0.  1.
</event>
<event>
 8    1  0.1161271E+005  0.1043930E+01  0.7957747E-01            NaN
         13   -1    0    0    0    0  0.00000000000E+00  0.00000000000E+00  0.74505805969E-08  0.10566000000E+00  0.10566000000E+00 0. -1.
     999900   -1    0    0    0    0 -0.00000000000E+00 -0.00000000000E+00 -0.74505805969E-08  0.93827000000E+00  0.93827000000E+00 0.  1.
     999902    2    1    2    0    0  0.19256833031E-01 -0.11276802663E-01 -0.29864078119E-02  0.10214153264E+01  0.10211671550E+01 0.  0.
     999903    2    3    3    0    0  0.43684604545E-01 -0.40390149665E-01 -0.11757046233E+00  0.13317335003E+00  0.19303333419E-01 0.  0.
         14    1    1    2    0    0 -0.19256833031E-01  0.11276802663E-01  0.29864078119E-02  0.22514673622E-01  0.00000000000E+00 0. -1.
     999901    1    3    3    0    0 -0.24427771514E-01  0.29113347001E-01  0.11458405452E+00  0.88824197635E+00  0.88000000000E+00 0. -1.
        -11    1    4    4    0    0  0.18807325894E-01 -0.54063196014E-02 -0.39132989710E-01  0.43756094473E-01  0.51100000000E-03 0.  1.
         11    1    4    4    0    0  0.24877278651E-01 -0.34983830063E-01 -0.78437472623E-01  0.89417255558E-01  0.51100000000E-03 0. -1.
</event>
<event>
 8    1  0.1161271E+005  0.1043930E+01  0.7957747E-01            NaN
         13   -1    0    0    0    0  0.00000000000E+00  0.00000000000E+00  0.74505805969E-08  0.10566000000E+00  0.10566000000E+00 0.  1.
     999900   -1    0    0    0    0 -0.00000000000E+00 -0.00000000000E+00 -0.74505805969E-08  0.93827000000E+00  0.93827000000E+00 0.  1.
     999902    2    1    2    0    0  0.22165063720E-01  0.71660421930E-02 -0.47458997565E-02  0.10201567845E+01  0.10198797474E+01 0.  0.
     999903    2    3    3    0    0  0.38826493960E-01 -0.17354009903E-01 -0.12305494657E+00  0.13174479293E+00  0.20137335918E-01 0.  0.
         14    1    1    2    0    0 -0.22165063720E-01 -0.71660421930E-02  0.47458997565E-02  0.23773215494E-01  0.00000000000E+00 0. -1.
     999901    1    3    3    0    0 -0.16661430239E-01  0.24520052096E-01  0.11830904681E+00  0.88841199157E+00  0.88000000000E+00 0. -1.
        -11    1    4    4    0    0  0.20593089560E-01 -0.11637144503E-01 -0.39606512994E-01  0.46134970059E-01  0.51100000000E-03 0. -1.
         11    1    4    4    0    0  0.18233404400E-01 -0.57168654000E-02 -0.83448433572E-01  0.85609822874E-01  0.51100000000E-03 0.  1.
</event>
<event>
 8    1  0.1161271E+005  0.1043930E+01  0.7957747E-01            NaN
         13   -1    0    0    0    0  0.00000000000E+00  0.00000000000E+00  0.74505805969E-08  0.10566000000E+00  0.10566000000E+00 0.  1.
     999900   -1    0    0    0    0 -0.00000000000E+00 -0.00000000000E+00 -0.74505805969E-08  0.93827000000E+00  0.93827000000E+00 0. -1.
     999902    2    1    2    0    0  0.13853467491E-01  0.11269854652E-01 -0.15221338409E-01  0.10204647634E+01  0.10201949402E+01 0.  0.
     999903    2    3    3    0    0  0.12186567280E+00 -0.16875924804E-02  0.46370740210E-01  0.13162950528E+00  0.17944105921E-01 0.  0.
         14    1    1    2    0    0 -0.13853467491E-01 -0.11269854652E-01  0.15221338409E-01  0.23465236593E-01  0.00000000000E+00 0. -1.
     999901    1    3    3    0    0 -0.10801220531E+00  0.12957447132E-01 -0.61592078620E-01  0.88883525812E+00  0.88000000000E+00 0. -1.
        -11    1    4    4    0    0  0.99697487358E-01  0.48234127882E-02  0.34210674827E-01  0.10551533391E+00  0.51100000000E-03 0. -1.
         11    1    4    4    0    0  0.22168185447E-01 -0.65110052686E-02  0.12160065383E-01  0.26114171377E-01  0.51100000000E-03 0.  1.
</event>
<event>
 8    1  0.1161271E+005  0.1043930E+01  0.7957747E-01            NaN
         13   -1    0    0    0    0  0.00000000000E+00  0.00000000000E+00  0.74505805969E-08  0.10566000000E+00  0.10566000000E+00 0. -1.
     999900   -1    0    0    0    0 -0.00000000000E+00 -0.00000000000E+00 -0.74505805969E-08  0.93827000000E+00  0.93827000000E+00 0. -1.
     999902    2    1    2    0    0 -0.14711654195E-01  0.92072849980E-03  0.18446189219E-01  0.10203176641E+01  0.10200444075E+01 0.  0.
     999903    2    3    3    0    0 -0.12568480306E+00 -0.11538099240E-02  0.39423727490E-01  0.13309762341E+00  0.19045893822E-01 0.  0.
         14    1    1    2    0    0  0.14711654195E-01 -0.92072849980E-03 -0.18446189219E-01  0.23612335903E-01  0.00000000000E+00 0.  1.
     999901    1    3    3    0    0  0.11097314887E+00  0.20745384238E-02 -0.20977538271E-01  0.88722004068E+00  0.88000000000E+00 0. -1.
        -11    1    4    4    0    0 -0.34159255785E-01  0.78538070688E-02  0.85155681724E-02  0.36073717074E-01  0.51100000000E-03 0. -1.
         11    1    4    4    0    0 -0.91525547275E-01 -0.90076169928E-02  0.30908159317E-01  0.97023906339E-01  0.51100000000E-03 0.  1.
</event>
<event>
 8    1  0.1161271E+005  0.1043930E+01  0.7957747E-01            NaN
         13   -1    0    0    0    0  0.00000000000E+00  0.00000000000E+00  0.74505805969E-08  0.10566000000E+00  0.10566000000E+00 0. -1.
     999900   -1    0    0    0    0 -0.00000000000E+00 -0.00000000000E+00 -0.74505805969E-08  0.93827000000E+00  0.93827000000E+00 0.  1.
     999902    2    1    2    0    0  0.37030866802E-02 -0.23104700303E-01 -0.12302019450E-02  0.10204981110E+01  0.10202290630E+01 0.  0.
     999903    2    3    3    0    0  0.16879817262E-01 -0.10644673207E+00  0.75422820163E-01  0.13314519003E+00  0.20571942749E-01 0.  0.
         14    1    1    2    0    0 -0.37030866802E-02  0.23104700303E-01  0.12302019450E-02  0.23431889037E-01  0.00000000000E+00 0. -1.
     999901    1    3    3    0    0 -0.13176730582E-01  0.83342031765E-01 -0.76653022108E-01  0.88735292093E+00  0.88000000000E+00 0.  1.
        -11    1    4    4    0    0  0.16451763857E-01 -0.59677834170E-01  0.33793955657E-01  0.70529405111E-01  0.51100000000E-03 0. -1.
         11    1    4    4    0    0  0.42805340548E-03 -0.46768897897E-01  0.41628864505E-01  0.62615784920E-01  0.51100000000E-03 0.  1.
</event>
<event>
 8    1  0.1161271E+005  0.1043930E+01  0.7957747E-01            NaN
         13   -1    0    0    0    0  0.00000000000E+00  0.00000000000E+00  0.74505805969E-08  0.10566000000E+00  0.10566000000E+00 0.  1.
     999900   -1    0    0    0    0 -0.00000000000E+00 -0.00000000000E+00 -0.74505805969E-08  0.93827000000E+00  0.93827000000E+00 0.  1.
     999902    2    1    2    0    0 -0.26169357397E-02 -0.15919132280E-01 -0.16678005015E-01  0.10207260569E+01  0.10204622777E+01 0.  0.
     999903    2    3    3    0    0 -0.13753293398E-01 -0.88830994820E-01  0.93063946693E-01  0.13084772018E+00  0.19496896714E-01 0.  0.
         14    1    1    2    0    0  0.26169357397E-02  0.15919132280E-01  0.16678005015E-01  0.23203943124E-01  0.00000000000E+00 0.  1.
     999901    1    3    3    0    0  0.11136357658E-01  0.72911862540E-01 -0.10974195171E+00  0.88987833670E+00  0.88000000000E+00 0.  1.
        -11    1    4    4    0    0 -0.76260509384E-02 -0.45296493146E-01  0.61325019550E-01  0.76622112266E-01  0.51100000000E-03 0. -1.
         11    1    4    4    0    0 -0.61272424593E-02 -0.43534501674E-01  0.31738927142E-01  0.54225607911E-01  0.51100000000E-03 0.  1.
</event>
<event>
 8    1  0.1161271E+005  0.1043930E+01  0.7957747E-01            NaN
         13   -1    0    0    0    0  0.00000000000E+00  0.00000000000E+00  0.74505805969E-08  0.10566000000E+00  0.10566000000E+00 0. -1.
     999900   -1    0    0    0    0 -0.00000000000E+00 -0.00000000000E+00 -0.74505805969E-08  0.93827000000E+00  0.93827000000E+00 0. -1.
     999902    2    1    2    0    0 -0.16062551376E-01  0.16835791768E-01  0.16035055522E-01  0.10156709758E+01  0.10152777742E+01 0.  0.
     999903    2    3    3    0    0  0.10169755272E+00 -0.31949591175E-01 -0.58900723283E-01  0.12333537380E+00  0.19471790436E-01 0.  0.
         14    1    1    2    0    0  0.16062551376E-01 -0.16835791768E-01 -0.16035055522E-01  0.28259024165E-01  0.00000000000E+00 0.  1.
     999901    1    3    3    0    0 -0.11776010410E+00  0.48785382943E-01  0.74935778805E-01  0.89233560203E+00  0.88000000000E+00 0.  1.
        -11    1    4    4    0    0  0.80946999983E-01 -0.28662162181E-01 -0.38718915086E-01  0.94198470548E-01  0.51100000000E-03 0.  1.
         11    1    4    4    0    0  0.20750552737E-01 -0.32874289935E-02 -0.20181808197E-01  0.29136903256E-01  0.51100000000E-03 0. -1.
</event>
<event>
 8    1  0.1161271E+005  0.1043930E+01  0.7957747E-01            NaN
         13   -1    0    0    0    0  0.00000000000E+00  0.00000000000E+00  0.74505805969E-08  0.10566000000E+00  0.10566000000E+00 0.  1.
     999900   -1    0    0    0    0 -0.00000000000E+00 -0.00000000000E+00 -0.74505805969E-08  0.93827000000E+00  0.93827000000E+00 0.  1.
     999902    2    1    2    0    0 -0.14370029379E-03 -0.86255157206E-03  0.23893227883E-01  0.10200207762E+01  0.10197405223E+01 0.  0.
     999903    2    3    3    0    0 -0.66885861533E-01 -0.40503180412E-01 -0.99256956906E-01  0.12806121232E+00  0.20820771144E-01 0.  0.
         14    1    1    2    0    0  0.14370029379E-03  0.86255157206E-03 -0.23893227883E-01  0.23909223820E-01  0.00000000000E+00 0. -1.
     999901    1    3    3    0    0  0.66742161239E-01  0.39640628840E-01  0.12315018479E+00  0.89195956386E+00  0.88000000000E+00 0. -1.
        -11    1    4    4    0    0 -0.45525409938E-01 -0.38172943744E-01 -0.71949588837E-01  0.93309919295E-01  0.51100000000E-03 0.  1.
         11    1    4    4    0    0 -0.21360451595E-01 -0.23302366681E-02 -0.27307368069E-01  0.34751293028E-01  0.51100000000E-03 0. -1.
</event>
<event>
 8    1  0.1161271E+005  0.1043930E+01  0.7957747E-01            NaN
         13   -1    0    0    0    0  0.00000000000E+00  0.00000000000E+00  0.74505805969E-08  0.10566000000E+00  0.10566000000E+00 0. -1.
     999900   -1    0    0    0    0 -0.00000000000E+00 -0.00000000000E+00 -0.74505805969E-08  0.93827000000E+00  0.93827000000E+00 0. -1.
     999902    2    1    2    0    0 -0.17772618750E-01 -0.12866932493E-01 -0.10131946065E-01  0.10197622475E+01  0.10194758267E+01 0.  0.
     999903    2    3    3    0    0 -0.21190907440E-01 -0.38726252936E-01 -0.12305191543E+00  0.13216362841E+00  0.19408079740E-01 0.  0.
         14    1    1    2    0    0  0.17772618750E-01  0.12866932493E-01  0.10131946065E-01  0.24167752483E-01  0.00000000000E+00 0. -1.
     999901    1    3    3    0    0  0.34182886898E-02  0.25859320443E-01  0.11291996937E+00  0.88759861910E+00  0.88000000000E+00 0.  1.
        -11    1    4    4    0    0 -0.15850811791E-01 -0.20583768598E-01 -0.46087323369E-01  0.52907865771E-01  0.51100000000E-03 0.  1.
         11    1    4    4    0    0 -0.53400956487E-02 -0.18142484338E-01 -0.76964592064E-01  0.79255762643E-01  0.51100000000E-03 0. -1.
</event>
<event>
 8    1  0.1161271E+005  0.1043930E+01  0.7957747E-01            NaN
         13   -1    0    0    0    0  0.00000000000E+00  0.00000000000E+00  0.74505805969E-08  0.10566000000E+00  0.10566000000E+00 0. -1.
     999900   -1    0    0    0    0 -0.00000000000E+00 -0.00000000000E+00 -0.74505805969E-08  0.93827000000E+00  0.93827000000E+00 0.  1.
     999902    2    1    2    0    0 -0.12288533358E-01 -0.80071831088E-02  0.18809016772E-01  0.10200783303E+01  0.10197994400E+01 0.  0.
     999903    2    3    3    0    0 -0.75429740360E-01  0.52251390531E-01  0.94536109188E-01  0.13252410651E+00  0.14342570296E-01 0.  0.
         14    1    1    2    0    0  0.12288533358E-01  0.80071831088E-02 -0.18809016772E-01  0.23851669656E-01  0.00000000000E+00 0.  1.
     999901    1    3    3    0    0  0.63141207002E-01 -0.60258573640E-01 -0.75727092416E-01  0.88755422383E+00  0.88000000000E+00 0.  1.
        -11    1    4    4    0    0 -0.14386148395E-01  0.10336783885E-01  0.10849161840E-01  0.20779215585E-01  0.51100000000E-03 0.  1.
         11    1    4    4    0    0 -0.61043591966E-01  0.41914606647E-01  0.83686947349E-01  0.11174489093E+00  0.51100000000E-03 0. -1.
</event>
<event>
 8    1  0.1161271E+005  0.1043930E+01  0.7957747E-01            NaN
         13   -1    0    0    0    0  0.00000000000E+00  0.00000000000E+00  0.74505805969E-08  0.10566000000E+00  0.10566000000E+00 0.  1.
     999900   -1    0    0    0    0 -0.00000000000E+00 -0.00000000000E+00 -0.74505805969E-08  0.93827000000E+00  0.93827000000E+00 0. -1.
     999902    2    1    2    0    0 -0.24434920277E-02 -0.18249746713E-01  0.13997565255E-01  0.10208008897E+01  0.10205388286E+01 0.  0.
     999903    2    3    3    0    0 -0.26028779306E-01 -0.76014477450E-01  0.10518556465E+00  0.13389149125E+00  0.20179947568E-01 0.  0.
         14    1    1    2    0    0  0.24434920277E-02  0.18249746713E-01 -0.13997565255E-01  0.23129110260E-01  0.00000000000E+00 0. -1.
     999901    1    3    3    0    0  0.23585287278E-01  0.57764730737E-01 -0.91187999399E-01  0.88690939849E+00  0.88000000000E+00 0. -1.
        -11    1    4    4    0    0 -0.58103022850E-02 -0.17682585653E-01  0.39933897810E-01  0.44061443046E-01  0.51100000000E-03 0. -1.
         11    1    4    4    0    0 -0.20218477021E-01 -0.58331891797E-01  0.65251666844E-01  0.89830048205E-01  0.51100000000E-03 0.  1.
</event>
<event>
 8    1  0.1161271E+005  0.1043930E+01  0.7957747E-01            NaN
         13   -1    0    0    0    0  0.00000000000E+00  0.00000000000E+00  0.74505805969E-08  0.10566000000E+00  0.10566000000E+00 0. -1.
     999900   -1    0    0    0    0 -0.00000000000E+00 -0.00000000000E+00 -0.74505805969E-08  0.93827000000E+00  0.93827000000E+00 0. -1.
     999902    2    1    2    0    0  0.16785916853E-01  0.81177873989E-02  0.14926559530E-01  0.10200455353E+01  0.10197658684E+01 0.  0.
     999903    2    3    3    0    0 -0.11276324404E+00 -0.17358408408E-01  0.57217749994E-01  0.12919169402E+00  0.19993982649E-01 0.  0.
         14    1    1    2    0    0 -0.16785916853E-01 -0.81177873989E-02 -0.14926559530E-01  0.23884464747E-01  0.00000000000E+00 0.  1.
     999901    1    3    3    0    0  0.12954916089E+00  0.25476195807E-01 -0.42291190464E-01  0.89085384123E+00  0.88000000000E+00 0. -1.
        -11    1    4    4    0    0 -0.23373338044E-01 -0.71067318415E-02  0.20925978149E-01  0.32171046785E-01  0.51100000000E-03 0.  1.
         11    1    4    4    0    0 -0.89389905994E-01 -0.10251676567E-01  0.36291771845E-01  0.97020647239E-01  0.51100000000E-03 0. -1.
</event>
<event>
 8    1  0.1161271E+005  0.1043930E+01  0.7957747E-01            NaN
         13   -1    0    0    0    0  0.00000000000E+00  0.00000000000E+00  0.74505805969E-08  0.10566000000E+00  0.10566000000E+00 0. -1.
     999900   -1    0    0    0    0 -0.00000000000E+00 -0.00000000000E+00 -0.74505805969E-08  0.93827000000E+00  0.93827000000E+00 0. -1.
     999902    2    1    2    0    0  0.82445169774E-02  0.50701991764E-02  0.21325902109E-01  0.10205104979E+01  0.10202417376E+01 0.  0.
     999903    2    3    3    0    0 -0.68105137626E-01  0.90948304409E-01  0.64297483921E-01  0.13200001646E+00  0.19491897288E-01 0.  0.
         14    1    1    2    0    0 -0.82445169774E-02 -0.50701991764E-02 -0.21325902109E-01  0.23419502143E-01  0.00000000000E+00 0.  1.
     999901    1    3    3    0    0  0.76349654604E-01 -0.85878105232E-01 -0.42971581812E-01  0.88851048140E+00  0.88000000000E+00 0.  1.
        -11    1    4    4    0    0 -0.51650598126E-01  0.59979686696E-01  0.36103721294E-01  0.87000499511E-01  0.51100000000E-03 0.  1.
         11    1    4    4    0    0 -0.16454539501E-01  0.30968617713E-01  0.28193762627E-01  0.44999516945E-01  0.51100000000E-03 0. -1.
</event>
<event>
 8    1  0.1161271E+005  0.1043930E+01  0.7957747E-01            NaN
         13   -1    0    0    0    0  0.00000000000E+00  0.00000000000E+00  0.74505805969E-08  0.10566000000E+00  0.10566000000E+00 0.  1.
     999900   -1    0    0    0    0 -0.00000000000E+00 -0.00000000000E+00 -0.74505805969E-08  0.93827000000E+00  0.93827000000E+00 0. -1.
     999902    2    1    2    0    0 -0.16490567637E-01 -0.74901447802E-02  0.15792504183E-01  0.10198999297E+01  0.10196168017E+01 0.  0.
     999903    2    3    3    0    0 -0.97484623188E-01  0.16577725109E-01 -0.82644012730E-01  0.13038936358E+00  0.19831302692E-01 0.  0.
         14    1    1    2    0    0  0.16490567637E-01  0.74901447802E-02 -0.15792504183E-01  0.24030070291E-01  0.00000000000E+00 0. -1.
     999901    1    3    3    0    0  0.80994055551E-01 -0.24067869889E-01  0.98436516913E-01  0.88951056613E+00  0.88000000000E+00 0.  1.
        -11    1    4    4    0    0 -0.55983897375E-01  0.19105953216E-01 -0.45439579131E-01  0.74593905154E-01  0.51100000000E-03 0.  1.
         11    1    4    4    0    0 -0.41500725813E-01 -0.25282281069E-02 -0.37204433599E-01  0.55795458425E-01  0.51100000000E-03 0. -1.
</event>
<event>
 8    1  0.1161271E+005  0.1043930E+01  0.7957747E-01            NaN
         13   -1    0    0    0    0  0.00000000000E+00  0.00000000000E+00  0.74505805969E-08  0.10566000000E+00  0.10566000000E+00 0. -1.
     999900   -1    0    0    0    0 -0.00000000000E+00 -0.00000000000E+00 -0.74505805969E-08  0.93827000000E+00  0.93827000000E+00 0.  1.
     999902    2    1    2    0    0 -0.57769686087E-02  0.17864324272E-01 -0.18292030418E-01  0.10177172965E+01  0.10173796684E+01 0.  0.
     999903    2    3    3    0    0 -0.86288243516E-01  0.84763971027E-01  0.41407899555E-01  0.12950464755E+00  0.20645770433E-01 0.  0.
         14    1    1    2    0    0  0.57769686087E-02 -0.17864324272E-01  0.18292030418E-01  0.26212703501E-01  0.00000000000E+00 0. -1.
     999901    1    3    3    0    0  0.80511274908E-01 -0.66899646756E-01 -0.59699929974E-01  0.88821264895E+00  0.88000000000E+00 0. -1.
        -11    1    4    4    0    0 -0.61040100479E-01  0.70399879018E-01  0.36333813759E-01  0.10001221913E+00  0.51100000000E-03 0. -1.
         11    1    4    4    0    0 -0.25248143038E-01  0.14364092009E-01  0.50740857960E-02  0.29492428414E-01  0.51100000000E-03 0.  1.
</event>
<event>
 8    1  0.1161271E+005  0.1043930E+01  0.7957747E-01            NaN
         13   -1    0    0    0    0  0.00000000000E+00  0.00000000000E+00  0.74505805969E-08  0.10566000000E+00  0.10566000000E+00 0.  1.
     999900   -1    0    0    0    0 -0.00000000000E+00 -0.00000000000E+00 -0.74505805969E-08  0.93827000000E+00  0.93827000000E+00 0.  1.
     999902    2    1    2    0    0  0.15984958625E-01 -0.14476707072E-02 -0.15967312419E-01  0.10212899974E+01  0.10210390242E+01 0.  0.
     999903    2    3    3    0    0 -0.58482019210E-01  0.11425704837E+00 -0.14056821085E-01  0.13059557010E+00  0.19564995234E-01 0.  0.
         14    1    1    2    0    0 -0.15984958625E-01  0.14476707072E-02  0.15967312419E-01  0.22640002619E-01  0.00000000000E+00 0.  1.
     999901    1    3    3    0    0  0.74466977835E-01 -0.11570471908E+00 -0.19104913341E-02  0.89069442728E+00  0.88000000000E+00 0. -1.
        -11    1    4    4    0    0 -0.42396675928E-01  0.74364471136E-01 -0.88353715099E-03  0.85607210303E-01  0.51100000000E-03 0.  1.
         11    1    4    4    0    0 -0.16085343282E-01  0.39892577235E-01 -0.13173283934E-01  0.44988359800E-01  0.51100000000E-03 0. -1.
</event>
<event>
 8    1  0.1161271E+005  0.1043930E+01  0.7957747E-01            NaN
         13   -1    0    0    0    0  0.00000000000E+00  0.00000000000E+00  0.74505805969E-08  0.10566000000E+00  0.10566000000E+00 0.  1.
     999900   -1    0    0    0    0 -0.00000000000E+00 -0.00000000000E+00 -0.74505805969E-08  0.93827000000E+00  0.93827000000E+00 0. -1.
     999902    2    1    2    0    0  0.10103666625E-01 -0.21611303113E-01  0.28626117421E-03  0.10200717845E+01  0.10197927393E+01 0.  0.
     999903    2    3    3    0    0  0.12282511594E+00  0.16651993642E-01 -0.37122892402E-01  0.13126941626E+00  0.22141646436E-01 0.  0.
         14    1    1    2    0    0 -0.10103666625E-01  0.21611303113E-01 -0.28626117421E-03  0.23858215503E-01  0.00000000000E+00 0.  1.
     999901    1    3    3    0    0 -0.11272144932E+00 -0.38263296755E-01  0.37409153576E-01  0.88880236824E+00  0.88000000000E+00 0.  1.
        -11    1    4    4    0    0  0.43891519957E-01 -0.46805496199E-02 -0.12839898133E-01  0.45972787319E-01  0.51100000000E-03 0. -1.
         11    1    4    4    0    0  0.78933595983E-01  0.21332543262E-01 -0.24282994269E-01  0.85296628940E-01  0.51100000000E-03 0.  1.
</event>
<event>
 8    1  0.1161271E+005  0.1043930E+01  0.7957747E-01            NaN
         13   -1    0    0    0    0  0.00000000000E+00  0.00000000000E+00  0.74505805969E-08  0.10566000000E+00  0.10566000000E+00 0.  1.
     999900   -1    0    0    0    0 -0.00000000000E+00 -0.00000000000E+00 -0.74505805969E-08  0.93827000000E+00  0.93827000000E+00 0.  1.
     999902    2    1    2    0    0 -0.33623102479E-02  0.19124870471E-01  0.13340403879E-01  0.10203708791E+01  0.10200988672E+01 0.  0.
     999903    2    3    3    0    0  0.11065677648E+00  0.60061146435E-01 -0.30827922222E-01  0.13097390822E+00  0.18749409414E-01 0.  0.
         14    1    1    2    0    0  0.33623102479E-02 -0.19124870471E-01 -0.13340403879E-01  0.23559120875E-01  0.00000000000E+00 0. -1.
     999901    1    3    3    0    0 -0.11401908673E+00 -0.40936275964E-01  0.44168326101E-01  0.88939697091E+00  0.88000000000E+00 0. -1.
        -11    1    4    4    0    0  0.54587489699E-01  0.38751553441E-01 -0.11312997324E-01  0.67894933207E-01  0.51100000000E-03 0.  1.
         11    1    4    4    0    0  0.56069286780E-01  0.21309592994E-01 -0.19514924898E-01  0.63078975011E-01  0.51100000000E-03 0. -1.
</event>
<event>
 8    1  0.1161271E+005  0.1043930E+01  0.7957747E-01            NaN
         13   -1    0    0    0    0  0.00000000000E+00  0.00000000000E+00  0.74505805969E-08  0.10566000000E+00  0.10566000000E+00 0. -1.
     999900   -1    0    0    0    0 -0.00000000000E+00 -0.00000000000E+00 -0.74505805969E-08  0.93827000000E+00  0.93827000000E+00 0. -1.
     999902    2    1    2    0    0 -0.14479928218E-01 -0.40945595070E-03  0.11763361335E-01  0.10252695433E+01  0.10250997140E+01 0.  0.
     999903    2    3    3    0    0  0.11603874524E+00  0.23027064248E-01  0.60112820386E-01  0.13402206654E+00  0.18791675287E-01 0.  0.
         14    1    1    2    0    0  0.14479928218E-01  0.40945595070E-03 -0.11763361335E-01  0.18660456728E-01  0.00000000000E+00 0. -1.
     999901    1    3    3    0    0 -0.13051867345E+00 -0.23436520198E-01 -0.48349459051E-01  0.89124747674E+00  0.88000000000E+00 0. -1.
        -11    1    4    4    0    0  0.24028378521E-01  0.37635643310E-03  0.19393507801E-01  0.30884848783E-01  0.51100000000E-03 0. -1.
         11    1    4    4    0    0  0.92010366715E-01  0.22650707815E-01  0.40719312585E-01  0.10313721775E+00  0.51100000000E-03 0.  1.
</event>
<event>
 8    1  0.1161271E+005  0.1043930E+01  0.7957747E-01            NaN
         13   -1    0    0    0    0  0.00000000000E+00  0.00000000000E+00  0.74505805969E-08  0.10566000000E+00  0.10566000000E+00 0. -1.
     999900   -1    0    0    0    0 -0.00000000000E+00 -0.00000000000E+00 -0.74505805969E-08  0.93827000000E+00  0.93827000000E+00 0. -1.
     999902    2    1    2    0    0 -0.72424619954E-02  0.16232429284E-01 -0.13962570142E-01  0.10213269387E+01  0.10210767930E+01 0.  0.
     999903    2    3    3    0    0  0.10168219358E+00  0.72987552374E-01  0.34074040566E-01  0.13149929213E+00  0.21553939244E-01 0.  0.
         14    1    1    2    0    0  0.72424619954E-02 -0.16232429284E-01  0.13962570142E-01  0.22603061323E-01  0.00000000000E+00 0. -1.
     999901    1    3    3    0    0 -0.10892465558E+00 -0.56755123090E-01 -0.48036610708E-01  0.88982764655E+00  0.88000000000E+00 0. -1.
        -11    1    4    4    0    0  0.92135331693E-01  0.57363912529E-01  0.31420614657E-01  0.11299138885E+00  0.51100000000E-03 0. -1.
         11    1    4    4    0    0  0.95468618906E-02  0.15623639845E-01  0.26534259086E-02  0.18507903285E-01  0.51100000000E-03 0.  1.
</event>
<event>
 8    1  0.1670334E+005  0.1043930E+01  0.7957747E-01            NaN
         13   -1    0    0    0    0  0.00000000000E+00  0.00000000000E+00  0.74505805969E-08  0.10566000000E+00  0.10566000000E+00 0.  1.
     999900   -1    0    0    0    0 -0.00000000000E+00 -0.00000000000E+00 -0.74505805969E-08  0.93827000000E+00  0.93827000000E+00 0. -1.
     999902    2    1    2    0    0  0.30767745041E-01  0.12636130834E-01 -0.13532430349E-01  0.10080210511E+01  0.10073812520E+01 0.  0.
     999903    2    3    3    0    0  0.96491101530E-01  0.22358593571E-01  0.68048125756E-01  0.12175389446E+00  0.19570999364E-01 0.  0.
         14    1    1    2    0    0 -0.30767745041E-01 -0.12636130834E-01  0.13532430349E-01  0.35908948864E-01  0.00000000000E+00 0. -1.
     999901    1    3    3    0    0 -0.65723356489E-01 -0.97224627369E-02 -0.81580556105E-01  0.88626715668E+00  0.88000000000E+00 0. -1.
        -11    1    4    4    0    0  0.71709963066E-01  0.15642049327E-01  0.60121531261E-01  0.94878091002E-01  0.51100000000E-03 0. -1.
         11    1    4    4    0    0  0.24781138464E-01  0.67165442445E-02  0.79265944948E-02  0.26875803457E-01  0.51100000000E-03 0.  1.
</event>
<event>
 8    1  0.1161271E+005  0.1043930E+01  0.7957747E-01            NaN
         13   -1    0    0    0    0  0.00000000000E+00  0.00000000000E+00  0.74505805969E-08  0.10566000000E+00  0.10566000000E+00 0. -1.
     999900   -1    0    0    0    0 -0.00000000000E+00 -0.00000000000E+00 -0.74505805969E-08  0.93827000000E+00  0.93827000000E+00 0. -1.
     999902    2    1    2    0    0  0.13449767833E-01 -0.48666081946E-02  0.15701334704E-01  0.10226906017E+01  0.10224700263E+01 0.  0.
     999903    2    3    3    0    0 -0.27114156105E-01  0.56035107330E-01 -0.11283064183E+00  0.13034822350E+00  0.19616190256E-01 0.  0.
         14    1    1    2    0    0 -0.13449767833E-01  0.48666081946E-02 -0.15701334704E-01  0.21239398333E-01  0.00000000000E+00 0.  1.
     999901    1    3    3    0    0  0.40563923938E-01 -0.60901715524E-01  0.12853197653E+00  0.89234237817E+00  0.88000000000E+00 0. -1.
        -11    1    4    4    0    0  0.23668180059E-02  0.12125049378E-01 -0.20401531028E-01  0.23855863832E-01  0.51100000000E-03 0.  1.
         11    1    4    4    0    0 -0.29480974111E-01  0.43910057952E-01 -0.92429110799E-01  0.10649235967E+00  0.51100000000E-03 0. -1.
</event>
<event>
 8    1  0.1161271E+005  0.1043930E+01  0.7957747E-01            NaN
         13   -1    0    0    0    0  0.00000000000E+00  0.00000000000E+00  0.74505805969E-08  0.10566000000E+00  0.10566000000E+00 0.  1.
     999900   -1    0    0    0    0 -0.00000000000E+00 -0.00000000000E+00 -0.74505805969E-08  0.93827000000E+00  0.93827000000E+00 0. -1.
     999902    2    1    2    0    0 -0.78666823462E-03 -0.15891526358E-01  0.17524905659E-01  0.10202597280E+01  0.10199851131E+01 0.  0.
     999903    2    3    3    0    0  0.42439448867E-01  0.11888313277E+00  0.18139821974E-01  0.12894997039E+00  0.19098053386E-01 0.  0.
         14    1    1    2    0    0  0.78666823462E-03  0.15891526358E-01 -0.17524905659E-01  0.23670271973E-01  0.00000000000E+00 0. -1.
     999901    1    3    3    0    0 -0.43226117102E-01 -0.13477465913E+00 -0.61491631507E-03  0.89130975764E+00  0.88000000000E+00 0.  1.
        -11    1    4    4    0    0  0.33116956999E-01  0.79097711497E-01  0.19955054289E-01  0.88043433131E-01  0.51100000000E-03 0.  1.
         11    1    4    4    0    0  0.93224918680E-02  0.39785421277E-01 -0.18152323149E-02  0.40906537255E-01  0.51100000000E-03 0. -1.
</event>
<event>
 8    1  0.1161271E+005  0.1043930E+01  0.7957747E-01            NaN
         13   -1    0    0    0    0  0.00000000000E+00  0.00000000000E+00  0.74505805969E-08  0.10566000000E+00  0.10566000000E+00 0. -1.
     999900   -1    0    0    0    0 -0.00000000000E+00 -0.00000000000E+00 -0.74505805969E-08  0.93827000000E+00  0.93827000000E+00 0. -1.
     999902    2    1    2    0    0 -0.25473826161E-02  0.20376436986E-01  0.16080471746E-01  0.10178480155E+01  0.10175137900E+01 0.  0.
     999903    2    3    3    0    0 -0.42030247841E-01 -0.89415887068E-01 -0.74850688798E-01  0.12550182316E+00  0.19655518573E-01 0.  0.
         14    1    1    2    0    0  0.25473826161E-02 -0.20376436986E-01 -0.16080471746E-01  0.26081984472E-01  0.00000000000E+00 0.  1.
     999901    1    3    3    0    0  0.39482865225E-01  0.10979232405E+00  0.90931160544E-01  0.89234619236E+00  0.88000000000E+00 0.  1.
        -11    1    4    4    0    0 -0.33748594733E-01 -0.49836804214E-01 -0.47595907595E-01  0.76735299840E-01  0.51100000000E-03 0. -1.
         11    1    4    4    0    0 -0.82816531080E-02 -0.39579082854E-01 -0.27254781203E-01  0.48766523325E-01  0.51100000000E-03 0.  1.
</event>
<event>
 8    1  0.1161271E+005  0.1043930E+01  0.7957747E-01            NaN
         13   -1    0    0    0    0  0.00000000000E+00  0.00000000000E+00  0.74505805969E-08  0.10566000000E+00  0.10566000000E+00 0.  1.
     999900   -1    0    0    0    0 -0.00000000000E+00 -0.00000000000E+00 -0.74505805969E-08  0.93827000000E+00  0.93827000000E+00 0.  1.
     999902    2    1    2    0    0  0.32452321668E-02  0.21268580113E-01  0.17694825449E-01  0.10160733871E+01  0.10156914577E+01 0.  0.
     999903    2    3    3    0    0  0.24621762342E-01 -0.36410655269E-01  0.11874492516E+00  0.12815730278E+00  0.19798232410E-01 0.  0.
         14    1    1    2    0    0 -0.32452321668E-02 -0.21268580113E-01 -0.17694825449E-01  0.27856612851E-01  0.00000000000E+00 0. -1.
     999901    1    3    3    0    0 -0.21376530176E-01  0.57679235382E-01 -0.10105009971E+00  0.88791608437E+00  0.88000000000E+00 0.  1.
        -11    1    4    4    0    0 -0.22134795105E-02 -0.21643318318E-02  0.20087875367E-01  0.20331445634E-01  0.51100000000E-03 0. -1.
         11    1    4    4    0    0  0.26835241853E-01 -0.34246323437E-01  0.98657049790E-01  0.10782585714E+00  0.51100000000E-03 0.  1.
</event>
<event>
 8    1  0.1161271E+005  0.1043930E+01  0.7957747E-01            NaN
         13   -1    0    0    0    0  0.00000000000E+00  0.00000000000E+00  0.74505805969E-08  0.10566000000E+00  0.10566000000E+00 0. -1.
     999900   -1    0    0    0    0 -0.00000000000E+00 -0.00000000000E+00 -0.74505805969E-08  0.93827000000E+00  0.93827000000E+00 0. -1.
     999902    2    1    2    0    0  0.13019829007E-01  0.16642242370E-01 -0.10638126631E-01  0.10202730789E+01  0.10199987772E+01 0.  0.
     999903    2    3    3    0    0  0.53422173679E-01  0.77120845984E-01  0.89843775167E-01  0.13157367890E+00  0.20932642357E-01 0.  0.
         14    1    1    2    0    0 -0.13019829007E-01 -0.16642242370E-01  0.10638126631E-01  0.23656921116E-01  0.00000000000E+00 0. -1.
     999901    1    3    3    0    0 -0.40402344672E-01 -0.60478603613E-01 -0.10048190180E+00  0.88869939999E+00  0.88000000000E+00 0. -1.
        -11    1    4    4    0    0  0.20121727848E-01  0.47321144274E-01  0.47153104538E-01  0.69769986496E-01  0.51100000000E-03 0. -1.
         11    1    4    4    0    0  0.33300445831E-01  0.29799701709E-01  0.42690670629E-01  0.61803692400E-01  0.51100000000E-03 0.  1.
</event>
<event>
 8    1  0.1161271E+005  0.1043930E+01  0.7957747E-01            NaN
         13   -1    0    0    0    0  0.00000000000E+00  0.00000000000E+00  0.74505805969E-08  0.10566000000E+00  0.10566000000E+00 0.  1.
     999900   -1    0    0    0    0 -0.00000000000E+00 -0.00000000000E+00 -0.74505805969E-08  0.93827000000E+00  0.93827000000E+00 0. -1.
     999902    2    1    2    0    0  0.11799450860E-01 -0.54232280399E-02  0.19961878562E-01  0.10201158227E+01  0.10198378189E+01 0.  0.
     999903    2    3    3    0    0  0.10755704306E+00  0.67075414303E-01 -0.24963982210E-01  0.13082177543E+00  0.20579305220E-01 0.  0.
         14    1    1    2    0    0 -0.11799450860E-01  0.54232280399E-02 -0.19961878562E-01  0.23814177262E-01  0.00000000000E+00 0. -1.
     999901    1    3    3    0    0 -0.95757592202E-01 -0.72498642343E-01  0.44925860772E-01  0.88929404730E+00  0.88000000000E+00 0.  1.
        -11    1    4    4    0    0  0.36806422252E-01  0.18500551867E-01 -0.17217785039E-01  0.44650827328E-01  0.51100000000E-03 0. -1.
         11    1    4    4    0    0  0.70750620810E-01  0.48574862436E-01 -0.77461971708E-02  0.86170948105E-01  0.51100000000E-03 0.  1.
</event>
<event>
 8    1  0.1161271E+005  0.1043930E+01  0.7957747E-01            NaN
         13   -1    0    0    0    0  0.00000000000E+00  0.00000000000E+00  0.74505805969E-08  0.10566000000E+00  0.10566000000E+00 0. -1.
     999900   -1    0    0    0    0 -0.00000000000E+00 -0.00000000000E+00 -0.74505805969E-08  0.93827000000E+00  0.93827000000E+00 0.  1.
     999902    2    1    2    0    0  0.61115458725E-02 -0.12162740624E-01 -0.19498624372E-01  0.10201501849E+01  0.10198729922E+01 0.  0.
     999903    2    3    3    0    0 -0.41074792854E-01  0.88311437143E-01  0.79904743054E-01  0.12762419628E+00  0.20423490757E-01 0.  0.
         14    1    1    2    0    0 -0.61115458725E-02  0.12162740624E-01  0.19498624372E-01  0.23779815072E-01  0.00000000000E+00 0. -1.
     999901    1    3    3    0    0  0.47186338726E-01 -0.10047417777E+00 -0.99403367426E-01  0.89252598865E+00  0.88000000000E+00 0. -1.
        -11    1    4    4    0    0 -0.29305003951E-01  0.41965844145E-01  0.47730449071E-01  0.69988372041E-01  0.51100000000E-03 0. -1.
         11    1    4    4    0    0 -0.11769788902E-01  0.46345592998E-01  0.32174293983E-01  0.57635824237E-01  0.51100000000E-03 0.  1.
</event>
<event>
 8    1  0.1161271E+005  0.1043930E+01  0.7957747E-01            NaN
         13   -1    0    0    0    0  0.00000000000E+00  0.00000000000E+00  0.74505805969E-08  0.10566000000E+00  0.10566000000E+00 0. -1.
     999900   -1    0    0    0    0 -0.00000000000E+00 -0.00000000000E+00 -0.74505805969E-08  0.93827000000E+00  0.93827000000E+00 0.  1.
     999902    2    1    2    0    0 -0.10939072787E-01  0.12620602104E-01 -0.15345668850E-01  0.10212488963E+01  0.10209970009E+01 0.  0.
     999903    2    3    3    0    0 -0.48873494676E-01  0.71797776952E-01 -0.10159901996E+00  0.13424235805E+00  0.12454339817E-01 0.  0.
         14    1    1    2    0    0  0.10939072787E-01 -0.12620602104E-01  0.15345668850E-01  0.22681103663E-01  0.00000000000E+00 0. -1.
     999901    1    3    3    0    0  0.37934421889E-01 -0.59177174848E-01  0.86253351112E-01  0.88700653829E+00  0.88000000000E+00 0. -1.
        -11    1    4    4    0    0 -0.27070424549E-01  0.43822507920E-01 -0.51349624264E-01  0.72734208724E-01  0.51100000000E-03 0. -1.
         11    1    4    4    0    0 -0.21803070128E-01  0.27975269032E-01 -0.50249395698E-01  0.61508149325E-01  0.51100000000E-03 0.  1.
</event>
<event>
 8    1  0.1161271E+005  0.1043930E+01  0.7957747E-01            NaN
         13   -1    0    0    0    0  0.00000000000E+00  0.00000000000E+00  0.74505805969E-08  0.10566000000E+00  0.10566000000E+00 0.  1.
     999900   -1    0    0    0    0 -0.00000000000E+00 -0.00000000000E+00 -0.74505805969E-08  0.93827000000E+00  0.93827000000E+00 0. -1.
     999902    2    1    2    0    0  0.16229031902E-01 -0.34829072496E-02  0.22368961759E-01  0.10160753313E+01  0.10156934559E+01 0.  0.
     999903    2    3    3    0    0 -0.10773278215E+00  0.25411973418E-01 -0.51120519345E-01  0.12388580584E+00  0.21960524746E-01 0.  0.
         14    1    1    2    0    0 -0.16229031902E-01  0.34829072496E-02 -0.22368961759E-01  0.27854668721E-01  0.00000000000E+00 0. -1.
     999901    1    3    3    0    0  0.12396181405E+00 -0.28894880668E-01  0.73489481104E-01  0.89218952544E+00  0.88000000000E+00 0.  1.
        -11    1    4    4    0    0 -0.69524976523E-02  0.70131234451E-02 -0.13220000275E-02  0.99764687708E-02  0.51100000000E-03 0.  1.
         11    1    4    4    0    0 -0.10078028450E+00  0.18398849973E-01 -0.49798519318E-01  0.11390933707E+00  0.51100000000E-03 0. -1.
</event>
<event>
 8    1  0.1161271E+005  0.1043930E+01  0.7957747E-01            NaN
         13   -1    0    0    0    0  0.00000000000E+00  0.00000000000E+00  0.74505805969E-08  0.10566000000E+00  0.10566000000E+00 0.  1.
     999900   -1    0    0    0    0 -0.00000000000E+00 -0.00000000000E+00 -0.74505805969E-08  0.93827000000E+00  0.93827000000E+00 0.  1.
     999902    2    1    2    0    0 -0.11161684284E-02 -0.13486028477E-01  0.16444689695E-01  0.10226333661E+01  0.10224115878E+01 0.  0.
     999903    2    3    3    0    0  0.33852507134E-01  0.12064813651E+00  0.36032685981E-01  0.13156744706E+00  0.17597544840E-01 0.  0.
         14    1    1    2    0    0  0.11161684284E-02  0.13486028477E-01 -0.16444689695E-01  0.21296633894E-01  0.00000000000E+00 0. -1.
     999901    1    3    3    0    0 -0.34968675562E-01 -0.13413416499E+00 -0.19587996286E-01  0.89106591905E+00  0.88000000000E+00 0.  1.
        -11    1    4    4    0    0  0.22564055711E-02  0.35116937330E-01  0.13039243081E-01  0.37530969008E-01  0.51100000000E-03 0. -1.
         11    1    4    4    0    0  0.31596101563E-01  0.85531199180E-01  0.22993442900E-01  0.94036478052E-01  0.51100000000E-03 0.  1.
</event>
<event>
 8    1  0.1161271E+005  0.1043930E+01  0.7957747E-01            NaN
         13   -1    0    0    0    0  0.00000000000E+00  0.00000000000E+00  0.74505805969E-08  0.10566000000E+00  0.10566000000E+00 0.  1.
     999900   -1    0    0    0    0 -0.00000000000E+00 -0.00000000000E+00 -0.74505805969E-08  0.93827000000E+00  0.93827000000E+00 0.  1.
     999902    2    1    2    0    0  0.23821161325E-01 -0.80828840683E-03  0.38631104642E-02  0.10197840960E+01  0.10194981990E+01 0.  0.
     999903    2    3    3    0    0 -0.70810030874E-01  0.24228224988E-01 -0.10185201190E+00  0.12806801079E+00  0.20652256563E-01 0.  0.
         14    1    1    2    0    0 -0.23821161325E-01  0.80828840683E-03 -0.38631104642E-02  0.24145903990E-01  0.00000000000E+00 0.  1.
     999901    1    3    3    0    0  0.94631192199E-01 -0.25036513395E-01  0.10571512237E+00  0.89171608522E+00  0.88000000000E+00 0. -1.
        -11    1    4    4    0    0 -0.13510709758E-01 -0.23049553832E-03 -0.30374488899E-01  0.33248505278E-01  0.51100000000E-03 0. -1.
         11    1    4    4    0    0 -0.57299321116E-01  0.24458720527E-01 -0.71477523004E-01  0.94819505514E-01  0.51100000000E-03 0.  1.
</event>
<event>
 8    1  0.1161271E+005  0.1043930E+01  0.7957747E-01            NaN
         13   -1    0    0    0    0  0.00000000000E+00  0.00000000000E+00  0.74505805969E-08  0.10566000000E+00  0.10566000000E+00 0. -1.
     999900   -1    0    0    0    0 -0.00000000000E+00 -0.00000000000E+00 -0.74505805969E-08  0.93827000000E+00  0.93827000000E+00 0. -1.
     999902    2    1    2    0    0 -0.18668206069E-01  0.14514820429E-01 -0.49678742899E-03  0.10202777543E+01  0.10200035623E+01 0.  0.
     999903    2    3    3    0    0  0.26566283167E-03 -0.11768775199E+00  0.48584499759E-01  0.12884913442E+00  0.19777974581E-01 0.  0.
         14    1    1    2    0    0  0.18668206069E-01 -0.14514820429E-01  0.49678742899E-03  0.23652245721E-01  0.00000000000E+00 0.  1.
     999901    1    3    3    0    0 -0.18933868900E-01  0.13220257242E+00 -0.49081287188E-01  0.89142861986E+00  0.88000000000E+00 0.  1.
        -11    1    4    4    0    0  0.98846033227E-02 -0.51203721391E-01  0.21999943543E-01  0.56601988517E-01  0.51100000000E-03 0.  1.
         11    1    4    4    0    0 -0.96189404910E-02 -0.66484030603E-01  0.26584556216E-01  0.72247145906E-01  0.51100000000E-03 0. -1.
</event>
<event>
 8    1  0.1161271E+005  0.1043930E+01  0.7957747E-01            NaN
         13   -1    0    0    0    0  0.00000000000E+00  0.00000000000E+00  0.74505805969E-08  0.10566000000E+00  0.10566000000E+00 0. -1.
     999900   -1    0    0    0    0 -0.00000000000E+00 -0.00000000000E+00 -0.74505805969E-08  0.93827000000E+00  0.93827000000E+00 0.  1.
     999902    2    1    2    0    0 -0.36392049605E-02 -0.41230836168E-02  0.23207108096E-01  0.10200801887E+01  0.10198013424E+01 0.  0.
     999903    2    3    3    0    0 -0.72473695946E-01 -0.10122564302E+00  0.40927318387E-01  0.13189040043E+00  0.14864889064E-01 0.  0.
         14    1    1    2    0    0  0.36392049605E-02  0.41230836168E-02 -0.23207108096E-01  0.23849811267E-01  0.00000000000E+00 0.  1.
     999901    1    3    3    0    0  0.68834490986E-01  0.97102559402E-01 -0.17720210290E-01  0.88818978830E+00  0.88000000000E+00 0. -1.
        -11    1    4    4    0    0 -0.50672221120E-01 -0.62190035808E-01  0.31554797225E-01  0.86204645443E-01  0.51100000000E-03 0. -1.
         11    1    4    4    0    0 -0.21801474827E-01 -0.39035607211E-01  0.93725211612E-02  0.45685754988E-01  0.51100000000E-03 0.  1.
</event>
<event>
 8    1  0.1161271E+005  0.1043930E+01  0.7957747E-01            NaN
         13   -1    0    0    0    0  0.00000000000E+00  0.00000000000E+00  0.74505805969E-08  0.10566000000E+00  0.10566000000E+00 0.  1.
     999900   -1    0    0    0    0 -0.00000000000E+00 -0.00000000000E+00 -0.74505805969E-08  0.93827000000E+00  0.93827000000E+00 0. -1.
     999902    2    1    2    0    0  0.37609797955E-02 -0.19102594088E-01 -0.12780247275E-01  0.10206407581E+01  0.10203750135E+01 0.  0.
     999903    2    3    3    0    0  0.37448369387E-01 -0.35319678166E-01 -0.12115594313E+00  0.13320449247E+00  0.20366988532E-01 0.  0.
         14    1    1    2    0    0 -0.37609797955E-02  0.19102594088E-01  0.12780247275E-01  0.23289241944E-01  0.00000000000E+00 0.  1.
     999901    1    3    3    0    0 -0.33687389592E-01  0.16217084078E-01  0.10837569585E+00  0.88743626559E+00  0.88000000000E+00 0.  1.
        -11    1    4    4    0    0  0.17445350114E-01 -0.38787959046E-02 -0.44906210604E-01  0.48334399449E-01  0.51100000000E-03 0. -1.
         11    1    4    4    0    0  0.20003019273E-01 -0.31440882261E-01 -0.76249732525E-01  0.84870093016E-01  0.51100000000E-03 0.  1.
</event>
<event>
 8    1  0.1161271E+005  0.1043930E+01  0.7957747E-01            NaN
         13   -1    0    0    0    0  0.00000000000E+00  0.00000000000E+00  0.74505805969E-08  0.10566000000E+00  0.10566000000E+00 0. -1.
     999900   -1    0    0    0    0 -0.00000000000E+00 -0.00000000000E+00 -0.74505805969E-08  0.93827000000E+00  0.93827000000E+00 0.  1.
     999902    2    1    2    0    0 -0.20134792682E-01 -0.13251047719E-01  0.23539962558E-02  0.10197113824E+01  0.10194237401E+01 0.  0.
     999903    2    3    3    0    0 -0.10827963924E+00 -0.58379621755E-01 -0.45849039077E-01  0.13284632228E+00  0.20331021846E-01 0.  0.
         14    1    1    2    0    0  0.20134792682E-01  0.13251047719E-01 -0.23539962558E-02  0.24218617640E-01  0.00000000000E+00 0. -1.
     999901    1    3    3    0    0  0.88144846561E-01  0.45128574036E-01  0.48203035332E-01  0.88686506008E+00  0.88000000000E+00 0. -1.
        -11    1    4    4    0    0 -0.43955725429E-01 -0.35174464051E-01 -0.20944139081E-01  0.60068850514E-01  0.51100000000E-03 0. -1.
         11    1    4    4    0    0 -0.64323913813E-01 -0.23205157704E-01 -0.24904899996E-01  0.72777471769E-01  0.51100000000E-03 0.  1.
</event>
<event>
 8    1  0.1161271E+005  0.1043930E+01  0.7957747E-01            NaN
         13   -1    0    0    0    0  0.00000000000E+00  0.00000000000E+00  0.74505805969E-08  0.10566000000E+00  0.10566000000E+00 0. -1.
     999900   -1    0    0    0    0 -0.00000000000E+00 -0.00000000000E+00 -0.74505805969E-08  0.93827000000E+00  0.93827000000E+00 0. -1.
     999902    2    1    2    0    0 -0.46489261326E-02 -0.21865119589E-02  0.23533075464E-01  0.10198426799E+01  0.10195581851E+01 0.  0.
     999903    2    3    3    0    0 -0.12854220442E+00 -0.23552644246E-02 -0.89228516397E-02  0.13057165255E+00  0.20992703016E-01 0.  0.
         14    1    1    2    0    0  0.46489261326E-02  0.21865119589E-02 -0.23533075464E-01  0.24087320098E-01  0.00000000000E+00 0.  1.
     999901    1    3    3    0    0  0.12389327829E+00  0.16875246575E-03  0.32455927104E-01  0.88927102735E+00  0.88000000000E+00 0. -1.
        -11    1    4    4    0    0 -0.63268918214E-01 -0.98594765330E-02  0.14595347565E-02  0.64051203363E-01  0.51100000000E-03 0.  1.
         11    1    4    4    0    0 -0.65273286208E-01  0.75042121084E-02 -0.10382386396E-01  0.66520449187E-01  0.51100000000E-03 0. -1.
</event>
<event>
 8    1  0.1161271E+005  0.1043930E+01  0.7957747E-01            NaN
         13   -1    0    0    0    0  0.00000000000E+00  0.00000000000E+00  0.74505805969E-08  0.10566000000E+00  0.10566000000E+00 0. -1.
     999900   -1    0    0    0    0 -0.00000000000E+00 -0.00000000000E+00 -0.74505805969E-08  0.93827000000E+00  0.93827000000E+00 0.  1.
     999902    2    1    2    0    0 -0.23225548993E-01 -0.24484548985E-02 -0.19910503783E-02  0.10204910295E+01  0.10202218170E+01 0.  0.
     999903    2    3    3    0    0 -0.19382283945E-01 -0.12784439081E+00  0.12924347163E-01  0.13146831857E+00  0.19925331754E-01 0.  0.
         14    1    1    2    0    0  0.23225548993E-01  0.24484548985E-02  0.19910503783E-02  0.23438970520E-01  0.00000000000E+00 0. -1.
     999901    1    3    3    0    0 -0.38432650483E-02  0.12539593591E+00 -0.14915397541E-01  0.88902271091E+00  0.88000000000E+00 0. -1.
        -11    1    4    4    0    0 -0.11936099579E-01 -0.59392028000E-01 -0.34855208867E-02  0.60681903727E-01  0.51100000000E-03 0. -1.
         11    1    4    4    0    0 -0.74461843660E-02 -0.68452362811E-01  0.16409868049E-01  0.70786414844E-01  0.51100000000E-03 0.  1.
</event>
<event>
 8    1  0.1161271E+005  0.1043930E+01  0.7957747E-01            NaN
         13   -1    0    0    0    0  0.00000000000E+00  0.00000000000E+00  0.74505805969E-08  0.10566000000E+00  0.10566000000E+00 0.  1.
     999900   -1    0    0    0    0 -0.00000000000E+00 -0.00000000000E+00 -0.74505805969E-08  0.93827000000E+00  0.93827000000E+00 0.  1.
     999902    2    1    2    0    0  0.12253290039E-01 -0.19842328171E-01  0.77005839881E-02  0.10193706821E+01  0.10190747899E+01 0.  0.
     999903    2    3    3    0    0 -0.20600450467E-02 -0.12938603595E+00 -0.17833671414E-01  0.13209581277E+00  0.19653850280E-01 0.  0.
         14    1    1    2    0    0 -0.12253290039E-01  0.19842328171E-01 -0.77005839881E-02  0.24559317943E-01  0.00000000000E+00 0. -1.
     999901    1    3    3    0    0  0.14313335086E-01  0.10954370778E+00  0.25534255402E-01  0.88727486929E+00  0.88000000000E+00 0. -1.
        -11    1    4    4    0    0 -0.76663272617E-02 -0.44501932314E-01 -0.12499228497E-01  0.46858151771E-01  0.51100000000E-03 0.  1.
         11    1    4    4    0    0  0.56062822150E-02 -0.84884103633E-01 -0.53344429163E-02  0.85237660996E-01  0.51100000000E-03 0. -1.
</event>
<event>
 8    1  0.1161271E+005  0.1043930E+01  0.7957747E-01            NaN
         13   -1    0    0    0    0  0.00000000000E+00  0.00000000000E+00  0.74505805969E-08  0.10566000000E+00  0.10566000000E+00 0. -1.
     999900   -1    0    0    0    0 -0.00000000000E+00 -0.00000000000E+00 -0.74505805969E-08  0.93827000000E+00  0.93827000000E+00 0. -1.
     999902    2    1    2    0    0 -0.17736162964E-01 -0.94542460077E-02 -0.12709114954E-01  0.10201502639E+01  0.10198730731E+01 0.  0.
     999903    2    3    3    0    0 -0.11130657073E+00 -0.61838808806E-01 -0.34481691468E-01  0.13337317317E+00  0.19652615889E-01 0.  0.
         14    1    1    2    0    0  0.17736162964E-01  0.94542460077E-02  0.12709114954E-01  0.23779736062E-01  0.00000000000E+00 0. -1.
     999901    1    3    3    0    0  0.93570407768E-01  0.52384562799E-01  0.21772576514E-01  0.88677709077E+00  0.88000000000E+00 0. -1.
        -11    1    4    4    0    0 -0.44892973841E-01 -0.36050162856E-01 -0.14439608495E-01  0.59361239514E-01  0.51100000000E-03 0. -1.
         11    1    4    4    0    0 -0.66413596892E-01 -0.25788645950E-01 -0.20042082973E-01  0.74011933652E-01  0.51100000000E-03 0.  1.
</event>
<event>
 8    1  0.1161271E+005  0.1043930E+01  0.7957747E-01            NaN
         13   -1    0    0    0    0  0.00000000000E+00  0.00000000000E+00  0.74505805969E-08  0.10566000000E+00  0.10566000000E+00 0. -1.
     999900   -1    0    0    0    0 -0.00000000000E+00 -0.00000000000E+00 -0.74505805969E-08  0.93827000000E+00  0.93827000000E+00 0.  1.
     999902    2    1    2    0    0  0.21648564756E-01 -0.11975303266E-01  0.49476648187E-02  0.10187001044E+01  0.10183876252E+01 0.  0.
     999903    2    3    3    0    0  0.51646978173E-01 -0.10949000023E+00  0.48089655014E-01  0.13175577005E+00  0.19786296196E-01 0.  0.
         14    1    1    2    0    0 -0.21648564756E-01  0.11975303266E-01 -0.49476648187E-02  0.25229895590E-01  0.00000000000E+00 0.  1.
     999901    1    3    3    0    0 -0.29998413417E-01  0.97514696967E-01 -0.43141990196E-01  0.88694433436E+00  0.88000000000E+00 0.  1.
        -11    1    4    4    0    0  0.17433680623E-01 -0.33008552462E-01  0.24704162387E-01  0.44766667465E-01  0.51100000000E-03 0. -1.
         11    1    4    4    0    0  0.34213297550E-01 -0.76481447771E-01  0.23385492627E-01  0.86989102587E-01  0.51100000000E-03 0.  1.
</event>
<event>
 8    1  0.1161271E+005  0.1043930E+01  0.7957747E-01            NaN
         13   -1    0    0    0    0  0.00000000000E+00  0.00000000000E+00  0.74505805969E-08  0.10566000000E+00  0.10566000000E+00 0. -1.
     999900   -1    0    0    0    0 -0.00000000000E+00 -0.00000000000E+00 -0.74505805969E-08  0.93827000000E+00  0.93827000000E+00 0. -1.
     999902    2    1    2    0    0  0.13476559915E-01  0.77921036705E-02  0.18337356900E-01  0.10198760356E+01  0.10195923375E+01 0.  0.
     999903    2    3    3    0    0  0.60059494080E-01 -0.97209510343E-01 -0.57080235118E-01  0.12921160837E+00  0.19510375829E-01 0.  0.
         14    1    1    2    0    0 -0.13476559915E-01 -0.77921036705E-02 -0.18337356900E-01  0.24053964431E-01  0.00000000000E+00 0.  1.
     999901    1    3    3    0    0 -0.46582934165E-01  0.10500161401E+00  0.75417592018E-01  0.89066442720E+00  0.88000000000E+00 0.  1.
        -11    1    4    4    0    0  0.34558459391E-01 -0.71972612322E-01 -0.42835427743E-01  0.90606175456E-01  0.51100000000E-03 0.  1.
         11    1    4    4    0    0  0.25501034689E-01 -0.25236898021E-01 -0.14244807375E-01  0.38605432909E-01  0.51100000000E-03 0. -1.
</event>
<event>
 8    1  0.1161271E+005  0.1043930E+01  0.7957747E-01            NaN
         13   -1    0    0    0    0  0.00000000000E+00  0.00000000000E+00  0.74505805969E-08  0.10566000000E+00  0.10566000000E+00 0.  1.
     999900   -1    0    0    0    0 -0.00000000000E+00 -0.00000000000E+00 -0.74505805969E-08  0.93827000000E+00  0.93827000000E+00 0. -1.
     999902    2    1    2    0    0 -0.11107637109E-01 -0.80562317384E-02 -0.15664017630E-01  0.10231058813E+01  0.10228939341E+01 0.  0.
     999903    2    3    3    0    0 -0.62411225278E-01  0.50450314165E-01  0.10245481203E+00  0.13181068215E+00  0.20896702642E-01 0.  0.
         14    1    1    2    0    0  0.11107637109E-01  0.80562317384E-02  0.15664017630E-01  0.20824118716E-01  0.00000000000E+00 0.  1.
     999901    1    3    3    0    0  0.51303588168E-01 -0.58506545903E-01 -0.11811882966E+00  0.89129519913E+00  0.88000000000E+00 0. -1.
        -11    1    4    4    0    0 -0.40319973491E-01  0.33195723641E-01  0.81538951513E-01  0.96832422593E-01  0.51100000000E-03 0. -1.
         11    1    4    4    0    0 -0.22091251787E-01  0.17254590524E-01  0.20915860519E-01  0.34978259560E-01  0.51100000000E-03 0.  1.
</event>
<event>
 8    1  0.1161271E+005  0.1043930E+01  0.7957747E-01            NaN
         13   -1    0    0    0    0  0.00000000000E+00  0.00000000000E+00  0.74505805969E-08  0.10566000000E+00  0.10566000000E+00 0. -1.
     999900   -1    0    0    0    0 -0.00000000000E+00 -0.00000000000E+00 -0.74505805969E-08  0.93827000000E+00  0.93827000000E+00 0.  1.
     999902    2    1    2    0    0  0.15165592172E-01  0.11448164747E-01 -0.11228547640E-01  0.10218588436E+01  0.10216204581E+01 0.  0.
     999903    2    3    3    0    0  0.34363254561E-01 -0.10926963140E+00  0.60136914927E-01  0.13054836696E+00  0.17485478802E-01 0.  0.
         14    1    1    2    0    0 -0.15165592172E-01 -0.11448164747E-01  0.11228547640E-01  0.22071156384E-01  0.00000000000E+00 0. -1.
     999901    1    3    3    0    0 -0.19197662389E-01  0.12071779615E+00 -0.71365462567E-01  0.89131047666E+00  0.88000000000E+00 0.  1.
        -11    1    4    4    0    0  0.55991012928E-02 -0.45612505751E-01  0.25902838903E-01  0.52754798838E-01  0.51100000000E-03 0. -1.
         11    1    4    4    0    0  0.28764153268E-01 -0.63657125649E-01  0.34234076025E-01  0.77793568123E-01  0.51100000000E-03 0.  1.
</event>
<event>
 8    1  0.1161271E+005  0.1043930E+01  0.7957747E-01            NaN
         13   -1    0    0    0    0  0.00000000000E+00  0.00000000000E+00  0.74505805969E-08  0.10566000000E+00  0.10566000000E+00 0.  1.
     999900   -1    0    0    0    0 -0.00000000000E+00 -0.00000000000E+00 -0.74505805969E-08  0.93827000000E+00  0.93827000000E+00 0. -1.
     999902    2    1    2    0    0 -0.41373830367E-02 -0.19977708104E-01  0.15619967680E-01  0.10182354451E+01  0.10179112002E+01 0.  0.
     999903    2    3    3    0    0  0.86246162759E-01  0.57840740381E-01 -0.68779501786E-01  0.12618826773E+00  0.20221454131E-01 0.  0.
         14    1    1    2    0    0  0.41373830367E-02  0.19977708104E-01 -0.15619967680E-01  0.25694554867E-01  0.00000000000E+00 0. -1.
     999901    1    3    3    0    0 -0.90383545796E-01 -0.77818448484E-01  0.84399469466E-01  0.89204717741E+00  0.88000000000E+00 0. -1.
        -11    1    4    4    0    0  0.38986424230E-01  0.14887303337E-01 -0.30963493684E-01  0.51967029326E-01  0.51100000000E-03 0. -1.
         11    1    4    4    0    0  0.47259738529E-01  0.42953437044E-01 -0.37816008102E-01  0.74221238399E-01  0.51100000000E-03 0.  1.
</event>
<event>
 8    1  0.1161271E+005  0.1043930E+01  0.7957747E-01            NaN
         13   -1    0    0    0    0  0.00000000000E+00  0.00000000000E+00  0.74505805969E-08  0.10566000000E+00  0.10566000000E+00 0. -1.
     999900   -1    0    0    0    0 -0.00000000000E+00 -0.00000000000E+00 -0.74505805969E-08  0.93827000000E+00  0.93827000000E+00 0. -1.
     999902    2    1    2    0    0  0.19696927312E-01 -0.72458532197E-02 -0.89912902959E-02  0.10210976844E+01  0.10208423808E+01 0.  0.
     999903    2    3    3    0    0 -0.48290258929E-01  0.38108917862E-02 -0.12050915488E+00  0.13138944952E+00  0.19855957067E-01 0.  0.
         14    1    1    2    0    0 -0.19696927312E-01  0.72458532197E-02  0.89912902959E-02  0.22832315599E-01  0.00000000000E+00 0.  1.
     999901    1    3    3    0    0  0.67987186242E-01 -0.11056745006E-01  0.11151786458E+00  0.88970823489E+00  0.88000000000E+00 0.  1.
        -11    1    4    4    0    0 -0.14975837944E-01 -0.32784442748E-02 -0.19617868935E-01  0.24902727191E-01  0.51100000000E-03 0.  1.
         11    1    4    4    0    0 -0.33314420986E-01  0.70893360610E-02 -0.10089128594E+00  0.10648672232E+00  0.51100000000E-03 0. -1.
</event>
<event>
 8    1  0.1161271E+005  0.1043930E+01  0.7957747E-01            NaN
         13   -1    0    0    0    0  0.00000000000E+00  0.00000000000E+00  0.74505805969E-08  0.10566000000E+00  0.10566000000E+00 0. -1.
     999900   -1    0    0    0    0 -0.00000000000E+00 -0.00000000000E+00 -0.74505805969E-08  0.93827000000E+00  0.93827000000E+00 0. -1.
     999902    2    1    2    0    0 -0.21454026920E-01  0.71430217671E-02  0.69832987608E-02  0.10202643183E+01  0.10199898110E+01 0.  0.
     999903    2    3    3    0    0  0.48319878281E-01 -0.42873110623E-01  0.11099982117E+00  0.12998938977E+00  0.20083996169E-01 0.  0.
         14    1    1    2    0    0  0.21454026920E-01 -0.71430217671E-02 -0.69832987608E-02  0.23665681749E-01  0.00000000000E+00 0. -1.
     999901    1    3    3    0    0 -0.69773905201E-01  0.50016132390E-01 -0.10401652241E+00  0.89027492848E+00  0.88000000000E+00 0. -1.
        -11    1    4    4    0    0  0.25743546406E-01 -0.29238379405E-01  0.48926127682E-01  0.62543105957E-01  0.51100000000E-03 0. -1.
         11    1    4    4    0    0  0.22576331875E-01 -0.13634731218E-01  0.62073693487E-01  0.67446283815E-01  0.51100000000E-03 0.  1.
</event>
<event>
 8    1  0.1161271E+005  0.1043930E+01  0.7957747E-01            NaN
         13   -1    0    0    0    0  0.00000000000E+00  0.00000000000E+00  0.74505805969E-08  0.10566000000E+00  0.10566000000E+00 0. -1.
     999900   -1    0    0    0    0 -0.00000000000E+00 -0.00000000000E+00 -0.74505805969E-08  0.93827000000E+00  0.93827000000E+00 0.  1.
     999902    2    1    2    0    0  0.16250804885E-01  0.14855273791E-01 -0.92512933548E-02  0.10200479095E+01  0.10197682989E+01 0.  0.
     999903    2    3    3    0    0  0.10871222543E+00 -0.91506071905E-02  0.70589736880E-01  0.13128473140E+00  0.18726670131E-01 0.  0.
         14    1    1    2    0    0 -0.16250804885E-01 -0.14855273791E-01  0.92512933548E-02  0.23882090519E-01  0.00000000000E+00 0. -1.
     999901    1    3    3    0    0 -0.92461420549E-01  0.24005880981E-01 -0.79841030235E-01  0.88876317809E+00  0.88000000000E+00 0.  1.
        -11    1    4    4    0    0  0.84847433014E-01  0.54095089775E-03  0.56216797481E-01  0.10178393271E+00  0.51100000000E-03 0. -1.
         11    1    4    4    0    0  0.23864792420E-01 -0.96915580882E-02  0.14372939399E-01  0.29500798690E-01  0.51100000000E-03 0.  1.
</event>
<event>
 8    1  0.1161271E+005  0.1043930E+01  0.7957747E-01            NaN
         13   -1    0    0    0    0  0.00000000000E+00  0.00000000000E+00  0.74505805969E-08  0.10566000000E+00  0.10566000000E+00 0.  1.
     999900   -1    0    0    0    0 -0.00000000000E+00 -0.00000000000E+00 -0.74505805969E-08  0.93827000000E+00  0.93827000000E+00 0. -1.
     999902    2    1    2    0    0 -0.18146885279E-01  0.12674058298E-01  0.18277050380E-01  0.10152247432E+01  0.10148188446E+01 0.  0.
     999903    2    3    3    0    0  0.12089741583E+00 -0.19015128632E-02 -0.15700634239E-01  0.12354080365E+00  0.19900234809E-01 0.  0.
         14    1    1    2    0    0  0.18146885279E-01 -0.12674058298E-01 -0.18277050380E-01  0.28705256830E-01  0.00000000000E+00 0. -1.
     999901    1    3    3    0    0 -0.13904430111E+00  0.14575571161E-01  0.33977684619E-01  0.89168393952E+00  0.88000000000E+00 0.  1.
        -11    1    4    4    0    0  0.72394972866E-01 -0.46181831494E-02 -0.18543815176E-01  0.74876524453E-01  0.51100000000E-03 0. -1.
         11    1    4    4    0    0  0.48502442964E-01  0.27166702862E-02  0.28431809372E-02  0.48664279197E-01  0.51100000000E-03 0.  1.
</event>
<event>
 8    1  0.1161271E+005  0.1043930E+01  0.7957747E-01            NaN
         13   -1    0    0    0    0  0.00000000000E+00  0.00000000000E+00  0.74505805969E-08  0.10566000000E+00  0.10566000000E+00 0.  1.
     999900   -1    0    0    0    0 -0.00000000000E+00 -0.00000000000E+00 -0.74505805969E-08  0.93827000000E+00  0.93827000000E+00 0. -1.
     999902    2    1    2    0    0  0.16789354675E-01  0.16472321298E-01  0.46439988122E-02  0.10199552941E+01  0.10196734847E+01 0.  0.
     999903    2    3    3    0    0 -0.53778105382E-01 -0.84224311641E-01  0.78119406407E-01  0.12837343366E+00  0.19780736115E-01 0.  0.
         14    1    1    2    0    0 -0.16789354675E-01 -0.16472321298E-01 -0.46439988122E-02  0.23974705927E-01  0.00000000000E+00 0. -1.
     999901    1    3    3    0    0  0.70567460057E-01  0.10069663294E+00 -0.73475407595E-01  0.89158186042E+00  0.88000000000E+00 0. -1.
        -11    1    4    4    0    0 -0.48624101889E-01 -0.74028558433E-01  0.60117444455E-01  0.10704624700E+00  0.51100000000E-03 0.  1.
         11    1    4    4    0    0 -0.51540034931E-02 -0.10195753208E-01  0.18001961952E-01  0.21327186655E-01  0.51100000000E-03 0. -1.
</event>
<event>
 8    1  0.1161271E+005  0.1043930E+01  0.7957747E-01            NaN
         13   -1    0    0    0    0  0.00000000000E+00  0.00000000000E+00  0.74505805969E-08  0.10566000000E+00  0.10566000000E+00 0.  1.
     999900   -1    0    0    0    0 -0.00000000000E+00 -0.00000000000E+00 -0.74505805969E-08  0.93827000000E+00  0.93827000000E+00 0.  1.
     999902    2    1    2    0    0  0.18740861602E-01 -0.39314068102E-02  0.14357499135E-01  0.10199964747E+01  0.10197156440E+01 0.  0.
     999903    2    3    3    0    0  0.24044045070E-01  0.77635513589E-01  0.10188743869E+00  0.13188455798E+00  0.20176654773E-01 0.  0.
         14    1    1    2    0    0 -0.18740861602E-01  0.39314068102E-02 -0.14357499135E-01  0.23933525326E-01  0.00000000000E+00 0. -1.
     999901    1    3    3    0    0 -0.53031834674E-02 -0.81566920400E-01 -0.87529939550E-01  0.88811191670E+00  0.88000000000E+00 0.  1.
        -11    1    4    4    0    0  0.27674815483E-01  0.67265328328E-01  0.88910862889E-01  0.11487350638E+00  0.51100000000E-03 0.  1.
         11    1    4    4    0    0 -0.36307704128E-02  0.10370185261E-01  0.12976575797E-01  0.17011051600E-01  0.51100000000E-03 0. -1.
</event>
<event>
 8    1  0.1161271E+005  0.1043930E+01  0.7957747E-01            NaN
         13   -1    0    0    0    0  0.00000000000E+00  0.00000000000E+00  0.74505805969E-08  0.10566000000E+00  0.10566000000E+00 0.  1.
     999900   -1    0    0    0    0 -0.00000000000E+00 -0.00000000000E+00 -0.74505805969E-08  0.93827000000E+00  0.93827000000E+00 0. -1.
     999902    2    1    2    0    0  0.17816423528E-01 -0.14751840708E-02  0.16536420915E-01  0.10195772931E+01  0.10192864182E+01 0.  0.
     999903    2    3    3    0    0  0.11509835610E-01  0.45942080802E-01 -0.11704968904E+00  0.12821125225E+00  0.22233856929E-01 0.  0.
         14    1    1    2    0    0 -0.17816423528E-01  0.14751840708E-02 -0.16536420915E-01  0.24352706873E-01  0.00000000000E+00 0. -1.
     999901    1    3    3    0    0  0.63065879188E-02 -0.47417264873E-01  0.13358610996E+00  0.89136604088E+00  0.88000000000E+00 0.  1.
        -11    1    4    4    0    0 -0.30565623516E-02  0.26425996948E-01 -0.46489313454E-01  0.53564851111E-01  0.51100000000E-03 0.  1.
         11    1    4    4    0    0  0.14566397961E-01  0.19516083853E-01 -0.70560375588E-01  0.74646401137E-01  0.51100000000E-03 0. -1.
</event>
<event>
 8    1  0.1161271E+005  0.1043930E+01  0.7957747E-01            NaN
         13   -1    0    0    0    0  0.00000000000E+00  0.00000000000E+00  0.74505805969E-08  0.10566000000E+00  0.10566000000E+00 0.  1.
     999900   -1    0    0    0    0 -0.00000000000E+00 -0.00000000000E+00 -0.74505805969E-08  0.93827000000E+00  0.93827000000E+00 0.  1.
     999902    2    1    2    0    0 -0.18663634179E-01 -0.93835773827E-02 -0.19462658384E-01  0.10153786806E+01  0.10149771856E+01 0.  0.
     999903    2    3    3    0    0 -0.42282898823E-01 -0.11413055449E+00  0.31598850137E-01  0.12738257901E+00  0.20352078601E-01 0.  0.
         14    1    1    2    0    0  0.18663634179E-01  0.93835773827E-02  0.19462658384E-01  0.28551319351E-01  0.00000000000E+00 0. -1.
     999901    1    3    3    0    0  0.23619264644E-01  0.10474697711E+00 -0.51061508522E-01  0.88799610164E+00  0.88000000000E+00 0.  1.
        -11    1    4    4    0    0 -0.18182239702E-01 -0.25764711283E-01  0.44637003735E-02  0.31852785280E-01  0.51100000000E-03 0. -1.
         11    1    4    4    0    0 -0.24100659121E-01 -0.88365843209E-01  0.27135149764E-01  0.95529793729E-01  0.51100000000E-03 0.  1.
</event>
<event>
 8    1  0.1161271E+005  0.1043930E+01  0.7957747E-01            NaN
         13   -1    0    0    0    0  0.00000000000E+00  0.00000000000E+00  0.74505805969E-08  0.10566000000E+00  0.10566000000E+00 0. -1.
     999900   -1    0    0    0    0 -0.00000000000E+00 -0.00000000000E+00 -0.74505805969E-08  0.93827000000E+00  0.93827000000E+00 0.  1.
     999902    2    1    2    0    0 -0.91115776476E-02 -0.14074884253E-01 -0.14638860823E-01  0.10216719799E+01  0.10214294958E+01 0.  0.
     999903    2    3    3    0    0  0.49565805258E-01 -0.38968921280E-01 -0.11608263222E+00  0.13355397695E+00  0.19650480412E-01 0.  0.
         14    1    1    2    0    0  0.91115776476E-02  0.14074884253E-01  0.14638860823E-01  0.22258020131E-01  0.00000000000E+00 0. -1.
     999901    1    3    3    0    0 -0.58677382906E-01  0.24894037026E-01  0.10144377140E+00  0.88811800291E+00  0.88000000000E+00 0. -1.
        -11    1    4    4    0    0  0.94453053601E-02 -0.31168302841E-02 -0.78403562322E-02  0.12675201427E-01  0.51100000000E-03 0.  1.
         11    1    4    4    0    0  0.40120499898E-01 -0.35852090996E-01 -0.10824227599E+00  0.12087877553E+00  0.51100000000E-03 0. -1.
</event>
<event>
 8    1  0.1161271E+005  0.1043930E+01  0.7957747E-01            NaN
         13   -1    0    0    0    0  0.00000000000E+00  0.00000000000E+00  0.74505805969E-08  0.10566000000E+00  0.10566000000E+00 0.  1.
     999900   -1    0    0    0    0 -0.00000000000E+00 -0.00000000000E+00 -0.74505805969E-08  0.93827000000E+00  0.93827000000E+00 0.  1.
     999902    2    1    2    0    0 -0.21022045584E-01  0.10447059372E-02 -0.11442827437E-01  0.10199726189E+01  0.10196912215E+01 0.  0.
     999903    2    3    3    0    0  0.22172583477E-01 -0.11889810031E+00 -0.44305957738E-01  0.13017936306E+00  0.18848526708E-01 0.  0.
         14    1    1    2    0    0  0.21022045584E-01 -0.10447059372E-02  0.11442827437E-01  0.23957381133E-01  0.00000000000E+00 0.  1.
     999901    1    3    3    0    0 -0.43194629060E-01  0.11994280625E+00  0.32863130301E-01  0.88979325581E+00  0.88000000000E+00 0. -1.
        -11    1    4    4    0    0  0.19518469291E-01 -0.95856947316E-01 -0.43240621581E-01  0.10695577342E+00  0.51100000000E-03 0.  1.
         11    1    4    4    0    0  0.26541141854E-02 -0.23041152996E-01 -0.10653361570E-02  0.23223589637E-01  0.51100000000E-03 0. -1.
</event>
<event>
 8    1  0.1161271E+005  0.1043930E+01  0.7957747E-01            NaN
         13   -1    0    0    0    0  0.00000000000E+00  0.00000000000E+00  0.74505805969E-08  0.10566000000E+00  0.10566000000E+00 0.  1.
     999900   -1    0    0    0    0 -0.00000000000E+00 -0.00000000000E+00 -0.74505805969E-08  0.93827000000E+00  0.93827000000E+00 0. -1.
     999902    2    1    2    0    0 -0.14003761419E-01 -0.12266810635E-01 -0.15267436730E-01  0.10198535675E+01  0.10195693329E+01 0.  0.
     999903    2    3    3    0    0 -0.43089540066E-01 -0.67986053951E-02 -0.12377782974E+00  0.13269496321E+00  0.19597771035E-01 0.  0.
         14    1    1    2    0    0  0.14003761419E-01  0.12266810635E-01  0.15267436730E-01  0.24076432488E-01  0.00000000000E+00 0.  1.
     999901    1    3    3    0    0  0.29085778646E-01 -0.54682052403E-02  0.10851039301E+00  0.88715860430E+00  0.88000000000E+00 0.  1.
        -11    1    4    4    0    0 -0.27411449053E-01 -0.12066873690E-02 -0.49748802386E-01  0.56815914086E-01  0.51100000000E-03 0.  1.
         11    1    4    4    0    0 -0.15678091013E-01 -0.55919180261E-02 -0.74029027352E-01  0.75879049129E-01  0.51100000000E-03 0. -1.
</event>
<event>
 8    1  0.1161271E+005  0.1043930E+01  0.7957747E-01            NaN
         13   -1    0    0    0    0  0.00000000000E+00  0.00000000000E+00  0.74505805969E-08  0.10566000000E+00  0.10566000000E+00 0.  1.
     999900   -1    0    0    0    0 -0.00000000000E+00 -0.00000000000E+00 -0.74505805969E-08  0.93827000000E+00  0.93827000000E+00 0. -1.
     999902    2    1    2    0    0 -0.92310900776E-02  0.22125553879E-01  0.73923100301E-03  0.10199445957E+01  0.10196625317E+01 0.  0.
     999903    2    3    3    0    0 -0.55475966249E-01 -0.87421581671E-01  0.74067535581E-01  0.12892484071E+00  0.20383791380E-01 0.  0.
         14    1    1    2    0    0  0.92310900776E-02 -0.22125553879E-01 -0.73923100301E-03  0.23985404332E-01  0.00000000000E+00 0. -1.
     999901    1    3    3    0    0  0.46244876171E-01  0.10954713555E+00 -0.73328304578E-01  0.89101975496E+00  0.88000000000E+00 0. -1.
        -11    1    4    4    0    0 -0.53231056850E-01 -0.79947772960E-01  0.61271479952E-01  0.11392825458E+00  0.51100000000E-03 0.  1.
         11    1    4    4    0    0 -0.22449093991E-02 -0.74738087109E-02  0.12796055629E-01  0.14996586128E-01  0.51100000000E-03 0. -1.
</event>
<event>
 8    1  0.1161271E+005  0.1043930E+01  0.7957747E-01            NaN
         13   -1    0    0    0    0  0.00000000000E+00  0.00000000000E+00  0.74505805969E-08  0.10566000000E+00  0.10566000000E+00 0.  1.
     999900   -1    0    0    0    0 -0.00000000000E+00 -0.00000000000E+00 -0.74505805969E-08  0.93827000000E+00  0.93827000000E+00 0.  1.
     999902    2    1    2    0    0 -0.17500501667E-01 -0.77942552271E-02 -0.12316502477E-01  0.10211547018E+01  0.10209006861E+01 0.  0.
     999903    2    3    3    0    0  0.50747164782E-01 -0.60547201083E-01 -0.10409543470E+00  0.13218676672E+00  0.19905865380E-01 0.  0.
         14    1    1    2    0    0  0.17500501667E-01  0.77942552271E-02  0.12316502477E-01  0.22775298163E-01  0.00000000000E+00 0.  1.
     999901    1    3    3    0    0 -0.68247666449E-01  0.52752945855E-01  0.91778932227E-01  0.88896793512E+00  0.88000000000E+00 0. -1.
        -11    1    4    4    0    0  0.27326331426E-01 -0.46286734355E-01 -0.74094804895E-01  0.91539561939E-01  0.51100000000E-03 0. -1.
         11    1    4    4    0    0  0.23420833356E-01 -0.14260466728E-01 -0.30000629808E-01  0.40647204778E-01  0.51100000000E-03 0.  1.
</event>
<event>
 8    1  0.1161271E+005  0.1043930E+01  0.7957747E-01            NaN
         13   -1    0    0    0    0  0.00000000000E+00  0.00000000000E+00  0.74505805969E-08  0.10566000000E+00  0.10566000000E+00 0. -1.
     999900   -1    0    0    0    0 -0.00000000000E+00 -0.00000000000E+00 -0.74505805969E-08  0.93827000000E+00  0.93827000000E+00 0. -1.
     999902    2    1    2    0    0  0.14560696372E-01 -0.17574263566E-01 -0.37026077934E-02  0.10208090588E+01  0.10205471849E+01 0.  0.
     999903    2    3    3    0    0  0.36396696265E-01 -0.99058279929E-01  0.78451023928E-01  0.13296578712E+00  0.19699621012E-01 0.  0.
         14    1    1    2    0    0 -0.14560696372E-01  0.17574263566E-01  0.37026077934E-02  0.23120941226E-01  0.00000000000E+00 0. -1.
     999901    1    3    3    0    0 -0.21835999893E-01  0.81484016363E-01 -0.82153631721E-01  0.88784327165E+00  0.88000000000E+00 0. -1.
        -11    1    4    4    0    0  0.17751244059E-01 -0.35951245568E-01  0.19378748745E-01  0.44535331451E-01  0.51100000000E-03 0. -1.
         11    1    4    4    0    0  0.18645452205E-01 -0.63107034361E-01  0.59072275183E-01  0.88430455670E-01  0.51100000000E-03 0.  1.
</event>
<event>
 8    1  0.1161271E+005  0.1043930E+01  0.7957747E-01            NaN
         13   -1    0    0    0    0  0.00000000000E+00  0.00000000000E+00  0.74505805969E-08  0.10566000000E+00  0.10566000000E+00 0. -1.
     999900   -1    0    0    0    0 -0.00000000000E+00 -0.00000000000E+00 -0.74505805969E-08  0.93827000000E+00  0.93827000000E+00 0. -1.
     999902    2    1    2    0    0 -0.18580153621E-01  0.10846271909E-01 -0.93086398072E-02  0.10204882744E+01  0.10202189979E+01 0.  0.
     999903    2    3    3    0    0 -0.10652075001E+00  0.37876809252E-01  0.66094664828E-01  0.13248497669E+00  0.20060943814E-01 0.  0.
         14    1    1    2    0    0  0.18580153621E-01 -0.10846271909E-01  0.93086398072E-02  0.23441725576E-01  0.00000000000E+00 0. -1.
     999901    1    3    3    0    0  0.87940596391E-01 -0.27030537343E-01 -0.75403304635E-01  0.88800329774E+00  0.88000000000E+00 0. -1.
        -11    1    4    4    0    0 -0.30676714626E-01  0.20784323929E-01  0.22322105497E-01  0.43261836025E-01  0.51100000000E-03 0.  1.
         11    1    4    4    0    0 -0.75844035386E-01  0.17092485323E-01  0.43772559332E-01  0.89223140662E-01  0.51100000000E-03 0. -1.
</event>
<event>
 8    1  0.1161271E+005  0.1043930E+01  0.7957747E-01            NaN
         13   -1    0    0    0    0  0.00000000000E+00  0.00000000000E+00  0.74505805969E-08  0.10566000000E+00  0.10566000000E+00 0. -1.
     999900   -1    0    0    0    0 -0.00000000000E+00 -0.00000000000E+00 -0.74505805969E-08  0.93827000000E+00  0.93827000000E+00 0. -1.
     999902    2    1    2    0    0  0.42108250490E-02  0.28755099241E-02 -0.22979040316E-01  0.10203920328E+01  0.10201205148E+01 0.  0.
     999903    2    3    3    0    0 -0.12782958984E+00 -0.97893178791E-02 -0.92599123986E-02  0.13034524557E+00  0.21631049017E-01 0.  0.
         14    1    1    2    0    0 -0.42108250490E-02 -0.28755099241E-02  0.22979040316E-01  0.23537967176E-01  0.00000000000E+00 0. -1.
     999901    1    3    3    0    0  0.13204041489E+00  0.12664827803E-01 -0.13719127917E-01  0.89004678725E+00  0.88000000000E+00 0.  1.
        -11    1    4    4    0    0 -0.17338862298E-01  0.58967245045E-02 -0.30445941578E-02  0.18572511415E-01  0.51100000000E-03 0.  1.
         11    1    4    4    0    0 -0.11049072754E+00 -0.15686042384E-01 -0.62153182408E-02  0.11177273416E+00  0.51100000000E-03 0. -1.
</event>
<event>
 8    1  0.1161271E+005  0.1043930E+01  0.7957747E-01            NaN
         13   -1    0    0    0    0  0.00000000000E+00  0.00000000000E+00  0.74505805969E-08  0.10566000000E+00  0.10566000000E+00 0. -1.
     999900   -1    0    0    0    0 -0.00000000000E+00 -0.00000000000E+00 -0.74505805969E-08  0.93827000000E+00  0.93827000000E+00 0. -1.
     999902    2    1    2    0    0 -0.11103570955E-01  0.16378923434E-01  0.13874543039E-02  0.10240935827E+01  0.10239014517E+01 0.  0.
     999903    2    3    3    0    0  0.80896161394E-01 -0.15163854843E-01 -0.10219901072E+00  0.13269633495E+00  0.19736972778E-01 0.  0.
         14    1    1    2    0    0  0.11103570955E-01 -0.16378923434E-01 -0.13874543039E-02  0.19836417274E-01  0.00000000000E+00 0. -1.
     999901    1    3    3    0    0 -0.91999732349E-01  0.31542778277E-01  0.10358646502E+00  0.89139724778E+00  0.88000000000E+00 0.  1.
        -11    1    4    4    0    0  0.32588786676E-01  0.15345840348E-02 -0.49448063809E-01  0.59243194551E-01  0.51100000000E-03 0.  1.
         11    1    4    4    0    0  0.48307374718E-01 -0.16698438878E-01 -0.52750946909E-01  0.73453140395E-01  0.51100000000E-03 0. -1.
</event>
<event>
 8    1  0.1161271E+005  0.1043930E+01  0.7957747E-01            NaN
         13   -1    0    0    0    0  0.00000000000E+00  0.00000000000E+00  0.74505805969E-08  0.10566000000E+00  0.10566000000E+00 0.  1.
     999900   -1    0    0    0    0 -0.00000000000E+00 -0.00000000000E+00 -0.74505805969E-08  0.93827000000E+00  0.93827000000E+00 0.  1.
     999902    2    1    2    0    0  0.10181424068E-01  0.13124809538E-01 -0.17555287096E-01  0.10197616296E+01  0.10194751940E+01 0.  0.
     999903    2    3    3    0    0  0.10027555190E+00 -0.39389743455E-01 -0.73684266924E-01  0.13182852825E+00  0.18510847392E-01 0.  0.
         14    1    1    2    0    0 -0.10181424068E-01 -0.13124809538E-01  0.17555287096E-01  0.24168370373E-01  0.00000000000E+00 0.  1.
     999901    1    3    3    0    0 -0.90094127827E-01  0.52514552993E-01  0.56128979828E-01  0.88793310138E+00  0.88000000000E+00 0. -1.
        -11    1    4    4    0    0  0.23101729496E-01 -0.16460271378E-01 -0.24489870504E-01  0.37478598130E-01  0.51100000000E-03 0.  1.
         11    1    4    4    0    0  0.77173822399E-01 -0.22929472077E-01 -0.49194396420E-01  0.94349930120E-01  0.51100000000E-03 0. -1.
</event>
<event>
 8    1  0.1161271E+005  0.1043930E+01  0.7957747E-01            NaN
         13   -1    0    0    0    0  0.00000000000E+00  0.00000000000E+00  0.74505805969E-08  0.10566000000E+00  0.10566000000E+00 0. -1.
     999900   -1    0    0    0    0 -0.00000000000E+00 -0.00000000000E+00 -0.74505805969E-08  0.93827000000E+00  0.93827000000E+00 0.  1.
     999902    2    1    2    0    0  0.13633678001E-01  0.17174574473E-01 -0.98100380932E-02  0.10199075099E+01  0.10196245626E+01 0.  0.
     999903    2    3    3    0    0 -0.91452102804E-01 -0.86079694295E-01 -0.11372841012E-01  0.12765927777E+00  0.19858217731E-01 0.  0.
         14    1    1    2    0    0 -0.13633678001E-01 -0.17174574473E-01  0.98100380932E-02  0.24022490120E-01  0.00000000000E+00 0. -1.
     999901    1    3    3    0    0  0.10508578080E+00  0.10325426877E+00  0.15628029191E-02  0.89224823211E+00  0.88000000000E+00 0. -1.
        -11    1    4    4    0    0 -0.29936893595E-01 -0.19571587464E-01 -0.96384566362E-02  0.37046262987E-01  0.51100000000E-03 0. -1.
         11    1    4    4    0    0 -0.61515209209E-01 -0.66508106832E-01 -0.17343843762E-02  0.90613014785E-01  0.51100000000E-03 0.  1.
</event>
<event>
 8    1  0.1161271E+005  0.1043930E+01  0.7957747E-01            NaN
         13   -1    0    0    0    0  0.00000000000E+00  0.00000000000E+00  0.74505805969E-08  0.10566000000E+00  0.10566000000E+00 0. -1.
     999900   -1    0    0    0    0 -0.00000000000E+00 -0.00000000000E+00 -0.74505805969E-08  0.93827000000E+00  0.93827000000E+00 0. -1.
     999902    2    1    2    0    0 -0.21585670857E-01 -0.69024010421E-02 -0.53231272846E-02  0.10206508245E+01  0.10203853123E+01 0.  0.
     999903    2    3    3    0    0  0.18354549124E-02  0.89058722097E-01 -0.93613726226E-01  0.13073379685E+00  0.19823496807E-01 0.  0.
         14    1    1    2    0    0  0.21585670857E-01  0.69024010421E-02  0.53231272846E-02  0.23279175470E-01  0.00000000000E+00 0. -1.
     999901    1    3    3    0    0 -0.23421125769E-01 -0.95961123139E-01  0.88290598942E-01  0.88991702768E+00  0.88000000000E+00 0.  1.
        -11    1    4    4    0    0  0.43617782207E-02  0.11190853989E-01 -0.21179585168E-01  0.24353567934E-01  0.51100000000E-03 0.  1.
         11    1    4    4    0    0 -0.25263233083E-02  0.77867868108E-01 -0.72434141058E-01  0.10638022892E+00  0.51100000000E-03 0. -1.
</event>
<event>
 8    1  0.1161271E+005  0.1043930E+01  0.7957747E-01            NaN
         13   -1    0    0    0    0  0.00000000000E+00  0.00000000000E+00  0.74505805969E-08  0.10566000000E+00  0.10566000000E+00 0. -1.
     999900   -1    0    0    0    0 -0.00000000000E+00 -0.00000000000E+00 -0.74505805969E-08  0.93827000000E+00  0.93827000000E+00 0.  1.
     999902    2    1    2    0    0  0.11609920403E-01 -0.72347255231E-02  0.18864755563E-01  0.10206274141E+01  0.10203613615E+01 0.  0.
     999903    2    3    3    0    0 -0.76484527872E-01 -0.17216331223E-01 -0.99619025078E-01  0.12827172803E+00  0.19580627903E-01 0.  0.
         14    1    1    2    0    0 -0.11609920403E-01  0.72347255231E-02 -0.18864755563E-01  0.23302585857E-01  0.00000000000E+00 0.  1.
     999901    1    3    3    0    0  0.88094448275E-01  0.99816057000E-02  0.11848378064E+00  0.89235568612E+00  0.88000000000E+00 0. -1.
        -11    1    4    4    0    0 -0.26233646976E-01  0.21048284332E-02 -0.40580083467E-01  0.48369813226E-01  0.51100000000E-03 0.  1.
         11    1    4    4    0    0 -0.50250880896E-01 -0.19321159656E-01 -0.59038941611E-01  0.79901914801E-01  0.51100000000E-03 0. -1.
</event>
<event>
 8    1  0.1161271E+005  0.1043930E+01  0.7957747E-01            NaN
         13   -1    0    0    0    0  0.00000000000E+00  0.00000000000E+00  0.74505805969E-08  0.10566000000E+00  0.10566000000E+00 0. -1.
     999900   -1    0    0    0    0 -0.00000000000E+00 -0.00000000000E+00 -0.74505805969E-08  0.93827000000E+00  0.93827000000E+00 0.  1.
     999902    2    1    2    0    0  0.80313102572E-02 -0.19247754563E-01  0.11313628181E-01  0.10202028809E+01  0.10199269297E+01 0.  0.
     999903    2    3    3    0    0 -0.52394303592E-01  0.11457191194E+00 -0.69642123119E-02  0.12785035108E+00  0.20623432408E-01 0.  0.
         14    1    1    2    0    0 -0.80313102572E-02  0.19247754563E-01 -0.11313628181E-01  0.23727119142E-01  0.00000000000E+00 0.  1.
     999901    1    3    3    0    0  0.60425613850E-01 -0.13381966650E+00  0.18277840493E-01  0.89235252978E+00  0.88000000000E+00 0.  1.
        -11    1    4    4    0    0 -0.23909227808E-01  0.42013711157E-01 -0.11756607259E-01  0.49752206331E-01  0.51100000000E-03 0.  1.
         11    1    4    4    0    0 -0.28485075784E-01  0.72558200778E-01  0.47923949475E-02  0.78098144747E-01  0.51100000000E-03 0. -1.
</event>
<event>
 8    1  0.1352560E+005  0.1043930E+01  0.7957747E-01            NaN
         13   -1    0    0    0    0  0.00000000000E+00  0.00000000000E+00  0.74505805969E-08  0.10566000000E+00  0.10566000000E+00 0.  1.
     999900   -1    0    0    0    0 -0.00000000000E+00 -0.00000000000E+00 -0.74505805969E-08  0.93827000000E+00  0.93827000000E+00 0. -1.
     999902    2    1    2    0    0 -0.13194760738E-01 -0.15219880710E-01 -0.18233569427E-01  0.10167599883E+01  0.10163969030E+01 0.  0.
     999903    2    3    3    0    0  0.27103512468E-01 -0.12273529471E+00 -0.21916241167E-01  0.12929332578E+00  0.20925809643E-01 0.  0.
         14    1    1    2    0    0  0.13194760738E-01  0.15219880710E-01  0.18233569427E-01  0.27170011664E-01  0.00000000000E+00 0.  1.
     999901    1    3    3    0    0 -0.40298273206E-01  0.10751541400E+00  0.36826717392E-02  0.88746666255E+00  0.88000000000E+00 0.  1.
        -11    1    4    4    0    0  0.17390714378E-01 -0.34624533623E-01 -0.78793119812E-02  0.39542887521E-01  0.51100000000E-03 0. -1.
         11    1    4    4    0    0  0.97127980900E-02 -0.88110761088E-01 -0.14036929185E-01  0.89750438262E-01  0.51100000000E-03 0.  1.
</event>
<event>
 8    1  0.1161271E+005  0.1043930E+01  0.7957747E-01            NaN
         13   -1    0    0    0    0  0.00000000000E+00  0.00000000000E+00  0.74505805969E-08  0.10566000000E+00  0.10566000000E+00 0. -1.
     999900   -1    0    0    0    0 -0.00000000000E+00 -0.00000000000E+00 -0.74505805969E-08  0.93827000000E+00  0.93827000000E+00 0. -1.
     999902    2    1    2    0    0 -0.53647193232E-02  0.12182818050E-01 -0.18695175674E-01  0.10209798178E+01  0.10207218414E+01 0.  0.
     999903    2    3    3    0    0  0.57554925994E-03  0.68121499487E-02 -0.13189030803E+00  0.13369335400E+00  0.20787566180E-01 0.  0.
         14    1    1    2    0    0  0.53647193232E-02 -0.12182818050E-01  0.18695175674E-01  0.22950182190E-01  0.00000000000E+00 0. -1.
     999901    1    3    3    0    0 -0.59402685832E-02  0.53706681015E-02  0.11319513236E+00  0.88728646381E+00  0.88000000000E+00 0.  1.
        -11    1    4    4    0    0  0.12356338516E-02 -0.74487120953E-02 -0.42409523841E-01  0.43079449118E-01  0.51100000000E-03 0. -1.
         11    1    4    4    0    0 -0.66008459171E-03  0.14260862044E-01 -0.89480784191E-01  0.90613904884E-01  0.51100000000E-03 0.  1.
</event>
<event>
 8    1  0.1161271E+005  0.1043930E+01  0.7957747E-01            NaN
         13   -1    0    0    0    0  0.00000000000E+00  0.00000000000E+00  0.74505805969E-08  0.10566000000E+00  0.10566000000E+00 0. -1.
     999900   -1    0    0    0    0 -0.00000000000E+00 -0.00000000000E+00 -0.74505805969E-08  0.93827000000E+00  0.93827000000E+00 0. -1.
     999902    2    1    2    0    0  0.13772342527E-01 -0.15543899229E-01 -0.11825790854E-01  0.10200314739E+01  0.10197514737E+01 0.  0.
     999903    2    3    3    0    0  0.11187457763E+00  0.64704996541E-01  0.23744769082E-02  0.13083769217E+00  0.20253539309E-01 0.  0.
         14    1    1    2    0    0 -0.13772342527E-01  0.15543899229E-01  0.11825790854E-01  0.23898526131E-01  0.00000000000E+00 0. -1.
     999901    1    3    3    0    0 -0.98102235105E-01 -0.80248895771E-01 -0.14200267763E-01  0.88919378170E+00  0.88000000000E+00 0.  1.
        -11    1    4    4    0    0  0.56473132081E-01  0.21368686339E-01  0.35683636854E-02  0.60488261202E-01  0.51100000000E-03 0. -1.
         11    1    4    4    0    0  0.55401445550E-01  0.43336310203E-01 -0.11938867771E-02  0.70349430969E-01  0.51100000000E-03 0.  1.
</event>
<event>
 8    1  0.1161271E+005  0.1043930E+01  0.7957747E-01            NaN
         13   -1    0    0    0    0  0.00000000000E+00  0.00000000000E+00  0.74505805969E-08  0.10566000000E+00  0.10566000000E+00 0. -1.
     999900   -1    0    0    0    0 -0.00000000000E+00 -0.00000000000E+00 -0.74505805969E-08  0.93827000000E+00  0.93827000000E+00 0. -1.
     999902    2    1    2    0    0 -0.21685333292E-01  0.85833590326E-02 -0.53092233666E-03  0.10206016994E+01  0.10203350524E+01 0.  0.
     999903    2    3    3    0    0 -0.57643590600E-01  0.81829967654E-01 -0.84848382852E-01  0.13281372011E+00  0.20525813856E-01 0.  0.
         14    1    1    2    0    0  0.21685333292E-01 -0.85833590326E-02  0.53092233666E-03  0.23328300641E-01  0.00000000000E+00 0.  1.
     999901    1    3    3    0    0  0.35958257308E-01 -0.73246608621E-01  0.84317460515E-01  0.88778797924E+00  0.88000000000E+00 0.  1.
        -11    1    4    4    0    0 -0.13886402007E-01  0.20162544434E-01 -0.10100808797E-01  0.26488635641E-01  0.51100000000E-03 0.  1.
         11    1    4    4    0    0 -0.43757188593E-01  0.61667423220E-01 -0.74747574055E-01  0.10632508447E+00  0.51100000000E-03 0. -1.
</event>
<event>
 8    1  0.1161271E+005  0.1043930E+01  0.7957747E-01            NaN
         13   -1    0    0    0    0  0.00000000000E+00  0.00000000000E+00  0.74505805969E-08  0.10566000000E+00  0.10566000000E+00 0.  1.
     999900   -1    0    0    0    0 -0.00000000000E+00 -0.00000000000E+00 -0.74505805969E-08  0.93827000000E+00  0.93827000000E+00 0. -1.
     999902    2    1    2    0    0 -0.22423880901E-01  0.14887565296E-02  0.82432762290E-02  0.10199926143E+01  0.10197116920E+01 0.  0.
     999903    2    3    3    0    0 -0.14935803269E-01  0.12773386250E+00 -0.12426204546E-01  0.13071137335E+00  0.19799866529E-01 0.  0.
         14    1    1    2    0    0  0.22423880901E-01 -0.14887565296E-02 -0.82432762290E-02  0.23937385689E-01  0.00000000000E+00 0.  1.
     999901    1    3    3    0    0 -0.74880776318E-02 -0.12624510597E+00  0.20669480775E-01  0.88928124096E+00  0.88000000000E+00 0. -1.
        -11    1    4    4    0    0 -0.18730776426E-02  0.65561915853E-01 -0.14385679010E-01  0.67149699268E-01  0.51100000000E-03 0.  1.
         11    1    4    4    0    0 -0.13062725626E-01  0.62171946650E-01  0.19594744642E-02  0.63561674082E-01  0.51100000000E-03 0. -1.
</event>
<event>
 8    1  0.1161271E+005  0.1043930E+01  0.7957747E-01            NaN
         13   -1    0    0    0    0  0.00000000000E+00  0.00000000000E+00  0.74505805969E-08  0.10566000000E+00  0.10566000000E+00 0. -1.
     999900   -1    0    0    0    0 -0.00000000000E+00 -0.00000000000E+00 -0.74505805969E-08  0.93827000000E+00  0.93827000000E+00 0.  1.
     999902    2    1    2    0    0 -0.12267277629E-01 -0.15563257153E-01 -0.13877463928E-01  0.10197373342E+01  0.10194503155E+01 0.  0.
     999903    2    3    3    0    0  0.92075473542E-01  0.84325079226E-01 -0.19405302877E-01  0.12794383429E+00  0.20110871171E-01 0.  0.
         14    1    1    2    0    0  0.12267277629E-01  0.15563257153E-01  0.13877463928E-01  0.24192665804E-01  0.00000000000E+00 0.  1.
     999901    1    3    3    0    0 -0.10434275117E+00 -0.99888336379E-01  0.55278389495E-02  0.89179349990E+00  0.88000000000E+00 0.  1.
        -11    1    4    4    0    0  0.29792624473E-01  0.29606521060E-01  0.28515196694E-02  0.42101530230E-01  0.51100000000E-03 0. -1.
         11    1    4    4    0    0  0.62282849069E-01  0.54718558166E-01 -0.22256822547E-01  0.85842304063E-01  0.51100000000E-03 0.  1.
</event>
<event>
 8    1  0.1161271E+005  0.1043930E+01  0.7957747E-01            NaN
         13   -1    0    0    0    0  0.00000000000E+00  0.00000000000E+00  0.74505805969E-08  0.10566000000E+00  0.10566000000E+00 0.  1.
     999900   -1    0    0    0    0 -0.00000000000E+00 -0.00000000000E+00 -0.74505805969E-08  0.93827000000E+00  0.93827000000E+00 0. -1.
     999902    2    1    2    0    0 -0.16626815656E-01 -0.15308088947E-01  0.87867429838E-02  0.10196813828E+01  0.10193930189E+01 0.  0.
     999903    2    3    3    0    0  0.40772285848E-01 -0.72936531494E-01  0.99251028306E-01  0.13131238219E+00  0.20249893268E-01 0.  0.
         14    1    1    2    0    0  0.16626815656E-01  0.15308088947E-01 -0.87867429838E-02  0.24248617245E-01  0.00000000000E+00 0.  1.
     999901    1    3    3    0    0 -0.57399101503E-01  0.57628442547E-01 -0.90464285322E-01  0.88836900056E+00  0.88000000000E+00 0. -1.
        -11    1    4    4    0    0  0.70048982872E-02 -0.31690389192E-01  0.33167881116E-01  0.46408176283E-01  0.51100000000E-03 0. -1.
         11    1    4    4    0    0  0.33767387561E-01 -0.41246142301E-01  0.66083147190E-01  0.84904205908E-01  0.51100000000E-03 0.  1.
</event>
<event>
 8    1  0.1161271E+005  0.1043930E+01  0.7957747E-01            NaN
         13   -1    0    0    0    0  0.00000000000E+00  0.00000000000E+00  0.74505805969E-08  0.10566000000E+00  0.10566000000E+00 0.  1.
     999900   -1    0    0    0    0 -0.00000000000E+00 -0.00000000000E+00 -0.74505805969E-08  0.93827000000E+00  0.93827000000E+00 0. -1.
     999902    2    1    2    0    0 -0.41431348381E-02 -0.23274304840E-01  0.54413871269E-02  0.10196716504E+01  0.10193830522E+01 0.  0.
     999903    2    3    3    0    0  0.42292454599E-01  0.90312568821E-01  0.77974915099E-01  0.12820131745E+00  0.20260271649E-01 0.  0.
         14    1    1    2    0    0  0.41431348381E-02  0.23274304840E-01 -0.54413871269E-02  0.24258349612E-01  0.00000000000E+00 0. -1.
     999901    1    3    3    0    0 -0.46435589437E-01 -0.11358687366E+00 -0.72533527972E-01  0.89147033294E+00  0.88000000000E+00 0.  1.
        -11    1    4    4    0    0  0.74974986144E-02  0.28255505073E-01  0.32721842908E-01  0.43881273645E-01  0.51100000000E-03 0. -1.
         11    1    4    4    0    0  0.34794955985E-01  0.62057063748E-01  0.45253072191E-01  0.84320043801E-01  0.51100000000E-03 0.  1.
</event>
<event>
 8    1  0.1161271E+005  0.1043930E+01  0.7957747E-01            NaN
         13   -1    0    0    0    0  0.00000000000E+00  0.00000000000E+00  0.74505805969E-08  0.10566000000E+00  0.10566000000E+00 0.  1.
     999900   -1    0    0    0    0 -0.00000000000E+00 -0.00000000000E+00 -0.74505805969E-08  0.93827000000E+00  0.93827000000E+00 0. -1.
     999902    2    1    2    0    0 -0.18409194622E-01  0.86036384082E-03 -0.14838254603E-01  0.10202696434E+01  0.10199952612E+01 0.  0.
     999903    2    3    3    0    0 -0.79983689585E-01 -0.97510835746E-01 -0.35063011007E-01  0.13241979572E+00  0.19995846314E-01 0.  0.
         14    1    1    2    0    0  0.18409194622E-01 -0.86036384082E-03  0.14838254603E-01  0.23660356554E-01  0.00000000000E+00 0.  1.
     999901    1    3    3    0    0  0.61574494963E-01  0.98371199587E-01  0.20224756404E-01  0.88784984773E+00  0.88000000000E+00 0.  1.
        -11    1    4    4    0    0 -0.75377948566E-01 -0.82110275698E-01 -0.28501248687E-01  0.11505005347E+00  0.51100000000E-03 0. -1.
         11    1    4    4    0    0 -0.46057410193E-02 -0.15400560048E-01 -0.65617623192E-02  0.17369742251E-01  0.51100000000E-03 0.  1.
</event>
<event>
 8    1  0.1161271E+005  0.1043930E+01  0.7957747E-01            NaN
         13   -1    0    0    0    0  0.00000000000E+00  0.00000000000E+00  0.74505805969E-08  0.10566000000E+00  0.10566000000E+00 0. -1.
     999900   -1    0    0    0    0 -0.00000000000E+00 -0.00000000000E+00 -0.74505805969E-08  0.93827000000E+00  0.93827000000E+00 0.  1.
     999902    2    1    2    0    0 -0.40151376572E-02 -0.14892764598E-01  0.17616872006E-01  0.10205148351E+01  0.10202461755E+01 0.  0.
     999903    2    3    3    0    0  0.89909764585E-01 -0.79115829142E-01  0.52963026224E-01  0.13248564645E+00  0.20106819260E-01 0.  0.
         14    1    1    2    0    0  0.40151376572E-02  0.14892764598E-01 -0.17616872006E-01  0.23415164895E-01  0.00000000000E+00 0.  1.
     999901    1    3    3    0    0 -0.93924902242E-01  0.64223064544E-01 -0.35346154218E-01  0.88802918865E+00  0.88000000000E+00 0.  1.
        -11    1    4    4    0    0  0.32092123367E-01 -0.36238916935E-01  0.29898481517E-01  0.56897660767E-01  0.51100000000E-03 0. -1.
         11    1    4    4    0    0  0.57817641218E-01 -0.42876912207E-01  0.23064544706E-01  0.75587985685E-01  0.51100000000E-03 0.  1.
</event>
<event>
 8    1  0.1161271E+005  0.1043930E+01  0.7957747E-01            NaN
         13   -1    0    0    0    0  0.00000000000E+00  0.00000000000E+00  0.74505805969E-08  0.10566000000E+00  0.10566000000E+00 0.  1.
     999900   -1    0    0    0    0 -0.00000000000E+00 -0.00000000000E+00 -0.74505805969E-08  0.93827000000E+00  0.93827000000E+00 0.  1.
     999902    2    1    2    0    0 -0.21518653321E-01  0.95679061226E-02 -0.15283487790E-02  0.10203305695E+01  0.10200576150E+01 0.  0.
     999903    2    3    3    0    0  0.38432795014E-01 -0.69225866578E-01  0.10036029190E+00  0.12893619561E+00  0.16824209076E-01 0.  0.
         14    1    1    2    0    0  0.21518653321E-01 -0.95679061226E-02  0.15283487790E-02  0.23599430466E-01  0.00000000000E+00 0. -1.
     999901    1    3    3    0    0 -0.59951448335E-01  0.78793772701E-01 -0.10188864068E+00  0.89139437393E+00  0.88000000000E+00 0.  1.
        -11    1    4    4    0    0  0.19296932587E-01 -0.50933024615E-01  0.67321908847E-01  0.86597027290E-01  0.51100000000E-03 0.  1.
         11    1    4    4    0    0  0.19135862427E-01 -0.18292841963E-01  0.33038383051E-01  0.42339168315E-01  0.51100000000E-03 0. -1.
</event>
<event>
 8    1  0.1161271E+005  0.1043930E+01  0.7957747E-01            NaN
         13   -1    0    0    0    0  0.00000000000E+00  0.00000000000E+00  0.74505805969E-08  0.10566000000E+00  0.10566000000E+00 0. -1.
     999900   -1    0    0    0    0 -0.00000000000E+00 -0.00000000000E+00 -0.74505805969E-08  0.93827000000E+00  0.93827000000E+00 0. -1.
     999902    2    1    2    0    0 -0.81733664231E-02 -0.16716529246E-01  0.13018719187E-01  0.10212202374E+01  0.10209676978E+01 0.  0.
     999903    2    3    3    0    0  0.13827034589E-01  0.62116166906E-01  0.11354534173E+00  0.13172363061E+00  0.20222886922E-01 0.  0.
         14    1    1    2    0    0  0.81733664231E-02  0.16716529246E-01 -0.13018719187E-01  0.22709762614E-01  0.00000000000E+00 0.  1.
     999901    1    3    3    0    0 -0.22000401012E-01 -0.78832696152E-01 -0.10052662254E+00  0.88949660678E+00  0.88000000000E+00 0.  1.
        -11    1    4    4    0    0  0.29955832221E-02  0.33588022576E-01  0.41465319007E-01  0.53448691105E-01  0.51100000000E-03 0.  1.
         11    1    4    4    0    0  0.10831451366E-01  0.28528144330E-01  0.72080022724E-01  0.78274939505E-01  0.51100000000E-03 0. -1.
</event>
<event>
 8    1  0.1161271E+005  0.1043930E+01  0.7957747E-01            NaN
         13   -1    0    0    0    0  0.00000000000E+00  0.00000000000E+00  0.74505805969E-08  0.10566000000E+00  0.10566000000E+00 0. -1.
     999900   -1    0    0    0    0 -0.00000000000E+00 -0.00000000000E+00 -0.74505805969E-08  0.93827000000E+00  0.93827000000E+00 0. -1.
     999902    2    1    2    0    0 -0.11383259152E-02 -0.22780794816E-01 -0.43726408546E-02  0.10207054357E+01  0.10204411821E+01 0.  0.
     999903    2    3    3    0    0 -0.70170818781E-01  0.62583993706E-01 -0.87623950475E-01  0.12998470914E+00  0.19425957812E-01 0.  0.
         14    1    1    2    0    0  0.11383259152E-02  0.22780794816E-01  0.43726408546E-02  0.23224564288E-01  0.00000000000E+00 0.  1.
     999901    1    3    3    0    0  0.69032492866E-01 -0.85364788522E-01  0.83251309620E-01  0.89072072657E+00  0.88000000000E+00 0.  1.
        -11    1    4    4    0    0 -0.43545312646E-01  0.26275589863E-01 -0.43200897408E-01  0.66732147679E-01  0.51100000000E-03 0.  1.
         11    1    4    4    0    0 -0.26625506136E-01  0.36308403843E-01 -0.44423053067E-01  0.63252561461E-01  0.51100000000E-03 0. -1.
</event>
<event>
 8    1  0.1161271E+005  0.1043930E+01  0.7957747E-01            NaN
         13   -1    0    0    0    0  0.00000000000E+00  0.00000000000E+00  0.74505805969E-08  0.10566000000E+00  0.10566000000E+00 0.  1.
     999900   -1    0    0    0    0 -0.00000000000E+00 -0.00000000000E+00 -0.74505805969E-08  0.93827000000E+00  0.93827000000E+00 0.  1.
     999902    2    1    2    0    0  0.11901542498E-01  0.19784261233E-01 -0.28673154899E-02  0.10206644632E+01  0.10203992656E+01 0.  0.
     999903    2    3    3    0    0 -0.34097851399E-01  0.12345228000E+00 -0.29748498914E-01  0.13297893304E+00  0.19882015444E-01 0.  0.
         14    1    1    2    0    0 -0.11901542498E-01 -0.19784261233E-01  0.28673154899E-02  0.23265536841E-01  0.00000000000E+00 0. -1.
     999901    1    3    3    0    0  0.45999393898E-01 -0.10366801877E+00  0.26881183424E-01  0.88768553012E+00  0.88000000000E+00 0. -1.
        -11    1    4    4    0    0 -0.87042930930E-02  0.12110971544E-01  0.16733447155E-03  0.14924123821E-01  0.51100000000E-03 0. -1.
         11    1    4    4    0    0 -0.25393558306E-01  0.11134130846E+00 -0.29915833386E-01  0.11805480922E+00  0.51100000000E-03 0.  1.
</event>
<event>
 8    1  0.1161271E+005  0.1043930E+01  0.7957747E-01            NaN
         13   -1    0    0    0    0  0.00000000000E+00  0.00000000000E+00  0.74505805969E-08  0.10566000000E+00  0.10566000000E+00 0.  1.
     999900   -1    0    0    0    0 -0.00000000000E+00 -0.00000000000E+00 -0.74505805969E-08  0.93827000000E+00  0.93827000000E+00 0.  1.
     999902    2    1    2    0    0  0.11257765517E-01 -0.12137427015E-01  0.16800460454E-01  0.10203437775E+01  0.10200711321E+01 0.  0.
     999903    2    3    3    0    0  0.56093133480E-01  0.51988687411E-01  0.10634042315E+00  0.13234615721E+00  0.18919738100E-01 0.  0.
         14    1    1    2    0    0 -0.11257765517E-01  0.12137427015E-01 -0.16800460454E-01  0.23586222471E-01  0.00000000000E+00 0. -1.
     999901    1    3    3    0    0 -0.44835367963E-01 -0.64126114426E-01 -0.89539962698E-01  0.88799762032E+00  0.88000000000E+00 0. -1.
        -11    1    4    4    0    0  0.38102213443E-01  0.24341058697E-01  0.69276316622E-01  0.82726869718E-01  0.51100000000E-03 0.  1.
         11    1    4    4    0    0  0.17990920037E-01  0.27647628714E-01  0.37064106530E-01  0.49619287492E-01  0.51100000000E-03 0. -1.
</event>
<event>
 8    1  0.1161271E+005  0.1043930E+01  0.7957747E-01            NaN
         13   -1    0    0    0    0  0.00000000000E+00  0.00000000000E+00  0.74505805969E-08  0.10566000000E+00  0.10566000000E+00 0. -1.
     999900   -1    0    0    0    0 -0.00000000000E+00 -0.00000000000E+00 -0.74505805969E-08  0.93827000000E+00  0.93827000000E+00 0.  1.
     999902    2    1    2    0    0  0.12620363500E-01  0.19136835750E-01 -0.10221556329E-01  0.10188307516E+01  0.10185215403E+01 0.  0.
     999903    2    3    3    0    0 -0.10606946401E+00 -0.23314334485E-01  0.62421444831E-01  0.12688547152E+00  0.20228611389E-01 0.  0.
         14    1    1    2    0    0 -0.12620363500E-01 -0.19136835750E-01  0.10221556329E-01  0.25099248419E-01  0.00000000000E+00 0. -1.
     999901    1    3    3    0    0  0.11868982751E+00  0.42451170235E-01 -0.72643001161E-01  0.89194528006E+00  0.88000000000E+00 0.  1.
        -11    1    4    4    0    0 -0.50115064677E-01 -0.14078395444E-02  0.24242254763E-01  0.55690661307E-01  0.51100000000E-03 0. -1.
         11    1    4    4    0    0 -0.55954399337E-01 -0.21906494940E-01  0.38179190068E-01  0.71194810211E-01  0.51100000000E-03 0.  1.
</event>
<event>
 8    1  0.1161271E+005  0.1043930E+01  0.7957747E-01            NaN
         13   -1    0    0    0    0  0.00000000000E+00  0.00000000000E+00  0.74505805969E-08  0.10566000000E+00  0.10566000000E+00 0. -1.
     999900   -1    0    0    0    0 -0.00000000000E+00 -0.00000000000E+00 -0.74505805969E-08  0.93827000000E+00  0.93827000000E+00 0. -1.
     999902    2    1    2    0    0 -0.57378242093E-02  0.20121739633E-01  0.11827487487E-01  0.10198946824E+01  0.10196114293E+01 0.  0.
     999903    2    3    3    0    0 -0.98644328751E-02 -0.94402202202E-01  0.85836464081E-01  0.12938354222E+00  0.19055697673E-01 0.  0.
         14    1    1    2    0    0  0.57378242093E-02 -0.20121739633E-01 -0.11827487487E-01  0.24035317613E-01  0.00000000000E+00 0.  1.
     999901    1    3    3    0    0  0.41266086658E-02  0.11452394184E+00 -0.74008976594E-01  0.89051114017E+00  0.88000000000E+00 0. -1.
        -11    1    4    4    0    0  0.29369741600E-02 -0.54907854362E-01  0.53918766164E-01  0.77012938871E-01  0.51100000000E-03 0.  1.
         11    1    4    4    0    0 -0.12801407035E-01 -0.39494347840E-01  0.31917697916E-01  0.52370603344E-01  0.51100000000E-03 0. -1.
</event>
<event>
 8    1  0.1161271E+005  0.1043930E+01  0.7957747E-01            NaN
         13   -1    0    0    0    0  0.00000000000E+00  0.00000000000E+00  0.74505805969E-08  0.10566000000E+00  0.10566000000E+00 0. -1.
     999900   -1    0    0    0    0 -0.00000000000E+00 -0.00000000000E+00 -0.74505805969E-08  0.93827000000E+00  0.93827000000E+00 0.  1.
     999902    2    1    2    0    0 -0.63650336336E-02  0.11722166347E-01  0.21230996820E-01  0.10188565466E+01  0.10185479785E+01 0.  0.
     999903    2    3    3    0    0 -0.50702147414E-03 -0.12284079923E+00  0.31123788804E-01  0.12855357836E+00  0.21615116329E-01 0.  0.
         14    1    1    2    0    0  0.63650336336E-02 -0.11722166347E-01 -0.21230996820E-01  0.25073453352E-01  0.00000000000E+00 0. -1.
     999901    1    3    3    0    0 -0.58580121595E-02  0.13456296557E+00 -0.98927919841E-02  0.89030296829E+00  0.88000000000E+00 0.  1.
        -11    1    4    4    0    0  0.99217991962E-02 -0.52020717861E-01  0.16678160090E-01  0.55524943323E-01  0.51100000000E-03 0.  1.
         11    1    4    4    0    0 -0.10428820670E-01 -0.70820081366E-01  0.14445628714E-01  0.73028635036E-01  0.51100000000E-03 0. -1.
</event>
<event>
 8    1  0.1161271E+005  0.1043930E+01  0.7957747E-01            NaN
         13   -1    0    0    0    0  0.00000000000E+00  0.00000000000E+00  0.74505805969E-08  0.10566000000E+00  0.10566000000E+00 0.  1.
     999900   -1    0    0    0    0 -0.00000000000E+00 -0.00000000000E+00 -0.74505805969E-08  0.93827000000E+00  0.93827000000E+00 0. -1.
     999902    2    1    2    0    0 -0.97544805932E-02 -0.62052857330E-02  0.20941838026E-01  0.10200089623E+01  0.10197284282E+01 0.  0.
     999903    2    3    3    0    0 -0.12475283848E+00  0.35232563557E-01  0.87616738584E-02  0.13147642266E+00  0.20116623572E-01 0.  0.
         14    1    1    2    0    0  0.97544805932E-02  0.62052857330E-02 -0.20941838026E-01  0.23921037657E-01  0.00000000000E+00 0. -1.
     999901    1    3    3    0    0  0.11499835789E+00 -0.41437849290E-01  0.12180164168E-01  0.88853253968E+00  0.88000000000E+00 0. -1.
        -11    1    4    4    0    0 -0.31473268013E-01  0.18039173785E-01  0.40796901731E-02  0.36508675451E-01  0.51100000000E-03 0. -1.
         11    1    4    4    0    0 -0.93279570467E-01  0.17193389771E-01  0.46819836852E-02  0.94967747212E-01  0.51100000000E-03 0.  1.
</event>
<event>
 8    1  0.1161271E+005  0.1043930E+01  0.7957747E-01            NaN
         13   -1    0    0    0    0  0.00000000000E+00  0.00000000000E+00  0.74505805969E-08  0.10566000000E+00  0.10566000000E+00 0.  1.
     999900   -1    0    0    0    0 -0.00000000000E+00 -0.00000000000E+00 -0.74505805969E-08  0.93827000000E+00  0.93827000000E+00 0.  1.
     999902    2    1    2    0    0 -0.14159399474E-01 -0.13953997729E-01  0.12249268872E-01  0.10205794704E+01  0.10203123091E+01 0.  0.
     999903    2    3    3    0    0  0.15491380879E-01  0.10590334707E+00 -0.68083753065E-01  0.12833603594E+00  0.19474056768E-01 0.  0.
         14    1    1    2    0    0  0.14159399474E-01  0.13953997729E-01 -0.12249268872E-01  0.23350529630E-01  0.00000000000E+00 0. -1.
     999901    1    3    3    0    0 -0.29650780353E-01 -0.11985734480E+00  0.80333021937E-01  0.89224343443E+00  0.88000000000E+00 0. -1.
        -11    1    4    4    0    0 -0.10412602738E-02  0.22468161958E-01 -0.68130784562E-02  0.23507056043E-01  0.51100000000E-03 0.  1.
         11    1    4    4    0    0  0.16532641152E-01  0.83435185108E-01 -0.61270674608E-01  0.10482897989E+00  0.51100000000E-03 0. -1.
</event>
<event>
 8    1  0.1161271E+005  0.1043930E+01  0.7957747E-01            NaN
         13   -1    0    0    0    0  0.00000000000E+00  0.00000000000E+00  0.74505805969E-08  0.10566000000E+00  0.10566000000E+00 0. -1.
     999900   -1    0    0    0    0 -0.00000000000E+00 -0.00000000000E+00 -0.74505805969E-08  0.93827000000E+00  0.93827000000E+00 0.  1.
     999902    2    1    2    0    0 -0.84163961332E-02  0.53796187173E-02 -0.22589344493E-01  0.10192307185E+01  0.10189314025E+01 0.  0.
     999903    2    3    3    0    0  0.92943781236E-01  0.52348516714E-01 -0.72922815450E-01  0.13074131439E+00  0.19915838000E-01 0.  0.
         14    1    1    2    0    0  0.84163961332E-02 -0.53796187173E-02  0.22589344493E-01  0.24699281488E-01  0.00000000000E+00 0. -1.
     999901    1    3    3    0    0 -0.10136017737E+00 -0.46968897996E-01  0.50333470958E-01  0.88848940412E+00  0.88000000000E+00 0.  1.
        -11    1    4    4    0    0  0.59649244322E-01  0.43935711957E-01 -0.52212568470E-01  0.90635492830E-01  0.51100000000E-03 0.  1.
         11    1    4    4    0    0  0.33294536913E-01  0.84128047570E-02 -0.20710246980E-01  0.40105821562E-01  0.51100000000E-03 0. -1.
</event>
<event>
 8    1  0.1161271E+005  0.1043930E+01  0.7957747E-01            NaN
         13   -1    0    0    0    0  0.00000000000E+00  0.00000000000E+00  0.74505805969E-08  0.10566000000E+00  0.10566000000E+00 0.  1.
     999900   -1    0    0    0    0 -0.00000000000E+00 -0.00000000000E+00 -0.74505805969E-08  0.93827000000E+00  0.93827000000E+00 0.  1.
     999902    2    1    2    0    0 -0.57989701586E-02  0.20282702501E-01  0.11428015563E-01  0.10199380094E+01  0.10196557886E+01 0.  0.
     999903    2    3    3    0    0 -0.19397609534E-01 -0.10355829010E+00  0.71865130875E-01  0.12911021491E+00  0.20106313770E-01 0.  0.
         14    1    1    2    0    0  0.57989701586E-02 -0.20282702501E-01 -0.11428015563E-01  0.23991990649E-01  0.00000000000E+00 0.  1.
     999901    1    3    3    0    0  0.13598639375E-01  0.12384099260E+00 -0.60437115312E-01  0.89082779444E+00  0.88000000000E+00 0.  1.
        -11    1    4    4    0    0 -0.66189298986E-03 -0.52081927057E-01  0.40529551374E-01  0.65999021840E-01  0.51100000000E-03 0. -1.
         11    1    4    4    0    0 -0.18735716544E-01 -0.51476363047E-01  0.31335579501E-01  0.63111193069E-01  0.51100000000E-03 0.  1.
</event>
<event>
 8    1  0.1161271E+005  0.1043930E+01  0.7957747E-01            NaN
         13   -1    0    0    0    0  0.00000000000E+00  0.00000000000E+00  0.74505805969E-08  0.10566000000E+00  0.10566000000E+00 0. -1.
     999900   -1    0    0    0    0 -0.00000000000E+00 -0.00000000000E+00 -0.74505805969E-08  0.93827000000E+00  0.93827000000E+00 0. -1.
     999902    2    1    2    0    0 -0.15481925582E-01 -0.16822162840E-01  0.23202737428E-02  0.10209504688E+01  0.10206918247E+01 0.  0.
     999903    2    3    3    0    0  0.43114372763E-01  0.28963005711E-01  0.11772899749E+00  0.13030520760E+00  0.20533519878E-01 0.  0.
         14    1    1    2    0    0  0.15481925582E-01  0.16822162840E-01 -0.23202737428E-02  0.22979531166E-01  0.00000000000E+00 0. -1.
     999901    1    3    3    0    0 -0.58596298344E-01 -0.45785168552E-01 -0.11540872375E+00  0.89064526123E+00  0.88000000000E+00 0. -1.
        -11    1    4    4    0    0  0.57779384410E-02 -0.18934239174E-02  0.24436877632E-01  0.25187134338E-01  0.51100000000E-03 0.  1.
         11    1    4    4    0    0  0.37336434322E-01  0.30856429628E-01  0.93292119862E-01  0.10511807326E+00  0.51100000000E-03 0. -1.
</event>
<event>
 8    1  0.1161271E+005  0.1043930E+01  0.7957747E-01            NaN
         13   -1    0    0    0    0  0.00000000000E+00  0.00000000000E+00  0.74505805969E-08  0.10566000000E+00  0.10566000000E+00 0.  1.
     999900   -1    0    0    0    0 -0.00000000000E+00 -0.00000000000E+00 -0.74505805969E-08  0.93827000000E+00  0.93827000000E+00 0. -1.
     999902    2    1    2    0    0  0.92242496012E-02  0.14665016629E-01 -0.17846913411E-01  0.10190570868E+01  0.10187534954E+01 0.  0.
     999903    2    3    3    0    0 -0.31843637584E-01 -0.52375152284E-01  0.10906965068E+00  0.12648284906E+00  0.18562019760E-01 0.  0.
         14    1    1    2    0    0 -0.92242496012E-02 -0.14665016629E-01  0.17846913411E-01  0.24872913214E-01  0.00000000000E+00 0.  1.
     999901    1    3    3    0    0  0.41067887185E-01  0.67040168914E-01 -0.12691656409E+00  0.89257423772E+00  0.88000000000E+00 0. -1.
        -11    1    4    4    0    0 -0.18535199873E-01 -0.27883581818E-01  0.77143961242E-01  0.84098154834E-01  0.51100000000E-03 0. -1.
         11    1    4    4    0    0 -0.13308437710E-01 -0.24491570466E-01  0.31925689433E-01  0.42384694230E-01  0.51100000000E-03 0.  1.
</event>
<event>
 8    1  0.1161271E+005  0.1043930E+01  0.7957747E-01            NaN
         13   -1    0    0    0    0  0.00000000000E+00  0.00000000000E+00  0.74505805969E-08  0.10566000000E+00  0.10566000000E+00 0.  1.
     999900   -1    0    0    0    0 -0.00000000000E+00 -0.00000000000E+00 -0.74505805969E-08  0.93827000000E+00  0.93827000000E+00 0. -1.
     999902    2    1    2    0    0  0.39190557336E-02  0.20699651170E-01 -0.10272844886E-01  0.10204914442E+01  0.10202222414E+01 0.  0.
     999903    2    3    3    0    0 -0.91707010146E-02  0.92309515445E-01  0.91335571590E-01  0.13165873513E+00  0.19664371335E-01 0.  0.
         14    1    1    2    0    0 -0.39190557336E-02 -0.20699651170E-01  0.10272844886E-01  0.23438555810E-01  0.00000000000E+00 0.  1.
     999901    1    3    3    0    0  0.13089756748E-01 -0.71609864274E-01 -0.10160841648E+00  0.88883270906E+00  0.88000000000E+00 0. -1.
        -11    1    4    4    0    0  0.51259328970E-02  0.41138094872E-01  0.44630482398E-01  0.60916000508E-01  0.51100000000E-03 0. -1.
         11    1    4    4    0    0 -0.14296633912E-01  0.51171420573E-01  0.46705089192E-01  0.70742734624E-01  0.51100000000E-03 0.  1.
</event>
<event>
 8    1  0.1161271E+005  0.1043930E+01  0.7957747E-01            NaN
         13   -1    0    0    0    0  0.00000000000E+00  0.00000000000E+00  0.74505805969E-08  0.10566000000E+00  0.10566000000E+00 0.  1.
     999900   -1    0    0    0    0 -0.00000000000E+00 -0.00000000000E+00 -0.74505805969E-08  0.93827000000E+00  0.93827000000E+00 0. -1.
     999902    2    1    2    0    0 -0.92621346959E-02 -0.14645846068E-01  0.12766846829E-01  0.10224060523E+01  0.10221794634E+01 0.  0.
     999903    2    3    3    0    0  0.10082775519E+00 -0.62113274650E-02 -0.80319484069E-01  0.13063478682E+00  0.20233912145E-01 0.  0.
         14    1    1    2    0    0  0.92621346959E-02  0.14645846068E-01 -0.12766846829E-01  0.21523947689E-01  0.00000000000E+00 0. -1.
     999901    1    3    3    0    0 -0.11008988988E+00 -0.84345186031E-02  0.93086330898E-01  0.89177126549E+00  0.88000000000E+00 0.  1.
        -11    1    4    4    0    0  0.75933037029E-01 -0.10717600175E-01 -0.51988993463E-01  0.92648851198E-01  0.51100000000E-03 0.  1.
         11    1    4    4    0    0  0.24894718159E-01  0.45062727096E-02 -0.28330490607E-01  0.37985935620E-01  0.51100000000E-03 0. -1.
</event>
<event>
 8    1  0.1161271E+005  0.1043930E+01  0.7957747E-01            NaN
         13   -1    0    0    0    0  0.00000000000E+00  0.00000000000E+00  0.74505805969E-08  0.10566000000E+00  0.10566000000E+00 0. -1.
     999900   -1    0    0    0    0 -0.00000000000E+00 -0.00000000000E+00 -0.74505805969E-08  0.93827000000E+00  0.93827000000E+00 0.  1.
     999902    2    1    2    0    0  0.14267639637E-01  0.19176646967E-01  0.83390263967E-03  0.10200133798E+01  0.10197329504E+01 0.  0.
     999903    2    3    3    0    0  0.85455975850E-01 -0.54424046796E-01 -0.79648113547E-01  0.13042797281E+00  0.20073201600E-01 0.  0.
         14    1    1    2    0    0 -0.14267639637E-01 -0.19176646967E-01 -0.83390263967E-03  0.23916620232E-01  0.00000000000E+00 0.  1.
     999901    1    3    3    0    0 -0.71188336213E-01  0.73600693764E-01  0.80482016187E-01  0.88958540695E+00  0.88000000000E+00 0. -1.
        -11    1    4    4    0    0  0.76379886998E-01 -0.52709846170E-01 -0.65757165707E-01  0.11373865211E+00  0.51100000000E-03 0. -1.
         11    1    4    4    0    0  0.90760888523E-02 -0.17142006263E-02 -0.13890947840E-01  0.16689320703E-01  0.51100000000E-03 0.  1.
</event>
<event>
 8    1  0.1161271E+005  0.1043930E+01  0.7957747E-01            NaN
         13   -1    0    0    0    0  0.00000000000E+00  0.00000000000E+00  0.74505805969E-08  0.10566000000E+00  0.10566000000E+00 0. -1.
     999900   -1    0    0    0    0 -0.00000000000E+00 -0.00000000000E+00 -0.74505805969E-08  0.93827000000E+00  0.93827000000E+00 0. -1.
     999902    2    1    2    0    0  0.15504608227E-01 -0.15657947372E-01 -0.74100593188E-02  0.10206819211E+01  0.10204171260E+01 0.  0.
     999903    2    3    3    0    0  0.90406284710E-01  0.81197402473E-01 -0.45934021031E-01  0.13137021224E+00  0.19541849781E-01 0.  0.
         14    1    1    2    0    0 -0.15504608227E-01  0.15657947372E-01  0.74100593188E-02  0.23248078873E-01  0.00000000000E+00 0.  1.
     999901    1    3    3    0    0 -0.74901676483E-01 -0.96855349846E-01  0.38523961712E-01  0.88931170888E+00  0.88000000000E+00 0. -1.
        -11    1    4    4    0    0  0.39184915499E-01  0.45281024962E-01 -0.29122081378E-01  0.66589680650E-01  0.51100000000E-03 0. -1.
         11    1    4    4    0    0  0.51221369212E-01  0.35916377511E-01 -0.16811939653E-01  0.64780531592E-01  0.51100000000E-03 0.  1.
</event>
<event>
 8    1  0.1161271E+005  0.1043930E+01  0.7957747E-01            NaN
         13   -1    0    0    0    0  0.00000000000E+00  0.00000000000E+00  0.74505805969E-08  0.10566000000E+00  0.10566000000E+00 0. -1.
     999900   -1    0    0    0    0 -0.00000000000E+00 -0.00000000000E+00 -0.74505805969E-08  0.93827000000E+00  0.93827000000E+00 0.  1.
     999902    2    1    2    0    0 -0.15294422855E-01  0.79928666242E-02  0.15844712693E-01  0.10205022343E+01  0.10202332821E+01 0.  0.
     999903    2    3    3    0    0  0.94129379971E-01 -0.61671205273E-01 -0.57533405128E-01  0.12797156268E+00  0.20073624854E-01 0.  0.
         14    1    1    2    0    0  0.15294422855E-01 -0.79928666242E-02 -0.15844712693E-01  0.23427765742E-01  0.00000000000E+00 0.  1.
     999901    1    3    3    0    0 -0.10942380283E+00  0.69664071897E-01  0.73378117821E-01  0.89253067158E+00  0.88000000000E+00 0. -1.
        -11    1    4    4    0    0  0.64136870739E-01 -0.43526007090E-01 -0.28967814480E-01  0.82749301375E-01  0.51100000000E-03 0.  1.
         11    1    4    4    0    0  0.29992509232E-01 -0.18145198183E-01 -0.28565590648E-01  0.45222261302E-01  0.51100000000E-03 0. -1.
</event>
<event>
 8    1  0.1161271E+005  0.1043930E+01  0.7957747E-01            NaN
         13   -1    0    0    0    0  0.00000000000E+00  0.00000000000E+00  0.74505805969E-08  0.10566000000E+00  0.10566000000E+00 0. -1.
     999900   -1    0    0    0    0 -0.00000000000E+00 -0.00000000000E+00 -0.74505805969E-08  0.93827000000E+00  0.93827000000E+00 0. -1.
     999902    2    1    2    0    0  0.12000006472E-01  0.15929971208E-01 -0.12542923828E-01  0.10203696716E+01  0.10200976314E+01 0.  0.
     999903    2    3    3    0    0 -0.71268116251E-01 -0.96881990909E-01 -0.41474072640E-01  0.12879963481E+00  0.20099320125E-01 0.  0.
         14    1    1    2    0    0 -0.12000006472E-01 -0.15929971208E-01  0.12542923828E-01  0.23560328440E-01  0.00000000000E+00 0. -1.
     999901    1    3    3    0    0  0.83268122723E-01  0.11281196212E+00  0.28931148812E-01  0.89157003675E+00  0.88000000000E+00 0.  1.
        -11    1    4    4    0    0 -0.22324828203E-01 -0.16422009078E-01 -0.10863463640E-01  0.29771736592E-01  0.51100000000E-03 0.  1.
         11    1    4    4    0    0 -0.48943288048E-01 -0.80459981831E-01 -0.30610609000E-01  0.99027898219E-01  0.51100000000E-03 0. -1.
</event>
<event>
 8    1  0.1161271E+005  0.1043930E+01  0.7957747E-01            NaN
         13   -1    0    0    0    0  0.00000000000E+00  0.00000000000E+00  0.74505805969E-08  0.10566000000E+00  0.10566000000E+00 0.  1.
     999900   -1    0    0    0    0 -0.00000000000E+00 -0.00000000000E+00 -0.74505805969E-08  0.93827000000E+00  0.93827000000E+00 0.  1.
     999902    2    1    2    0    0 -0.13449001401E-01  0.20012792271E-01  0.26572673630E-02  0.10196720412E+01  0.10193834525E+01 0.  0.
     999903    2    3    3    0    0 -0.12573505695E-01  0.12724035710E+00 -0.28826110431E-01  0.13260399412E+00  0.20116488090E-01 0.  0.
         14    1    1    2    0    0  0.13449001401E-01 -0.20012792271E-01 -0.26572673630E-02  0.24257958756E-01  0.00000000000E+00 0. -1.
     999901    1    3    3    0    0 -0.87549570619E-03 -0.10722756483E+00  0.31483377794E-01  0.88706804712E+00  0.88000000000E+00 0. -1.
        -11    1    4    4    0    0 -0.13265560596E-01  0.88041602656E-01 -0.11639603432E-01  0.89794434044E-01  0.51100000000E-03 0.  1.
         11    1    4    4    0    0  0.69205490139E-03  0.39198754445E-01 -0.17186506998E-01  0.42809560075E-01  0.51100000000E-03 0. -1.
</event>
<event>
 8    1  0.1161271E+005  0.1043930E+01  0.7957747E-01            NaN
         13   -1    0    0    0    0  0.00000000000E+00  0.00000000000E+00  0.74505805969E-08  0.10566000000E+00  0.10566000000E+00 0.  1.
     999900   -1    0    0    0    0 -0.00000000000E+00 -0.00000000000E+00 -0.74505805969E-08  0.93827000000E+00  0.93827000000E+00 0.  1.
     999902    2    1    2    0    0  0.19189087277E-01  0.13867683025E-01 -0.10262613747E-01  0.10181258348E+01  0.10177987819E+01 0.  0.
     999903    2    3    3    0    0  0.99778056428E-01 -0.26156531917E-02  0.80557686795E-01  0.12963576204E+00  0.18798609315E-01 0.  0.
         14    1    1    2    0    0 -0.19189087277E-01 -0.13867683025E-01  0.10262613747E-01  0.25804165244E-01  0.00000000000E+00 0.  1.
     999901    1    3    3    0    0 -0.80588969150E-01  0.16483336217E-01 -0.90820300543E-01  0.88849007271E+00  0.88000000000E+00 0. -1.
        -11    1    4    4    0    0  0.13804519197E-01 -0.26366260777E-03  0.20553084519E-01  0.24765392637E-01  0.51100000000E-03 0.  1.
         11    1    4    4    0    0  0.85973537230E-01 -0.23519905839E-02  0.60004602276E-01  0.10487036940E+00  0.51100000000E-03 0. -1.
</event>
<event>
 8    1  0.1161271E+005  0.1043930E+01  0.7957747E-01            NaN
         13   -1    0    0    0    0  0.00000000000E+00  0.00000000000E+00  0.74505805969E-08  0.10566000000E+00  0.10566000000E+00 0. -1.
     999900   -1    0    0    0    0 -0.00000000000E+00 -0.00000000000E+00 -0.74505805969E-08  0.93827000000E+00  0.93827000000E+00 0.  1.
     999902    2    1    2    0    0 -0.18445365344E-01  0.12622723373E-01  0.83445773415E-02  0.10200721581E+01  0.10197931217E+01 0.  0.
     999903    2    3    3    0    0  0.84017831657E-01  0.83352750441E-01 -0.48650267682E-01  0.12948254678E+00  0.19804149398E-01 0.  0.
         14    1    1    2    0    0  0.18445365344E-01 -0.12622723373E-01 -0.83445773415E-02  0.23857841877E-01  0.00000000000E+00 0.  1.
     999901    1    3    3    0    0 -0.10246319700E+00 -0.70730027068E-01  0.56994845024E-01  0.89058961134E+00  0.88000000000E+00 0. -1.
        -11    1    4    4    0    0  0.12044025138E-01  0.73783099311E-02 -0.12172335725E-01  0.18652744489E-01  0.51100000000E-03 0.  1.
         11    1    4    4    0    0  0.71973806519E-01  0.75974440510E-01 -0.36477931957E-01  0.11082980229E+00  0.51100000000E-03 0. -1.
</event>
<event>
 8    1  0.1161271E+005  0.1043930E+01  0.7957747E-01            NaN
         13   -1    0    0    0    0  0.00000000000E+00  0.00000000000E+00  0.74505805969E-08  0.10566000000E+00  0.10566000000E+00 0. -1.
     999900   -1    0    0    0    0 -0.00000000000E+00 -0.00000000000E+00 -0.74505805969E-08  0.93827000000E+00  0.93827000000E+00 0. -1.
     999902    2    1    2    0    0 -0.23242792448E-02  0.21135283222E-01  0.30120507521E-02  0.10224550164E+01  0.10222294682E+01 0.  0.
     999903    2    3    3    0    0  0.12194030003E+00 -0.39426869902E-01  0.21365511528E-01  0.13147448374E+00  0.20128088590E-01 0.  0.
         14    1    1    2    0    0  0.23242792448E-02 -0.21135283222E-01 -0.30120507521E-02  0.21474983600E-01  0.00000000000E+00 0.  1.
     999901    1    3    3    0    0 -0.12426457928E+00  0.60562153125E-01 -0.18353460776E-01  0.89098053266E+00  0.88000000000E+00 0. -1.
        -11    1    4    4    0    0  0.10880382138E+00 -0.38688588801E-01  0.24244379236E-01  0.11799631137E+00  0.51100000000E-03 0. -1.
         11    1    4    4    0    0  0.13136478647E-01 -0.73828110132E-03 -0.28788677073E-02  0.13478172372E-01  0.51100000000E-03 0.  1.
</event>
<event>
 8    1  0.1161271E+005  0.1043930E+01  0.7957747E-01            NaN
         13   -1    0    0    0    0  0.00000000000E+00  0.00000000000E+00  0.74505805969E-08  0.10566000000E+00  0.10566000000E+00 0. -1.
     999900   -1    0    0    0    0 -0.00000000000E+00 -0.00000000000E+00 -0.74505805969E-08  0.93827000000E+00  0.93827000000E+00 0. -1.
     999902    2    1    2    0    0  0.16374268799E-01  0.31288439450E-02 -0.20061238546E-01  0.10178462956E+01  0.10175120254E+01 0.  0.
     999903    2    3    3    0    0 -0.57373044961E-01  0.52001324696E-01  0.96802477444E-01  0.12572280988E+00  0.20969054024E-01 0.  0.
         14    1    1    2    0    0 -0.16374268799E-01 -0.31288439450E-02  0.20061238546E-01  0.26083704398E-01  0.00000000000E+00 0. -1.
     999901    1    3    3    0    0  0.73747313760E-01 -0.48872480751E-01 -0.11686371599E+00  0.89212348572E+00  0.88000000000E+00 0. -1.
        -11    1    4    4    0    0 -0.37906266986E-01  0.45341625259E-01  0.65104386761E-01  0.87929462380E-01  0.51100000000E-03 0. -1.
         11    1    4    4    0    0 -0.19466777975E-01  0.66596994366E-02  0.31698090682E-01  0.37793347499E-01  0.51100000000E-03 0.  1.
</event>
<event>
 8    1  0.1161271E+005  0.1043930E+01  0.7957747E-01            NaN
         13   -1    0    0    0    0  0.00000000000E+00  0.00000000000E+00  0.74505805969E-08  0.10566000000E+00  0.10566000000E+00 0. -1.
     999900   -1    0    0    0    0 -0.00000000000E+00 -0.00000000000E+00 -0.74505805969E-08  0.93827000000E+00  0.93827000000E+00 0. -1.
     999902    2    1    2    0    0 -0.16849259365E-01  0.15818575865E-01  0.42277883618E-02  0.10204353394E+01  0.10201648312E+01 0.  0.
     999903    2    3    3    0    0  0.78396810508E-02 -0.91108845222E-01 -0.88393811043E-01  0.12879540205E+00  0.20310280178E-01 0.  0.
         14    1    1    2    0    0  0.16849259365E-01 -0.15818575865E-01 -0.42277883618E-02  0.23494660627E-01  0.00000000000E+00 0. -1.
     999901    1    3    3    0    0 -0.24688940416E-01  0.10692742109E+00  0.92621599405E-01  0.89163993733E+00  0.88000000000E+00 0.  1.
        -11    1    4    4    0    0  0.12973022530E-01 -0.83066765457E-01 -0.78142621923E-01  0.11478204267E+00  0.51100000000E-03 0. -1.
         11    1    4    4    0    0 -0.51333414794E-02 -0.80420797653E-02 -0.10251189120E-01  0.14013359379E-01  0.51100000000E-03 0.  1.
</event>
<event>
 8    1  0.1161271E+005  0.1043930E+01  0.7957747E-01            NaN
         13   -1    0    0    0    0  0.00000000000E+00  0.00000000000E+00  0.74505805969E-08  0.10566000000E+00  0.10566000000E+00 0.  1.
     999900   -1    0    0    0    0 -0.00000000000E+00 -0.00000000000E+00 -0.74505805969E-08  0.93827000000E+00  0.93827000000E+00 0.  1.
     999902    2    1    2    0    0 -0.44140848169E-02 -0.19946210400E-01 -0.12406270871E-01  0.10200291420E+01  0.10197490866E+01 0.  0.
     999903    2    3    3    0    0 -0.12059235209E+00  0.21946195727E-01  0.37711983752E-01  0.12999307372E+00  0.21256871998E-01 0.  0.
         14    1    1    2    0    0  0.44140848169E-02  0.19946210400E-01  0.12406270871E-01  0.23900857955E-01  0.00000000000E+00 0.  1.
     999901    1    3    3    0    0  0.11617826727E+00 -0.41892406127E-01 -0.50118254623E-01  0.89003606833E+00  0.88000000000E+00 0. -1.
        -11    1    4    4    0    0 -0.36358776648E-01  0.16629913998E-01  0.13072670714E-01  0.42067452021E-01  0.51100000000E-03 0.  1.
         11    1    4    4    0    0 -0.84233575440E-01  0.53162817287E-02  0.24639313038E-01  0.87925621697E-01  0.51100000000E-03 0. -1.
</event>
<event>
 8    1  0.1161271E+005  0.1043930E+01  0.7957747E-01            NaN
         13   -1    0    0    0    0  0.00000000000E+00  0.00000000000E+00  0.74505805969E-08  0.10566000000E+00  0.10566000000E+00 0.  1.
     999900   -1    0    0    0    0 -0.00000000000E+00 -0.00000000000E+00 -0.74505805969E-08  0.93827000000E+00  0.93827000000E+00 0. -1.
     999902    2    1    2    0    0 -0.63333749541E-02  0.60089258649E-02  0.22002211616E-01  0.10202590020E+01  0.10199843700E+01 0.  0.
     999903    2    3    3    0    0 -0.37348155704E-01  0.32991029720E-01 -0.11664062032E+00  0.12845645360E+00  0.20315840813E-01 0.  0.
         14    1    1    2    0    0  0.63333749541E-02 -0.60089258649E-02 -0.22002211616E-01  0.23670997959E-01  0.00000000000E+00 0. -1.
     999901    1    3    3    0    0  0.31014780750E-01 -0.26982103855E-01  0.13864283193E+00  0.89180254844E+00  0.88000000000E+00 0.  1.
        -11    1    4    4    0    0 -0.24101521902E-01  0.95190110667E-02 -0.45266553553E-01  0.52161450529E-01  0.51100000000E-03 0. -1.
         11    1    4    4    0    0 -0.13246633802E-01  0.23472018654E-01 -0.71374066764E-01  0.76295003075E-01  0.51100000000E-03 0.  1.
</event>
<event>
 8    1  0.1161271E+005  0.1043930E+01  0.7957747E-01            NaN
         13   -1    0    0    0    0  0.00000000000E+00  0.00000000000E+00  0.74505805969E-08  0.10566000000E+00  0.10566000000E+00 0.  1.
     999900   -1    0    0    0    0 -0.00000000000E+00 -0.00000000000E+00 -0.74505805969E-08  0.93827000000E+00  0.93827000000E+00 0.  1.
     999902    2    1    2    0    0 -0.15653477822E-01 -0.17382355657E-01 -0.49484477023E-02  0.10200204874E+01  0.10197402267E+01 0.  0.
     999903    2    3    3    0    0  0.41999384899E-01 -0.91609047058E-01 -0.82415914408E-01  0.13163168591E+00  0.19451271219E-01 0.  0.
         14    1    1    2    0    0  0.15653477822E-01  0.17382355657E-01  0.49484477023E-02  0.23909512558E-01  0.00000000000E+00 0.  1.
     999901    1    3    3    0    0 -0.57652862721E-01  0.74226691401E-01  0.77467466705E-01  0.88838880154E+00  0.88000000000E+00 0. -1.
        -11    1    4    4    0    0  0.95544357737E-02 -0.30040236630E-01 -0.15688847627E-01  0.35215112106E-01  0.51100000000E-03 0. -1.
         11    1    4    4    0    0  0.32444949126E-01 -0.61568810428E-01 -0.66727066781E-01  0.96416573800E-01  0.51100000000E-03 0.  1.
</event>
<event>
 8    1  0.1161271E+005  0.1043930E+01  0.7957747E-01            NaN
         13   -1    0    0    0    0  0.00000000000E+00  0.00000000000E+00  0.74505805969E-08  0.10566000000E+00  0.10566000000E+00 0.  1.
     999900   -1    0    0    0    0 -0.00000000000E+00 -0.00000000000E+00 -0.74505805969E-08  0.93827000000E+00  0.93827000000E+00 0.  1.
     999902    2    1    2    0    0 -0.13467254600E-01  0.44638694770E-02  0.17856822892E-01  0.10211230011E+01  0.10208682697E+01 0.  0.
     999903    2    3    3    0    0  0.16307745456E-01 -0.12480046505E+00  0.31818497472E-01  0.13107202096E+00  0.18065416077E-01 0.  0.
         14    1    1    2    0    0  0.13467254600E-01 -0.44638694770E-02 -0.17856822892E-01  0.22806998947E-01  0.00000000000E+00 0. -1.
     999901    1    3    3    0    0 -0.29775000056E-01  0.12926433453E+00 -0.13961674579E-01  0.89005098009E+00  0.88000000000E+00 0.  1.
        -11    1    4    4    0    0 -0.35930763468E-02 -0.32942871394E-01  0.72988560748E-02  0.33936372733E-01  0.51100000000E-03 0. -1.
         11    1    4    4    0    0  0.19900821803E-01 -0.91857593658E-01  0.24519641397E-01  0.97135648226E-01  0.51100000000E-03 0.  1.
</event>
<event>
 8    1  0.1161271E+005  0.1043930E+01  0.7957747E-01            NaN
         13   -1    0    0    0    0  0.00000000000E+00  0.00000000000E+00  0.74505805969E-08  0.10566000000E+00  0.10566000000E+00 0.  1.
     999900   -1    0    0    0    0 -0.00000000000E+00 -0.00000000000E+00 -0.74505805969E-08  0.93827000000E+00  0.93827000000E+00 0.  1.
     999902    2    1    2    0    0 -0.15287025709E-01  0.16848239232E-01  0.61829712751E-02  0.10203548976E+01  0.10200825121E+01 0.  0.
     999903    2    3    3    0    0 -0.43956128331E-01  0.41957844485E-01 -0.11459805939E+00  0.13128770828E+00  0.20276715695E-01 0.  0.
         14    1    1    2    0    0  0.15287025709E-01 -0.16848239232E-01 -0.61829712751E-02  0.23575102419E-01  0.00000000000E+00 0.  1.
     999901    1    3    3    0    0  0.28669102621E-01 -0.25109605253E-01  0.12078103066E+00  0.88906718930E+00  0.88000000000E+00 0. -1.
        -11    1    4    4    0    0 -0.27040102340E-01  0.21303965293E-01 -0.83377520518E-01  0.90205865222E-01  0.51100000000E-03 0.  1.
         11    1    4    4    0    0 -0.16916025991E-01  0.20653879193E-01 -0.31220538868E-01  0.41081843060E-01  0.51100000000E-03 0. -1.
</event>
<event>
 8    1  0.1161271E+005  0.1043930E+01  0.7957747E-01            NaN
         13   -1    0    0    0    0  0.00000000000E+00  0.00000000000E+00  0.74505805969E-08  0.10566000000E+00  0.10566000000E+00 0. -1.
     999900   -1    0    0    0    0 -0.00000000000E+00 -0.00000000000E+00 -0.74505805969E-08  0.93827000000E+00  0.93827000000E+00 0.  1.
     999902    2    1    2    0    0 -0.19974180797E-01 -0.44241035260E-02 -0.11407782158E-01  0.10205061215E+01  0.10202372596E+01 0.  0.
     999903    2    3    3    0    0 -0.29872666893E-01 -0.32598565119E-01 -0.12437462391E+00  0.13278246649E+00  0.14390749150E-01 0.  0.
         14    1    1    2    0    0  0.19974180797E-01  0.44241035260E-02  0.11407782158E-01  0.23423878506E-01  0.00000000000E+00 0. -1.
     999901    1    3    3    0    0  0.98984860960E-02  0.28174461593E-01  0.11296684175E+00  0.88772365500E+00  0.88000000000E+00 0. -1.
        -11    1    4    4    0    0 -0.14686552482E-01 -0.22492245074E-01 -0.57579964947E-01  0.63539825280E-01  0.51100000000E-03 0.  1.
         11    1    4    4    0    0 -0.15186114411E-01 -0.10106320045E-01 -0.66794658959E-01  0.69242641213E-01  0.51100000000E-03 0. -1.
</event>
<event>
 8    1  0.1161271E+005  0.1043930E+01  0.7957747E-01            NaN
         13   -1    0    0    0    0  0.00000000000E+00  0.00000000000E+00  0.74505805969E-08  0.10566000000E+00  0.10566000000E+00 0. -1.
     999900   -1    0    0    0    0 -0.00000000000E+00 -0.00000000000E+00 -0.74505805969E-08  0.93827000000E+00  0.93827000000E+00 0.  1.
     999902    2    1    2    0    0 -0.13163696952E-01  0.30509778248E-02  0.19001046753E-01  0.10206141007E+01  0.10203477404E+01 0.  0.
     999903    2    3    3    0    0 -0.97512582896E-01 -0.32378354712E-02 -0.84384558822E-01  0.13053384185E+00  0.19978555965E-01 0.  0.
         14    1    1    2    0    0  0.13163696952E-01 -0.30509778248E-02 -0.19001046753E-01  0.23315899314E-01  0.00000000000E+00 0.  1.
     999901    1    3    3    0    0  0.84348885944E-01  0.62888132960E-02  0.10338560558E+00  0.89008025884E+00  0.88000000000E+00 0.  1.
        -11    1    4    4    0    0 -0.67899615617E-01 -0.10279430522E-01 -0.64177249868E-01  0.93994707375E-01  0.51100000000E-03 0. -1.
         11    1    4    4    0    0 -0.29612967279E-01  0.70415950504E-02 -0.20207308954E-01  0.36539134473E-01  0.51100000000E-03 0.  1.
</event>
<event>
 8    1  0.1161271E+005  0.1043930E+01  0.7957747E-01            NaN
         13   -1    0    0    0    0  0.00000000000E+00  0.00000000000E+00  0.74505805969E-08  0.10566000000E+00  0.10566000000E+00 0.  1.
     999900   -1    0    0    0    0 -0.00000000000E+00 -0.00000000000E+00 -0.74505805969E-08  0.93827000000E+00  0.93827000000E+00 0.  1.
     999902    2    1    2    0    0  0.21396928992E-01  0.55737178391E-02 -0.65290490715E-02  0.10208752091E+01  0.10206148486E+01 0.  0.
     999903    2    3    3    0    0  0.96165640589E-01 -0.73864127412E-01 -0.52891953322E-01  0.13292799763E+00  0.12982837923E-01 0.  0.
         14    1    1    2    0    0 -0.21396928992E-01 -0.55737178391E-02  0.65290490715E-02  0.23054790882E-01  0.00000000000E+00 0.  1.
     999901    1    3    3    0    0 -0.74768711596E-01  0.79437845251E-01  0.46362904250E-01  0.88794721148E+00  0.88000000000E+00 0. -1.
        -11    1    4    4    0    0  0.64497256714E-01 -0.46993491610E-01 -0.28380385552E-01  0.84699420201E-01  0.51100000000E-03 0. -1.
         11    1    4    4    0    0  0.31668383875E-01 -0.26870635802E-01 -0.24511567770E-01  0.48228577433E-01  0.51100000000E-03 0.  1.
</event>
<event>
 8    1  0.1161271E+005  0.1043930E+01  0.7957747E-01            NaN
         13   -1    0    0    0    0  0.00000000000E+00  0.00000000000E+00  0.74505805969E-08  0.10566000000E+00  0.10566000000E+00 0.  1.
     999900   -1    0    0    0    0 -0.00000000000E+00 -0.00000000000E+00 -0.74505805969E-08  0.93827000000E+00  0.93827000000E+00 0.  1.
     999902    2    1    2    0    0  0.15275013401E-01  0.17200612870E-02 -0.17432357503E-01  0.10206884051E+01  0.10204237593E+01 0.  0.
     999903    2    3    3    0    0 -0.39749530118E-01 -0.11890851256E+00  0.26616992144E-01  0.12966691354E+00  0.19641402514E-01 0.  0.
         14    1    1    2    0    0 -0.15275013401E-01 -0.17200612870E-02  0.17432357503E-01  0.23241594897E-01  0.00000000000E+00 0.  1.
     999901    1    3    3    0    0  0.55024543519E-01  0.12062857385E+00 -0.44049349647E-01  0.89102149156E+00  0.88000000000E+00 0.  1.
        -11    1    4    4    0    0 -0.87472232451E-02 -0.34231343094E-01  0.16266354050E-01  0.38899282251E-01  0.51100000000E-03 0. -1.
         11    1    4    4    0    0 -0.31002306873E-01 -0.84677169467E-01  0.10350638094E-01  0.90767631292E-01  0.51100000000E-03 0.  1.
</event>
<event>
 8    1  0.1161271E+005  0.1043930E+01  0.7957747E-01            NaN
         13   -1    0    0    0    0  0.00000000000E+00  0.00000000000E+00  0.74505805969E-08  0.10566000000E+00  0.10566000000E+00 0.  1.
     999900   -1    0    0    0    0 -0.00000000000E+00 -0.00000000000E+00 -0.74505805969E-08  0.93827000000E+00  0.93827000000E+00 0.  1.
     999902    2    1    2    0    0  0.21506547857E-01 -0.11184324191E-01 -0.65551621935E-02  0.10188184318E+01  0.10185089131E+01 0.  0.
     999903    2    3    3    0    0  0.53108308235E-01 -0.11247546503E+00 -0.38989807092E-01  0.13185136773E+00  0.19833191343E-01 0.  0.
         14    1    1    2    0    0 -0.21506547857E-01  0.11184324191E-01  0.65551621935E-02  0.25111568245E-01  0.00000000000E+00 0.  1.
     999901    1    3    3    0    0 -0.31601760378E-01  0.10129114084E+00  0.32434644899E-01  0.88696706402E+00  0.88000000000E+00 0. -1.
        -11    1    4    4    0    0  0.38938570976E-01 -0.80386996519E-01 -0.18479809034E-01  0.91214286063E-01  0.51100000000E-03 0. -1.
         11    1    4    4    0    0  0.14169737260E-01 -0.32088468510E-01 -0.20509998059E-01  0.40637081670E-01  0.51100000000E-03 0.  1.
</event>
<event>
 8    1  0.1161271E+005  0.1043930E+01  0.7957747E-01            NaN
         13   -1    0    0    0    0  0.00000000000E+00  0.00000000000E+00  0.74505805969E-08  0.10566000000E+00  0.10566000000E+00 0.  1.
     999900   -1    0    0    0    0 -0.00000000000E+00 -0.00000000000E+00 -0.74505805969E-08  0.93827000000E+00  0.93827000000E+00 0.  1.
     999902    2    1    2    0    0 -0.22965170723E-01 -0.50092983743E-02 -0.14754483019E-02  0.10203785864E+01  0.10201067544E+01 0.  0.
     999903    2    3    3    0    0  0.87933877977E-01 -0.25872454260E-01  0.88209545121E-01  0.12865145976E+00  0.19196964930E-01 0.  0.
         14    1    1    2    0    0  0.22965170723E-01  0.50092983743E-02  0.14754483019E-02  0.23551413635E-01  0.00000000000E+00 0.  1.
     999901    1    3    3    0    0 -0.11089904870E+00  0.20863155885E-01 -0.89684993423E-01  0.89172712660E+00  0.88000000000E+00 0.  1.
        -11    1    4    4    0    0  0.31858205158E-01 -0.23373311115E-02  0.22243078196E-01  0.38928447198E-01  0.51100000000E-03 0.  1.
         11    1    4    4    0    0  0.56075672819E-01 -0.23535123148E-01  0.65966466925E-01  0.89723012562E-01  0.51100000000E-03 0. -1.
</event>
<event>
 8    1  0.1161271E+005  0.1043930E+01  0.7957747E-01            NaN
         13   -1    0    0    0    0  0.00000000000E+00  0.00000000000E+00  0.74505805969E-08  0.10566000000E+00  0.10566000000E+00 0.  1.
     999900   -1    0    0    0    0 -0.00000000000E+00 -0.00000000000E+00 -0.74505805969E-08  0.93827000000E+00  0.93827000000E+00 0. -1.
     999902    2    1    2    0    0  0.19588662274E-01 -0.12279236637E-01 -0.39832604697E-02  0.10204702109E+01  0.10202005144E+01 0.  0.
     999903    2    3    3    0    0 -0.93339802661E-01  0.22189295549E-01  0.83060939340E-01  0.12832806377E+00  0.19086348792E-01 0.  0.
         14    1    1    2    0    0 -0.19588662274E-01  0.12279236637E-01  0.39832604697E-02  0.23459789131E-01  0.00000000000E+00 0.  1.
     999901    1    3    3    0    0  0.11292846493E+00 -0.34468532186E-01 -0.87044199810E-01  0.89214214710E+00  0.88000000000E+00 0. -1.
        -11    1    4    4    0    0 -0.61298796061E-01  0.13713787829E-01  0.65747425949E-01  0.90931817946E-01  0.51100000000E-03 0.  1.
         11    1    4    4    0    0 -0.32041006600E-01  0.84755077195E-02  0.17313513391E-01  0.37396245828E-01  0.51100000000E-03 0. -1.
</event>
<event>
 8    1  0.1161271E+005  0.1043930E+01  0.7957747E-01            NaN
         13   -1    0    0    0    0  0.00000000000E+00  0.00000000000E+00  0.74505805969E-08  0.10566000000E+00  0.10566000000E+00 0. -1.
     999900   -1    0    0    0    0 -0.00000000000E+00 -0.00000000000E+00 -0.74505805969E-08  0.93827000000E+00  0.93827000000E+00 0.  1.
     999902    2    1    2    0    0  0.78163111446E-03 -0.45809125548E-02 -0.23260943488E-01  0.10202093929E+01  0.10199335950E+01 0.  0.
     999903    2    3    3    0    0 -0.92459183469E-01 -0.58349419320E-01 -0.71798534417E-01  0.13232381498E+00  0.20030155369E-01 0.  0.
         14    1    1    2    0    0 -0.78163111446E-03  0.45809125548E-02  0.23260943488E-01  0.23720607054E-01  0.00000000000E+00 0. -1.
     999901    1    3    3    0    0  0.93240814584E-01  0.53768506766E-01  0.48537590928E-01  0.88788557796E+00  0.88000000000E+00 0. -1.
        -11    1    4    4    0    0 -0.76557452750E-01 -0.54280695671E-01 -0.66669248066E-01  0.11511944776E+00  0.51100000000E-03 0. -1.
         11    1    4    4    0    0 -0.15901730719E-01 -0.40687236497E-02 -0.51292863508E-02  0.17204367221E-01  0.51100000000E-03 0.  1.
</event>
<event>
 8    1  0.1161271E+005  0.1043930E+01  0.7957747E-01            NaN
         13   -1    0    0    0    0  0.00000000000E+00  0.00000000000E+00  0.74505805969E-08  0.10566000000E+00  0.10566000000E+00 0.  1.
     999900   -1    0    0    0    0 -0.00000000000E+00 -0.00000000000E+00 -0.74505805969E-08  0.93827000000E+00  0.93827000000E+00 0. -1.
     999902    2    1    2    0    0 -0.15436470420E-01  0.13846390738E-01  0.11643636514E-01  0.10201480441E+01  0.10198708009E+01 0.  0.
     999903    2    3    3    0    0  0.36494947095E-01  0.11180430158E+00  0.52320172813E-01  0.13225885899E+00  0.30379635982E-01 0.  0.
         14    1    1    2    0    0  0.15436470420E-01 -0.13846390738E-01 -0.11643636514E-01  0.23781955907E-01  0.00000000000E+00 0. -1.
     999901    1    3    3    0    0 -0.51931417514E-01 -0.97957910842E-01 -0.40676536298E-01  0.88788918511E+00  0.88000000000E+00 0. -1.
        -11    1    4    4    0    0  0.10718523937E-01  0.61140488890E-01  0.13799204654E-01  0.63590292555E-01  0.51100000000E-03 0. -1.
         11    1    4    4    0    0  0.25776423158E-01  0.50663812690E-01  0.38520968159E-01  0.68668566433E-01  0.51100000000E-03 0.  1.
</event>
<event>
 8    1  0.1161271E+005  0.1043930E+01  0.7957747E-01            NaN
         13   -1    0    0    0    0  0.00000000000E+00  0.00000000000E+00  0.74505805969E-08  0.10566000000E+00  0.10566000000E+00 0.  1.
     999900   -1    0    0    0    0 -0.00000000000E+00 -0.00000000000E+00 -0.74505805969E-08  0.93827000000E+00  0.93827000000E+00 0. -1.
     999902    2    1    2    0    0 -0.22975587137E-01  0.59138871550E-02 -0.48470431615E-02  0.10197154281E+01  0.10194278831E+01 0.  0.
     999903    2    3    3    0    0 -0.12473077737E+00 -0.39009228968E-01  0.10678169644E-01  0.13257776271E+00  0.19579404753E-01 0.  0.
         14    1    1    2    0    0  0.22975587137E-01 -0.59138871550E-02  0.48470431615E-02  0.24214571914E-01  0.00000000000E+00 0.  1.
     999901    1    3    3    0    0  0.10175519023E+00  0.44923116123E-01 -0.15525212805E-01  0.88713766538E+00  0.88000000000E+00 0. -1.
        -11    1    4    4    0    0 -0.73453204892E-01 -0.32172345089E-01  0.10233861470E-01  0.80841982528E-01  0.51100000000E-03 0. -1.
         11    1    4    4    0    0 -0.51277572474E-01 -0.68368838784E-02  0.44430817351E-03  0.51735780179E-01  0.51100000000E-03 0.  1.
</event>
<event>
 8    1  0.1161271E+005  0.1043930E+01  0.7957747E-01            NaN
         13   -1    0    0    0    0  0.00000000000E+00  0.00000000000E+00  0.74505805969E-08  0.10566000000E+00  0.10566000000E+00 0. -1.
     999900   -1    0    0    0    0 -0.00000000000E+00 -0.00000000000E+00 -0.74505805969E-08  0.93827000000E+00  0.93827000000E+00 0.  1.
     999902    2    1    2    0    0  0.12109120772E-01  0.14973659162E-01  0.15152219205E-01  0.10194263060E+01  0.10191317688E+01 0.  0.
     999903    2    3    3    0    0 -0.72481907488E-01  0.49359426359E-01 -0.91426193983E-01  0.12830511263E+00  0.20334037912E-01 0.  0.
         14    1    1    2    0    0 -0.12109120772E-01 -0.14973659162E-01 -0.15152219205E-01  0.24503694036E-01  0.00000000000E+00 0.  1.
     999901    1    3    3    0    0  0.84591028259E-01 -0.34385767198E-01  0.10657841319E+00  0.89112119333E+00  0.88000000000E+00 0. -1.
        -11    1    4    4    0    0 -0.46283677059E-02  0.29696925362E-02 -0.22310144973E-03  0.55273643482E-02  0.51100000000E-03 0.  1.
         11    1    4    4    0    0 -0.67853539782E-01  0.46389733823E-01 -0.91203092533E-01  0.12277774828E+00  0.51100000000E-03 0. -1.
</event>
<event>
 8    1  0.1161271E+005  0.1043930E+01  0.7957747E-01            NaN
         13   -1    0    0    0    0  0.00000000000E+00  0.00000000000E+00  0.74505805969E-08  0.10566000000E+00  0.10566000000E+00 0. -1.
     999900   -1    0    0    0    0 -0.00000000000E+00 -0.00000000000E+00 -0.74505805969E-08  0.93827000000E+00  0.93827000000E+00 0. -1.
     999902    2    1    2    0    0 -0.65632964802E-02  0.20575007388E-01 -0.99240409740E-02  0.10201624932E+01  0.10198855907E+01 0.  0.
     999903    2    3    3    0    0  0.63074646878E-01  0.92977207067E-01 -0.67609899387E-01  0.13257070644E+00  0.19512088546E-01 0.  0.
         14    1    1    2    0    0  0.65632964802E-02 -0.20575007388E-01  0.99240409740E-02  0.23767506789E-01  0.00000000000E+00 0. -1.
     999901    1    3    3    0    0 -0.69637943359E-01 -0.72402199679E-01  0.57685858413E-01  0.88759178677E+00  0.88000000000E+00 0. -1.
        -11    1    4    4    0    0  0.42750048784E-01  0.45944634340E-01 -0.38886766242E-01  0.73830331202E-01  0.51100000000E-03 0.  1.
         11    1    4    4    0    0  0.20324598095E-01  0.47032572727E-01 -0.28723133145E-01  0.58740375243E-01  0.51100000000E-03 0. -1.
</event>
<event>
 8    1  0.1161271E+005  0.1043930E+01  0.7957747E-01            NaN
         13   -1    0    0    0    0  0.00000000000E+00  0.00000000000E+00  0.74505805969E-08  0.10566000000E+00  0.10566000000E+00 0. -1.
     999900   -1    0    0    0    0 -0.00000000000E+00 -0.00000000000E+00 -0.74505805969E-08  0.93827000000E+00  0.93827000000E+00 0.  1.
     999902    2    1    2    0    0  0.87978651532E-02  0.93605121143E-02 -0.18810752019E-01  0.10211513694E+01  0.10208972785E+01 0.  0.
     999903    2    3    3    0    0  0.97277445723E-02 -0.38380105530E-01 -0.12674089437E+00  0.13327246618E+00  0.11429541533E-01 0.  0.
         14    1    1    2    0    0 -0.87978651532E-02 -0.93605121143E-02  0.18810752019E-01  0.22778630552E-01  0.00000000000E+00 0.  1.
     999901    1    3    3    0    0 -0.92987941908E-03  0.47740617644E-01  0.10793014235E+00  0.88787890327E+00  0.88000000000E+00 0. -1.
        -11    1    4    4    0    0  0.62071389516E-02 -0.17074891305E-01 -0.75657856745E-01  0.77810364960E-01  0.51100000000E-03 0.  1.
         11    1    4    4    0    0  0.35206056207E-02 -0.21305214225E-01 -0.51083037626E-01  0.55462101215E-01  0.51100000000E-03 0. -1.
</event>
<event>
 8    1  0.1161271E+005  0.1043930E+01  0.7957747E-01            NaN
         13   -1    0    0    0    0  0.00000000000E+00  0.00000000000E+00  0.74505805969E-08  0.10566000000E+00  0.10566000000E+00 0. -1.
     999900   -1    0    0    0    0 -0.00000000000E+00 -0.00000000000E+00 -0.74505805969E-08  0.93827000000E+00  0.93827000000E+00 0.  1.
     999902    2    1    2    0    0 -0.13551649689E-02 -0.21185561815E-01 -0.11183729531E-01  0.10199354109E+01  0.10196531283E+01 0.  0.
     999903    2    3    3    0    0 -0.46191655599E-02  0.12144478069E+00  0.32637558652E-01  0.12736923763E+00  0.19686061372E-01 0.  0.
         14    1    1    2    0    0  0.13551649689E-02  0.21185561815E-01  0.11183729531E-01  0.23994589134E-01  0.00000000000E+00 0. -1.
     999901    1    3    3    0    0  0.32640005910E-02 -0.14263034251E+00 -0.43821288183E-01  0.89256617323E+00  0.88000000000E+00 0.  1.
        -11    1    4    4    0    0 -0.66808061320E-02  0.31161906404E-01  0.15526448021E-01  0.35454608875E-01  0.51100000000E-03 0.  1.
         11    1    4    4    0    0  0.20616405721E-02  0.90282874288E-01  0.17111110631E-01  0.91914628757E-01  0.51100000000E-03 0. -1.
</event>
<event>
 8    1  0.1161271E+005  0.1043930E+01  0.7957747E-01            NaN
         13   -1    0    0    0    0  0.00000000000E+00  0.00000000000E+00  0.74505805969E-08  0.10566000000E+00  0.10566000000E+00 0.  1.
     999900   -1    0    0    0    0 -0.00000000000E+00 -0.00000000000E+00 -0.74505805969E-08  0.93827000000E+00  0.93827000000E+00 0. -1.
     999902    2    1    2    0    0  0.17413454416E-01 -0.95560111634E-02 -0.13128504390E-01  0.10201202673E+01  0.10198423684E+01 0.  0.
     999903    2    3    3    0    0  0.11141448183E+00  0.65575155077E-01  0.59371453160E-02  0.13172599430E+00  0.24560133403E-01 0.  0.
         14    1    1    2    0    0 -0.17413454416E-01  0.95560111634E-02  0.13128504390E-01  0.23809732707E-01  0.00000000000E+00 0.  1.
     999901    1    3    3    0    0 -0.94001027419E-01 -0.75131166240E-01 -0.19065649706E-01  0.88839427300E+00  0.88000000000E+00 0. -1.
        -11    1    4    4    0    0  0.58357486024E-01  0.46671818824E-01  0.92784423489E-02  0.75300766668E-01  0.51100000000E-03 0.  1.
         11    1    4    4    0    0  0.53056995811E-01  0.18903336253E-01 -0.33412970329E-02  0.56425227628E-01  0.51100000000E-03 0. -1.
</event>
<event>
 8    1  0.1161271E+005  0.1043930E+01  0.7957747E-01            NaN
         13   -1    0    0    0    0  0.00000000000E+00  0.00000000000E+00  0.74505805969E-08  0.10566000000E+00  0.10566000000E+00 0.  1.
     999900   -1    0    0    0    0 -0.00000000000E+00 -0.00000000000E+00 -0.74505805969E-08  0.93827000000E+00  0.93827000000E+00 0.  1.
     999902    2    1    2    0    0  0.85669882301E-02 -0.21383734751E-01 -0.55714930925E-02  0.10202298115E+01  0.10199544938E+01 0.  0.
     999903    2    3    3    0    0  0.16379888281E-01  0.11843887795E+00  0.42218997850E-01  0.12787599409E+00  0.16545619854E-01 0.  0.
         14    1    1    2    0    0 -0.85669882301E-02  0.21383734751E-01  0.55714930925E-02  0.23700188491E-01  0.00000000000E+00 0.  1.
     999901    1    3    3    0    0 -0.78129000507E-02 -0.13982261270E+00 -0.47790490943E-01  0.89235381741E+00  0.88000000000E+00 0.  1.
        -11    1    4    4    0    0  0.76893302674E-02  0.46519980732E-01  0.82768971310E-02  0.47874863492E-01  0.51100000000E-03 0.  1.
         11    1    4    4    0    0  0.86905580135E-02  0.71918897217E-01  0.33942100719E-01  0.80001130603E-01  0.51100000000E-03 0. -1.
</event>
<event>
 8    1  0.1161271E+005  0.1043930E+01  0.7957747E-01            NaN
         13   -1    0    0    0    0  0.00000000000E+00  0.00000000000E+00  0.74505805969E-08  0.10566000000E+00  0.10566000000E+00 0.  1.
     999900   -1    0    0    0    0 -0.00000000000E+00 -0.00000000000E+00 -0.74505805969E-08  0.93827000000E+00  0.93827000000E+00 0.  1.
     999902    2    1    2    0    0  0.15248160644E-01  0.14412678365E-01 -0.78397308794E-02  0.10215314938E+01  0.10212859050E+01 0.  0.
     999903    2    3    3    0    0 -0.42382168919E-01 -0.77140911481E-01  0.92297858156E-01  0.12926984413E+00  0.21090981825E-01 0.  0.
         14    1    1    2    0    0 -0.15248160644E-01 -0.14412678365E-01  0.78397308794E-02  0.22398506221E-01  0.00000000000E+00 0.  1.
     999901    1    3    3    0    0  0.57630329563E-01  0.91553589847E-01 -0.10013758904E+00  0.89226164965E+00  0.88000000000E+00 0.  1.
        -11    1    4    4    0    0 -0.72312660488E-02 -0.78470761891E-02  0.22135708932E-01  0.24578823087E-01  0.51100000000E-03 0. -1.
         11    1    4    4    0    0 -0.35150902871E-01 -0.69293835292E-01  0.70162149224E-01  0.10469102104E+00  0.51100000000E-03 0.  1.
</event>
<event>
 8    1  0.1186524E+005  0.1043930E+01  0.7957747E-01            NaN
         13   -1    0    0    0    0  0.00000000000E+00  0.00000000000E+00  0.74505805969E-08  0.10566000000E+00  0.10566000000E+00 0.  1.
     999900   -1    0    0    0    0 -0.00000000000E+00 -0.00000000000E+00 -0.74505805969E-08  0.93827000000E+00  0.93827000000E+00 0.  1.
     999902    2    1    2    0    0 -0.53706590352E-02 -0.80863351285E-02  0.21841324029E-01  0.10200286145E+01  0.10197485465E+01 0.  0.
     999903    2    3    3    0    0 -0.10848227361E+00 -0.37686738757E-01  0.62715370919E-01  0.13257220617E+00  0.21295026030E-01 0.  0.
         14    1    1    2    0    0  0.53706590352E-02  0.80863351285E-02 -0.21841324029E-01  0.23901385517E-01  0.00000000000E+00 0. -1.
     999901    1    3    3    0    0  0.10311161457E+00  0.29600403628E-01 -0.40874046890E-01  0.88745640832E+00  0.88000000000E+00 0.  1.
        -11    1    4    4    0    0 -0.29686134578E-01 -0.19960930901E-01  0.23354555475E-01  0.42724720374E-01  0.51100000000E-03 0. -1.
         11    1    4    4    0    0 -0.78796139027E-01 -0.17725807856E-01  0.39360815444E-01  0.89847485792E-01  0.51100000000E-03 0.  1.
</event>
<event>
 8    1  0.1161271E+005  0.1043930E+01  0.7957747E-01            NaN
         13   -1    0    0    0    0  0.00000000000E+00  0.00000000000E+00  0.74505805969E-08  0.10566000000E+00  0.10566000000E+00 0. -1.
     999900   -1    0    0    0    0 -0.00000000000E+00 -0.00000000000E+00 -0.74505805969E-08  0.93827000000E+00  0.93827000000E+00 0. -1.
     999902    2    1    2    0    0  0.24376796310E-01 -0.38373938438E-02  0.10733940638E-02  0.10192296768E+01  0.10189303353E+01 0.  0.
     999903    2    3    3    0    0  0.62484354297E-01  0.11278000901E+00 -0.12107323642E-01  0.13062091256E+00  0.17076608159E-01 0.  0.
         14    1    1    2    0    0 -0.24376796310E-01  0.38373938438E-02 -0.10733940638E-02  0.24700323169E-01  0.00000000000E+00 0.  1.
     999901    1    3    3    0    0 -0.38107557988E-01 -0.11661740286E+00  0.13180717706E-01  0.88860876427E+00  0.88000000000E+00 0.  1.
        -11    1    4    4    0    0  0.30314935866E-01  0.71916736104E-01 -0.68353247541E-02  0.78345357577E-01  0.51100000000E-03 0.  1.
         11    1    4    4    0    0  0.32169418432E-01  0.40863272910E-01 -0.52719988877E-02  0.52275554979E-01  0.51100000000E-03 0. -1.
</event>
<event>
 8    1  0.1217009E+005  0.1043930E+01  0.7957747E-01            NaN
         13   -1    0    0    0    0  0.00000000000E+00  0.00000000000E+00  0.74505805969E-08  0.10566000000E+00  0.10566000000E+00 0. -1.
     999900   -1    0    0    0    0 -0.00000000000E+00 -0.00000000000E+00 -0.74505805969E-08  0.93827000000E+00  0.93827000000E+00 0. -1.
     999902    2    1    2    0    0 -0.40720116160E-02 -0.92056991317E-02  0.21253018783E-01  0.10204136869E+01  0.10201426740E+01 0.  0.
     999903    2    3    3    0    0  0.96369750472E-01  0.77889298240E-01  0.37006432742E-01  0.13028883261E+00  0.15869223473E-01 0.  0.
         14    1    1    2    0    0  0.40720116160E-02  0.92056991317E-02 -0.21253018783E-01  0.23516313115E-01  0.00000000000E+00 0.  1.
     999901    1    3    3    0    0 -0.10044176209E+00 -0.87094997372E-01 -0.15753413959E-01  0.89012485427E+00  0.88000000000E+00 0. -1.
        -11    1    4    4    0    0  0.49396969930E-01  0.49637347053E-01  0.18498068029E-01  0.72431805876E-01  0.51100000000E-03 0. -1.
         11    1    4    4    0    0  0.46972780542E-01  0.28251951187E-01  0.18508364713E-01  0.57857026739E-01  0.51100000000E-03 0.  1.
</event>
<event>
 8    1  0.1161271E+005  0.1043930E+01  0.7957747E-01            NaN
         13   -1    0    0    0    0  0.00000000000E+00  0.00000000000E+00  0.74505805969E-08  0.10566000000E+00  0.10566000000E+00 0. -1.
     999900   -1    0    0    0    0 -0.00000000000E+00 -0.00000000000E+00 -0.74505805969E-08  0.93827000000E+00  0.93827000000E+00 0.  1.
     999902    2    1    2    0    0 -0.21515375395E-02  0.24096213922E-01  0.28112428526E-01  0.10068413862E+01  0.10061580450E+01 0.  0.
     999903    2    3    3    0    0  0.47959205476E-01  0.15751695156E-01 -0.10215375999E+00  0.11580266790E+00  0.20655893179E-01 0.  0.
         14    1    1    2    0    0  0.21515375395E-02 -0.24096213922E-01 -0.28112428526E-01  0.37088613843E-01  0.00000000000E+00 0.  1.
     999901    1    3    3    0    0 -0.50110743016E-01  0.83445187663E-02  0.13026618852E+00  0.89103871825E+00  0.88000000000E+00 0. -1.
        -11    1    4    4    0    0  0.48454310843E-01  0.11071131074E-01 -0.91105543803E-01  0.10378280886E+00  0.51100000000E-03 0. -1.
         11    1    4    4    0    0 -0.49510536676E-03  0.46805640822E-02 -0.11048216187E-01  0.12019859041E-01  0.51100000000E-03 0.  1.
</event>
<event>
 8    1  0.1161271E+005  0.1043930E+01  0.7957747E-01            NaN
         13   -1    0    0    0    0  0.00000000000E+00  0.00000000000E+00  0.74505805969E-08  0.10566000000E+00  0.10566000000E+00 0. -1.
     999900   -1    0    0    0    0 -0.00000000000E+00 -0.00000000000E+00 -0.74505805969E-08  0.93827000000E+00  0.93827000000E+00 0.  1.
     999902    2    1    2    0    0 -0.13915675635E-01  0.17607683674E-01 -0.12110023264E-01  0.10184284468E+01  0.10181091160E+01 0.  0.
     999903    2    3    3    0    0  0.17008205613E-01  0.10405615224E+00  0.72627381019E-01  0.12960335048E+00  0.20132811635E-01 0.  0.
         14    1    1    2    0    0  0.13915675635E-01 -0.17607683674E-01  0.12110023264E-01  0.25501553212E-01  0.00000000000E+00 0. -1.
     999901    1    3    3    0    0 -0.30923881248E-01 -0.86448468564E-01 -0.84737404284E-01  0.88882509631E+00  0.88000000000E+00 0.  1.
        -11    1    4    4    0    0  0.84212526317E-02  0.81595278020E-01  0.64028608459E-01  0.10406070687E+00  0.51100000000E-03 0. -1.
         11    1    4    4    0    0  0.85869529815E-02  0.22460874217E-01  0.85987725604E-02  0.25542643611E-01  0.51100000000E-03 0.  1.
</event>
<event>
 8    1  0.1161271E+005  0.1043930E+01  0.7957747E-01            NaN
         13   -1    0    0    0    0  0.00000000000E+00  0.00000000000E+00  0.74505805969E-08  0.10566000000E+00  0.10566000000E+00 0.  1.
     999900   -1    0    0    0    0 -0.00000000000E+00 -0.00000000000E+00 -0.74505805969E-08  0.93827000000E+00  0.93827000000E+00 0.  1.
     999902    2    1    2    0    0  0.20769405162E-01  0.57353324549E-02  0.96569545473E-02  0.10203181597E+01  0.10200449147E+01 0.  0.
     999903    2    3    3    0    0  0.19388839753E-01  0.10024235312E+00 -0.79168094568E-01  0.13081078357E+00  0.20479683480E-01 0.  0.
         14    1    1    2    0    0 -0.20769405162E-01 -0.57353324549E-02 -0.96569545473E-02  0.23611840256E-01  0.00000000000E+00 0.  1.
     999901    1    3    3    0    0  0.13805654086E-02 -0.94507020663E-01  0.88825049115E-01  0.88950737617E+00  0.88000000000E+00 0.  1.
        -11    1    4    4    0    0  0.16856329192E-01  0.98132380195E-01 -0.71909370295E-01  0.12282230471E+00  0.51100000000E-03 0. -1.
         11    1    4    4    0    0  0.25325105615E-02  0.21099729231E-02 -0.72587242732E-02  0.79884788636E-02  0.51100000000E-03 0.  1.
</event>
<event>
 8    1  0.1161271E+005  0.1043930E+01  0.7957747E-01            NaN
         13   -1    0    0    0    0  0.00000000000E+00  0.00000000000E+00  0.74505805969E-08  0.10566000000E+00  0.10566000000E+00 0.  1.
     999900   -1    0    0    0    0 -0.00000000000E+00 -0.00000000000E+00 -0.74505805969E-08  0.93827000000E+00  0.93827000000E+00 0. -1.
     999902    2    1    2    0    0  0.20559108667E-01  0.92880843567E-02 -0.60314213089E-02  0.10205778373E+01  0.10203106382E+01 0.  0.
     999903    2    3    3    0    0 -0.92842067677E-01 -0.41293289340E-01  0.75507186784E-01  0.12812792454E+00  0.19764729082E-01 0.  0.
         14    1    1    2    0    0 -0.20559108667E-01 -0.92880843567E-02  0.60314213089E-02  0.23352162709E-01  0.00000000000E+00 0. -1.
     999901    1    3    3    0    0  0.11340117634E+00  0.50581373696E-01 -0.81538608093E-01  0.89244991275E+00  0.88000000000E+00 0. -1.
        -11    1    4    4    0    0 -0.30377120975E-01 -0.43126294159E-02  0.26463588084E-01  0.40520992911E-01  0.51100000000E-03 0.  1.
         11    1    4    4    0    0 -0.62464946702E-01 -0.36980659924E-01  0.49043598700E-01  0.87606931628E-01  0.51100000000E-03 0. -1.
</event>
<event>
 8    1  0.1161271E+005  0.1043930E+01  0.7957747E-01            NaN
         13   -1    0    0    0    0  0.00000000000E+00  0.00000000000E+00  0.74505805969E-08  0.10566000000E+00  0.10566000000E+00 0.  1.
     999900   -1    0    0    0    0 -0.00000000000E+00 -0.00000000000E+00 -0.74505805969E-08  0.93827000000E+00  0.93827000000E+00 0.  1.
     999902    2    1    2    0    0 -0.14546338316E-01  0.13346743623E-01 -0.13404385600E-01  0.10200677060E+01  0.10197885642E+01 0.  0.
     999903    2    3    3    0    0  0.86716424339E-01  0.95070673216E-01  0.38087901367E-02  0.13033221650E+00  0.20342286521E-01 0.  0.
         14    1    1    2    0    0  0.14546338316E-01 -0.13346743623E-01  0.13404385600E-01  0.23862294045E-01  0.00000000000E+00 0.  1.
     999901    1    3    3    0    0 -0.10126276266E+00 -0.81723929593E-01 -0.17213175737E-01  0.88973548945E+00  0.88000000000E+00 0.  1.
        -11    1    4    4    0    0  0.44992400969E-01  0.34457374803E-01  0.26533178637E-02  0.56735597643E-01  0.51100000000E-03 0.  1.
         11    1    4    4    0    0  0.41724023370E-01  0.60613298413E-01  0.11554722730E-02  0.73596618862E-01  0.51100000000E-03 0. -1.
</event>
<event>
 8    1  0.1161271E+005  0.1043930E+01  0.7957747E-01            NaN
         13   -1    0    0    0    0  0.00000000000E+00  0.00000000000E+00  0.74505805969E-08  0.10566000000E+00  0.10566000000E+00 0.  1.
     999900   -1    0    0    0    0 -0.00000000000E+00 -0.00000000000E+00 -0.74505805969E-08  0.93827000000E+00  0.93827000000E+00 0. -1.
     999902    2    1    2    0    0  0.18143244070E-01 -0.33410871127E-02 -0.15536602550E-01  0.10198109995E+01  0.10195257468E+01 0.  0.
     999903    2    3    3    0    0 -0.26235784868E-01 -0.95431223602E-01 -0.83817519341E-01  0.13126591053E+00  0.20246675628E-01 0.  0.
         14    1    1    2    0    0 -0.18143244070E-01  0.33410871127E-02  0.15536602550E-01  0.24119000545E-01  0.00000000000E+00 0. -1.
     999901    1    3    3    0    0  0.44379028938E-01  0.92090136490E-01  0.68280916791E-01  0.88854508892E+00  0.88000000000E+00 0.  1.
        -11    1    4    4    0    0 -0.16626465757E-01 -0.58426335634E-01 -0.38273147917E-01  0.71799519718E-01  0.51100000000E-03 0. -1.
         11    1    4    4    0    0 -0.96093191107E-02 -0.37004887968E-01 -0.45544371424E-01  0.59466390816E-01  0.51100000000E-03 0.  1.
</event>
<event>
 8    1  0.1161271E+005  0.1043930E+01  0.7957747E-01            NaN
         13   -1    0    0    0    0  0.00000000000E+00  0.00000000000E+00  0.74505805969E-08  0.10566000000E+00  0.10566000000E+00 0. -1.
     999900   -1    0    0    0    0 -0.00000000000E+00 -0.00000000000E+00 -0.74505805969E-08  0.93827000000E+00  0.93827000000E+00 0.  1.
     999902    2    1    2    0    0 -0.78493083157E-02 -0.21680678134E-01 -0.46864962513E-02  0.10204007269E+01  0.10201294118E+01 0.  0.
     999903    2    3    3    0    0 -0.68783823936E-01  0.10055702305E+00 -0.38225397699E-01  0.12923299370E+00  0.19926271922E-01 0.  0.
         14    1    1    2    0    0  0.78493083157E-02  0.21680678134E-01  0.46864962513E-02  0.23529273098E-01  0.00000000000E+00 0.  1.
     999901    1    3    3    0    0  0.60934515620E-01 -0.12223770118E+00  0.33538901448E-01  0.89116773320E+00  0.88000000000E+00 0. -1.
        -11    1    4    4    0    0 -0.47164582599E-01  0.82716259665E-01 -0.26442763175E-01  0.98822863296E-01  0.51100000000E-03 0.  1.
         11    1    4    4    0    0 -0.21619241337E-01  0.17840763384E-01 -0.11782634524E-01  0.30410130408E-01  0.51100000000E-03 0. -1.
</event>
<event>
 8    1  0.1161271E+005  0.1043930E+01  0.7957747E-01            NaN
         13   -1    0    0    0    0  0.00000000000E+00  0.00000000000E+00  0.74505805969E-08  0.10566000000E+00  0.10566000000E+00 0. -1.
     999900   -1    0    0    0    0 -0.00000000000E+00 -0.00000000000E+00 -0.74505805969E-08  0.93827000000E+00  0.93827000000E+00 0. -1.
     999902    2    1    2    0    0 -0.53355368999E-02  0.97127604023E-02  0.14443992983E-01  0.10257246546E+01  0.10255630807E+01 0.  0.
     999903    2    3    3    0    0  0.15637714285E-01  0.47890357581E-03 -0.13080435907E+00  0.13352387832E+00  0.21773338597E-01 0.  0.
         14    1    1    2    0    0  0.53355368999E-02 -0.97127604023E-02 -0.14443992983E-01  0.18205345422E-01  0.00000000000E+00 0.  1.
     999901    1    3    3    0    0 -0.20973251185E-01  0.92338568265E-02  0.14524835205E+00  0.89220077626E+00  0.88000000000E+00 0.  1.
        -11    1    4    4    0    0 -0.18378232010E-02 -0.73305122118E-02 -0.42160277203E-01  0.42835313682E-01  0.51100000000E-03 0. -1.
         11    1    4    4    0    0  0.17475537486E-01  0.78094157876E-02 -0.88644081867E-01  0.90688564640E-01  0.51100000000E-03 0.  1.
</event>
<event>
 8    1  0.1327248E+005  0.1043930E+01  0.7957747E-01            NaN
         13   -1    0    0    0    0  0.00000000000E+00  0.00000000000E+00  0.74505805969E-08  0.10566000000E+00  0.10566000000E+00 0.  1.
     999900   -1    0    0    0    0 -0.00000000000E+00 -0.00000000000E+00 -0.74505805969E-08  0.93827000000E+00  0.93827000000E+00 0.  1.
     999902    2    1    2    0    0  0.14734312417E-01  0.97543739826E-03  0.20654068676E-01  0.10185401990E+01  0.10182236960E+01 0.  0.
     999903    2    3    3    0    0  0.97789449232E-01  0.19727895803E-01  0.84154289010E-01  0.13215310050E+00  0.20749249626E-01 0.  0.
         14    1    1    2    0    0 -0.14734312417E-01 -0.97543739826E-03 -0.20654068676E-01  0.25389800972E-01  0.00000000000E+00 0. -1.
     999901    1    3    3    0    0 -0.83055136816E-01 -0.18752458405E-01 -0.63500220334E-01  0.88638709852E+00  0.88000000000E+00 0.  1.
        -11    1    4    4    0    0  0.69884114934E-01  0.19103087839E-01  0.70443991091E-01  0.10105114788E+00  0.51100000000E-03 0. -1.
         11    1    4    4    0    0  0.27905334298E-01  0.62480796367E-03  0.13710297919E-01  0.31101952629E-01  0.51100000000E-03 0.  1.
</event>
<event>
 8    1  0.1319133E+005  0.1043930E+01  0.7957747E-01            NaN
         13   -1    0    0    0    0  0.00000000000E+00  0.00000000000E+00  0.74505805969E-08  0.10566000000E+00  0.10566000000E+00 0. -1.
     999900   -1    0    0    0    0 -0.00000000000E+00 -0.00000000000E+00 -0.74505805969E-08  0.93827000000E+00  0.93827000000E+00 0.  1.
     999902    2    1    2    0    0 -0.31584281625E-02 -0.11192470951E-01 -0.20124914119E-01  0.10206865226E+01  0.10204218334E+01 0.  0.
     999903    2    3    3    0    0 -0.70210508825E-02 -0.34834697082E-02 -0.13148448574E+00  0.13362660197E+00  0.22504867201E-01 0.  0.
         14    1    1    2    0    0  0.31584281625E-02  0.11192470951E-01  0.20124914119E-01  0.23243477424E-01  0.00000000000E+00 0.  1.
     999901    1    3    3    0    0  0.38626227199E-02 -0.77090012431E-02  0.11135957162E+00  0.88705992061E+00  0.88000000000E+00 0. -1.
        -11    1    4    4    0    0  0.54072656964E-02 -0.84425456259E-02 -0.68733646782E-01  0.69462870801E-01  0.51100000000E-03 0.  1.
         11    1    4    4    0    0 -0.12428316579E-01  0.49590759178E-02 -0.62750838956E-01  0.64163731170E-01  0.51100000000E-03 0. -1.
</event>
<event>
 8    1  0.1161271E+005  0.1043930E+01  0.7957747E-01            NaN
         13   -1    0    0    0    0  0.00000000000E+00  0.00000000000E+00  0.74505805969E-08  0.10566000000E+00  0.10566000000E+00 0.  1.
     999900   -1    0    0    0    0 -0.00000000000E+00 -0.00000000000E+00 -0.74505805969E-08  0.93827000000E+00  0.93827000000E+00 0.  1.
     999902    2    1    2    0    0  0.41134060646E-02  0.18866412274E-01  0.13891009962E-01  0.10201429914E+01  0.10198656289E+01 0.  0.
     999903    2    3    3    0    0  0.11065319181E+00  0.36317128515E-01  0.59648492575E-01  0.13236542877E+00  0.19990032161E-01 0.  0.
         14    1    1    2    0    0 -0.41134060646E-02 -0.18866412274E-01 -0.13891009962E-01  0.23787008624E-01  0.00000000000E+00 0. -1.
     999901    1    3    3    0    0 -0.10653978575E+00 -0.17450716242E-01 -0.45757482613E-01  0.88777756260E+00  0.88000000000E+00 0.  1.
        -11    1    4    4    0    0  0.54918975698E-01  0.85977818988E-02  0.23254147956E-01  0.60258047293E-01  0.51100000000E-03 0. -1.
         11    1    4    4    0    0  0.55734216115E-01  0.27719346617E-01  0.36394344619E-01  0.72107381481E-01  0.51100000000E-03 0.  1.
</event>
<event>
 8    1  0.1161271E+005  0.1043930E+01  0.7957747E-01            NaN
         13   -1    0    0    0    0  0.00000000000E+00  0.00000000000E+00  0.74505805969E-08  0.10566000000E+00  0.10566000000E+00 0.  1.
     999900   -1    0    0    0    0 -0.00000000000E+00 -0.00000000000E+00 -0.74505805969E-08  0.93827000000E+00  0.93827000000E+00 0. -1.
     999902    2    1    2    0    0  0.11851380070E-01 -0.97826530548E-02 -0.14672579625E-01  0.10226828801E+01  0.10224621427E+01 0.  0.
     999903    2    3    3    0    0  0.32636084266E-01 -0.15748599471E-01  0.12478304930E+00  0.13143910377E+00  0.19806469268E-01 0.  0.
         14    1    1    2    0    0 -0.11851380070E-01  0.97826530548E-02  0.14672579625E-01  0.21247119880E-01  0.00000000000E+00 0.  1.
     999901    1    3    3    0    0 -0.20784704196E-01  0.59659464165E-02 -0.13945562893E+00  0.89124377635E+00  0.88000000000E+00 0. -1.
        -11    1    4    4    0    0  0.24466362594E-01 -0.15652400135E-01  0.66284616087E-01  0.72370656895E-01  0.51100000000E-03 0. -1.
         11    1    4    4    0    0  0.81697216722E-02 -0.96199336580E-04  0.58498433215E-01  0.59068446874E-01  0.51100000000E-03 0.  1.
</event>
<event>
 8    1  0.1161271E+005  0.1043930E+01  0.7957747E-01            NaN
         13   -1    0    0    0    0  0.00000000000E+00  0.00000000000E+00  0.74505805969E-08  0.10566000000E+00  0.10566000000E+00 0.  1.
     999900   -1    0    0    0    0 -0.00000000000E+00 -0.00000000000E+00 -0.74505805969E-08  0.93827000000E+00  0.93827000000E+00 0. -1.
     999902    2    1    2    0    0 -0.10103783416E-01 -0.32542156145E-02 -0.20561464860E-01  0.10207902032E+01  0.10205278971E+01 0.  0.
     999903    2    3    3    0    0 -0.33652094349E-01 -0.26244605179E-01  0.12005394891E+00  0.12901905793E+00  0.20290980846E-01 0.  0.
         14    1    1    2    0    0  0.10103783416E-01  0.32542156145E-02  0.20561464860E-01  0.23139796797E-01  0.00000000000E+00 0.  1.
     999901    1    3    3    0    0  0.23548310933E-01  0.22990389564E-01 -0.14061541377E+00  0.89177114528E+00  0.88000000000E+00 0. -1.
        -11    1    4    4    0    0 -0.19849358564E-01 -0.25748013468E-01  0.94935361799E-01  0.10034909703E+00  0.51100000000E-03 0. -1.
         11    1    4    4    0    0 -0.13802735785E-01 -0.49659171081E-03  0.25118587112E-01  0.28669960900E-01  0.51100000000E-03 0.  1.
</event>
<event>
 8    1  0.1161271E+005  0.1043930E+01  0.7957747E-01            NaN
         13   -1    0    0    0    0  0.00000000000E+00  0.00000000000E+00  0.74505805969E-08  0.10566000000E+00  0.10566000000E+00 0. -1.
     999900   -1    0    0    0    0 -0.00000000000E+00 -0.00000000000E+00 -0.74505805969E-08  0.93827000000E+00  0.93827000000E+00 0.  1.
     999902    2    1    2    0    0  0.97793226444E-03  0.49718114030E-02  0.22932601929E-01  0.10204442705E+01  0.10201739703E+01 0.  0.
     999903    2    3    3    0    0 -0.29453033775E-02 -0.12844231227E+00  0.62226906327E-02  0.13022298264E+00  0.20327344546E-01 0.  0.
         14    1    1    2    0    0 -0.97793226444E-03 -0.49718114030E-02 -0.22932601929E-01  0.23485729526E-01  0.00000000000E+00 0.  1.
     999901    1    3    3    0    0  0.39232356420E-02  0.13341412367E+00  0.16709911296E-01  0.89022128783E+00  0.88000000000E+00 0.  1.
        -11    1    4    4    0    0  0.78426856754E-02 -0.82758637197E-01  0.41094946997E-02  0.83232498563E-01  0.51100000000E-03 0. -1.
         11    1    4    4    0    0 -0.10787989053E-01 -0.45683675073E-01  0.21131959329E-02  0.46990484079E-01  0.51100000000E-03 0.  1.
</event>
<event>
 8    1  0.1161271E+005  0.1043930E+01  0.7957747E-01            NaN
         13   -1    0    0    0    0  0.00000000000E+00  0.00000000000E+00  0.74505805969E-08  0.10566000000E+00  0.10566000000E+00 0.  1.
     999900   -1    0    0    0    0 -0.00000000000E+00 -0.00000000000E+00 -0.74505805969E-08  0.93827000000E+00  0.93827000000E+00 0.  1.
     999902    2    1    2    0    0  0.23735745430E-01  0.37548912840E-02 -0.21453321508E-02  0.10198035152E+01  0.10195180834E+01 0.  0.
     999903    2    3    3    0    0  0.96600636033E-01  0.30715267159E-01 -0.82996692510E-01  0.13268847381E+00  0.21039714748E-01 0.  0.
         14    1    1    2    0    0 -0.23735745430E-01 -0.37548912840E-02  0.21453321508E-02  0.24126484818E-01  0.00000000000E+00 0.  1.
     999901    1    3    3    0    0 -0.72864890603E-01 -0.26960375875E-01  0.80851360359E-01  0.88711504137E+00  0.88000000000E+00 0. -1.
        -11    1    4    4    0    0  0.37102847726E-01  0.82207898654E-02 -0.43717055280E-01  0.57927927105E-01  0.51100000000E-03 0. -1.
         11    1    4    4    0    0  0.59497788307E-01  0.22494477294E-01 -0.39279637230E-01  0.74760546708E-01  0.51100000000E-03 0.  1.
</event>
<event>
 8    1  0.1161271E+005  0.1043930E+01  0.7957747E-01            NaN
         13   -1    0    0    0    0  0.00000000000E+00  0.00000000000E+00  0.74505805969E-08  0.10566000000E+00  0.10566000000E+00 0. -1.
     999900   -1    0    0    0    0 -0.00000000000E+00 -0.00000000000E+00 -0.74505805969E-08  0.93827000000E+00  0.93827000000E+00 0.  1.
     999902    2    1    2    0    0  0.31354738951E-02  0.23963958828E-01  0.27131009584E-03  0.10197602642E+01  0.10194737958E+01 0.  0.
     999903    2    3    3    0    0  0.10253748065E+00  0.81214252203E-01 -0.53596155967E-03  0.13231505084E+00  0.19932278457E-01 0.  0.
         14    1    1    2    0    0 -0.31354738951E-02 -0.23963958828E-01 -0.27131009584E-03  0.24169735795E-01  0.00000000000E+00 0. -1.
     999901    1    3    3    0    0 -0.99402006756E-01 -0.57250293375E-01  0.80727165551E-03  0.88744521337E+00  0.88000000000E+00 0. -1.
        -11    1    4    4    0    0  0.72660452294E-01  0.68340123129E-01  0.73929735076E-03  0.99753302895E-01  0.51100000000E-03 0. -1.
         11    1    4    4    0    0  0.29877028357E-01  0.12874129074E-01 -0.12752589104E-02  0.32561747944E-01  0.51100000000E-03 0.  1.
</event>
<event>
 8    1  0.1161271E+005  0.1043930E+01  0.7957747E-01            NaN
         13   -1    0    0    0    0  0.00000000000E+00  0.00000000000E+00  0.74505805969E-08  0.10566000000E+00  0.10566000000E+00 0. -1.
     999900   -1    0    0    0    0 -0.00000000000E+00 -0.00000000000E+00 -0.74505805969E-08  0.93827000000E+00  0.93827000000E+00 0.  1.
     999902    2    1    2    0    0  0.37588944012E-02 -0.20134372259E-01  0.12064758896E-01  0.10201585751E+01  0.10198815803E+01 0.  0.
     999903    2    3    3    0    0  0.98331015062E-01  0.23834304531E-01  0.81321713840E-01  0.13129769942E+00  0.19718066243E-01 0.  0.
         14    1    1    2    0    0 -0.37588944012E-02  0.20134372259E-01 -0.12064758896E-01  0.23771424875E-01  0.00000000000E+00 0.  1.
     999901    1    3    3    0    0 -0.94572120661E-01 -0.43968676790E-01 -0.69256954944E-01  0.88886087570E+00  0.88000000000E+00 0. -1.
        -11    1    4    4    0    0  0.44466939160E-01  0.76307190436E-02  0.48185588931E-01  0.66012488614E-01  0.51100000000E-03 0. -1.
         11    1    4    4    0    0  0.53864075903E-01  0.16203585488E-01  0.33136124909E-01  0.65285210810E-01  0.51100000000E-03 0.  1.
</event>
<event>
 8    1  0.1161271E+005  0.1043930E+01  0.7957747E-01            NaN
         13   -1    0    0    0    0  0.00000000000E+00  0.00000000000E+00  0.74505805969E-08  0.10566000000E+00  0.10566000000E+00 0. -1.
     999900   -1    0    0    0    0 -0.00000000000E+00 -0.00000000000E+00 -0.74505805969E-08  0.93827000000E+00  0.93827000000E+00 0. -1.
     999902    2    1    2    0    0 -0.20596474815E-01  0.70074141657E-03  0.78024724613E-04  0.10233214605E+01  0.10231139231E+01 0.  0.
     999903    2    3    3    0    0  0.21453518406E-01  0.12629997499E+00 -0.32552930163E-01  0.13281141078E+00  0.12932147366E-01 0.  0.
         14    1    1    2    0    0  0.20596474815E-01 -0.70074141657E-03 -0.78024724613E-04  0.20608539521E-01  0.00000000000E+00 0. -1.
     999901    1    3    3    0    0 -0.42049993221E-01 -0.12559923357E+00  0.32630954887E-01  0.89051004970E+00  0.88000000000E+00 0. -1.
        -11    1    4    4    0    0  0.16546495442E-01  0.84273861157E-01 -0.15933028104E-01  0.87349829372E-01  0.51100000000E-03 0.  1.
         11    1    4    4    0    0  0.49070229644E-02  0.42026113834E-01 -0.16619902059E-01  0.45461581404E-01  0.51100000000E-03 0. -1.
</event>
<event>
 8    1  0.1161271E+005  0.1043930E+01  0.7957747E-01            NaN
         13   -1    0    0    0    0  0.00000000000E+00  0.00000000000E+00  0.74505805969E-08  0.10566000000E+00  0.10566000000E+00 0. -1.
     999900   -1    0    0    0    0 -0.00000000000E+00 -0.00000000000E+00 -0.74505805969E-08  0.93827000000E+00  0.93827000000E+00 0.  1.
     999902    2    1    2    0    0  0.33102893332E-02  0.23190412216E-01  0.83722091367E-04  0.10205043678E+01  0.10202354652E+01 0.  0.
     999903    2    3    3    0    0 -0.24493473034E-01 -0.34986066561E-01  0.12109052263E+00  0.12988649371E+00  0.19586513263E-01 0.  0.
         14    1    1    2    0    0 -0.33102893332E-02 -0.23190412216E-01 -0.83722091367E-04  0.23425632192E-01  0.00000000000E+00 0.  1.
     999901    1    3    3    0    0  0.27803762368E-01  0.58176478777E-01 -0.12100680054E+00  0.89061787410E+00  0.88000000000E+00 0.  1.
        -11    1    4    4    0    0 -0.16577348275E-01 -0.76359535713E-02  0.53965454535E-01  0.56970585981E-01  0.51100000000E-03 0.  1.
         11    1    4    4    0    0 -0.79161247597E-02 -0.27350112989E-01  0.67125068099E-01  0.72915907729E-01  0.51100000000E-03 0. -1.
</event>
<event>
 8    1  0.1161271E+005  0.1043930E+01  0.7957747E-01            NaN
         13   -1    0    0    0    0  0.00000000000E+00  0.00000000000E+00  0.74505805969E-08  0.10566000000E+00  0.10566000000E+00 0.  1.
     999900   -1    0    0    0    0 -0.00000000000E+00 -0.00000000000E+00 -0.74505805969E-08  0.93827000000E+00  0.93827000000E+00 0.  1.
     999902    2    1    2    0    0 -0.86754852184E-02 -0.22240908110E-01 -0.34583372589E-02  0.10198077668E+01  0.10195224368E+01 0.  0.
     999903    2    3    3    0    0 -0.11959547111E+00 -0.11920530781E-01  0.49048028767E-01  0.13123212460E+00  0.19260987420E-01 0.  0.
         14    1    1    2    0    0  0.86754852184E-02  0.22240908110E-01  0.34583372589E-02  0.24122233187E-01  0.00000000000E+00 0.  1.
     999901    1    3    3    0    0  0.11091998590E+00 -0.10320377328E-01 -0.52506366026E-01  0.88857564221E+00  0.88000000000E+00 0.  1.
        -11    1    4    4    0    0 -0.10959509022E+00 -0.15334450637E-01  0.41301678982E-01  0.11811993475E+00  0.51100000000E-03 0.  1.
         11    1    4    4    0    0 -0.10000380891E-01  0.34139198551E-02  0.77463497850E-02  0.13112189853E-01  0.51100000000E-03 0. -1.
</event>
<event>
 8    1  0.1161271E+005  0.1043930E+01  0.7957747E-01            NaN
         13   -1    0    0    0    0  0.00000000000E+00  0.00000000000E+00  0.74505805969E-08  0.10566000000E+00  0.10566000000E+00 0. -1.
     999900   -1    0    0    0    0 -0.00000000000E+00 -0.00000000000E+00 -0.74505805969E-08  0.93827000000E+00  0.93827000000E+00 0.  1.
     999902    2    1    2    0    0  0.12010148570E-01  0.22373414944E-01 -0.13917152931E-01  0.10149731267E+01  0.10145599772E+01 0.  0.
     999903    2    3    3    0    0  0.44099404120E-01  0.11382816897E+00 -0.37120549320E-01  0.12934787303E+00  0.21244471762E-01 0.  0.
         14    1    1    2    0    0 -0.12010148570E-01 -0.22373414944E-01  0.13917152931E-01  0.28956873289E-01  0.00000000000E+00 0.  1.
     999901    1    3    3    0    0 -0.32089255550E-01 -0.91454754026E-01  0.23203396389E-01  0.88562525368E+00  0.88000000000E+00 0. -1.
        -11    1    4    4    0    0  0.43754211302E-01  0.10414908742E+00 -0.28829820841E-01  0.11658852048E+00  0.51100000000E-03 0. -1.
         11    1    4    4    0    0  0.34519281774E-03  0.96790815477E-02 -0.82907284789E-02  0.12759352546E-01  0.51100000000E-03 0.  1.
</event>
<event>
 8    1  0.1161271E+005  0.1043930E+01  0.7957747E-01            NaN
         13   -1    0    0    0    0  0.00000000000E+00  0.00000000000E+00  0.74505805969E-08  0.10566000000E+00  0.10566000000E+00 0.  1.
     999900   -1    0    0    0    0 -0.00000000000E+00 -0.00000000000E+00 -0.74505805969E-08  0.93827000000E+00  0.93827000000E+00 0. -1.
     999902    2    1    2    0    0 -0.84297724248E-02 -0.21577013675E-01 -0.59004908554E-02  0.10200250973E+01  0.10197449459E+01 0.  0.
     999903    2    3    3    0    0  0.80477491984E-01  0.95966824330E-01  0.12878847499E-01  0.12757133428E+00  0.20550487336E-01 0.  0.
         14    1    1    2    0    0  0.84297724248E-02  0.21577013675E-01  0.59004908554E-02  0.23904902732E-01  0.00000000000E+00 0. -1.
     999901    1    3    3    0    0 -0.88907264409E-01 -0.11754383801E+00 -0.18779338355E-01  0.89245376299E+00  0.88000000000E+00 0. -1.
        -11    1    4    4    0    0  0.23185803330E-01  0.28437680601E-01 -0.55558200559E-02  0.37113493659E-01  0.51100000000E-03 0. -1.
         11    1    4    4    0    0  0.57291688654E-01  0.67529143729E-01  0.18434667555E-01  0.90457840624E-01  0.51100000000E-03 0.  1.
</event>
<event>
 8    1  0.1161271E+005  0.1043930E+01  0.7957747E-01            NaN
         13   -1    0    0    0    0  0.00000000000E+00  0.00000000000E+00  0.74505805969E-08  0.10566000000E+00  0.10566000000E+00 0. -1.
     999900   -1    0    0    0    0 -0.00000000000E+00 -0.00000000000E+00 -0.74505805969E-08  0.93827000000E+00  0.93827000000E+00 0. -1.
     999902    2    1    2    0    0  0.33133697805E-02  0.11323218367E-01 -0.18732368423E-01  0.10217919034E+01  0.10215520538E+01 0.  0.
     999903    2    3    3    0    0  0.32283640973E-02  0.31985294394E-01  0.12431769952E+00  0.13000142884E+00  0.20297775606E-01 0.  0.
         14    1    1    2    0    0 -0.33133697805E-02 -0.11323218367E-01  0.18732368423E-01  0.22138096581E-01  0.00000000000E+00 0. -1.
     999901    1    3    3    0    0  0.85005683141E-04 -0.20662076027E-01 -0.14305006794E+00  0.89179047458E+00  0.88000000000E+00 0. -1.
        -11    1    4    4    0    0  0.71101152010E-02  0.32036221031E-01  0.96936523697E-01  0.10234170188E+00  0.51100000000E-03 0.  1.
         11    1    4    4    0    0 -0.38817511037E-02 -0.50926636339E-04  0.27381175822E-01  0.27659726960E-01  0.51100000000E-03 0. -1.
</event>
<event>
 8    1  0.1161271E+005  0.1043930E+01  0.7957747E-01            NaN
         13   -1    0    0    0    0  0.00000000000E+00  0.00000000000E+00  0.74505805969E-08  0.10566000000E+00  0.10566000000E+00 0. -1.
     999900   -1    0    0    0    0 -0.00000000000E+00 -0.00000000000E+00 -0.74505805969E-08  0.93827000000E+00  0.93827000000E+00 0.  1.
     999902    2    1    2    0    0  0.17040436196E-01  0.12032086760E-01 -0.11530930267E-01  0.10200949432E+01  0.10198164459E+01 0.  0.
     999903    2    3    3    0    0 -0.46549881747E-01  0.41175610134E-01 -0.11402275110E+00  0.13138934136E+00  0.19991220391E-01 0.  0.
         14    1    1    2    0    0 -0.17040436196E-01 -0.12032086760E-01  0.11530930267E-01  0.23835056752E-01  0.00000000000E+00 0. -1.
     999901    1    3    3    0    0  0.63590317943E-01 -0.29143523375E-01  0.10249182084E+00  0.88870560189E+00  0.88000000000E+00 0. -1.
        -11    1    4    4    0    0 -0.24548013724E-01  0.20067248177E-01 -0.77956658651E-01  0.84159379609E-01  0.51100000000E-03 0. -1.
         11    1    4    4    0    0 -0.22001868023E-01  0.21108361957E-01 -0.36066092454E-01  0.47229961750E-01  0.51100000000E-03 0.  1.
</event>
<event>
 8    1  0.1161271E+005  0.1043930E+01  0.7957747E-01            NaN
         13   -1    0    0    0    0  0.00000000000E+00  0.00000000000E+00  0.74505805969E-08  0.10566000000E+00  0.10566000000E+00 0.  1.
     999900   -1    0    0    0    0 -0.00000000000E+00 -0.00000000000E+00 -0.74505805969E-08  0.93827000000E+00  0.93827000000E+00 0. -1.
     999902    2    1    2    0    0  0.89388910617E-02  0.55960713109E-02 -0.19438083120E-01  0.10218153247E+01  0.10215759879E+01 0.  0.
     999903    2    3    3    0    0  0.50833127612E-01 -0.35244751838E-01 -0.11663722993E+00  0.13453252085E+00  0.25856456964E-01 0.  0.
         14    1    1    2    0    0 -0.89388910617E-02 -0.55960713109E-02  0.19438083120E-01  0.22114675283E-01  0.00000000000E+00 0.  1.
     999901    1    3    3    0    0 -0.41894236550E-01  0.40840823149E-01  0.97199146809E-01  0.88728280386E+00  0.88000000000E+00 0.  1.
        -11    1    4    4    0    0  0.40917916967E-01 -0.32618686858E-01 -0.73731777768E-01  0.90415102915E-01  0.51100000000E-03 0. -1.
         11    1    4    4    0    0  0.99152106450E-02 -0.26260649794E-02 -0.42905452161E-01  0.44117417938E-01  0.51100000000E-03 0.  1.
</event>
<event>
 8    1  0.1161271E+005  0.1043930E+01  0.7957747E-01            NaN
         13   -1    0    0    0    0  0.00000000000E+00  0.00000000000E+00  0.74505805969E-08  0.10566000000E+00  0.10566000000E+00 0.  1.
     999900   -1    0    0    0    0 -0.00000000000E+00 -0.00000000000E+00 -0.74505805969E-08  0.93827000000E+00  0.93827000000E+00 0.  1.
     999902    2    1    2    0    0  0.14428141448E-01 -0.11457377671E-01 -0.14987776801E-01  0.10201797111E+01  0.10199032144E+01 0.  0.
     999903    2    3    3    0    0  0.66065648278E-01 -0.54179580599E-01  0.97041492814E-01  0.13054935193E+00  0.18055058162E-01 0.  0.
         14    1    1    2    0    0 -0.14428141448E-01  0.11457377671E-01  0.14987776801E-01  0.23750288886E-01  0.00000000000E+00 0.  1.
     999901    1    3    3    0    0 -0.51637506830E-01  0.42722202927E-01 -0.11202926961E+00  0.88963035919E+00  0.88000000000E+00 0.  1.
        -11    1    4    4    0    0  0.23120183154E-02 -0.86808828800E-02  0.96368167450E-02  0.13184555899E-01  0.51100000000E-03 0. -1.
         11    1    4    4    0    0  0.63753629962E-01 -0.45498697719E-01  0.87404676069E-01  0.11736479603E+00  0.51100000000E-03 0.  1.
</event>
<event>
 8    1  0.1371244E+005  0.1043930E+01  0.7957747E-01            NaN
         13   -1    0    0    0    0  0.00000000000E+00  0.00000000000E+00  0.74505805969E-08  0.10566000000E+00  0.10566000000E+00 0.  1.
     999900   -1    0    0    0    0 -0.00000000000E+00 -0.00000000000E+00 -0.74505805969E-08  0.93827000000E+00  0.93827000000E+00 0.  1.
     999902    2    1    2    0    0  0.23887487070E-01 -0.39722813483E-02  0.24897606458E-01  0.10091984313E+01  0.10086006107E+01 0.  0.
     999903    2    3    3    0    0 -0.39065228589E-01 -0.73598759687E-02 -0.10838168207E+00  0.11693283801E+00  0.18612891728E-01 0.  0.
         14    1    1    2    0    0 -0.23887487070E-01  0.39722813483E-02 -0.24897606458E-01  0.34731568708E-01  0.00000000000E+00 0. -1.
     999901    1    3    3    0    0  0.62952715658E-01  0.33875946204E-02  0.13327928852E+00  0.89226559328E+00  0.88000000000E+00 0. -1.
        -11    1    4    4    0    0 -0.16741186649E-01 -0.11623265226E-01 -0.62260533829E-01  0.65513378928E-01  0.51100000000E-03 0.  1.
         11    1    4    4    0    0 -0.22324041939E-01  0.42633892573E-02 -0.46121148237E-01  0.51419459081E-01  0.51100000000E-03 0. -1.
</event>
<event>
 8    1  0.1161271E+005  0.1043930E+01  0.7957747E-01            NaN
         13   -1    0    0    0    0  0.00000000000E+00  0.00000000000E+00  0.74505805969E-08  0.10566000000E+00  0.10566000000E+00 0. -1.
     999900   -1    0    0    0    0 -0.00000000000E+00 -0.00000000000E+00 -0.74505805969E-08  0.93827000000E+00  0.93827000000E+00 0. -1.
     999902    2    1    2    0    0 -0.70664380273E-02 -0.11026299752E-01  0.19769195649E-01  0.10202163978E+01  0.10199407647E+01 0.  0.
     999903    2    3    3    0    0  0.10427207986E+00  0.53118213272E-01 -0.48285397304E-01  0.12828466738E+00  0.20766922539E-01 0.  0.
         14    1    1    2    0    0  0.70664380273E-02  0.11026299752E-01 -0.19769195649E-01  0.23713602198E-01  0.00000000000E+00 0.  1.
     999901    1    3    3    0    0 -0.11133851789E+00 -0.64144513023E-01  0.68054592952E-01  0.89193173042E+00  0.88000000000E+00 0.  1.
        -11    1    4    4    0    0  0.76572175554E-01  0.48673929044E-01 -0.38563728358E-01  0.98589409693E-01  0.51100000000E-03 0.  1.
         11    1    4    4    0    0  0.27699904306E-01  0.44442842279E-02 -0.97216689459E-02  0.29695257685E-01  0.51100000000E-03 0. -1.
</event>
<event>
 8    1  0.1161271E+005  0.1043930E+01  0.7957747E-01            NaN
         13   -1    0    0    0    0  0.00000000000E+00  0.00000000000E+00  0.74505805969E-08  0.10566000000E+00  0.10566000000E+00 0.  1.
     999900   -1    0    0    0    0 -0.00000000000E+00 -0.00000000000E+00 -0.74505805969E-08  0.93827000000E+00  0.93827000000E+00 0. -1.
     999902    2    1    2    0    0  0.10272432268E-01  0.18000057182E-01  0.82360563357E-02  0.10216284855E+01  0.10213850424E+01 0.  0.
     999903    2    3    3    0    0 -0.27488661508E-01 -0.80046947899E-01 -0.95538191136E-01  0.12932348732E+00  0.20829739025E-01 0.  0.
         14    1    1    2    0    0 -0.10272432268E-01 -0.18000057182E-01 -0.82360563357E-02  0.22301514460E-01  0.00000000000E+00 0.  1.
     999901    1    3    3    0    0  0.37761093776E-01  0.98047005081E-01  0.10377424747E+00  0.89230499822E+00  0.88000000000E+00 0.  1.
        -11    1    4    4    0    0 -0.12039947586E-01 -0.61429463575E-01 -0.63438001104E-01  0.89124522091E-01  0.51100000000E-03 0.  1.
         11    1    4    4    0    0 -0.15448713922E-01 -0.18617484324E-01 -0.32100190032E-01  0.40198965229E-01  0.51100000000E-03 0. -1.
</event>
<event>
 8    1  0.1161271E+005  0.1043930E+01  0.7957747E-01            NaN
         13   -1    0    0    0    0  0.00000000000E+00  0.00000000000E+00  0.74505805969E-08  0.10566000000E+00  0.10566000000E+00 0.  1.
     999900   -1    0    0    0    0 -0.00000000000E+00 -0.00000000000E+00 -0.74505805969E-08  0.93827000000E+00  0.93827000000E+00 0.  1.
     999902    2    1    2    0    0 -0.35350288468E-02  0.20609347788E-01 -0.10865191251E-01  0.10203653225E+01  0.10200931807E+01 0.  0.
     999903    2    3    3    0    0 -0.36680480453E-01 -0.11560071622E+00 -0.38369096789E-01  0.12884512232E+00  0.20491332793E-01 0.  0.
         14    1    1    2    0    0  0.35350288468E-02 -0.20609347788E-01  0.10865191251E-01  0.23564677509E-01  0.00000000000E+00 0.  1.
     999901    1    3    3    0    0  0.33145451607E-01  0.13621006401E+00  0.27503905538E-01  0.89152020017E+00  0.88000000000E+00 0. -1.
        -11    1    4    4    0    0 -0.14972322664E-01 -0.75267184965E-01 -0.29313205130E-01  0.82151352360E-01  0.51100000000E-03 0.  1.
         11    1    4    4    0    0 -0.21708157790E-01 -0.40333531254E-01 -0.90558916595E-02  0.46693769957E-01  0.51100000000E-03 0. -1.
</event>
<event>
 8    1  0.1161271E+005  0.1043930E+01  0.7957747E-01            NaN
         13   -1    0    0    0    0  0.00000000000E+00  0.00000000000E+00  0.74505805969E-08  0.10566000000E+00  0.10566000000E+00 0.  1.
     999900   -1    0    0    0    0 -0.00000000000E+00 -0.00000000000E+00 -0.74505805969E-08  0.93827000000E+00  0.93827000000E+00 0.  1.
     999902    2    1    2    0    0 -0.47458681239E-02  0.23238721201E-01  0.50384747256E-03  0.10202062716E+01  0.10199304002E+01 0.  0.
     999903    2    3    3    0    0 -0.42589905022E-01 -0.16069452891E-01  0.12080101450E+00  0.13034745578E+00  0.18040144072E-01 0.  0.
         14    1    1    2    0    0  0.47458681239E-02 -0.23238721201E-01 -0.50384747256E-03  0.23723728409E-01  0.00000000000E+00 0.  1.
     999901    1    3    3    0    0  0.37844036899E-01  0.39308174093E-01 -0.12029716703E+00  0.88985881581E+00  0.88000000000E+00 0.  1.
        -11    1    4    4    0    0 -0.22402686235E-01 -0.17841154403E-01  0.67807374495E-01  0.73609023210E-01  0.51100000000E-03 0.  1.
         11    1    4    4    0    0 -0.20187218788E-01  0.17717015112E-02  0.52993640006E-01  0.56738432572E-01  0.51100000000E-03 0. -1.
</event>
<event>
 8    1  0.1161271E+005  0.1043930E+01  0.7957747E-01            NaN
         13   -1    0    0    0    0  0.00000000000E+00  0.00000000000E+00  0.74505805969E-08  0.10566000000E+00  0.10566000000E+00 0.  1.
     999900   -1    0    0    0    0 -0.00000000000E+00 -0.00000000000E+00 -0.74505805969E-08  0.93827000000E+00  0.93827000000E+00 0. -1.
     999902    2    1    2    0    0 -0.70777250200E-02  0.21745875001E-01 -0.40162373076E-02  0.10207113128E+01  0.10204471945E+01 0.  0.
     999903    2    3    3    0    0  0.92414505578E-01  0.72690043123E-01 -0.56527205169E-01  0.13208798772E+00  0.20679177087E-01 0.  0.
         14    1    1    2    0    0  0.70777250200E-02 -0.21745875001E-01  0.40162373076E-02  0.23218687153E-01  0.00000000000E+00 0. -1.
     999901    1    3    3    0    0 -0.99492230598E-01 -0.50944168122E-01  0.52510967862E-01  0.88862332513E+00  0.88000000000E+00 0.  1.
        -11    1    4    4    0    0  0.22641865562E-02  0.79420989550E-02 -0.54328017117E-02  0.98984812983E-02  0.51100000000E-03 0. -1.
         11    1    4    4    0    0  0.90150319022E-01  0.64747944168E-01 -0.51094403458E-01  0.12218950642E+00  0.51100000000E-03 0.  1.
</event>
<event>
 8    1  0.1161271E+005  0.1043930E+01  0.7957747E-01            NaN
         13   -1    0    0    0    0  0.00000000000E+00  0.00000000000E+00  0.74505805969E-08  0.10566000000E+00  0.10566000000E+00 0.  1.
     999900   -1    0    0    0    0 -0.00000000000E+00 -0.00000000000E+00 -0.74505805969E-08  0.93827000000E+00  0.93827000000E+00 0. -1.
     999902    2    1    2    0    0 -0.15480255272E-01 -0.69910139550E-02  0.17622543969E-01  0.10194541622E+01  0.10191603025E+01 0.  0.
     999903    2    3    3    0    0 -0.82619167873E-02  0.30181377937E-01  0.12654238502E+00  0.13193096651E+00  0.20337892621E-01 0.  0.
         14    1    1    2    0    0  0.15480255272E-01  0.69910139550E-02 -0.17622543969E-01  0.24475837786E-01  0.00000000000E+00 0. -1.
     999901    1    3    3    0    0 -0.72183384851E-02 -0.37172391892E-01 -0.10891984105E+00  0.88752319570E+00  0.88000000000E+00 0. -1.
        -11    1    4    4    0    0 -0.50524933027E-02  0.12587102738E-01  0.92332673274E-01  0.93324951213E-01  0.51100000000E-03 0. -1.
         11    1    4    4    0    0 -0.32094234846E-02  0.17594275199E-01  0.34209711744E-01  0.38606015302E-01  0.51100000000E-03 0.  1.
</event>
<event>
 8    1  0.1161271E+005  0.1043930E+01  0.7957747E-01            NaN
         13   -1    0    0    0    0  0.00000000000E+00  0.00000000000E+00  0.74505805969E-08  0.10566000000E+00  0.10566000000E+00 0. -1.
     999900   -1    0    0    0    0 -0.00000000000E+00 -0.00000000000E+00 -0.74505805969E-08  0.93827000000E+00  0.93827000000E+00 0. -1.
     999902    2    1    2    0    0 -0.21836953027E-01 -0.95065621858E-02  0.89638244908E-02  0.10184824580E+01  0.10181644955E+01 0.  0.
     999903    2    3    3    0    0  0.17728222649E-01  0.10775354180E+00  0.63963188387E-01  0.12812283119E+00  0.19976354879E-01 0.  0.
         14    1    1    2    0    0  0.21836953027E-01  0.95065621858E-02 -0.89638244908E-02  0.25447541955E-01  0.00000000000E+00 0. -1.
     999901    1    3    3    0    0 -0.39565175676E-01 -0.11726010398E+00 -0.54999363896E-01  0.89035962686E+00  0.88000000000E+00 0.  1.
        -11    1    4    4    0    0  0.60994630313E-02  0.27668048532E-01  0.27048797991E-01  0.39174263906E-01  0.51100000000E-03 0. -1.
         11    1    4    4    0    0  0.11628759618E-01  0.80085493264E-01  0.36914390396E-01  0.88948567279E-01  0.51100000000E-03 0.  1.
</event>
<event>
 8    1  0.1161271E+005  0.1043930E+01  0.7957747E-01            NaN
         13   -1    0    0    0    0  0.00000000000E+00  0.00000000000E+00  0.74505805969E-08  0.10566000000E+00  0.10566000000E+00 0. -1.
     999900   -1    0    0    0    0 -0.00000000000E+00 -0.00000000000E+00 -0.74505805969E-08  0.93827000000E+00  0.93827000000E+00 0.  1.
     999902    2    1    2    0    0 -0.10881301480E-01 -0.69369714906E-02  0.17487600050E-01  0.10221966052E+01  0.10219655372E+01 0.  0.
     999903    2    3    3    0    0  0.19769736819E-01 -0.21142676580E-01 -0.12493866769E+00  0.13010550559E+00  0.21906999661E-01 0.  0.
         14    1    1    2    0    0  0.10881301480E-01  0.69369714906E-02 -0.17487600050E-01  0.21733394831E-01  0.00000000000E+00 0.  1.
     999901    1    3    3    0    0 -0.30651038300E-01  0.14205705090E-01  0.14242626774E+00  0.89209109958E+00  0.88000000000E+00 0. -1.
        -11    1    4    4    0    0  0.11408129206E-02  0.33471017141E-02 -0.32122632936E-01  0.32320724183E-01  0.51100000000E-03 0.  1.
         11    1    4    4    0    0  0.18628923899E-01 -0.24489778294E-01 -0.92816034753E-01  0.97784781407E-01  0.51100000000E-03 0. -1.
</event>
<event>
 8    1  0.1161271E+005  0.1043930E+01  0.7957747E-01            NaN
         13   -1    0    0    0    0  0.00000000000E+00  0.00000000000E+00  0.74505805969E-08  0.10566000000E+00  0.10566000000E+00 0.  1.
     999900   -1    0    0    0    0 -0.00000000000E+00 -0.00000000000E+00 -0.74505805969E-08  0.93827000000E+00  0.93827000000E+00 0. -1.
     999902    2    1    2    0    0 -0.22067584985E-01  0.71398073421E-02  0.48317137019E-02  0.10202382163E+01  0.10199630961E+01 0.  0.
     999903    2    3    3    0    0 -0.27070986004E-01 -0.89296314086E-01  0.89545097994E-01  0.13091188870E+00  0.20320630816E-01 0.  0.
         14    1    1    2    0    0  0.22067584985E-01 -0.71398073421E-02 -0.48317137019E-02  0.23691783666E-01  0.00000000000E+00 0. -1.
     999901    1    3    3    0    0  0.50034010188E-02  0.96436121428E-01 -0.84713384292E-01  0.88932632763E+00  0.88000000000E+00 0.  1.
        -11    1    4    4    0    0 -0.13580844177E-01 -0.47837353735E-01  0.33751704613E-01  0.60102332952E-01  0.51100000000E-03 0. -1.
         11    1    4    4    0    0 -0.13490141827E-01 -0.41458960351E-01  0.55793393382E-01  0.70809555753E-01  0.51100000000E-03 0.  1.
</event>
<event>
 8    1  0.1161271E+005  0.1043930E+01  0.7957747E-01            NaN
         13   -1    0    0    0    0  0.00000000000E+00  0.00000000000E+00  0.74505805969E-08  0.10566000000E+00  0.10566000000E+00 0. -1.
     999900   -1    0    0    0    0 -0.00000000000E+00 -0.00000000000E+00 -0.74505805969E-08  0.93827000000E+00  0.93827000000E+00 0.  1.
     999902    2    1    2    0    0 -0.68893099547E-02  0.22842389116E-01  0.39484707459E-03  0.10200680379E+01  0.10197889040E+01 0.  0.
     999903    2    3    3    0    0 -0.96625326970E-01  0.88523786792E-01  0.66837484481E-02  0.13304709729E+00  0.21998703712E-01 0.  0.
         14    1    1    2    0    0  0.68893099547E-02 -0.22842389116E-01 -0.39484707459E-03  0.23861962124E-01  0.00000000000E+00 0. -1.
     999901    1    3    3    0    0  0.89736017015E-01 -0.65681397675E-01 -0.62889013735E-02  0.88702094058E+00  0.88000000000E+00 0. -1.
        -11    1    4    4    0    0 -0.86940886920E-01  0.73384561231E-01  0.11722825488E-01  0.11437524821E+00  0.51100000000E-03 0.  1.
         11    1    4    4    0    0 -0.96844400506E-02  0.15139225561E-01 -0.50390770402E-02  0.18671849081E-01  0.51100000000E-03 0. -1.
</event>
<event>
 8    1  0.1161271E+005  0.1043930E+01  0.7957747E-01            NaN
         13   -1    0    0    0    0  0.00000000000E+00  0.00000000000E+00  0.74505805969E-08  0.10566000000E+00  0.10566000000E+00 0.  1.
     999900   -1    0    0    0    0 -0.00000000000E+00 -0.00000000000E+00 -0.74505805969E-08  0.93827000000E+00  0.93827000000E+00 0.  1.
     999902    2    1    2    0    0 -0.84292725834E-02  0.18057450812E-01  0.13787102823E-01  0.10196976173E+01  0.10194096441E+01 0.  0.
     999903    2    3    3    0    0 -0.83771686402E-01  0.21165562510E-01  0.94851047495E-01  0.13276047028E+00  0.34101976164E-01 0.  0.
         14    1    1    2    0    0  0.84292725834E-02 -0.18057450812E-01 -0.13787102823E-01  0.24232382680E-01  0.00000000000E+00 0.  1.
     999901    1    3    3    0    0  0.75342413819E-01 -0.31081116982E-02 -0.81063944672E-01  0.88693714704E+00  0.88000000000E+00 0.  1.
        -11    1    4    4    0    0 -0.57510180030E-01  0.14175178249E-01  0.39793860415E-01  0.71359434787E-01  0.51100000000E-03 0.  1.
         11    1    4    4    0    0 -0.26261506372E-01  0.69903842611E-02  0.55057187080E-01  0.61401035490E-01  0.51100000000E-03 0. -1.
</event>
<event>
 8    1  0.1161271E+005  0.1043930E+01  0.7957747E-01            NaN
         13   -1    0    0    0    0  0.00000000000E+00  0.00000000000E+00  0.74505805969E-08  0.10566000000E+00  0.10566000000E+00 0. -1.
     999900   -1    0    0    0    0 -0.00000000000E+00 -0.00000000000E+00 -0.74505805969E-08  0.93827000000E+00  0.93827000000E+00 0.  1.
     999902    2    1    2    0    0 -0.13343941170E-01 -0.11837574462E-02 -0.19640798926E-01  0.10201555803E+01  0.10198785149E+01 0.  0.
     999903    2    3    3    0    0  0.22072120049E-01  0.34984583750E-01  0.11924192334E+00  0.12782668535E+00  0.20246620030E-01 0.  0.
         14    1    1    2    0    0  0.13343941170E-01  0.11837574462E-02  0.19640798926E-01  0.23774419658E-01  0.00000000000E+00 0. -1.
     999901    1    3    3    0    0 -0.35416061218E-01 -0.36168341196E-01 -0.13888272226E+00  0.89232889499E+00  0.88000000000E+00 0.  1.
        -11    1    4    4    0    0  0.10358209883E-01  0.20577596361E-01  0.37608393738E-01  0.44106489143E-01  0.51100000000E-03 0.  1.
         11    1    4    4    0    0  0.11713910165E-01  0.14406987389E-01  0.81633529599E-01  0.83720196206E-01  0.51100000000E-03 0. -1.
</event>
<event>
 8    1  0.1161271E+005  0.1043930E+01  0.7957747E-01            NaN
         13   -1    0    0    0    0  0.00000000000E+00  0.00000000000E+00  0.74505805969E-08  0.10566000000E+00  0.10566000000E+00 0.  1.
     999900   -1    0    0    0    0 -0.00000000000E+00 -0.00000000000E+00 -0.74505805969E-08  0.93827000000E+00  0.93827000000E+00 0.  1.
     999902    2    1    2    0    0 -0.19329126929E-01 -0.87657147717E-02  0.10036611975E-01  0.10204526389E+01  0.10201825336E+01 0.  0.
     999903    2    3    3    0    0 -0.12187926143E+00 -0.30201810048E-01 -0.38762858955E-01  0.13289564096E+00  0.19798698280E-01 0.  0.
         14    1    1    2    0    0  0.19329126929E-01  0.87657147717E-02 -0.10036611975E-01  0.23477361079E-01  0.00000000000E+00 0.  1.
     999901    1    3    3    0    0  0.10255013451E+00  0.21436095277E-01  0.48799470930E-01  0.88755699796E+00  0.88000000000E+00 0. -1.
        -11    1    4    4    0    0 -0.82732011601E-01 -0.25102880403E-01 -0.34862252781E-01  0.93222197668E-01  0.51100000000E-03 0. -1.
         11    1    4    4    0    0 -0.39147249834E-01 -0.50989296456E-02 -0.39006061740E-02  0.39673443292E-01  0.51100000000E-03 0.  1.
</event>
<event>
 7    1  0.1238066E+005  0.1043930E+01  0.7957747E-01            NaN
         13   -1    0    0    0    0  0.00000000000E+00  0.00000000000E+00  0.74505805969E-08  0.10566000000E+00  0.10566000000E+00 0.  1.
     999900   -1    0    0    0    0 -0.00000000000E+00 -0.00000000000E+00 -0.74505805969E-08  0.93827000000E+00  0.93827000000E+00 0.  1.
     999903    2    1    2    0    0 -0.85518965560E-01  0.20378783854E-01  0.79415639454E-01  0.12001204178E+00  0.19163978732E-01 0.  0.
         14    1    1    2    0    0  0.22019043874E-01 -0.25162463273E-01 -0.21428201599E-01  0.39713419330E-01  0.00000000000E+00 0.  1.
     999901    1    1    2    0    0  0.63499921686E-01  0.47836794194E-02 -0.57987437854E-01  0.88420453889E+00  0.88000000000E+00 0.  1.
        -11    1    3    3    0    0 -0.25403982454E-01  0.24193147397E-02  0.34200596086E-01  0.42675019648E-01  0.51100000000E-03 0. -1.
         11    1    3    3    0    0 -0.60114983106E-01  0.17959469114E-01  0.45215043368E-01  0.77337022133E-01  0.51100000000E-03 0.  1.
</event>
<event>
 8    1  0.1161271E+005  0.1043930E+01  0.7957747E-01            NaN
         13   -1    0    0    0    0  0.00000000000E+00  0.00000000000E+00  0.74505805969E-08  0.10566000000E+00  0.10566000000E+00 0.  1.
     999900   -1    0    0    0    0 -0.00000000000E+00 -0.00000000000E+00 -0.74505805969E-08  0.93827000000E+00  0.93827000000E+00 0.  1.
     999902    2    1    2    0    0  0.16748548459E-01 -0.10870547243E-01  0.11981808274E-01  0.10206438152E+01  0.10203781412E+01 0.  0.
     999903    2    3    3    0    0 -0.76251628432E-01 -0.67682332545E-01  0.79141864788E-01  0.13138171377E+00  0.24546098967E-01 0.  0.
         14    1    1    2    0    0 -0.16748548459E-01  0.10870547243E-01 -0.11981808274E-01  0.23286184796E-01  0.00000000000E+00 0. -1.
     999901    1    3    3    0    0  0.93000176890E-01  0.56811785302E-01 -0.67160056514E-01  0.88926210143E+00  0.88000000000E+00 0.  1.
        -11    1    4    4    0    0 -0.43329977313E-01 -0.22683673495E-01  0.41045892154E-01  0.63851878288E-01  0.51100000000E-03 0.  1.
         11    1    4    4    0    0 -0.32921651119E-01 -0.44998659050E-01  0.38095972634E-01  0.67529835485E-01  0.51100000000E-03 0. -1.
</event>
<event>
 8    1  0.1161271E+005  0.1043930E+01  0.7957747E-01            NaN
         13   -1    0    0    0    0  0.00000000000E+00  0.00000000000E+00  0.74505805969E-08  0.10566000000E+00  0.10566000000E+00 0. -1.
     999900   -1    0    0    0    0 -0.00000000000E+00 -0.00000000000E+00 -0.74505805969E-08  0.93827000000E+00  0.93827000000E+00 0.  1.
     999902    2    1    2    0    0 -0.17570578297E-01 -0.12659182484E-01  0.10918571788E-01  0.10196772613E+01  0.10193887982E+01 0.  0.
     999903    2    3    3    0    0  0.51326967599E-01 -0.14690825685E-01 -0.11473004583E+00  0.12808398270E+00  0.19805182289E-01 0.  0.
         14    1    1    2    0    0  0.17570578297E-01  0.12659182484E-01 -0.10918571788E-01  0.24252738665E-01  0.00000000000E+00 0.  1.
     999901    1    3    3    0    0 -0.68897545896E-01  0.20316432002E-02  0.12564861762E+00  0.89159327864E+00  0.88000000000E+00 0. -1.
        -11    1    4    4    0    0  0.42349045617E-01 -0.42656668410E-02 -0.94126001210E-01  0.10330345010E+00  0.51100000000E-03 0. -1.
         11    1    4    4    0    0  0.89779219817E-02 -0.10425158844E-01 -0.20604044618E-01  0.24780532594E-01  0.51100000000E-03 0.  1.
</event>
<event>
 8    1  0.1161271E+005  0.1043930E+01  0.7957747E-01            NaN
         13   -1    0    0    0    0  0.00000000000E+00  0.00000000000E+00  0.74505805969E-08  0.10566000000E+00  0.10566000000E+00 0.  1.
     999900   -1    0    0    0    0 -0.00000000000E+00 -0.00000000000E+00 -0.74505805969E-08  0.93827000000E+00  0.93827000000E+00 0.  1.
     999902    2    1    2    0    0 -0.11178224866E-01  0.17979499495E-01  0.11025925123E-01  0.10200598065E+01  0.10197804777E+01 0.  0.
     999903    2    3    3    0    0  0.66990632036E-01 -0.24209934657E-01 -0.10423247106E+00  0.12810979868E+00  0.21768021924E-01 0.  0.
         14    1    1    2    0    0  0.11178224866E-01 -0.17979499495E-01 -0.11025925123E-01  0.23870193507E-01  0.00000000000E+00 0.  1.
     999901    1    3    3    0    0 -0.78168856902E-01  0.42189434153E-01  0.11525839618E+00  0.89195000781E+00  0.88000000000E+00 0. -1.
        -11    1    4    4    0    0  0.39250996056E-01 -0.93316926995E-02 -0.41276649140E-01  0.57721261813E-01  0.51100000000E-03 0.  1.
         11    1    4    4    0    0  0.27739635980E-01 -0.14878241958E-01 -0.62955821919E-01  0.70388536869E-01  0.51100000000E-03 0. -1.
</event>
<event>
 8    1  0.1161271E+005  0.1043930E+01  0.7957747E-01            NaN
         13   -1    0    0    0    0  0.00000000000E+00  0.00000000000E+00  0.74505805969E-08  0.10566000000E+00  0.10566000000E+00 0. -1.
     999900   -1    0    0    0    0 -0.00000000000E+00 -0.00000000000E+00 -0.74505805969E-08  0.93827000000E+00  0.93827000000E+00 0. -1.
     999902    2    1    2    0    0  0.17398649056E-01 -0.16073376632E-01 -0.61164900162E-03  0.10202352635E+01  0.10199600739E+01 0.  0.
     999903    2    3    3    0    0 -0.93023494071E-01  0.84986822209E-01 -0.40089659310E-02  0.12758877394E+00  0.19664511934E-01 0.  0.
         14    1    1    2    0    0 -0.17398649056E-01  0.16073376632E-01  0.61164900162E-03  0.23694736543E-01  0.00000000000E+00 0.  1.
     999901    1    3    3    0    0  0.11042214313E+00 -0.10106019884E+00  0.33973169294E-02  0.89264648952E+00  0.88000000000E+00 0.  1.
        -11    1    4    4    0    0 -0.64096415237E-01  0.63109303634E-01 -0.11086023613E-01  0.90632751762E-01  0.51100000000E-03 0.  1.
         11    1    4    4    0    0 -0.28927078834E-01  0.21877518575E-01  0.70770576822E-02  0.36956022180E-01  0.51100000000E-03 0. -1.
</event>
<event>
 8    1  0.1161271E+005  0.1043930E+01  0.7957747E-01            NaN
         13   -1    0    0    0    0  0.00000000000E+00  0.00000000000E+00  0.74505805969E-08  0.10566000000E+00  0.10566000000E+00 0.  1.
     999900   -1    0    0    0    0 -0.00000000000E+00 -0.00000000000E+00 -0.74505805969E-08  0.93827000000E+00  0.93827000000E+00 0.  1.
     999902    2    1    2    0    0  0.22953146214E-01 -0.57050945130E-02  0.69619914816E-02  0.10192750948E+01  0.10189768665E+01 0.  0.
     999903    2    3    3    0    0 -0.20946778213E-02  0.81618060106E-01 -0.94779259212E-01  0.12876736946E+00  0.30529199946E-01 0.  0.
         14    1    1    2    0    0 -0.22953146214E-01  0.57050945130E-02 -0.69619914816E-02  0.24654905190E-01  0.00000000000E+00 0. -1.
     999901    1    3    3    0    0  0.25047824036E-01 -0.87323154619E-01  0.10174125069E+00  0.89050772535E+00  0.88000000000E+00 0.  1.
        -11    1    4    4    0    0 -0.13619752880E-01  0.41204448273E-01 -0.60912258578E-01  0.74792169324E-01  0.51100000000E-03 0.  1.
         11    1    4    4    0    0  0.11525075058E-01  0.40413611833E-01 -0.33867000633E-01  0.53975200133E-01  0.51100000000E-03 0. -1.
</event>
<event>
 8    1  0.1161271E+005  0.1043930E+01  0.7957747E-01            NaN
         13   -1    0    0    0    0  0.00000000000E+00  0.00000000000E+00  0.74505805969E-08  0.10566000000E+00  0.10566000000E+00 0. -1.
     999900   -1    0    0    0    0 -0.00000000000E+00 -0.00000000000E+00 -0.74505805969E-08  0.93827000000E+00  0.93827000000E+00 0. -1.
     999902    2    1    2    0    0  0.20329053060E-01  0.52583408562E-02  0.47233638552E-02  0.10224072048E+01  0.10221806405E+01 0.  0.
     999903    2    3    3    0    0  0.94757879425E-01  0.16221103620E-01 -0.91062077668E-01  0.13401839175E+00  0.20650603411E-01 0.  0.
         14    1    1    2    0    0 -0.20329053060E-01 -0.52583408562E-02 -0.47233638552E-02  0.21522795195E-01  0.00000000000E+00 0.  1.
     999901    1    3    3    0    0 -0.74428826365E-01 -0.10962762763E-01  0.95785441523E-01  0.88838881306E+00  0.88000000000E+00 0.  1.
        -11    1    4    4    0    0  0.24174320876E-01 -0.27295324009E-02 -0.15263469210E-01  0.28724253693E-01  0.51100000000E-03 0.  1.
         11    1    4    4    0    0  0.70583558550E-01  0.18950636020E-01 -0.75798608458E-01  0.10529413805E+00  0.51100000000E-03 0. -1.
</event>
<event>
 8    1  0.1161271E+005  0.1043930E+01  0.7957747E-01            NaN
         13   -1    0    0    0    0  0.00000000000E+00  0.00000000000E+00  0.74505805969E-08  0.10566000000E+00  0.10566000000E+00 0. -1.
     999900   -1    0    0    0    0 -0.00000000000E+00 -0.00000000000E+00 -0.74505805969E-08  0.93827000000E+00  0.93827000000E+00 0.  1.
     999902    2    1    2    0    0 -0.21329844387E-01  0.70719046468E-02 -0.71242616048E-02  0.10203560907E+01  0.10200837331E+01 0.  0.
     999903    2    3    3    0    0  0.10601922305E-01 -0.74358716958E-01  0.10307132951E+00  0.12918065781E+00  0.20550519226E-01 0.  0.
         14    1    1    2    0    0  0.21329844387E-01 -0.70719046468E-02  0.71242616048E-02  0.23573909313E-01  0.00000000000E+00 0. -1.
     999901    1    3    3    0    0 -0.31931766692E-01  0.81430621605E-01 -0.11019559112E+00  0.89117543288E+00  0.88000000000E+00 0.  1.
        -11    1    4    4    0    0  0.10019538987E-01 -0.12608819216E-01  0.20843076058E-01  0.26345178384E-01  0.51100000000E-03 0.  1.
         11    1    4    4    0    0  0.58238331760E-03 -0.61749897743E-01  0.82228253456E-01  0.10283547943E+00  0.51100000000E-03 0. -1.
</event>
<event>
 8    1  0.1161271E+005  0.1043930E+01  0.7957747E-01            NaN
         13   -1    0    0    0    0  0.00000000000E+00  0.00000000000E+00  0.74505805969E-08  0.10566000000E+00  0.10566000000E+00 0. -1.
     999900   -1    0    0    0    0 -0.00000000000E+00 -0.00000000000E+00 -0.74505805969E-08  0.93827000000E+00  0.93827000000E+00 0.  1.
     999902    2    1    2    0    0 -0.42753905370E-02  0.17612630562E-01 -0.12852328643E-01  0.10217114026E+01  0.10214697862E+01 0.  0.
     999903    2    3    3    0    0 -0.11988362732E+00 -0.24679159410E-01 -0.47116371672E-01  0.13248258807E+00  0.18722677518E-01 0.  0.
         14    1    1    2    0    0  0.42753905370E-02 -0.17612630562E-01  0.12852328643E-01  0.22218597416E-01  0.00000000000E+00 0. -1.
     999901    1    3    3    0    0  0.11560823679E+00  0.42291789973E-01  0.34264043029E-01  0.88922881451E+00  0.88000000000E+00 0. -1.
        -11    1    4    4    0    0 -0.49805695596E-01 -0.14681138643E-01 -0.28727787330E-01  0.59343828926E-01  0.51100000000E-03 0.  1.
         11    1    4    4    0    0 -0.70077931728E-01 -0.99980207676E-02 -0.18388584341E-01  0.73138759147E-01  0.51100000000E-03 0. -1.
</event>
<event>
 8    1  0.1161271E+005  0.1043930E+01  0.7957747E-01            NaN
         13   -1    0    0    0    0  0.00000000000E+00  0.00000000000E+00  0.74505805969E-08  0.10566000000E+00  0.10566000000E+00 0.  1.
     999900   -1    0    0    0    0 -0.00000000000E+00 -0.00000000000E+00 -0.74505805969E-08  0.93827000000E+00  0.93827000000E+00 0. -1.
     999902    2    1    2    0    0  0.19974250428E-01  0.37534994417E-02  0.34736082505E-03  0.10236031680E+01  0.10234013218E+01 0.  0.
     999903    2    3    3    0    0  0.58681562878E-01  0.17307932903E-01 -0.11829250933E+00  0.13469518770E+00  0.20163964475E-01 0.  0.
         14    1    1    2    0    0 -0.19974250428E-01 -0.37534994417E-02 -0.34736082505E-03  0.20326831966E-01  0.00000000000E+00 0. -1.
     999901    1    3    3    0    0 -0.38707312450E-01 -0.13554433461E-01  0.11863987016E+00  0.88890798033E+00  0.88000000000E+00 0.  1.
        -11    1    4    4    0    0  0.31190656552E-01  0.14504764112E-03 -0.47396555191E-01  0.56741278272E-01  0.51100000000E-03 0.  1.
         11    1    4    4    0    0  0.27490906326E-01  0.17162885262E-01 -0.70895954142E-01  0.77953909432E-01  0.51100000000E-03 0. -1.
</event>
<event>
 8    1  0.1161271E+005  0.1043930E+01  0.7957747E-01            NaN
         13   -1    0    0    0    0  0.00000000000E+00  0.00000000000E+00  0.74505805969E-08  0.10566000000E+00  0.10566000000E+00 0.  1.
     999900   -1    0    0    0    0 -0.00000000000E+00 -0.00000000000E+00 -0.74505805969E-08  0.93827000000E+00  0.93827000000E+00 0. -1.
     999902    2    1    2    0    0 -0.54436788602E-03  0.15823813696E-01 -0.16524420967E-01  0.10210445045E+01  0.10207879967E+01 0.  0.
     999903    2    3    3    0    0  0.66545987966E-01 -0.15529697226E-01 -0.11209712364E+00  0.13277748383E+00  0.19863410455E-01 0.  0.
         14    1    1    2    0    0  0.54436788602E-03 -0.15823813696E-01  0.16524420967E-01  0.22885495506E-01  0.00000000000E+00 0.  1.
     999901    1    3    3    0    0 -0.67090355852E-01  0.31353510923E-01  0.95572702672E-01  0.88826702066E+00  0.88000000000E+00 0.  1.
        -11    1    4    4    0    0 -0.24180542868E-03  0.87632926834E-03 -0.76488656348E-02  0.77196301304E-02  0.51100000000E-03 0. -1.
         11    1    4    4    0    0  0.66787793394E-01 -0.16406026495E-01 -0.10444825800E+00  0.12505785370E+00  0.51100000000E-03 0.  1.
</event>
<event>
 8    1  0.1161271E+005  0.1043930E+01  0.7957747E-01            NaN
         13   -1    0    0    0    0  0.00000000000E+00  0.00000000000E+00  0.74505805969E-08  0.10566000000E+00  0.10566000000E+00 0.  1.
     999900   -1    0    0    0    0 -0.00000000000E+00 -0.00000000000E+00 -0.74505805969E-08  0.93827000000E+00  0.93827000000E+00 0.  1.
     999902    2    1    2    0    0 -0.23482541968E-02 -0.17775104711E-01 -0.14854306697E-01  0.10206465494E+01  0.10203809385E+01 0.  0.
     999903    2    3    3    0    0  0.12637624636E+00  0.76814369126E-02  0.22608816975E-01  0.13012899302E+00  0.19810000049E-01 0.  0.
         14    1    1    2    0    0  0.23482541968E-02  0.17775104711E-01  0.14854306697E-01  0.23283450618E-01  0.00000000000E+00 0. -1.
     999901    1    3    3    0    0 -0.12872450056E+00 -0.25456541623E-01 -0.37463123672E-01  0.89051755636E+00  0.88000000000E+00 0. -1.
        -11    1    4    4    0    0  0.55552359712E-01  0.60780893623E-03  0.19507907118E-01  0.58883390378E-01  0.51100000000E-03 0.  1.
         11    1    4    4    0    0  0.70823886648E-01  0.70736279763E-02  0.31009098569E-02  0.71245602641E-01  0.51100000000E-03 0. -1.
</event>
<event>
 8    1  0.1161271E+005  0.1043930E+01  0.7957747E-01            NaN
         13   -1    0    0    0    0  0.00000000000E+00  0.00000000000E+00  0.74505805969E-08  0.10566000000E+00  0.10566000000E+00 0. -1.
     999900   -1    0    0    0    0 -0.00000000000E+00 -0.00000000000E+00 -0.74505805969E-08  0.93827000000E+00  0.93827000000E+00 0.  1.
     999902    2    1    2    0    0  0.10813531277E-01  0.33445771396E-02 -0.23492748806E-01  0.10178526554E+01  0.10175185503E+01 0.  0.
     999903    2    3    3    0    0 -0.61525262789E-01 -0.10061206552E+00 -0.47585565852E-01  0.12845940800E+00  0.18146287169E-01 0.  0.
         14    1    1    2    0    0 -0.10813531277E-01 -0.33445771396E-02  0.23492748806E-01  0.26077344600E-01  0.00000000000E+00 0. -1.
     999901    1    3    3    0    0  0.72338794065E-01  0.10395664266E+00  0.24092817046E-01  0.88939324740E+00  0.88000000000E+00 0.  1.
        -11    1    4    4    0    0 -0.29369553881E-01 -0.31635690615E-01 -0.18934297689E-01  0.47139753562E-01  0.51100000000E-03 0.  1.
         11    1    4    4    0    0 -0.32155708907E-01 -0.68976374905E-01 -0.28651268162E-01  0.81319654443E-01  0.51100000000E-03 0. -1.
</event>
<event>
 8    1  0.1161271E+005  0.1043930E+01  0.7957747E-01            NaN
         13   -1    0    0    0    0  0.00000000000E+00  0.00000000000E+00  0.74505805969E-08  0.10566000000E+00  0.10566000000E+00 0. -1.
     999900   -1    0    0    0    0 -0.00000000000E+00 -0.00000000000E+00 -0.74505805969E-08  0.93827000000E+00  0.93827000000E+00 0. -1.
     999902    2    1    2    0    0  0.21321304987E-01  0.97742101714E-02 -0.66672040485E-02  0.10195458896E+01  0.10192542549E+01 0.  0.
     999903    2    3    3    0    0  0.71423421340E-01 -0.26918815529E-02  0.10759230084E+00  0.13065846141E+00  0.19671781742E-01 0.  0.
         14    1    1    2    0    0 -0.21321304987E-01 -0.97742101714E-02  0.66672040485E-02  0.24384110413E-01  0.00000000000E+00 0. -1.
     999901    1    3    3    0    0 -0.50102116354E-01  0.12466091724E-01 -0.11425950489E+00  0.88888742817E+00  0.88000000000E+00 0. -1.
        -11    1    4    4    0    0  0.30422457036E-01  0.29378855361E-02  0.30634557042E-01  0.43276948479E-01  0.51100000000E-03 0.  1.
         11    1    4    4    0    0  0.41000964305E-01 -0.56297670889E-02  0.76957743798E-01  0.87381512935E-01  0.51100000000E-03 0. -1.
</event>
<event>
 8    1  0.1161271E+005  0.1043930E+01  0.7957747E-01            NaN
         13   -1    0    0    0    0  0.00000000000E+00  0.00000000000E+00  0.74505805969E-08  0.10566000000E+00  0.10566000000E+00 0.  1.
     999900   -1    0    0    0    0 -0.00000000000E+00 -0.00000000000E+00 -0.74505805969E-08  0.93827000000E+00  0.93827000000E+00 0. -1.
     999902    2    1    2    0    0  0.87189869575E-02  0.20656999829E-01 -0.76270727395E-02  0.10202465751E+01  0.10199716513E+01 0.  0.
     999903    2    3    3    0    0 -0.96719201896E-01 -0.56250911150E-01  0.58891843200E-01  0.12813850733E+00  0.20795644838E-01 0.  0.
         14    1    1    2    0    0 -0.87189869575E-02 -0.20656999829E-01  0.76270727395E-02  0.23683424880E-01  0.00000000000E+00 0.  1.
     999901    1    3    3    0    0  0.10543818885E+00  0.76907910979E-01 -0.66518915939E-01  0.89210806779E+00  0.88000000000E+00 0. -1.
        -11    1    4    4    0    0 -0.41206628766E-01 -0.34670659910E-01  0.22700504137E-01  0.58443262417E-01  0.51100000000E-03 0. -1.
         11    1    4    4    0    0 -0.55512573131E-01 -0.21580251240E-01  0.36191339062E-01  0.69695244912E-01  0.51100000000E-03 0.  1.
</event>
<event>
 8    1  0.1161271E+005  0.1043930E+01  0.7957747E-01            NaN
         13   -1    0    0    0    0  0.00000000000E+00  0.00000000000E+00  0.74505805969E-08  0.10566000000E+00  0.10566000000E+00 0.  1.
     999900   -1    0    0    0    0 -0.00000000000E+00 -0.00000000000E+00 -0.74505805969E-08  0.93827000000E+00  0.93827000000E+00 0.  1.
     999902    2    1    2    0    0  0.13332302879E-01 -0.19917296757E-01 -0.29838354468E-03  0.10199604768E+01  0.10196787907E+01 0.  0.
     999903    2    3    3    0    0  0.11866740581E+00  0.48273720898E-01 -0.18807699576E-01  0.13086650337E+00  0.18973845399E-01 0.  0.
         14    1    1    2    0    0 -0.13332302879E-01  0.19917296757E-01  0.29838354468E-03  0.23969523210E-01  0.00000000000E+00 0. -1.
     999901    1    3    3    0    0 -0.10533510293E+00 -0.68191017655E-01  0.18509316031E-01  0.88909397342E+00  0.88000000000E+00 0. -1.
        -11    1    4    4    0    0  0.35898279905E-01  0.67986159720E-02 -0.78766990715E-03  0.36548450366E-01  0.51100000000E-03 0.  1.
         11    1    4    4    0    0  0.82769125904E-01  0.41475104926E-01 -0.18020029668E-01  0.94318053000E-01  0.51100000000E-03 0. -1.
</event>
<event>
 8    1  0.1161271E+005  0.1043930E+01  0.7957747E-01            NaN
         13   -1    0    0    0    0  0.00000000000E+00  0.00000000000E+00  0.74505805969E-08  0.10566000000E+00  0.10566000000E+00 0.  1.
     999900   -1    0    0    0    0 -0.00000000000E+00 -0.00000000000E+00 -0.74505805969E-08  0.93827000000E+00  0.93827000000E+00 0.  1.
     999902    2    1    2    0    0 -0.15816346133E-01 -0.99083898787E-02 -0.13507349447E-01  0.10208913046E+01  0.10206313117E+01 0.  0.
     999903    2    3    3    0    0 -0.20371443974E-01 -0.10959200723E+00  0.68440008098E-01  0.13146849073E+00  0.13210812608E-01 0.  0.
         14    1    1    2    0    0  0.15816346133E-01  0.99083898787E-02  0.13507349447E-01  0.23038695364E-01  0.00000000000E+00 0. -1.
     999901    1    3    3    0    0  0.45550978408E-02  0.99683617347E-01 -0.81947357545E-01  0.88942281390E+00  0.88000000000E+00 0.  1.
        -11    1    4    4    0    0 -0.20852271397E-01 -0.91071318304E-01  0.60487048225E-01  0.11130025321E+00  0.51100000000E-03 0. -1.
         11    1    4    4    0    0  0.48082742235E-03 -0.18520688921E-01  0.79529598724E-02  0.20168237525E-01  0.51100000000E-03 0.  1.
</event>
<event>
 8    1  0.1235514E+005  0.1043930E+01  0.7957747E-01            NaN
         13   -1    0    0    0    0  0.00000000000E+00  0.00000000000E+00  0.74505805969E-08  0.10566000000E+00  0.10566000000E+00 0. -1.
     999900   -1    0    0    0    0 -0.00000000000E+00 -0.00000000000E+00 -0.74505805969E-08  0.93827000000E+00  0.93827000000E+00 0. -1.
     999902    2    1    2    0    0  0.18952492666E-01  0.13290186219E-02 -0.14960992807E-01  0.10197474738E+01  0.10194606985E+01 0.  0.
     999903    2    3    3    0    0 -0.62246480607E-02  0.78123087303E-01 -0.10373024433E+00  0.13159703752E+00  0.20392490829E-01 0.  0.
         14    1    1    2    0    0 -0.18952492666E-01 -0.13290186219E-02  0.14960992807E-01  0.24182526223E-01  0.00000000000E+00 0. -1.
     999901    1    3    3    0    0  0.25177140727E-01 -0.76794068681E-01  0.88769251527E-01  0.88815043625E+00  0.88000000000E+00 0.  1.
        -11    1    4    4    0    0  0.19617860797E-02  0.56031463645E-01 -0.61389459837E-01  0.83140245506E-01  0.51100000000E-03 0. -1.
         11    1    4    4    0    0 -0.81864341404E-02  0.22091623659E-01 -0.42340784497E-01  0.48456792018E-01  0.51100000000E-03 0.  1.
</event>
<event>
 8    1  0.1161271E+005  0.1043930E+01  0.7957747E-01            NaN
         13   -1    0    0    0    0  0.00000000000E+00  0.00000000000E+00  0.74505805969E-08  0.10566000000E+00  0.10566000000E+00 0. -1.
     999900   -1    0    0    0    0 -0.00000000000E+00 -0.00000000000E+00 -0.74505805969E-08  0.93827000000E+00  0.93827000000E+00 0.  1.
     999902    2    1    2    0    0 -0.87579912566E-02  0.12991304053E-01  0.17397375960E-01  0.10205175016E+01  0.10202489039E+01 0.  0.
     999903    2    3    3    0    0 -0.28473954439E-01 -0.36453482667E-01 -0.11823676652E+00  0.12853648904E+00  0.20051772402E-01 0.  0.
         14    1    1    2    0    0  0.87579912566E-02 -0.12991304053E-01 -0.17397375960E-01  0.23412498418E-01  0.00000000000E+00 0.  1.
     999901    1    3    3    0    0  0.19715963182E-01  0.49444786720E-01  0.13563414248E+00  0.89198101255E+00  0.88000000000E+00 0. -1.
        -11    1    4    4    0    0 -0.15166715581E-01 -0.26066060415E-01 -0.51373751072E-01  0.59573418462E-01  0.51100000000E-03 0. -1.
         11    1    4    4    0    0 -0.13307238858E-01 -0.10387422252E-01 -0.66863015448E-01  0.68963070573E-01  0.51100000000E-03 0.  1.
</event>
<event>
 8    1  0.1161271E+005  0.1043930E+01  0.7957747E-01            NaN
         13   -1    0    0    0    0  0.00000000000E+00  0.00000000000E+00  0.74505805969E-08  0.10566000000E+00  0.10566000000E+00 0. -1.
     999900   -1    0    0    0    0 -0.00000000000E+00 -0.00000000000E+00 -0.74505805969E-08  0.93827000000E+00  0.93827000000E+00 0.  1.
     999902    2    1    2    0    0  0.12535092222E-01 -0.19690894639E-01  0.50116756108E-04  0.10205877126E+01  0.10203207421E+01 0.  0.
     999903    2    3    3    0    0  0.43673443310E-01  0.33665187730E-01  0.11689558291E+00  0.13071731115E+00  0.19537748510E-01 0.  0.
         14    1    1    2    0    0 -0.12535092222E-01  0.19690894639E-01 -0.50116756108E-04  0.23342287385E-01  0.00000000000E+00 0. -1.
     999901    1    3    3    0    0 -0.31138351087E-01 -0.53356082368E-01 -0.11684546615E+00  0.88987040146E+00  0.88000000000E+00 0.  1.
        -11    1    4    4    0    0  0.15559234016E-01  0.18943942740E-01  0.33726293544E-01  0.41697562601E-01  0.51100000000E-03 0. -1.
         11    1    4    4    0    0  0.28114209294E-01  0.14721244990E-01  0.83169289364E-01  0.89019748553E-01  0.51100000000E-03 0.  1.
</event>
<event>
 8    1  0.1161271E+005  0.1043930E+01  0.7957747E-01            NaN
         13   -1    0    0    0    0  0.00000000000E+00  0.00000000000E+00  0.74505805969E-08  0.10566000000E+00  0.10566000000E+00 0.  1.
     999900   -1    0    0    0    0 -0.00000000000E+00 -0.00000000000E+00 -0.74505805969E-08  0.93827000000E+00  0.93827000000E+00 0.  1.
     999902    2    1    2    0    0  0.16407075927E-01 -0.13726247076E-01  0.75983778128E-02  0.10212289572E+01  0.10209766137E+01 0.  0.
     999903    2    3    3    0    0 -0.11693445808E-01  0.84030559589E-01 -0.95872908339E-01  0.12934760879E+00  0.18474786221E-01 0.  0.
         14    1    1    2    0    0 -0.16407075927E-01  0.13726247076E-01 -0.75983778128E-02  0.22701042810E-01  0.00000000000E+00 0.  1.
     999901    1    3    3    0    0  0.28100521735E-01 -0.97756806665E-01  0.10347128615E+00  0.89188134840E+00  0.88000000000E+00 0.  1.
        -11    1    4    4    0    0 -0.34767288502E-04  0.56088729475E-01 -0.55786760868E-01  0.79109864063E-01  0.51100000000E-03 0. -1.
         11    1    4    4    0    0 -0.11658678519E-01  0.27941830114E-01 -0.40086147472E-01  0.50237744725E-01  0.51100000000E-03 0.  1.
</event>
<event>
 8    1  0.1286879E+005  0.1043930E+01  0.7957747E-01            NaN
         13   -1    0    0    0    0  0.00000000000E+00  0.00000000000E+00  0.74505805969E-08  0.10566000000E+00  0.10566000000E+00 0. -1.
     999900   -1    0    0    0    0 -0.00000000000E+00 -0.00000000000E+00 -0.74505805969E-08  0.93827000000E+00  0.93827000000E+00 0. -1.
     999902    2    1    2    0    0  0.69126533495E-02  0.45649700295E-02  0.21503251526E-01  0.10208862687E+01  0.10206261607E+01 0.  0.
     999903    2    3    3    0    0  0.13046551352E+00  0.49805774311E-02  0.19637724484E-02  0.13204023406E+00  0.19614041920E-01 0.  0.
         14    1    1    2    0    0 -0.69126533495E-02 -0.45649700295E-02 -0.21503251526E-01  0.23043731336E-01  0.00000000000E+00 0.  1.
     999901    1    3    3    0    0 -0.12355286017E+00 -0.41560740152E-03  0.19539479078E-01  0.88884603460E+00  0.88000000000E+00 0. -1.
        -11    1    4    4    0    0  0.59252921604E-01  0.11859656641E-01  0.26991922356E-02  0.60490552436E-01  0.51100000000E-03 0.  1.
         11    1    4    4    0    0  0.71212591912E-01 -0.68790792100E-02 -0.73541978725E-03  0.71549681626E-01  0.51100000000E-03 0. -1.
</event>
<event>
 8    1  0.1161271E+005  0.1043930E+01  0.7957747E-01            NaN
         13   -1    0    0    0    0  0.00000000000E+00  0.00000000000E+00  0.74505805969E-08  0.10566000000E+00  0.10566000000E+00 0. -1.
     999900   -1    0    0    0    0 -0.00000000000E+00 -0.00000000000E+00 -0.74505805969E-08  0.93827000000E+00  0.93827000000E+00 0.  1.
     999902    2    1    2    0    0 -0.15443572826E-01  0.15229967945E-01 -0.97967357523E-02  0.10201301702E+01  0.10198525052E+01 0.  0.
     999903    2    3    3    0    0 -0.97820698542E-01  0.65435367547E-01 -0.59783151424E-01  0.13344803174E+00  0.19587638718E-01 0.  0.
         14    1    1    2    0    0  0.15443572826E-01 -0.15229967945E-01  0.97967357523E-02  0.23799829761E-01  0.00000000000E+00 0. -1.
     999901    1    3    3    0    0  0.82377125716E-01 -0.50205399601E-01  0.49986415671E-01  0.88668213850E+00  0.88000000000E+00 0. -1.
        -11    1    4    4    0    0 -0.53290793657E-01  0.46816376569E-01 -0.32841845336E-01  0.78169877381E-01  0.51100000000E-03 0.  1.
         11    1    4    4    0    0 -0.44529904885E-01  0.18618990978E-01 -0.26941306088E-01  0.55278154354E-01  0.51100000000E-03 0. -1.
</event>
<event>
 8    1  0.1161271E+005  0.1043930E+01  0.7957747E-01            NaN
         13   -1    0    0    0    0  0.00000000000E+00  0.00000000000E+00  0.74505805969E-08  0.10566000000E+00  0.10566000000E+00 0.  1.
     999900   -1    0    0    0    0 -0.00000000000E+00 -0.00000000000E+00 -0.74505805969E-08  0.93827000000E+00  0.93827000000E+00 0.  1.
     999902    2    1    2    0    0 -0.12562333592E-01  0.13865545515E-02  0.19808783304E-01  0.10204327096E+01  0.10201621402E+01 0.  0.
     999903    2    3    3    0    0  0.10757704110E+00  0.68317264780E-01  0.16783955957E-01  0.12974626710E+00  0.17672696748E-01 0.  0.
         14    1    1    2    0    0  0.12562333592E-01 -0.13865545515E-02 -0.19808783304E-01  0.23497290371E-01  0.00000000000E+00 0. -1.
     999901    1    3    3    0    0 -0.12013937469E+00 -0.66930710228E-01  0.30248273469E-02  0.89068644253E+00  0.88000000000E+00 0.  1.
        -11    1    4    4    0    0  0.61363186426E-01  0.29733261509E-01  0.47867205740E-02  0.68357013562E-01  0.51100000000E-03 0.  1.
         11    1    4    4    0    0  0.46213854674E-01  0.38584003271E-01  0.11997235383E-01  0.61389253539E-01  0.51100000000E-03 0. -1.
</event>
<event>
 8    1  0.1161271E+005  0.1043930E+01  0.7957747E-01            NaN
         13   -1    0    0    0    0  0.00000000000E+00  0.00000000000E+00  0.74505805969E-08  0.10566000000E+00  0.10566000000E+00 0.  1.
     999900   -1    0    0    0    0 -0.00000000000E+00 -0.00000000000E+00 -0.74505805969E-08  0.93827000000E+00  0.93827000000E+00 0.  1.
     999902    2    1    2    0    0  0.46811169661E-02 -0.22678985722E-01 -0.16219861522E-03  0.10207723758E+01  0.10205096607E+01 0.  0.
     999903    2    3    3    0    0 -0.22149995771E-01 -0.50291140087E-01  0.11835208340E+00  0.13199345239E+00  0.19880511735E-01 0.  0.
         14    1    1    2    0    0 -0.46811169661E-02  0.22678985722E-01  0.16219861522E-03  0.23157624183E-01  0.00000000000E+00 0.  1.
     999901    1    3    3    0    0  0.26831112737E-01  0.27612154365E-01 -0.11851428201E+00  0.88877892342E+00  0.88000000000E+00 0.  1.
        -11    1    4    4    0    0 -0.23140502873E-01 -0.30068835415E-01  0.82710294735E-01  0.90999295121E-01  0.51100000000E-03 0. -1.
         11    1    4    4    0    0  0.99050710130E-03 -0.20222304672E-01  0.35641788662E-01  0.40994157273E-01  0.51100000000E-03 0.  1.
</event>
<event>
 8    1  0.1161271E+005  0.1043930E+01  0.7957747E-01            NaN
         13   -1    0    0    0    0  0.00000000000E+00  0.00000000000E+00  0.74505805969E-08  0.10566000000E+00  0.10566000000E+00 0. -1.
     999900   -1    0    0    0    0 -0.00000000000E+00 -0.00000000000E+00 -0.74505805969E-08  0.93827000000E+00  0.93827000000E+00 0. -1.
     999902    2    1    2    0    0  0.72716368144E-02  0.29204291258E-02  0.22939886187E-01  0.10196886307E+01  0.10194004412E+01 0.  0.
     999903    2    3    3    0    0  0.66438151812E-01 -0.61575480177E-01 -0.88620433308E-01  0.12833791200E+00  0.20284740088E-01 0.  0.
         14    1    1    2    0    0 -0.72716368144E-02 -0.29204291258E-02 -0.22939886187E-01  0.24241369320E-01  0.00000000000E+00 0.  1.
     999901    1    3    3    0    0 -0.59166514997E-01  0.64495909303E-01  0.11156031949E+00  0.89135071868E+00  0.88000000000E+00 0.  1.
        -11    1    4    4    0    0  0.27478288973E-01 -0.37007274581E-01 -0.52019897539E-01  0.69504860246E-01  0.51100000000E-03 0. -1.
         11    1    4    4    0    0  0.38959862839E-01 -0.24568205596E-01 -0.36600535770E-01  0.58833051750E-01  0.51100000000E-03 0.  1.
</event>
<event>
 8    1  0.1161271E+005  0.1043930E+01  0.7957747E-01            NaN
         13   -1    0    0    0    0  0.00000000000E+00  0.00000000000E+00  0.74505805969E-08  0.10566000000E+00  0.10566000000E+00 0.  1.
     999900   -1    0    0    0    0 -0.00000000000E+00 -0.00000000000E+00 -0.74505805969E-08  0.93827000000E+00  0.93827000000E+00 0.  1.
     999902    2    1    2    0    0 -0.85311061421E-02 -0.11877351514E-01 -0.12726154354E-01  0.10245442770E+01  0.10243608589E+01 0.  0.
     999903    2    3    3    0    0  0.52763154031E-01 -0.77140850791E-01 -0.96741870065E-01  0.13602024743E+00  0.20195469851E-01 0.  0.
         14    1    1    2    0    0  0.85311061421E-02  0.11877351514E-01  0.12726154354E-01  0.19385722985E-01  0.00000000000E+00 0.  1.
     999901    1    3    3    0    0 -0.61294260173E-01  0.65263499277E-01  0.84015715711E-01  0.88852402959E+00  0.88000000000E+00 0. -1.
        -11    1    4    4    0    0  0.40872138018E-01 -0.65967385167E-01 -0.69061285448E-01  0.10388430989E+00  0.51100000000E-03 0. -1.
         11    1    4    4    0    0  0.11891016013E-01 -0.11173465624E-01 -0.27680584617E-01  0.32135937541E-01  0.51100000000E-03 0.  1.
</event>
<event>
 8    1  0.1161271E+005  0.1043930E+01  0.7957747E-01            NaN
         13   -1    0    0    0    0  0.00000000000E+00  0.00000000000E+00  0.74505805969E-08  0.10566000000E+00  0.10566000000E+00 0. -1.
     999900   -1    0    0    0    0 -0.00000000000E+00 -0.00000000000E+00 -0.74505805969E-08  0.93827000000E+00  0.93827000000E+00 0.  1.
     999902    2    1    2    0    0 -0.22209183435E-01  0.27813926421E-02 -0.68018309002E-02  0.10205366489E+01  0.10202684954E+01 0.  0.
     999903    2    3    3    0    0  0.81141421986E-02  0.20128355361E-01 -0.12801935757E+00  0.13154052403E+00  0.21046699431E-01 0.  0.
         14    1    1    2    0    0  0.22209183435E-01 -0.27813926421E-02  0.68018309002E-02  0.23393351139E-01  0.00000000000E+00 0. -1.
     999901    1    3    3    0    0 -0.30323325634E-01 -0.17346962719E-01  0.12121752667E+00  0.88899612483E+00  0.88000000000E+00 0. -1.
        -11    1    4    4    0    0 -0.68322449487E-02  0.30035815237E-02 -0.33523609156E-01  0.34348137720E-01  0.51100000000E-03 0. -1.
         11    1    4    4    0    0  0.14946387147E-01  0.17124773837E-01 -0.94495748412E-01  0.97192386311E-01  0.51100000000E-03 0.  1.
</event>
<event>
 8    1  0.1161271E+005  0.1043930E+01  0.7957747E-01            NaN
         13   -1    0    0    0    0  0.00000000000E+00  0.00000000000E+00  0.74505805969E-08  0.10566000000E+00  0.10566000000E+00 0. -1.
     999900   -1    0    0    0    0 -0.00000000000E+00 -0.00000000000E+00 -0.74505805969E-08  0.93827000000E+00  0.93827000000E+00 0.  1.
     999902    2    1    2    0    0 -0.75131437480E-02  0.24796710722E-01  0.30734823874E-02  0.10178384212E+01  0.10175039465E+01 0.  0.
     999903    2    3    3    0    0  0.32694918323E-01  0.17354142317E-01  0.12184604520E+00  0.12891828879E+00  0.20083389003E-01 0.  0.
         14    1    1    2    0    0  0.75131437480E-02 -0.24796710722E-01 -0.30734823874E-02  0.26091578826E-01  0.00000000000E+00 0.  1.
     999901    1    3    3    0    0 -0.40208062071E-01  0.74425684050E-02 -0.11877256281E+00  0.88892013238E+00  0.88000000000E+00 0.  1.
        -11    1    4    4    0    0  0.24841823349E-01  0.95662326227E-02  0.54361093265E-01  0.60531137242E-01  0.51100000000E-03 0. -1.
         11    1    4    4    0    0  0.78530949742E-02  0.77879096947E-02  0.67484951936E-01  0.68387151548E-01  0.51100000000E-03 0.  1.
</event>
<event>
 8    1  0.1161271E+005  0.1043930E+01  0.7957747E-01            NaN
         13   -1    0    0    0    0  0.00000000000E+00  0.00000000000E+00  0.74505805969E-08  0.10566000000E+00  0.10566000000E+00 0.  1.
     999900   -1    0    0    0    0 -0.00000000000E+00 -0.00000000000E+00 -0.74505805969E-08  0.93827000000E+00  0.93827000000E+00 0. -1.
     999902    2    1    2    0    0  0.33270791432E-02  0.21717707337E-01  0.69625295053E-02  0.10208821132E+01  0.10206219104E+01 0.  0.
     999903    2    3    3    0    0  0.10916800172E+00  0.14236905741E-01 -0.68270269883E-01  0.13132141412E+00  0.21543954423E-01 0.  0.
         14    1    1    2    0    0 -0.33270791432E-02 -0.21717707337E-01 -0.69625295053E-02  0.23047886773E-01  0.00000000000E+00 0. -1.
     999901    1    3    3    0    0 -0.10584092258E+00  0.74808015965E-02  0.75232799388E-01  0.88956069910E+00  0.88000000000E+00 0.  1.
        -11    1    4    4    0    0  0.10717561787E+00  0.11450293475E-01 -0.62513491684E-01  0.12460304992E+00  0.51100000000E-03 0. -1.
         11    1    4    4    0    0  0.19923838578E-02  0.27866122652E-02 -0.57567781994E-02  0.67183642049E-02  0.51100000000E-03 0.  1.
</event>
<event>
 8    1  0.1161271E+005  0.1043930E+01  0.7957747E-01            NaN
         13   -1    0    0    0    0  0.00000000000E+00  0.00000000000E+00  0.74505805969E-08  0.10566000000E+00  0.10566000000E+00 0.  1.
     999900   -1    0    0    0    0 -0.00000000000E+00 -0.00000000000E+00 -0.74505805969E-08  0.93827000000E+00  0.93827000000E+00 0. -1.
     999902    2    1    2    0    0  0.13552909569E-01 -0.75392347739E-02  0.17229539904E-01  0.10207485750E+01  0.10204853134E+01 0.  0.
     999903    2    3    3    0    0 -0.12038100826E+00  0.19397079276E-02  0.44937860701E-01  0.13013311606E+00  0.20490655304E-01 0.  0.
         14    1    1    2    0    0 -0.13552909569E-01  0.75392347739E-02 -0.17229539904E-01  0.23181424979E-01  0.00000000000E+00 0. -1.
     999901    1    3    3    0    0  0.13393391783E+00 -0.94789427016E-02 -0.27708320798E-01  0.89061545896E+00  0.88000000000E+00 0.  1.
        -11    1    4    4    0    0 -0.39599678545E-01  0.23168692308E-02  0.49010148050E-02  0.39972284036E-01  0.51100000000E-03 0.  1.
         11    1    4    4    0    0 -0.80781329714E-01 -0.37716130320E-03  0.40036845896E-01  0.90160832024E-01  0.51100000000E-03 0. -1.
</event>
<event>
 8    1  0.1161271E+005  0.1043930E+01  0.7957747E-01            NaN
         13   -1    0    0    0    0  0.00000000000E+00  0.00000000000E+00  0.74505805969E-08  0.10566000000E+00  0.10566000000E+00 0.  1.
     999900   -1    0    0    0    0 -0.00000000000E+00 -0.00000000000E+00 -0.74505805969E-08  0.93827000000E+00  0.93827000000E+00 0.  1.
     999902    2    1    2    0    0 -0.80389986798E-02 -0.22107692809E-01  0.27523714901E-02  0.10202455931E+01  0.10199706462E+01 0.  0.
     999903    2    3    3    0    0  0.43473480455E-01 -0.12382704412E+00  0.21550464390E-03  0.13288614078E+00  0.20871023260E-01 0.  0.
         14    1    1    2    0    0  0.80389986798E-02  0.22107692809E-01 -0.27523714901E-02  0.23684406894E-01  0.00000000000E+00 0. -1.
     999901    1    3    3    0    0 -0.51512479135E-01  0.10171935131E+00  0.25368668462E-02  0.88735945232E+00  0.88000000000E+00 0.  1.
        -11    1    4    4    0    0 -0.20165201781E-02 -0.93475899144E-02 -0.14622901274E-02  0.96872702168E-02  0.51100000000E-03 0. -1.
         11    1    4    4    0    0  0.45490000633E-01 -0.11447945420E+00  0.16777947713E-02  0.12319887056E+00  0.51100000000E-03 0.  1.
</event>
<event>
 8    1  0.1161271E+005  0.1043930E+01  0.7957747E-01            NaN
         13   -1    0    0    0    0  0.00000000000E+00  0.00000000000E+00  0.74505805969E-08  0.10566000000E+00  0.10566000000E+00 0.  1.
     999900   -1    0    0    0    0 -0.00000000000E+00 -0.00000000000E+00 -0.74505805969E-08  0.93827000000E+00  0.93827000000E+00 0.  1.
     999902    2    1    2    0    0  0.10766961425E-01 -0.19597646860E-01  0.89300658556E-02  0.10198521825E+01  0.10195679148E+01 0.  0.
     999903    2    3    3    0    0 -0.83838531823E-01 -0.97088586781E-01 -0.17354491926E-01  0.13100690735E+00  0.20162794516E-01 0.  0.
         14    1    1    2    0    0 -0.10766961425E-01  0.19597646860E-01 -0.89300658556E-02  0.24077817529E-01  0.00000000000E+00 0. -1.
     999901    1    3    3    0    0  0.94605493248E-01  0.77490939922E-01  0.26284557782E-01  0.88884527512E+00  0.88000000000E+00 0.  1.
        -11    1    4    4    0    0 -0.30939877066E-01 -0.26769198972E-01 -0.12885885390E-01  0.42897239652E-01  0.51100000000E-03 0.  1.
         11    1    4    4    0    0 -0.52898654757E-01 -0.70319387809E-01 -0.44686065356E-02  0.88109667700E-01  0.51100000000E-03 0. -1.
</event>
<event>
 8    1  0.1161271E+005  0.1043930E+01  0.7957747E-01            NaN
         13   -1    0    0    0    0  0.00000000000E+00  0.00000000000E+00  0.74505805969E-08  0.10566000000E+00  0.10566000000E+00 0. -1.
     999900   -1    0    0    0    0 -0.00000000000E+00 -0.00000000000E+00 -0.74505805969E-08  0.93827000000E+00  0.93827000000E+00 0.  1.
     999902    2    1    2    0    0 -0.31170359620E-02 -0.21866347034E-01 -0.66453867819E-02  0.10208645667E+01  0.10206039631E+01 0.  0.
     999903    2    3    3    0    0  0.10653375849E+00  0.62704812216E-01  0.32109418476E-01  0.12919337587E+00  0.19457092331E-01 0.  0.
         14    1    1    2    0    0  0.31170359620E-02  0.21866347034E-01  0.66453867819E-02  0.23065433256E-01  0.00000000000E+00 0. -1.
     999901    1    3    3    0    0 -0.10965079445E+00 -0.84571159251E-01 -0.38754805258E-01  0.89167119087E+00  0.88000000000E+00 0.  1.
        -11    1    4    4    0    0  0.24371447445E-01  0.58542749852E-02  0.38866343923E-02  0.25369411386E-01  0.51100000000E-03 0.  1.
         11    1    4    4    0    0  0.82162311041E-01  0.56850537231E-01  0.28222784084E-01  0.10382396449E+00  0.51100000000E-03 0. -1.
</event>
<event>
 8    1  0.1161271E+005  0.1043930E+01  0.7957747E-01            NaN
         13   -1    0    0    0    0  0.00000000000E+00  0.00000000000E+00  0.74505805969E-08  0.10566000000E+00  0.10566000000E+00 0. -1.
     999900   -1    0    0    0    0 -0.00000000000E+00 -0.00000000000E+00 -0.74505805969E-08  0.93827000000E+00  0.93827000000E+00 0. -1.
     999902    2    1    2    0    0 -0.18012558199E-01  0.17323997860E-02  0.11176066378E-01  0.10226612924E+01  0.10224401015E+01 0.  0.
     999903    2    3    3    0    0  0.95285385759E-01 -0.83848094403E-01 -0.23579126806E-01  0.13060279180E+00  0.19781464343E-01 0.  0.
         14    1    1    2    0    0  0.18012558199E-01 -0.17323997860E-02 -0.11176066378E-01  0.21268707568E-01  0.00000000000E+00 0. -1.
     999901    1    3    3    0    0 -0.11329794396E+00  0.85580494189E-01  0.34755193184E-01  0.89205850063E+00  0.88000000000E+00 0.  1.
        -11    1    4    4    0    0  0.49814690210E-01 -0.56713993909E-01 -0.12837425084E-01  0.76570497383E-01  0.51100000000E-03 0. -1.
         11    1    4    4    0    0  0.45470695549E-01 -0.27134100495E-01 -0.10741701723E-01  0.54032294420E-01  0.51100000000E-03 0.  1.
</event>
<event>
 8    1  0.1161271E+005  0.1043930E+01  0.7957747E-01            NaN
         13   -1    0    0    0    0  0.00000000000E+00  0.00000000000E+00  0.74505805969E-08  0.10566000000E+00  0.10566000000E+00 0.  1.
     999900   -1    0    0    0    0 -0.00000000000E+00 -0.00000000000E+00 -0.74505805969E-08  0.93827000000E+00  0.93827000000E+00 0.  1.
     999902    2    1    2    0    0 -0.81609874217E-02  0.14953248473E-01  0.15986712499E-01  0.10205681436E+01  0.10203007201E+01 0.  0.
     999903    2    3    3    0    0 -0.10519625939E+00 -0.69282194515E-01 -0.25785945628E-01  0.13025560930E+00  0.20864642206E-01 0.  0.
         14    1    1    2    0    0  0.81609874217E-02 -0.14953248473E-01 -0.15986712499E-01  0.23361856350E-01  0.00000000000E+00 0. -1.
     999901    1    3    3    0    0  0.97035271969E-01  0.84235442988E-01  0.41772658128E-01  0.89031253435E+00  0.88000000000E+00 0.  1.
        -11    1    4    4    0    0 -0.50408512061E-01 -0.25484524300E-01 -0.19800946336E-01  0.59856642604E-01  0.51100000000E-03 0.  1.
         11    1    4    4    0    0 -0.54787747329E-01 -0.43797670214E-01 -0.59849992918E-02  0.70398966691E-01  0.51100000000E-03 0. -1.
</event>
<event>
 8    1  0.1161271E+005  0.1043930E+01  0.7957747E-01            NaN
         13   -1    0    0    0    0  0.00000000000E+00  0.00000000000E+00  0.74505805969E-08  0.10566000000E+00  0.10566000000E+00 0.  1.
     999900   -1    0    0    0    0 -0.00000000000E+00 -0.00000000000E+00 -0.74505805969E-08  0.93827000000E+00  0.93827000000E+00 0.  1.
     999902    2    1    2    0    0  0.25182360351E-02  0.44450291330E-03 -0.23179800448E-01  0.10206095745E+01  0.10203431096E+01 0.  0.
     999903    2    3    3    0    0 -0.11321003265E+00 -0.32786775016E-01 -0.55394448142E-01  0.13182662378E+00  0.20450666114E-01 0.  0.
         14    1    1    2    0    0 -0.25182360351E-02 -0.44450291330E-03  0.23179800448E-01  0.23320425476E-01  0.00000000000E+00 0.  1.
     999901    1    3    3    0    0  0.11572826868E+00  0.33231277929E-01  0.32214647693E-01  0.88878295074E+00  0.88000000000E+00 0.  1.
        -11    1    4    4    0    0 -0.80561014344E-01 -0.32139248974E-01 -0.36574103783E-01  0.94132537124E-01  0.51100000000E-03 0. -1.
         11    1    4    4    0    0 -0.32649018303E-01 -0.64752604211E-03 -0.18820344359E-01  0.37694086657E-01  0.51100000000E-03 0.  1.
</event>
<event>
 8    1  0.1161271E+005  0.1043930E+01  0.7957747E-01            NaN
         13   -1    0    0    0    0  0.00000000000E+00  0.00000000000E+00  0.74505805969E-08  0.10566000000E+00  0.10566000000E+00 0.  1.
     999900   -1    0    0    0    0 -0.00000000000E+00 -0.00000000000E+00 -0.74505805969E-08  0.93827000000E+00  0.93827000000E+00 0. -1.
     999902    2    1    2    0    0  0.55212177468E-02 -0.19728127597E-01  0.13301254691E-01  0.10195044756E+01  0.10192118375E+01 0.  0.
     999903    2    3    3    0    0  0.58568332278E-01 -0.89844450948E-01  0.76031202200E-01  0.13290121517E+00  0.19486261159E-01 0.  0.
         14    1    1    2    0    0 -0.55212177468E-02  0.19728127597E-01 -0.13301254691E-01  0.24425524360E-01  0.00000000000E+00 0. -1.
     999901    1    3    3    0    0 -0.53047114532E-01  0.70116323352E-01 -0.62729947508E-01  0.88660326047E+00  0.88000000000E+00 0. -1.
        -11    1    4    4    0    0  0.20355922291E-01 -0.42617107088E-01  0.42344471863E-01  0.63434192729E-01  0.51100000000E-03 0.  1.
         11    1    4    4    0    0  0.38212409988E-01 -0.47227343860E-01  0.33686730337E-01  0.69467022442E-01  0.51100000000E-03 0. -1.
</event>
<event>
 8    1  0.1161271E+005  0.1043930E+01  0.7957747E-01            NaN
         13   -1    0    0    0    0  0.00000000000E+00  0.00000000000E+00  0.74505805969E-08  0.10566000000E+00  0.10566000000E+00 0.  1.
     999900   -1    0    0    0    0 -0.00000000000E+00 -0.00000000000E+00 -0.74505805969E-08  0.93827000000E+00  0.93827000000E+00 0. -1.
     999902    2    1    2    0    0  0.68039295071E-02  0.94700080241E-02 -0.20367204324E-01  0.10204609242E+01  0.10201910116E+01 0.  0.
     999903    2    3    3    0    0  0.50162300958E-01 -0.10554184553E+00 -0.56042673816E-01  0.13120257365E+00  0.20444961475E-01 0.  0.
         14    1    1    2    0    0 -0.68039295071E-02 -0.94700080241E-02  0.20367204324E-01  0.23469075838E-01  0.00000000000E+00 0.  1.
     999901    1    3    3    0    0 -0.43358371451E-01  0.11501185355E+00  0.35675469492E-01  0.88925835051E+00  0.88000000000E+00 0. -1.
        -11    1    4    4    0    0  0.11043056055E-01 -0.14786107642E-01 -0.20198325755E-02  0.18571992646E-01  0.51100000000E-03 0.  1.
         11    1    4    4    0    0  0.39119244904E-01 -0.90755737884E-01 -0.54022841240E-01  0.11263058100E+00  0.51100000000E-03 0. -1.
</event>
<event>
 8    1  0.1161271E+005  0.1043930E+01  0.7957747E-01            NaN
         13   -1    0    0    0    0  0.00000000000E+00  0.00000000000E+00  0.74505805969E-08  0.10566000000E+00  0.10566000000E+00 0. -1.
     999900   -1    0    0    0    0 -0.00000000000E+00 -0.00000000000E+00 -0.74505805969E-08  0.93827000000E+00  0.93827000000E+00 0. -1.
     999902    2    1    2    0    0 -0.21735527016E-01 -0.70294984042E-02  0.68770814811E-02  0.10200733189E+01  0.10197943100E+01 0.  0.
     999903    2    3    3    0    0 -0.11344366584E+00 -0.13294192117E-01 -0.63883649688E-01  0.13246039079E+00  0.20455648779E-01 0.  0.
         14    1    1    2    0    0  0.21735527016E-01  0.70294984042E-02 -0.68770814811E-02  0.23856681081E-01  0.00000000000E+00 0.  1.
     999901    1    3    3    0    0  0.91708138821E-01  0.62646937129E-02  0.70760731169E-01  0.88761292813E+00  0.88000000000E+00 0.  1.
        -11    1    4    4    0    0 -0.60366477688E-01 -0.76796758582E-02 -0.22352400552E-01  0.64830393961E-01  0.51100000000E-03 0. -1.
         11    1    4    4    0    0 -0.53077188150E-01 -0.56145162590E-02 -0.41531249136E-01  0.67629996825E-01  0.51100000000E-03 0.  1.
</event>
<event>
 8    1  0.1161271E+005  0.1043930E+01  0.7957747E-01            NaN
         13   -1    0    0    0    0  0.00000000000E+00  0.00000000000E+00  0.74505805969E-08  0.10566000000E+00  0.10566000000E+00 0.  1.
     999900   -1    0    0    0    0 -0.00000000000E+00 -0.00000000000E+00 -0.74505805969E-08  0.93827000000E+00  0.93827000000E+00 0. -1.
     999902    2    1    2    0    0 -0.84872245328E-02 -0.22471262763E-01 -0.34994630374E-02  0.10196557982E+01  0.10193668182E+01 0.  0.
     999903    2    3    3    0    0 -0.83341576412E-01  0.94053251872E-01  0.18153805110E-01  0.12856096571E+00  0.20162557328E-01 0.  0.
         14    1    1    2    0    0  0.84872245328E-02  0.22471262763E-01  0.34994630374E-02  0.24274201778E-01  0.00000000000E+00 0.  1.
     999901    1    3    3    0    0  0.74854351880E-01 -0.11652451463E+00 -0.21653268147E-01  0.89109483251E+00  0.88000000000E+00 0. -1.
        -11    1    4    4    0    0 -0.46889883615E-01  0.58569649516E-01  0.20019154847E-01  0.77653671592E-01  0.51100000000E-03 0.  1.
         11    1    4    4    0    0 -0.36451692797E-01  0.35483602356E-01 -0.18653497367E-02  0.50907294119E-01  0.51100000000E-03 0. -1.
</event>
<event>
 8    1  0.1161271E+005  0.1043930E+01  0.7957747E-01            NaN
         13   -1    0    0    0    0  0.00000000000E+00  0.00000000000E+00  0.74505805969E-08  0.10566000000E+00  0.10566000000E+00 0.  1.
     999900   -1    0    0    0    0 -0.00000000000E+00 -0.00000000000E+00 -0.74505805969E-08  0.93827000000E+00  0.93827000000E+00 0. -1.
     999902    2    1    2    0    0  0.52337494847E-02 -0.20312863984E-01 -0.95497952943E-02  0.10208821548E+01  0.10206219530E+01 0.  0.
     999903    2    3    3    0    0  0.60631522991E-02 -0.59754810276E-01  0.11482121434E+00  0.13126172842E+00  0.20936354006E-01 0.  0.
         14    1    1    2    0    0 -0.52337494847E-02  0.20312863984E-01  0.95497952943E-02  0.23047845172E-01  0.00000000000E+00 0.  1.
     999901    1    3    3    0    0 -0.82940281435E-03  0.39441946293E-01 -0.12437100964E+00  0.88962042640E+00  0.88000000000E+00 0. -1.
        -11    1    4    4    0    0 -0.31632839842E-02 -0.19740335791E-01  0.56477494567E-01  0.59913735790E-01  0.51100000000E-03 0.  1.
         11    1    4    4    0    0  0.92264362832E-02 -0.40014474486E-01  0.58343719775E-01  0.71347992635E-01  0.51100000000E-03 0. -1.
</event>
<event>
 8    1  0.1161271E+005  0.1043930E+01  0.7957747E-01            NaN
         13   -1    0    0    0    0  0.00000000000E+00  0.00000000000E+00  0.74505805969E-08  0.10566000000E+00  0.10566000000E+00 0. -1.
     999900   -1    0    0    0    0 -0.00000000000E+00 -0.00000000000E+00 -0.74505805969E-08  0.93827000000E+00  0.93827000000E+00 0.  1.
     999902    2    1    2    0    0  0.90975274840E-02  0.19149400627E-01  0.11079419094E-01  0.10200089198E+01  0.10197283846E+01 0.  0.
     999903    2    3    3    0    0  0.60165536631E-01  0.37127622207E-01 -0.10671846897E+00  0.13051046536E+00  0.25412552438E-01 0.  0.
         14    1    1    2    0    0 -0.90975274840E-02 -0.19149400627E-01 -0.11079419094E-01  0.23921080204E-01  0.00000000000E+00 0.  1.
     999901    1    3    3    0    0 -0.51068009147E-01 -0.17978221580E-01  0.11779788806E+00  0.88949845443E+00  0.88000000000E+00 0. -1.
        -11    1    4    4    0    0  0.21857187693E-01  0.27535823948E-01 -0.57602306889E-01  0.67485147509E-01  0.51100000000E-03 0.  1.
         11    1    4    4    0    0  0.38308348937E-01  0.95917982592E-02 -0.49116162077E-01  0.63025317852E-01  0.51100000000E-03 0. -1.
</event>
<event>
 8    1  0.1161271E+005  0.1043930E+01  0.7957747E-01            NaN
         13   -1    0    0    0    0  0.00000000000E+00  0.00000000000E+00  0.74505805969E-08  0.10566000000E+00  0.10566000000E+00 0.  1.
     999900   -1    0    0    0    0 -0.00000000000E+00 -0.00000000000E+00 -0.74505805969E-08  0.93827000000E+00  0.93827000000E+00 0. -1.
     999902    2    1    2    0    0 -0.11892694449E-01  0.58753391824E-02 -0.19616269388E-01  0.10202497589E+01  0.10199749099E+01 0.  0.
     999903    2    3    3    0    0 -0.67424832296E-01 -0.66097096081E-02 -0.11329341997E+00  0.13344927218E+00  0.19583487095E-01 0.  0.
         14    1    1    2    0    0  0.11892694449E-01 -0.58753391824E-02  0.19616269388E-01  0.23680241056E-01  0.00000000000E+00 0.  1.
     999901    1    3    3    0    0  0.55532137846E-01  0.12485048791E-01  0.93677150582E-01  0.88680048676E+00  0.88000000000E+00 0.  1.
        -11    1    4    4    0    0 -0.22290912029E-01  0.40222322572E-02 -0.50862035905E-01  0.55680076588E-01  0.51100000000E-03 0.  1.
         11    1    4    4    0    0 -0.45133920266E-01 -0.10631941865E-01 -0.62431384065E-01  0.77769195596E-01  0.51100000000E-03 0. -1.
</event>
<event>
 8    1  0.1161271E+005  0.1043930E+01  0.7957747E-01            NaN
         13   -1    0    0    0    0  0.00000000000E+00  0.00000000000E+00  0.74505805969E-08  0.10566000000E+00  0.10566000000E+00 0. -1.
     999900   -1    0    0    0    0 -0.00000000000E+00 -0.00000000000E+00 -0.74505805969E-08  0.93827000000E+00  0.93827000000E+00 0. -1.
     999902    2    1    2    0    0  0.23095171686E-01  0.18013609524E-02  0.40368853763E-02  0.10204155725E+01  0.10201446036E+01 0.  0.
     999903    2    3    3    0    0  0.12954322731E+00 -0.25372871521E-01  0.29861689075E-02  0.13358372179E+00  0.20259890710E-01 0.  0.
         14    1    1    2    0    0 -0.23095171686E-01 -0.18013609524E-02 -0.40368853763E-02  0.23514427486E-01  0.00000000000E+00 0.  1.
     999901    1    3    3    0    0 -0.10644805562E+00  0.27174232474E-01  0.10507164688E-02  0.88683185073E+00  0.88000000000E+00 0. -1.
        -11    1    4    4    0    0  0.76060223259E-01 -0.47146499988E-02  0.10725089564E-02  0.76215463545E-01  0.51100000000E-03 0.  1.
         11    1    4    4    0    0  0.53483004048E-01 -0.20658221523E-01  0.19136599512E-02  0.57368258243E-01  0.51100000000E-03 0. -1.
</event>
<event>
 8    1  0.1161271E+005  0.1043930E+01  0.7957747E-01            NaN
         13   -1    0    0    0    0  0.00000000000E+00  0.00000000000E+00  0.74505805969E-08  0.10566000000E+00  0.10566000000E+00 0. -1.
     999900   -1    0    0    0    0 -0.00000000000E+00 -0.00000000000E+00 -0.74505805969E-08  0.93827000000E+00  0.93827000000E+00 0.  1.
     999902    2    1    2    0    0 -0.13447957111E-01  0.15256818244E-01 -0.13934625177E-01  0.10192765655E+01  0.10189783733E+01 0.  0.
     999903    2    3    3    0    0  0.26245872878E-01 -0.26842121992E-01 -0.12319055836E+00  0.13063446666E+00  0.21911295109E-01 0.  0.
         14    1    1    2    0    0  0.13447957111E-01 -0.15256818244E-01  0.13934625177E-01  0.24653434492E-01  0.00000000000E+00 0. -1.
     999901    1    3    3    0    0 -0.39693829989E-01  0.42098940236E-01  0.10925593319E+00  0.88864209885E+00  0.88000000000E+00 0. -1.
        -11    1    4    4    0    0  0.37514795617E-02 -0.18221578830E-01 -0.41881088177E-01  0.45829970563E-01  0.51100000000E-03 0. -1.
         11    1    4    4    0    0  0.22494393316E-01 -0.86205431614E-02 -0.81309470188E-01  0.84804496097E-01  0.51100000000E-03 0.  1.
</event>
<event>
 8    1  0.1161271E+005  0.1043930E+01  0.7957747E-01            NaN
         13   -1    0    0    0    0  0.00000000000E+00  0.00000000000E+00  0.74505805969E-08  0.10566000000E+00  0.10566000000E+00 0.  1.
     999900   -1    0    0    0    0 -0.00000000000E+00 -0.00000000000E+00 -0.74505805969E-08  0.93827000000E+00  0.93827000000E+00 0.  1.
     999902    2    1    2    0    0  0.16462609180E-01  0.62638125080E-02 -0.15792980258E-01  0.10202726317E+01  0.10199983196E+01 0.  0.
     999903    2    3    3    0    0  0.30936963909E-01  0.63825811863E-01  0.10687326008E+00  0.12978405952E+00  0.19778230193E-01 0.  0.
         14    1    1    2    0    0 -0.16462609180E-01 -0.62638125080E-02  0.15792980258E-01  0.23657368273E-01  0.00000000000E+00 0.  1.
     999901    1    3    3    0    0 -0.14474354728E-01 -0.57561999355E-01 -0.12266624034E+00  0.89048857221E+00  0.88000000000E+00 0.  1.
        -11    1    4    4    0    0  0.15109581454E-01  0.14440374456E-01  0.22235083367E-01  0.30520221484E-01  0.51100000000E-03 0.  1.
         11    1    4    4    0    0  0.15827382455E-01  0.49385437407E-01  0.84638176712E-01  0.99263838035E-01  0.51100000000E-03 0. -1.
</event>
<event>
 8    1  0.1161271E+005  0.1043930E+01  0.7957747E-01            NaN
         13   -1    0    0    0    0  0.00000000000E+00  0.00000000000E+00  0.74505805969E-08  0.10566000000E+00  0.10566000000E+00 0. -1.
     999900   -1    0    0    0    0 -0.00000000000E+00 -0.00000000000E+00 -0.74505805969E-08  0.93827000000E+00  0.93827000000E+00 0. -1.
     999902    2    1    2    0    0  0.12027697010E-01  0.17893053158E-01  0.77875473204E-02  0.10210068078E+01  0.10207494447E+01 0.  0.
     999903    2    3    3    0    0  0.32643018072E-03  0.14411557413E-01 -0.12821052478E+00  0.13047633890E+00  0.19450881792E-01 0.  0.
         14    1    1    2    0    0 -0.12027697010E-01 -0.17893053158E-01 -0.77875473204E-02  0.22923192185E-01  0.00000000000E+00 0.  1.
     999901    1    3    3    0    0  0.11701266829E-01  0.34814957459E-02  0.13599807210E+00  0.89053046892E+00  0.88000000000E+00 0.  1.
        -11    1    4    4    0    0 -0.80085636463E-03  0.54940429312E-02 -0.11020014355E+00  0.11034110131E+00  0.51100000000E-03 0.  1.
         11    1    4    4    0    0  0.11272865453E-02  0.89175144813E-02 -0.18010381236E-01  0.20135237588E-01  0.51100000000E-03 0. -1.
</event>
<event>
 8    1  0.1161271E+005  0.1043930E+01  0.7957747E-01            NaN
         13   -1    0    0    0    0  0.00000000000E+00  0.00000000000E+00  0.74505805969E-08  0.10566000000E+00  0.10566000000E+00 0.  1.
     999900   -1    0    0    0    0 -0.00000000000E+00 -0.00000000000E+00 -0.74505805969E-08  0.93827000000E+00  0.93827000000E+00 0.  1.
     999902    2    1    2    0    0 -0.20997389696E-01  0.16960368527E-03  0.67165261283E-02  0.10218838923E+01  0.10216460535E+01 0.  0.
     999903    2    3    3    0    0  0.75032314119E-01 -0.16130473589E-01 -0.10265663767E+00  0.12977970253E+00  0.20355480597E-01 0.  0.
         14    1    1    2    0    0  0.20997389696E-01 -0.16960368527E-03 -0.67165261283E-02  0.22046107654E-01  0.00000000000E+00 0. -1.
     999901    1    3    3    0    0 -0.96029703816E-01  0.16300077274E-01  0.10937316380E+00  0.89210418982E+00  0.88000000000E+00 0. -1.
        -11    1    4    4    0    0  0.33139019260E-01  0.29629073304E-02 -0.40155760683E-01  0.52150931482E-01  0.51100000000E-03 0. -1.
         11    1    4    4    0    0  0.41893294859E-01 -0.19093380919E-01 -0.62500876985E-01  0.77628771045E-01  0.51100000000E-03 0.  1.
</event>
<event>
 8    1  0.1161271E+005  0.1043930E+01  0.7957747E-01            NaN
         13   -1    0    0    0    0  0.00000000000E+00  0.00000000000E+00  0.74505805969E-08  0.10566000000E+00  0.10566000000E+00 0. -1.
     999900   -1    0    0    0    0 -0.00000000000E+00 -0.00000000000E+00 -0.74505805969E-08  0.93827000000E+00  0.93827000000E+00 0.  1.
     999902    2    1    2    0    0 -0.44629392273E-02  0.12347807809E-01  0.18175101005E-01  0.10215085709E+01  0.10212624736E+01 0.  0.
     999903    2    3    3    0    0 -0.10680041911E+00 -0.69832549676E-01  0.26024786325E-01  0.13173995580E+00  0.19879937968E-01 0.  0.
         14    1    1    2    0    0  0.44629392273E-02 -0.12347807809E-01 -0.18175101005E-01  0.22421429053E-01  0.00000000000E+00 0.  1.
     999901    1    3    3    0    0  0.10233747988E+00  0.82180357486E-01 -0.78496853207E-02  0.88976861515E+00  0.88000000000E+00 0.  1.
        -11    1    4    4    0    0 -0.65260053537E-01 -0.31186204469E-01  0.16787297182E-01  0.74253137338E-01  0.51100000000E-03 0.  1.
         11    1    4    4    0    0 -0.41540365574E-01 -0.38646345208E-01  0.92374891437E-02  0.57486818460E-01  0.51100000000E-03 0. -1.
</event>
<event>
 8    1  0.1161271E+005  0.1043930E+01  0.7957747E-01            NaN
         13   -1    0    0    0    0  0.00000000000E+00  0.00000000000E+00  0.74505805969E-08  0.10566000000E+00  0.10566000000E+00 0. -1.
     999900   -1    0    0    0    0 -0.00000000000E+00 -0.00000000000E+00 -0.74505805969E-08  0.93827000000E+00  0.93827000000E+00 0. -1.
     999902    2    1    2    0    0 -0.20480346204E-01 -0.15918654899E-01  0.60574272504E-02  0.10172927971E+01  0.10169439977E+01 0.  0.
     999903    2    3    3    0    0  0.22973206778E-01 -0.10141542467E+00 -0.72810955597E-01  0.12857567070E+00  0.20430644882E-01 0.  0.
         14    1    1    2    0    0  0.20480346204E-01  0.15918654899E-01 -0.60574272504E-02  0.26637202918E-01  0.00000000000E+00 0. -1.
     999901    1    3    3    0    0 -0.43453552982E-01  0.85496769773E-01  0.78868382848E-01  0.88871712638E+00  0.88000000000E+00 0.  1.
        -11    1    4    4    0    0  0.19895190157E-01 -0.42017421670E-01 -0.32168988562E-01  0.56536601077E-01  0.51100000000E-03 0. -1.
         11    1    4    4    0    0  0.30780166208E-02 -0.59398003002E-01 -0.40641967035E-01  0.72039069625E-01  0.51100000000E-03 0.  1.
</event>
<event>
 8    1  0.1161271E+005  0.1043930E+01  0.7957747E-01            NaN
         13   -1    0    0    0    0  0.00000000000E+00  0.00000000000E+00  0.74505805969E-08  0.10566000000E+00  0.10566000000E+00 0.  1.
     999900   -1    0    0    0    0 -0.00000000000E+00 -0.00000000000E+00 -0.74505805969E-08  0.93827000000E+00  0.93827000000E+00 0.  1.
     999902    2    1    2    0    0 -0.66315234396E-02 -0.28683752661E-03 -0.21356200875E-01  0.10215660403E+01  0.10213212168E+01 0.  0.
     999903    2    3    3    0    0 -0.43576856925E-01 -0.58207310028E-01  0.10552215888E+00  0.12981615551E+00  0.20743066693E-01 0.  0.
         14    1    1    2    0    0  0.66315234396E-02  0.28683752661E-03  0.21356200875E-01  0.22363959728E-01  0.00000000000E+00 0.  1.
     999901    1    3    3    0    0  0.36945333486E-01  0.57920472501E-01 -0.12687835976E+00  0.89174988476E+00  0.88000000000E+00 0.  1.
        -11    1    4    4    0    0 -0.13378564737E-01 -0.73590573911E-02  0.13279652268E-01  0.20242332017E-01  0.51100000000E-03 0. -1.
         11    1    4    4    0    0 -0.30198292188E-01 -0.50848252637E-01  0.92242506613E-01  0.10957382349E+00  0.51100000000E-03 0.  1.
</event>
<event>
 8    1  0.1161271E+005  0.1043930E+01  0.7957747E-01            NaN
         13   -1    0    0    0    0  0.00000000000E+00  0.00000000000E+00  0.74505805969E-08  0.10566000000E+00  0.10566000000E+00 0. -1.
     999900   -1    0    0    0    0 -0.00000000000E+00 -0.00000000000E+00 -0.74505805969E-08  0.93827000000E+00  0.93827000000E+00 0.  1.
     999902    2    1    2    0    0  0.27581250447E-02 -0.67088226416E-02  0.22666375788E-01  0.10201312575E+01  0.10198536181E+01 0.  0.
     999903    2    3    3    0    0  0.48759132110E-01  0.11570065367E+00  0.28309988500E-01  0.13045040294E+00  0.21254598404E-01 0.  0.
         14    1    1    2    0    0 -0.27581250447E-02  0.67088226416E-02 -0.22666375788E-01  0.23798742537E-01  0.00000000000E+00 0.  1.
     999901    1    3    3    0    0 -0.46001007065E-01 -0.12240947631E+00 -0.56436127125E-02  0.88968085452E+00  0.88000000000E+00 0.  1.
        -11    1    4    4    0    0  0.27242541635E-01  0.61927415542E-01  0.44339923829E-02  0.67801786702E-01  0.51100000000E-03 0.  1.
         11    1    4    4    0    0  0.21516590475E-01  0.53773238131E-01  0.23875996118E-01  0.62648616236E-01  0.51100000000E-03 0. -1.
</event>
<event>
 8    1  0.1161271E+005  0.1043930E+01  0.7957747E-01            NaN
         13   -1    0    0    0    0  0.00000000000E+00  0.00000000000E+00  0.74505805969E-08  0.10566000000E+00  0.10566000000E+00 0.  1.
     999900   -1    0    0    0    0 -0.00000000000E+00 -0.00000000000E+00 -0.74505805969E-08  0.93827000000E+00  0.93827000000E+00 0. -1.
     999902    2    1    2    0    0  0.21161683103E-01  0.44207031545E-02  0.86080598753E-02  0.10206607468E+01  0.10203954635E+01 0.  0.
     999903    2    3    3    0    0  0.33274115955E-01  0.65108407916E-01  0.10909010304E+00  0.13278330623E+00  0.19608270144E-01 0.  0.
         14    1    1    2    0    0 -0.21161683103E-01 -0.44207031545E-02 -0.86080598753E-02  0.23269253167E-01  0.00000000000E+00 0. -1.
     999901    1    3    3    0    0 -0.12112432852E-01 -0.60687704761E-01 -0.10048204316E+00  0.88787744061E+00  0.88000000000E+00 0.  1.
        -11    1    4    4    0    0  0.19241063397E-01  0.44509408948E-01  0.86375681974E-01  0.99057183298E-01  0.51100000000E-03 0.  1.
         11    1    4    4    0    0  0.14033052558E-01  0.20598998968E-01  0.22714421063E-01  0.33726122929E-01  0.51100000000E-03 0. -1.
</event>
<event>
 8    1  0.1161271E+005  0.1043930E+01  0.7957747E-01            NaN
         13   -1    0    0    0    0  0.00000000000E+00  0.00000000000E+00  0.74505805969E-08  0.10566000000E+00  0.10566000000E+00 0.  1.
     999900   -1    0    0    0    0 -0.00000000000E+00 -0.00000000000E+00 -0.74505805969E-08  0.93827000000E+00  0.93827000000E+00 0. -1.
     999902    2    1    2    0    0 -0.17338817804E-01  0.14479408973E-01  0.52964783392E-02  0.10207278326E+01  0.10204640943E+01 0.  0.
     999903    2    3    3    0    0 -0.48811882713E-01 -0.27561232926E-01  0.11777833536E+00  0.13201520331E+00  0.20348370218E-01 0.  0.
         14    1    1    2    0    0  0.17338817804E-01 -0.14479408973E-01 -0.52964783392E-02  0.23202167352E-01  0.00000000000E+00 0.  1.
     999901    1    3    3    0    0  0.31473064909E-01  0.42040641899E-01 -0.11248185702E+00  0.88871262934E+00  0.88000000000E+00 0. -1.
        -11    1    4    4    0    0 -0.13029055342E-01 -0.77544763649E-02  0.14726040799E-01  0.21142506602E-01  0.51100000000E-03 0.  1.
         11    1    4    4    0    0 -0.35782827371E-01 -0.19806756561E-01  0.10305229456E+00  0.11087269671E+00  0.51100000000E-03 0. -1.
</event>
<event>
 8    1  0.1161271E+005  0.1043930E+01  0.7957747E-01            NaN
         13   -1    0    0    0    0  0.00000000000E+00  0.00000000000E+00  0.74505805969E-08  0.10566000000E+00  0.10566000000E+00 0. -1.
     999900   -1    0    0    0    0 -0.00000000000E+00 -0.00000000000E+00 -0.74505805969E-08  0.93827000000E+00  0.93827000000E+00 0. -1.
     999902    2    1    2    0    0  0.17176930191E-01 -0.63635628412E-02  0.14699036759E-01  0.10204437584E+01  0.10201734463E+01 0.  0.
     999903    2    3    3    0    0  0.28964178462E-01 -0.95723382049E-01 -0.81666654964E-01  0.13060643447E+00  0.19664910070E-01 0.  0.
         14    1    1    2    0    0 -0.17176930191E-01  0.63635628412E-02 -0.14699036759E-01  0.23486241599E-01  0.00000000000E+00 0.  1.
     999901    1    3    3    0    0 -0.11787248271E-01  0.89359819208E-01  0.96365691724E-01  0.88983732393E+00  0.88000000000E+00 0.  1.
        -11    1    4    4    0    0  0.47016212418E-03 -0.30629714156E-01 -0.28684024888E-01  0.41969451348E-01  0.51100000000E-03 0.  1.
         11    1    4    4    0    0  0.28494016338E-01 -0.65093667894E-01 -0.52982630076E-01  0.88636983126E-01  0.51100000000E-03 0. -1.
</event>
<event>
 8    1  0.1161271E+005  0.1043930E+01  0.7957747E-01            NaN
         13   -1    0    0    0    0  0.00000000000E+00  0.00000000000E+00  0.74505805969E-08  0.10566000000E+00  0.10566000000E+00 0.  1.
     999900   -1    0    0    0    0 -0.00000000000E+00 -0.00000000000E+00 -0.74505805969E-08  0.93827000000E+00  0.93827000000E+00 0.  1.
     999902    2    1    2    0    0  0.65213745263E-02 -0.23465143088E-01 -0.11711716408E-02  0.10195473646E+01  0.10192557656E+01 0.  0.
     999903    2    3    3    0    0  0.11124263134E+00  0.99765662911E-03 -0.65750854207E-01  0.13065169829E+00  0.19255469056E-01 0.  0.
         14    1    1    2    0    0 -0.65213745263E-02  0.23465143088E-01  0.11711716408E-02  0.24382635396E-01  0.00000000000E+00 0.  1.
     999901    1    3    3    0    0 -0.10472125682E+00 -0.24462799717E-01  0.64579682566E-01  0.88889566632E+00  0.88000000000E+00 0. -1.
        -11    1    4    4    0    0  0.98371655587E-02  0.18947572243E-02 -0.12759708606E-01  0.16230564250E-01  0.51100000000E-03 0. -1.
         11    1    4    4    0    0  0.10140546579E+00 -0.89710059516E-03 -0.52991145601E-01  0.11442113404E+00  0.51100000000E-03 0.  1.
</event>
<event>
 8    1  0.1161271E+005  0.1043930E+01  0.7957747E-01            NaN
         13   -1    0    0    0    0  0.00000000000E+00  0.00000000000E+00  0.74505805969E-08  0.10566000000E+00  0.10566000000E+00 0.  1.
     999900   -1    0    0    0    0 -0.00000000000E+00 -0.00000000000E+00 -0.74505805969E-08  0.93827000000E+00  0.93827000000E+00 0. -1.
     999902    2    1    2    0    0  0.20211599202E-02  0.22908492401E-01 -0.68482818723E-02  0.10199345197E+01  0.10196522159E+01 0.  0.
     999903    2    3    3    0    0 -0.11477029913E+00 -0.54584128365E-01 -0.89693956938E-02  0.12883977145E+00  0.19172585082E-01 0.  0.
         14    1    1    2    0    0 -0.20211599202E-02 -0.22908492401E-01  0.68482818723E-02  0.23995480326E-01  0.00000000000E+00 0.  1.
     999901    1    3    3    0    0  0.11679145905E+00  0.77492620766E-01  0.21211138216E-02  0.89109474822E+00  0.88000000000E+00 0.  1.
        -11    1    4    4    0    0 -0.17092386716E-01 -0.30758724178E-02 -0.59685162678E-02  0.18371036504E-01  0.51100000000E-03 0. -1.
         11    1    4    4    0    0 -0.97677912409E-01 -0.51508255947E-01 -0.30008794260E-02  0.11046873495E+00  0.51100000000E-03 0.  1.
</event>
<event>
 8    1  0.1161271E+005  0.1043930E+01  0.7957747E-01            NaN
         13   -1    0    0    0    0  0.00000000000E+00  0.00000000000E+00  0.74505805969E-08  0.10566000000E+00  0.10566000000E+00 0. -1.
     999900   -1    0    0    0    0 -0.00000000000E+00 -0.00000000000E+00 -0.74505805969E-08  0.93827000000E+00  0.93827000000E+00 0. -1.
     999902    2    1    2    0    0  0.22241374713E-01  0.28139677074E-02  0.79685407160E-02  0.10201372531E+01  0.10198597553E+01 0.  0.
     999903    2    3    3    0    0 -0.93386001183E-01  0.45592646927E-01  0.73908151161E-01  0.12909980290E+00  0.20117396205E-01 0.  0.
         14    1    1    2    0    0 -0.22241374713E-01 -0.28139677074E-02 -0.79685407160E-02  0.23792746889E-01  0.00000000000E+00 0.  1.
     999901    1    3    3    0    0  0.11562737590E+00 -0.42778679220E-01 -0.65939610445E-01  0.89103745021E+00  0.88000000000E+00 0.  1.
        -11    1    4    4    0    0 -0.18562850663E-01  0.80149876837E-02  0.54545585922E-02  0.20948336038E-01  0.51100000000E-03 0. -1.
         11    1    4    4    0    0 -0.74823150519E-01  0.37577659244E-01  0.68453592569E-01  0.10815146686E+00  0.51100000000E-03 0.  1.
</event>
<event>
 8    1  0.1161271E+005  0.1043930E+01  0.7957747E-01            NaN
         13   -1    0    0    0    0  0.00000000000E+00  0.00000000000E+00  0.74505805969E-08  0.10566000000E+00  0.10566000000E+00 0. -1.
     999900   -1    0    0    0    0 -0.00000000000E+00 -0.00000000000E+00 -0.74505805969E-08  0.93827000000E+00  0.93827000000E+00 0.  1.
     999902    2    1    2    0    0  0.12594937159E-01  0.23016079252E-03 -0.19791545009E-01  0.10204695936E+01  0.10201998827E+01 0.  0.
     999903    2    3    3    0    0  0.45051123315E-01 -0.22250319887E-01  0.11710229775E+00  0.12901084510E+00  0.20153649020E-01 0.  0.
         14    1    1    2    0    0 -0.12594937159E-01 -0.23016079252E-03  0.19791545009E-01  0.23460406430E-01  0.00000000000E+00 0. -1.
     999901    1    3    3    0    0 -0.32456186156E-01  0.22480480679E-01 -0.13689384276E+00  0.89145874847E+00  0.88000000000E+00 0.  1.
        -11    1    4    4    0    0  0.43925894250E-02 -0.68289400034E-02  0.73785714822E-02  0.10983337450E-01  0.51100000000E-03 0. -1.
         11    1    4    4    0    0  0.40658533890E-01 -0.15421379883E-01  0.10972372627E+00  0.11802750765E+00  0.51100000000E-03 0.  1.
</event>
<event>
 8    1  0.1161271E+005  0.1043930E+01  0.7957747E-01            NaN
         13   -1    0    0    0    0  0.00000000000E+00  0.00000000000E+00  0.74505805969E-08  0.10566000000E+00  0.10566000000E+00 0.  1.
     999900   -1    0    0    0    0 -0.00000000000E+00 -0.00000000000E+00 -0.74505805969E-08  0.93827000000E+00  0.93827000000E+00 0. -1.
     999902    2    1    2    0    0  0.73802382890E-02  0.18035642007E-01 -0.11384311390E-01  0.10213611089E+01  0.10211117274E+01 0.  0.
     999903    2    3    3    0    0 -0.59652193858E-01 -0.66057840485E-01 -0.93868750377E-01  0.13098548960E+00  0.20587220980E-01 0.  0.
         14    1    1    2    0    0 -0.73802382890E-02 -0.18035642007E-01  0.11384311390E-01  0.22568891103E-01  0.00000000000E+00 0. -1.
     999901    1    3    3    0    0  0.67032432147E-01  0.84093482492E-01  0.82484438987E-01  0.89037561929E+00  0.88000000000E+00 0.  1.
        -11    1    4    4    0    0 -0.43626198704E-01 -0.43804347736E-01 -0.77140722726E-01  0.98858577360E-01  0.51100000000E-03 0. -1.
         11    1    4    4    0    0 -0.16025995154E-01 -0.22253492749E-01 -0.16728027651E-01  0.32126912244E-01  0.51100000000E-03 0.  1.
</event>
<event>
 8    1  0.1161271E+005  0.1043930E+01  0.7957747E-01            NaN
         13   -1    0    0    0    0  0.00000000000E+00  0.00000000000E+00  0.74505805969E-08  0.10566000000E+00  0.10566000000E+00 0. -1.
     999900   -1    0    0    0    0 -0.00000000000E+00 -0.00000000000E+00 -0.74505805969E-08  0.93827000000E+00  0.93827000000E+00 0.  1.
     999902    2    1    2    0    0 -0.68511136257E-02  0.17149568608E-01 -0.11157311608E-01  0.10223538311E+01  0.10221261297E+01 0.  0.
     999903    2    3    3    0    0  0.12455574117E+00 -0.35498460182E-01  0.11371783020E-02  0.13095564237E+00  0.19334263889E-01 0.  0.
         14    1    1    2    0    0  0.68511136257E-02 -0.17149568608E-01  0.11157311608E-01  0.21576168883E-01  0.00000000000E+00 0. -1.
     999901    1    3    3    0    0 -0.13140685479E+00  0.52648028790E-01 -0.12294489910E-01  0.89139818875E+00  0.88000000000E+00 0.  1.
        -11    1    4    4    0    0  0.63028526251E-01 -0.25450152662E-01  0.70098179615E-02  0.68335232939E-01  0.51100000000E-03 0.  1.
         11    1    4    4    0    0  0.61527214918E-01 -0.10048307520E-01 -0.58726396595E-02  0.62620409430E-01  0.51100000000E-03 0. -1.
</event>
<event>
 8    1  0.1161271E+005  0.1043930E+01  0.7957747E-01            NaN
         13   -1    0    0    0    0  0.00000000000E+00  0.00000000000E+00  0.74505805969E-08  0.10566000000E+00  0.10566000000E+00 0.  1.
     999900   -1    0    0    0    0 -0.00000000000E+00 -0.00000000000E+00 -0.74505805969E-08  0.93827000000E+00  0.93827000000E+00 0. -1.
     999902    2    1    2    0    0 -0.83312854525E-02 -0.80325722745E-02  0.20885660533E-01  0.10200523253E+01  0.10197728193E+01 0.  0.
     999903    2    3    3    0    0 -0.10236865043E+00  0.23943789084E-01  0.78484801197E-01  0.13259349541E+00  0.19197014841E-01 0.  0.
         14    1    1    2    0    0  0.83312854525E-02  0.80325722745E-02 -0.20885660533E-01  0.23877674730E-01  0.00000000000E+00 0. -1.
     999901    1    3    3    0    0  0.94037364976E-01 -0.31976361358E-01 -0.57599140664E-01  0.88745882986E+00  0.88000000000E+00 0. -1.
        -11    1    4    4    0    0 -0.36883880083E-01  0.79450161323E-03  0.21146081299E-01  0.42526106312E-01  0.51100000000E-03 0.  1.
         11    1    4    4    0    0 -0.65484770346E-01  0.23149287471E-01  0.57338719898E-01  0.90067389094E-01  0.51100000000E-03 0. -1.
</event>
<event>
 8    1  0.1161271E+005  0.1043930E+01  0.7957747E-01            NaN
         13   -1    0    0    0    0  0.00000000000E+00  0.00000000000E+00  0.74505805969E-08  0.10566000000E+00  0.10566000000E+00 0. -1.
     999900   -1    0    0    0    0 -0.00000000000E+00 -0.00000000000E+00 -0.74505805969E-08  0.93827000000E+00  0.93827000000E+00 0. -1.
     999902    2    1    2    0    0 -0.12777388105E-02 -0.49473823355E-02 -0.22812394983E-01  0.10205523488E+01  0.10202845594E+01 0.  0.
     999903    2    3    3    0    0  0.29857775537E-01  0.44437038733E-01  0.11461863096E+00  0.12797432526E+00  0.19335464621E-01 0.  0.
         14    1    1    2    0    0  0.12777388105E-02  0.49473823355E-02  0.22812394983E-01  0.23377651150E-01  0.00000000000E+00 0. -1.
     999901    1    3    3    0    0 -0.31135514347E-01 -0.49384421068E-01 -0.13743102594E+00  0.89257802359E+00  0.88000000000E+00 0. -1.
        -11    1    4    4    0    0  0.11614161474E-01  0.32913244604E-01  0.62983800438E-01  0.72009656684E-01  0.51100000000E-03 0. -1.
         11    1    4    4    0    0  0.18243614063E-01  0.11523794129E-01  0.51634830522E-01  0.55964668580E-01  0.51100000000E-03 0.  1.
</event>
<event>
 7    1  0.2253604E+005  0.1043930E+01  0.7957747E-01            NaN
         13   -1    0    0    0    0  0.00000000000E+00  0.00000000000E+00  0.74505805969E-08  0.10566000000E+00  0.10566000000E+00 0. -1.
     999900   -1    0    0    0    0 -0.00000000000E+00 -0.00000000000E+00 -0.74505805969E-08  0.93827000000E+00  0.93827000000E+00 0.  1.
     999903    2    1    2    0    0 -0.42154010734E-01 -0.80732372444E-01 -0.45902342265E-01  0.10386857224E+00  0.19671773975E-01 0.  0.
         14    1    1    2    0    0 -0.82881245616E-02  0.28171878622E-01 -0.43556611512E-01  0.52531192260E-01  0.00000000000E+00 0.  1.
     999901    1    1    2    0    0  0.50442135296E-01  0.52560493822E-01  0.89458953778E-01  0.88753023550E+00  0.88000000000E+00 0. -1.
        -11    1    3    3    0    0 -0.10216339105E-01 -0.38047546825E-01 -0.14423234638E-01  0.41955693565E-01  0.51100000000E-03 0. -1.
         11    1    3    3    0    0 -0.31937671629E-01 -0.42684825619E-01 -0.31479107627E-01  0.61912878670E-01  0.51100000000E-03 0.  1.
</event>
<event>
 8    1  0.1161271E+005  0.1043930E+01  0.7957747E-01            NaN
         13   -1    0    0    0    0  0.00000000000E+00  0.00000000000E+00  0.74505805969E-08  0.10566000000E+00  0.10566000000E+00 0. -1.
     999900   -1    0    0    0    0 -0.00000000000E+00 -0.00000000000E+00 -0.74505805969E-08  0.93827000000E+00  0.93827000000E+00 0.  1.
     999902    2    1    2    0    0 -0.58610061499E-02 -0.15714906162E-01  0.16444910621E-01  0.10204407524E+01  0.10201703703E+01 0.  0.
     999903    2    3    3    0    0  0.41278453999E-01  0.63667361438E-01  0.10513006740E+00  0.13117772596E+00  0.19945451599E-01 0.  0.
         14    1    1    2    0    0  0.58610061499E-02  0.15714906162E-01 -0.16444910621E-01  0.23489247628E-01  0.00000000000E+00 0. -1.
     999901    1    3    3    0    0 -0.47139460148E-01 -0.79382267600E-01 -0.88685156778E-01  0.88926302641E+00  0.88000000000E+00 0.  1.
        -11    1    4    4    0    0  0.29681098767E-01  0.38198980647E-01  0.80378415534E-01  0.93814074377E-01  0.51100000000E-03 0.  1.
         11    1    4    4    0    0  0.11597355231E-01  0.25468380791E-01  0.24751651865E-01  0.37363651582E-01  0.51100000000E-03 0. -1.
</event>
<event>
 8    1  0.1161271E+005  0.1043930E+01  0.7957747E-01            NaN
         13   -1    0    0    0    0  0.00000000000E+00  0.00000000000E+00  0.74505805969E-08  0.10566000000E+00  0.10566000000E+00 0. -1.
     999900   -1    0    0    0    0 -0.00000000000E+00 -0.00000000000E+00 -0.74505805969E-08  0.93827000000E+00  0.93827000000E+00 0. -1.
     999902    2    1    2    0    0  0.15368047154E-01  0.11622349871E-01 -0.14662526472E-01  0.10197174914E+01  0.10194299960E+01 0.  0.
     999903    2    3    3    0    0 -0.11472401823E+00 -0.28614782562E-01  0.42734204222E-01  0.12739616083E+00  0.20570936909E-01 0.  0.
         14    1    1    2    0    0 -0.15368047154E-01 -0.11622349871E-01  0.14662526472E-01  0.24212508594E-01  0.00000000000E+00 0. -1.
     999901    1    3    3    0    0  0.13009206538E+00  0.40237132433E-01 -0.57396730693E-01  0.89232133057E+00  0.88000000000E+00 0.  1.
        -11    1    4    4    0    0 -0.12476172592E-01 -0.65643939498E-02  0.11592473890E-01  0.18259044946E-01  0.51100000000E-03 0. -1.
         11    1    4    4    0    0 -0.10224784564E+00 -0.22050388613E-01  0.31141730332E-01  0.10913711589E+00  0.51100000000E-03 0.  1.
</event>
<event>
 8    1  0.1161271E+005  0.1043930E+01  0.7957747E-01            NaN
         13   -1    0    0    0    0  0.00000000000E+00  0.00000000000E+00  0.74505805969E-08  0.10566000000E+00  0.10566000000E+00 0. -1.
     999900   -1    0    0    0    0 -0.00000000000E+00 -0.00000000000E+00 -0.74505805969E-08  0.93827000000E+00  0.93827000000E+00 0. -1.
     999902    2    1    2    0    0  0.25153594049E-01  0.21071731790E-02  0.75006775206E-02  0.10175974415E+01  0.10172566782E+01 0.  0.
     999903    2    3    3    0    0 -0.28005418241E-01 -0.12196111190E+00  0.12330539913E-01  0.12729291637E+00  0.19814844826E-01 0.  0.
         14    1    1    2    0    0 -0.25153594049E-01 -0.21071731790E-02 -0.75006775206E-02  0.26332558471E-01  0.00000000000E+00 0.  1.
     999901    1    3    3    0    0  0.53159012290E-01  0.12406828508E+00 -0.48298623926E-02  0.89030452516E+00  0.88000000000E+00 0.  1.
        -11    1    4    4    0    0 -0.12618452524E-01 -0.89958950362E-01  0.46558519591E-02  0.90960299982E-01  0.51100000000E-03 0.  1.
         11    1    4    4    0    0 -0.15386965717E-01 -0.32002161541E-01  0.76746879541E-02  0.36332616386E-01  0.51100000000E-03 0. -1.
</event>
<event>
 8    1  0.1161271E+005  0.1043930E+01  0.7957747E-01            NaN
         13   -1    0    0    0    0  0.00000000000E+00  0.00000000000E+00  0.74505805969E-08  0.10566000000E+00  0.10566000000E+00 0.  1.
     999900   -1    0    0    0    0 -0.00000000000E+00 -0.00000000000E+00 -0.74505805969E-08  0.93827000000E+00  0.93827000000E+00 0. -1.
     999902    2    1    2    0    0  0.18580419847E-01  0.13407265533E-01 -0.39266891834E-02  0.10206833732E+01  0.10204186115E+01 0.  0.
     999903    2    3    3    0    0 -0.10179172394E+00  0.56217515285E-01 -0.54523940665E-01  0.13001943412E+00  0.20254112030E-01 0.  0.
         14    1    1    2    0    0 -0.18580419847E-01 -0.13407265533E-01  0.39266891834E-02  0.23246626825E-01  0.00000000000E+00 0. -1.
     999901    1    3    3    0    0  0.12037214379E+00 -0.42810249752E-01  0.50597251481E-01  0.89066393906E+00  0.88000000000E+00 0.  1.
        -11    1    4    4    0    0 -0.24780755294E-01  0.45572999508E-02 -0.13854722935E-01  0.28758812291E-01  0.51100000000E-03 0.  1.
         11    1    4    4    0    0 -0.77010968649E-01  0.51660215334E-01 -0.40669217730E-01  0.10126062182E+00  0.51100000000E-03 0. -1.
</event>
<event>
 8    1  0.1161271E+005  0.1043930E+01  0.7957747E-01            NaN
         13   -1    0    0    0    0  0.00000000000E+00  0.00000000000E+00  0.74505805969E-08  0.10566000000E+00  0.10566000000E+00 0.  1.
     999900   -1    0    0    0    0 -0.00000000000E+00 -0.00000000000E+00 -0.74505805969E-08  0.93827000000E+00  0.93827000000E+00 0. -1.
     999902    2    1    2    0    0  0.12155431469E-02  0.63118197415E-02  0.22423233249E-01  0.10206036629E+01  0.10203370613E+01 0.  0.
     999903    2    3    3    0    0 -0.21549199150E-01 -0.36123676417E-01 -0.11906417543E+00  0.12800202070E+00  0.20951168262E-01 0.  0.
         14    1    1    2    0    0 -0.12155431469E-02 -0.63118197415E-02 -0.22423233249E-01  0.23326337109E-01  0.00000000000E+00 0. -1.
     999901    1    3    3    0    0  0.22764742297E-01  0.42435496159E-01  0.14148740868E+00  0.89260164219E+00  0.88000000000E+00 0.  1.
        -11    1    4    4    0    0 -0.90114546387E-02 -0.60840464643E-03 -0.29008902770E-01  0.30386741053E-01  0.51100000000E-03 0. -1.
         11    1    4    4    0    0 -0.12537744511E-01 -0.35515271771E-01 -0.90055272657E-01  0.97615279648E-01  0.51100000000E-03 0.  1.
</event>
<event>
 8    1  0.1161271E+005  0.1043930E+01  0.7957747E-01            NaN
         13   -1    0    0    0    0  0.00000000000E+00  0.00000000000E+00  0.74505805969E-08  0.10566000000E+00  0.10566000000E+00 0.  1.
     999900   -1    0    0    0    0 -0.00000000000E+00 -0.00000000000E+00 -0.74505805969E-08  0.93827000000E+00  0.93827000000E+00 0. -1.
     999902    2    1    2    0    0  0.17331363642E-01 -0.56573506513E-02 -0.15592317706E-01  0.10199403740E+01  0.10196582096E+01 0.  0.
     999903    2    3    3    0    0 -0.13031692413E-01 -0.12842574406E+00  0.54209773208E-02  0.13065102172E+00  0.19424359386E-01 0.  0.
         14    1    1    2    0    0 -0.17331363642E-01  0.56573506513E-02  0.15592317706E-01  0.23989625956E-01  0.00000000000E+00 0. -1.
     999901    1    3    3    0    0  0.30363056055E-01  0.12276839340E+00 -0.21013295027E-01  0.88928935233E+00  0.88000000000E+00 0.  1.
        -11    1    4    4    0    0 -0.13043238461E-03 -0.86331480612E-01  0.38384879639E-03  0.86333944762E-01  0.51100000000E-03 0.  1.
         11    1    4    4    0    0 -0.12901260029E-01 -0.42094263444E-01  0.50371285245E-02  0.44317076957E-01  0.51100000000E-03 0. -1.
</event>
<event>
 8    1  0.1161271E+005  0.1043930E+01  0.7957747E-01            NaN
         13   -1    0    0    0    0  0.00000000000E+00  0.00000000000E+00  0.74505805969E-08  0.10566000000E+00  0.10566000000E+00 0.  1.
     999900   -1    0    0    0    0 -0.00000000000E+00 -0.00000000000E+00 -0.74505805969E-08  0.93827000000E+00  0.93827000000E+00 0.  1.
     999902    2    1    2    0    0 -0.12107934989E-01 -0.20300818379E-01 -0.45491857427E-04  0.10202925850E+01  0.10200187409E+01 0.  0.
     999903    2    3    3    0    0 -0.89956436903E-01  0.69427527560E-01 -0.59965427738E-01  0.13029148165E+00  0.21625807355E-01 0.  0.
         14    1    1    2    0    0  0.12107934989E-01  0.20300818379E-01  0.45491857427E-04  0.23637414961E-01  0.00000000000E+00 0.  1.
     999901    1    3    3    0    0  0.77848501914E-01 -0.89728345938E-01  0.59919935880E-01  0.89000110339E+00  0.88000000000E+00 0. -1.
        -11    1    4    4    0    0 -0.58670373001E-01  0.52450065071E-01 -0.50311882582E-01  0.93406470033E-01  0.51100000000E-03 0.  1.
         11    1    4    4    0    0 -0.31286063902E-01  0.16977462488E-01 -0.96535451560E-02  0.36885011618E-01  0.51100000000E-03 0. -1.
</event>
<event>
 8    1  0.1161271E+005  0.1043930E+01  0.7957747E-01            NaN
         13   -1    0    0    0    0  0.00000000000E+00  0.00000000000E+00  0.74505805969E-08  0.10566000000E+00  0.10566000000E+00 0.  1.
     999900   -1    0    0    0    0 -0.00000000000E+00 -0.00000000000E+00 -0.74505805969E-08  0.93827000000E+00  0.93827000000E+00 0. -1.
     999902    2    1    2    0    0 -0.53578926951E-02 -0.30105447467E-02 -0.24098515401E-01  0.10190601621E+01  0.10187566466E+01 0.  0.
     999903    2    3    3    0    0  0.24365006602E-01 -0.11897326567E+00 -0.43676152002E-01  0.13073922500E+00  0.20900890142E-01 0.  0.
         14    1    1    2    0    0  0.53578926951E-02  0.30105447467E-02  0.24098515401E-01  0.24869837924E-01  0.00000000000E+00 0.  1.
     999901    1    3    3    0    0 -0.29722899298E-01  0.11596272093E+00  0.19577636600E-01  0.88832093707E+00  0.88000000000E+00 0.  1.
        -11    1    4    4    0    0  0.23777188200E-01 -0.65744343417E-01 -0.27119728461E-01  0.74989427006E-01  0.51100000000E-03 0. -1.
         11    1    4    4    0    0  0.58781840287E-03 -0.53228922258E-01 -0.16556423541E-01  0.55749797997E-01  0.51100000000E-03 0.  1.
</event>
<event>
 8    1  0.1161271E+005  0.1043930E+01  0.7957747E-01            NaN
         13   -1    0    0    0    0  0.00000000000E+00  0.00000000000E+00  0.74505805969E-08  0.10566000000E+00  0.10566000000E+00 0. -1.
     999900   -1    0    0    0    0 -0.00000000000E+00 -0.00000000000E+00 -0.74505805969E-08  0.93827000000E+00  0.93827000000E+00 0. -1.
     999902    2    1    2    0    0  0.18449478965E-01 -0.14143611467E-01  0.36855595150E-03  0.10206800354E+01  0.10204151968E+01 0.  0.
     999903    2    3    3    0    0 -0.22751733420E-01  0.12182978018E+00 -0.29028452208E-01  0.12879972550E+00  0.19661676934E-01 0.  0.
         14    1    1    2    0    0 -0.18449478965E-01  0.14143611467E-01 -0.36855595150E-03  0.23249964579E-01  0.00000000000E+00 0.  1.
     999901    1    3    3    0    0  0.41201212385E-01 -0.13597339164E+00  0.29397008160E-01  0.89188030992E+00  0.88000000000E+00 0.  1.
        -11    1    4    4    0    0  0.13445542409E-02  0.29665491113E-01 -0.11965844986E-01  0.32020177331E-01  0.51100000000E-03 0.  1.
         11    1    4    4    0    0 -0.24096287661E-01  0.92164289063E-01 -0.17062607223E-01  0.96779548169E-01  0.51100000000E-03 0. -1.
</event>
<event>
 8    1  0.1161271E+005  0.1043930E+01  0.7957747E-01            NaN
         13   -1    0    0    0    0  0.00000000000E+00  0.00000000000E+00  0.74505805969E-08  0.10566000000E+00  0.10566000000E+00 0.  1.
     999900   -1    0    0    0    0 -0.00000000000E+00 -0.00000000000E+00 -0.74505805969E-08  0.93827000000E+00  0.93827000000E+00 0. -1.
     999902    2    1    2    0    0  0.18594277405E-01 -0.10512095910E-01 -0.10470043305E-01  0.10201419122E+01  0.10198645243E+01 0.  0.
     999903    2    3    3    0    0 -0.13608529341E-02 -0.30543146195E-01 -0.12680283452E+00  0.13203563002E+00  0.20486899540E-01 0.  0.
         14    1    1    2    0    0 -0.18594277405E-01  0.10512095910E-01  0.10470043305E-01  0.23788087764E-01  0.00000000000E+00 0.  1.
     999901    1    3    3    0    0  0.19955130339E-01  0.20031050285E-01  0.11633279121E+00  0.88810628222E+00  0.88000000000E+00 0.  1.
        -11    1    4    4    0    0 -0.92240582447E-02 -0.10802882138E-01 -0.68997866531E-01  0.70446804185E-01  0.51100000000E-03 0. -1.
         11    1    4    4    0    0  0.78632053107E-02 -0.19740264057E-01 -0.57804967986E-01  0.61588825834E-01  0.51100000000E-03 0.  1.
</event>
<event>
 7    1  0.1221678E+005  0.1043930E+01  0.7957747E-01            NaN
         13   -1    0    0    0    0  0.00000000000E+00  0.00000000000E+00  0.74505805969E-08  0.10566000000E+00  0.10566000000E+00 0. -1.
     999900   -1    0    0    0    0 -0.00000000000E+00 -0.00000000000E+00 -0.74505805969E-08  0.93827000000E+00  0.93827000000E+00 0. -1.
     999903    2    1    2    0    0  0.49382308526E-01 -0.72673121773E-02  0.93698298435E-01  0.10803073617E+00  0.19996064761E-01 0.  0.
         14    1    1    2    0    0 -0.29049598388E-01  0.40859990893E-01 -0.93045180538E-02  0.50990117459E-01  0.00000000000E+00 0.  1.
     999901    1    1    2    0    0 -0.20332710138E-01 -0.33592678716E-01 -0.84393780382E-01  0.88490914637E+00  0.88000000000E+00 0. -1.
        -11    1    3    3    0    0  0.19597977964E-01  0.11778361531E-02  0.55421801396E-01  0.58798853979E-01  0.51100000000E-03 0. -1.
         11    1    3    3    0    0  0.29784330562E-01 -0.84451483304E-02  0.38276497039E-01  0.49231882190E-01  0.51100000000E-03 0.  1.
</event>
<event>
 8    1  0.1161271E+005  0.1043930E+01  0.7957747E-01            NaN
         13   -1    0    0    0    0  0.00000000000E+00  0.00000000000E+00  0.74505805969E-08  0.10566000000E+00  0.10566000000E+00 0.  1.
     999900   -1    0    0    0    0 -0.00000000000E+00 -0.00000000000E+00 -0.74505805969E-08  0.93827000000E+00  0.93827000000E+00 0. -1.
     999902    2    1    2    0    0  0.15768185622E-01 -0.86659192668E-02  0.15089816029E-01  0.10204473174E+01  0.10201770882E+01 0.  0.
     999903    2    3    3    0    0 -0.12138165781E+00  0.30660554906E-01 -0.18361353277E-01  0.12832869756E+00  0.21390157646E-01 0.  0.
         14    1    1    2    0    0 -0.15768185622E-01  0.86659192668E-02 -0.15089816029E-01  0.23482682605E-01  0.00000000000E+00 0. -1.
     999901    1    3    3    0    0  0.13714984343E+00 -0.39326474173E-01  0.33451169306E-01  0.89211861983E+00  0.88000000000E+00 0.  1.
        -11    1    4    4    0    0 -0.65479101889E-01  0.12520295670E-01 -0.19771704373E-01  0.69537414409E-01  0.51100000000E-03 0. -1.
         11    1    4    4    0    0 -0.55902555920E-01  0.18140259236E-01  0.14103510960E-02  0.58791283153E-01  0.51100000000E-03 0.  1.
</event>
<event>
 8    1  0.1161271E+005  0.1043930E+01  0.7957747E-01            NaN
         13   -1    0    0    0    0  0.00000000000E+00  0.00000000000E+00  0.74505805969E-08  0.10566000000E+00  0.10566000000E+00 0. -1.
     999900   -1    0    0    0    0 -0.00000000000E+00 -0.00000000000E+00 -0.74505805969E-08  0.93827000000E+00  0.93827000000E+00 0. -1.
     999902    2    1    2    0    0  0.46138874071E-02 -0.16763832167E-01  0.16300185735E-01  0.10200970379E+01  0.10198185901E+01 0.  0.
     999903    2    3    3    0    0  0.89789973475E-01 -0.95157670581E-01 -0.29600798464E-02  0.13230679392E+00  0.19470594161E-01 0.  0.
         14    1    1    2    0    0 -0.46138874071E-02  0.16763832167E-01 -0.16300185735E-01  0.23832962067E-01  0.00000000000E+00 0.  1.
     999901    1    3    3    0    0 -0.85176086068E-01  0.78393838414E-01  0.19260265581E-01  0.88779024402E+00  0.88000000000E+00 0.  1.
        -11    1    4    4    0    0  0.51513298092E-01 -0.67682254600E-01 -0.43253332230E-02  0.85167347596E-01  0.51100000000E-03 0. -1.
         11    1    4    4    0    0  0.38276675382E-01 -0.27475415980E-01  0.13652533766E-02  0.47139446321E-01  0.51100000000E-03 0.  1.
</event>
<event>
 8    1  0.1161271E+005  0.1043930E+01  0.7957747E-01            NaN
         13   -1    0    0    0    0  0.00000000000E+00  0.00000000000E+00  0.74505805969E-08  0.10566000000E+00  0.10566000000E+00 0. -1.
     999900   -1    0    0    0    0 -0.00000000000E+00 -0.00000000000E+00 -0.74505805969E-08  0.93827000000E+00  0.93827000000E+00 0. -1.
     999902    2    1    2    0    0 -0.15192454126E-01  0.16490958514E-01 -0.70244664946E-02  0.10204330746E+01  0.10201625136E+01 0.  0.
     999903    2    3    3    0    0 -0.48852564153E-01 -0.51528076932E-01  0.10763519782E+00  0.12975556233E+00  0.14472539857E-01 0.  0.
         14    1    1    2    0    0  0.15192454126E-01 -0.16490958514E-01  0.70244664946E-02  0.23496925429E-01  0.00000000000E+00 0. -1.
     999901    1    3    3    0    0  0.33660110027E-01  0.68019035446E-01 -0.11465966431E+00  0.89067751224E+00  0.88000000000E+00 0. -1.
        -11    1    4    4    0    0 -0.20400982834E-01 -0.12467361629E-01  0.30947357798E-01  0.39110552058E-01  0.51100000000E-03 0.  1.
         11    1    4    4    0    0 -0.28451581319E-01 -0.39060715303E-01  0.76687840019E-01  0.90645010273E-01  0.51100000000E-03 0. -1.
</event>
<event>
 8    1  0.1161271E+005  0.1043930E+01  0.7957747E-01            NaN
         13   -1    0    0    0    0  0.00000000000E+00  0.00000000000E+00  0.74505805969E-08  0.10566000000E+00  0.10566000000E+00 0.  1.
     999900   -1    0    0    0    0 -0.00000000000E+00 -0.00000000000E+00 -0.74505805969E-08  0.93827000000E+00  0.93827000000E+00 0. -1.
     999902    2    1    2    0    0  0.91253495929E-02  0.21949925309E-01  0.22473730238E-02  0.10200527742E+01  0.10197732788E+01 0.  0.
     999903    2    3    3    0    0 -0.76787767556E-01 -0.69241535385E-01  0.73383395862E-01  0.12833685534E+00  0.19861374138E-01 0.  0.
         14    1    1    2    0    0 -0.91253495929E-02 -0.21949925309E-01 -0.22473730238E-02  0.23877225797E-01  0.00000000000E+00 0. -1.
     999901    1    3    3    0    0  0.85913117149E-01  0.91191460693E-01 -0.71136022838E-01  0.89171591886E+00  0.88000000000E+00 0. -1.
        -11    1    4    4    0    0 -0.35164444702E-02 -0.10836110501E-01  0.10400349037E-01  0.15434216974E-01  0.51100000000E-03 0.  1.
         11    1    4    4    0    0 -0.73271323086E-01 -0.58405424884E-01  0.62983046825E-01  0.11290263837E+00  0.51100000000E-03 0. -1.
</event>
<event>
 8    1  0.1161271E+005  0.1043930E+01  0.7957747E-01            NaN
         13   -1    0    0    0    0  0.00000000000E+00  0.00000000000E+00  0.74505805969E-08  0.10566000000E+00  0.10566000000E+00 0. -1.
     999900   -1    0    0    0    0 -0.00000000000E+00 -0.00000000000E+00 -0.74505805969E-08  0.93827000000E+00  0.93827000000E+00 0.  1.
     999902    2    1    2    0    0  0.20849871093E-01  0.58628907650E-02 -0.98467893643E-02  0.10201381973E+01  0.10198607218E+01 0.  0.
     999903    2    3    3    0    0  0.78669404214E-01 -0.94579464700E-01 -0.43042392613E-01  0.13191879131E+00  0.20390430034E-01 0.  0.
         14    1    1    2    0    0 -0.20849871093E-01 -0.58628907650E-02  0.98467893643E-02  0.23791802653E-01  0.00000000000E+00 0. -1.
     999901    1    3    3    0    0 -0.57819533121E-01  0.10044235547E+00  0.33195603249E-01  0.88821940603E+00  0.88000000000E+00 0. -1.
        -11    1    4    4    0    0  0.27684831257E-01 -0.19304654899E-01 -0.12880967015E-01  0.36128935976E-01  0.51100000000E-03 0. -1.
         11    1    4    4    0    0  0.50984572956E-01 -0.75274809801E-01 -0.30161425598E-01  0.95789855336E-01  0.51100000000E-03 0.  1.
</event>
<event>
 8    1  0.1161271E+005  0.1043930E+01  0.7957747E-01            NaN
         13   -1    0    0    0    0  0.00000000000E+00  0.00000000000E+00  0.74505805969E-08  0.10566000000E+00  0.10566000000E+00 0. -1.
     999900   -1    0    0    0    0 -0.00000000000E+00 -0.00000000000E+00 -0.74505805969E-08  0.93827000000E+00  0.93827000000E+00 0.  1.
     999902    2    1    2    0    0  0.14676341585E-01  0.18541395950E-01  0.49494643102E-02  0.10197706216E+01  0.10194844016E+01 0.  0.
     999903    2    3    3    0    0  0.45818939272E-01  0.12293628835E+00 -0.80613097275E-02  0.13295754370E+00  0.20000438104E-01 0.  0.
         14    1    1    2    0    0 -0.14676341585E-01 -0.18541395950E-01 -0.49494643102E-02  0.24159378367E-01  0.00000000000E+00 0.  1.
     999901    1    3    3    0    0 -0.31142597687E-01 -0.10439489240E+00  0.13010774038E-01  0.88681307793E+00  0.88000000000E+00 0. -1.
        -11    1    4    4    0    0  0.35787214492E-02  0.24533372072E-02  0.21626885799E-02  0.48748798505E-02  0.51100000000E-03 0. -1.
         11    1    4    4    0    0  0.42240217823E-01  0.12048295114E+00 -0.10223998307E-01  0.12808266385E+00  0.51100000000E-03 0.  1.
</event>
<event>
 8    1  0.1161271E+005  0.1043930E+01  0.7957747E-01            NaN
         13   -1    0    0    0    0  0.00000000000E+00  0.00000000000E+00  0.74505805969E-08  0.10566000000E+00  0.10566000000E+00 0. -1.
     999900   -1    0    0    0    0 -0.00000000000E+00 -0.00000000000E+00 -0.74505805969E-08  0.93827000000E+00  0.93827000000E+00 0. -1.
     999902    2    1    2    0    0 -0.27489801692E-02 -0.21814090207E-01  0.49394464267E-02  0.10213953699E+01  0.10211467534E+01 0.  0.
     999903    2    3    3    0    0  0.11113577219E-01 -0.70766174679E-01  0.11093079824E+00  0.13357633217E+00  0.20140293948E-01 0.  0.
         14    1    1    2    0    0  0.27489801692E-02  0.21814090207E-01 -0.49394464267E-02  0.22534630118E-01  0.00000000000E+00 0. -1.
     999901    1    3    3    0    0 -0.13862557388E-01  0.48952084472E-01 -0.10599135181E+00  0.88781903772E+00  0.88000000000E+00 0. -1.
        -11    1    4    4    0    0  0.16980653552E-01 -0.55572966524E-01  0.86013828555E-01  0.10380432085E+00  0.51100000000E-03 0. -1.
         11    1    4    4    0    0 -0.58670763331E-02 -0.15193208155E-01  0.24916969682E-01  0.29772011318E-01  0.51100000000E-03 0.  1.
</event>
<event>
 8    1  0.1161271E+005  0.1043930E+01  0.7957747E-01            NaN
         13   -1    0    0    0    0  0.00000000000E+00  0.00000000000E+00  0.74505805969E-08  0.10566000000E+00  0.10566000000E+00 0. -1.
     999900   -1    0    0    0    0 -0.00000000000E+00 -0.00000000000E+00 -0.74505805969E-08  0.93827000000E+00  0.93827000000E+00 0. -1.
     999902    2    1    2    0    0  0.16733442113E-01  0.68495220988E-02  0.14506310789E-01  0.10207490360E+01  0.10204857850E+01 0.  0.
     999903    2    3    3    0    0  0.12006464070E+00 -0.52165562366E-01  0.90900399506E-02  0.13272344361E+00  0.19902758978E-01 0.  0.
         14    1    1    2    0    0 -0.16733442113E-01 -0.68495220988E-02 -0.14506310789E-01  0.23180963971E-01  0.00000000000E+00 0. -1.
     999901    1    3    3    0    0 -0.10333119859E+00  0.59015084465E-01  0.54162708379E-02  0.88802559242E+00  0.88000000000E+00 0.  1.
        -11    1    4    4    0    0  0.70658922360E-01 -0.40821037116E-01  0.29371479934E-02  0.81657383865E-01  0.51100000000E-03 0. -1.
         11    1    4    4    0    0  0.49405718339E-01 -0.11344525250E-01  0.61528919571E-02  0.51066059748E-01  0.51100000000E-03 0.  1.
</event>
<event>
 8    1  0.1161271E+005  0.1043930E+01  0.7957747E-01            NaN
         13   -1    0    0    0    0  0.00000000000E+00  0.00000000000E+00  0.74505805969E-08  0.10566000000E+00  0.10566000000E+00 0. -1.
     999900   -1    0    0    0    0 -0.00000000000E+00 -0.00000000000E+00 -0.74505805969E-08  0.93827000000E+00  0.93827000000E+00 0.  1.
     999902    2    1    2    0    0  0.73020699860E-02 -0.17611201456E-01  0.13580131937E-01  0.10205228510E+01  0.10202543774E+01 0.  0.
     999903    2    3    3    0    0  0.75102679099E-01  0.72588804904E-01 -0.73184739311E-01  0.12908518818E+00  0.19935715021E-01 0.  0.
         14    1    1    2    0    0 -0.73020699860E-02  0.17611201456E-01 -0.13580131937E-01  0.23407149041E-01  0.00000000000E+00 0.  1.
     999901    1    3    3    0    0 -0.67800609113E-01 -0.90200006360E-01  0.86764871248E-01  0.89143766278E+00  0.88000000000E+00 0. -1.
        -11    1    4    4    0    0  0.19878329807E-01  0.11899314902E-01 -0.24267099186E-01  0.33554357615E-01  0.51100000000E-03 0. -1.
         11    1    4    4    0    0  0.55224349292E-01  0.60689490002E-01 -0.48917640125E-01  0.95530830562E-01  0.51100000000E-03 0.  1.
</event>
<event>
 8    1  0.1161271E+005  0.1043930E+01  0.7957747E-01            NaN
         13   -1    0    0    0    0  0.00000000000E+00  0.00000000000E+00  0.74505805969E-08  0.10566000000E+00  0.10566000000E+00 0.  1.
     999900   -1    0    0    0    0 -0.00000000000E+00 -0.00000000000E+00 -0.74505805969E-08  0.93827000000E+00  0.93827000000E+00 0. -1.
     999902    2    1    2    0    0  0.90686412484E-02  0.10397171785E-02  0.21719571017E-01  0.10203702667E+01  0.10200982405E+01 0.  0.
     999903    2    3    3    0    0 -0.31776155392E-01 -0.34328793089E-01 -0.11724907407E+00  0.12782810346E+00  0.20111901351E-01 0.  0.
         14    1    1    2    0    0 -0.90686412484E-02 -0.10397171785E-02 -0.21719571017E-01  0.23559733256E-01  0.00000000000E+00 0. -1.
     999901    1    3    3    0    0  0.40844796641E-01  0.35368510268E-01  0.13896864509E+00  0.89254216329E+00  0.88000000000E+00 0.  1.
        -11    1    4    4    0    0 -0.28142377913E-02 -0.16263080758E-01 -0.32301199766E-01  0.36277215403E-01  0.51100000000E-03 0.  1.
         11    1    4    4    0    0 -0.28961917601E-01 -0.18065712331E-01 -0.84947874305E-01  0.91550888052E-01  0.51100000000E-03 0. -1.
</event>
<event>
 8    1  0.1161271E+005  0.1043930E+01  0.7957747E-01            NaN
         13   -1    0    0    0    0  0.00000000000E+00  0.00000000000E+00  0.74505805969E-08  0.10566000000E+00  0.10566000000E+00 0. -1.
     999900   -1    0    0    0    0 -0.00000000000E+00 -0.00000000000E+00 -0.74505805969E-08  0.93827000000E+00  0.93827000000E+00 0.  1.
     999902    2    1    2    0    0  0.12075649005E-01  0.16288908546E-02  0.20440163849E-01  0.10201334691E+01  0.10198558819E+01 0.  0.
     999903    2    3    3    0    0 -0.10299776360E-02  0.96723986841E-01  0.88120217679E-01  0.13232976084E+00  0.19733280402E-01 0.  0.
         14    1    1    2    0    0 -0.12075649005E-01 -0.16288908546E-02 -0.20440163849E-01  0.23796530892E-01  0.00000000000E+00 0.  1.
     999901    1    3    3    0    0  0.13105626641E-01 -0.95095095986E-01 -0.67680053830E-01  0.88780370827E+00  0.88000000000E+00 0.  1.
        -11    1    4    4    0    0 -0.18374907135E-03  0.62834431252E-01  0.44104527323E-01  0.76770241409E-01  0.51100000000E-03 0. -1.
         11    1    4    4    0    0 -0.84622856463E-03  0.33889555589E-01  0.44015690356E-01  0.55559519430E-01  0.51100000000E-03 0.  1.
</event>
<event>
 8    1  0.1161271E+005  0.1043930E+01  0.7957747E-01            NaN
         13   -1    0    0    0    0  0.00000000000E+00  0.00000000000E+00  0.74505805969E-08  0.10566000000E+00  0.10566000000E+00 0.  1.
     999900   -1    0    0    0    0 -0.00000000000E+00 -0.00000000000E+00 -0.74505805969E-08  0.93827000000E+00  0.93827000000E+00 0. -1.
     999902    2    1    2    0    0  0.15860440526E-01  0.15557786716E-01  0.97159162711E-02  0.10196813437E+01  0.10193929789E+01 0.  0.
     999903    2    3    3    0    0  0.10939952421E+00  0.63808063327E-01  0.35577471551E-01  0.13303233235E+00  0.19802023268E-01 0.  0.
         14    1    1    2    0    0 -0.15860440526E-01 -0.15557786716E-01 -0.97159162711E-02  0.24248656255E-01  0.00000000000E+00 0. -1.
     999901    1    3    3    0    0 -0.93539083682E-01 -0.48250276610E-01 -0.25861555280E-01  0.88664901140E+00  0.88000000000E+00 0.  1.
        -11    1    4    4    0    0  0.29878349643E-01  0.17644534446E-01  0.19115525469E-01  0.39619563452E-01  0.51100000000E-03 0. -1.
         11    1    4    4    0    0  0.79521174565E-01  0.46163528881E-01  0.16461946082E-01  0.93412768896E-01  0.51100000000E-03 0.  1.
</event>
<event>
 8    1  0.1161271E+005  0.1043930E+01  0.7957747E-01            NaN
         13   -1    0    0    0    0  0.00000000000E+00  0.00000000000E+00  0.74505805969E-08  0.10566000000E+00  0.10566000000E+00 0. -1.
     999900   -1    0    0    0    0 -0.00000000000E+00 -0.00000000000E+00 -0.74505805969E-08  0.93827000000E+00  0.93827000000E+00 0.  1.
     999902    2    1    2    0    0  0.15115930603E-01  0.15293683418E-01 -0.87652002568E-02  0.10207089568E+01  0.10204447842E+01 0.  0.
     999903    2    3    3    0    0  0.41262905650E-01  0.12523071445E+00 -0.32102307885E-02  0.13346565717E+00  0.20430781652E-01 0.  0.
         14    1    1    2    0    0 -0.15115930603E-01 -0.15293683418E-01  0.87652002568E-02  0.23221043173E-01  0.00000000000E+00 0.  1.
     999901    1    3    3    0    0 -0.26146975047E-01 -0.10993703103E+00 -0.55549694683E-02  0.88724329965E+00  0.88000000000E+00 0. -1.
        -11    1    4    4    0    0  0.22505968638E-02  0.90251709861E-02  0.50700768122E-02  0.10605927468E-01  0.51100000000E-03 0. -1.
         11    1    4    4    0    0  0.39012308786E-01  0.11620554346E+00 -0.82803076007E-02  0.12285972970E+00  0.51100000000E-03 0.  1.
</event>
<event>
 8    1  0.1161271E+005  0.1043930E+01  0.7957747E-01            NaN
         13   -1    0    0    0    0  0.00000000000E+00  0.00000000000E+00  0.74505805969E-08  0.10566000000E+00  0.10566000000E+00 0. -1.
     999900   -1    0    0    0    0 -0.00000000000E+00 -0.00000000000E+00 -0.74505805969E-08  0.93827000000E+00  0.93827000000E+00 0.  1.
     999902    2    1    2    0    0  0.17452385675E-01 -0.62136482173E-02  0.14683669770E-01  0.10202909360E+01  0.10200170531E+01 0.  0.
     999903    2    3    3    0    0  0.25626822063E-01  0.12476294068E+00  0.20930468971E-01  0.13053776192E+00  0.19480692493E-01 0.  0.
         14    1    1    2    0    0 -0.17452385675E-01  0.62136482173E-02 -0.14683669770E-01  0.23639064021E-01  0.00000000000E+00 0.  1.
     999901    1    3    3    0    0 -0.81744363882E-02 -0.13097658889E+00 -0.62467992017E-02  0.88975317406E+00  0.88000000000E+00 0. -1.
        -11    1    4    4    0    0  0.32836148006E-02  0.43632755346E-01  0.14671514275E-01  0.46153157177E-01  0.51100000000E-03 0. -1.
         11    1    4    4    0    0  0.22343207262E-01  0.81130185331E-01  0.62589546959E-02  0.84384604742E-01  0.51100000000E-03 0.  1.
</event>
<event>
 8    1  0.1161271E+005  0.1043930E+01  0.7957747E-01            NaN
         13   -1    0    0    0    0  0.00000000000E+00  0.00000000000E+00  0.74505805969E-08  0.10566000000E+00  0.10566000000E+00 0. -1.
     999900   -1    0    0    0    0 -0.00000000000E+00 -0.00000000000E+00 -0.74505805969E-08  0.93827000000E+00  0.93827000000E+00 0.  1.
     999902    2    1    2    0    0 -0.48065374479E-03 -0.16935403025E-01 -0.18718793079E-01  0.10186825820E+01  0.10183696631E+01 0.  0.
     999903    2    3    3    0    0  0.17138472511E-01 -0.12529515314E+00 -0.30879912759E-01  0.13177776074E+00  0.20474534801E-01 0.  0.
         14    1    1    2    0    0  0.48065374479E-03  0.16935403025E-01  0.18718793079E-01  0.25247418046E-01  0.00000000000E+00 0. -1.
     999901    1    3    3    0    0 -0.17619126256E-01  0.10835975011E+00  0.12161119680E-01  0.88690482121E+00  0.88000000000E+00 0. -1.
        -11    1    4    4    0    0  0.29012958691E-02 -0.12792206177E-01 -0.99245316297E-02  0.16456473063E-01  0.51100000000E-03 0. -1.
         11    1    4    4    0    0  0.14237176642E-01 -0.11250294696E+00 -0.20955381129E-01  0.11532128768E+00  0.51100000000E-03 0.  1.
</event>
<event>
 8    1  0.1161271E+005  0.1043930E+01  0.7957747E-01            NaN
         13   -1    0    0    0    0  0.00000000000E+00  0.00000000000E+00  0.74505805969E-08  0.10566000000E+00  0.10566000000E+00 0. -1.
     999900   -1    0    0    0    0 -0.00000000000E+00 -0.00000000000E+00 -0.74505805969E-08  0.93827000000E+00  0.93827000000E+00 0.  1.
     999902    2    1    2    0    0 -0.17985991379E-01 -0.16090315283E-01 -0.40915789053E-02  0.10194527626E+01  0.10191588689E+01 0.  0.
     999903    2    3    3    0    0  0.81637829056E-01 -0.87318495670E-01 -0.46797603786E-01  0.12994606571E+00  0.20167038841E-01 0.  0.
         14    1    1    2    0    0  0.17985991379E-01  0.16090315283E-01  0.40915789053E-02  0.24477237380E-01  0.00000000000E+00 0. -1.
     999901    1    3    3    0    0 -0.99623820435E-01  0.71228180387E-01  0.42706024880E-01  0.88950669691E+00  0.88000000000E+00 0.  1.
        -11    1    4    4    0    0  0.25779632462E-01 -0.41628354769E-01 -0.21428392386E-01  0.53450411522E-01  0.51100000000E-03 0.  1.
         11    1    4    4    0    0  0.55858196594E-01 -0.45690140901E-01 -0.25369211400E-01  0.76495654192E-01  0.51100000000E-03 0. -1.
</event>
<event>
 8    1  0.1161271E+005  0.1043930E+01  0.7957747E-01            NaN
         13   -1    0    0    0    0  0.00000000000E+00  0.00000000000E+00  0.74505805969E-08  0.10566000000E+00  0.10566000000E+00 0. -1.
     999900   -1    0    0    0    0 -0.00000000000E+00 -0.00000000000E+00 -0.74505805969E-08  0.93827000000E+00  0.93827000000E+00 0.  1.
     999902    2    1    2    0    0  0.89365792819E-02 -0.16248158904E-01 -0.17023962716E-01  0.10187569902E+01  0.10184459360E+01 0.  0.
     999903    2    3    3    0    0 -0.55791860923E-02 -0.12392100442E+00  0.35530449473E-01  0.13051934442E+00  0.19630175044E-01 0.  0.
         14    1    1    2    0    0 -0.89365792819E-02  0.16248158904E-01  0.17023962716E-01  0.25173009824E-01  0.00000000000E+00 0. -1.
     999901    1    3    3    0    0  0.14515765374E-01  0.10767284552E+00 -0.52554412189E-01  0.88823764576E+00  0.88000000000E+00 0.  1.
        -11    1    4    4    0    0  0.15222623057E-02 -0.87018372441E-01  0.17250177505E-01  0.88726231576E-01  0.51100000000E-03 0. -1.
         11    1    4    4    0    0 -0.71014483980E-02 -0.36902631982E-01  0.18280271969E-01  0.41793112839E-01  0.51100000000E-03 0.  1.
</event>
<event>
 8    1  0.1161271E+005  0.1043930E+01  0.7957747E-01            NaN
         13   -1    0    0    0    0  0.00000000000E+00  0.00000000000E+00  0.74505805969E-08  0.10566000000E+00  0.10566000000E+00 0.  1.
     999900   -1    0    0    0    0 -0.00000000000E+00 -0.00000000000E+00 -0.74505805969E-08  0.93827000000E+00  0.93827000000E+00 0.  1.
     999902    2    1    2    0    0 -0.17186620420E-01  0.15947963945E-01  0.11830509887E-02  0.10204541169E+01  0.10201840460E+01 0.  0.
     999903    2    3    3    0    0 -0.32971379665E-01  0.97862856558E-01  0.81269636891E-01  0.13288830559E+00  0.19755943673E-01 0.  0.
         14    1    1    2    0    0  0.17186620420E-01 -0.15947963945E-01 -0.11830509887E-02  0.23475883053E-01  0.00000000000E+00 0. -1.
     999901    1    3    3    0    0  0.15784759244E-01 -0.81914892613E-01 -0.80086585902E-01  0.88756581136E+00  0.88000000000E+00 0.  1.
        -11    1    4    4    0    0 -0.23378665446E-01  0.53009741700E-01  0.34766849005E-01  0.67569146982E-01  0.51100000000E-03 0.  1.
         11    1    4    4    0    0 -0.95927142188E-02  0.44853114858E-01  0.46502787886E-01  0.65319158604E-01  0.51100000000E-03 0. -1.
</event>
<event>
 8    1  0.1161271E+005  0.1043930E+01  0.7957747E-01            NaN
         13   -1    0    0    0    0  0.00000000000E+00  0.00000000000E+00  0.74505805969E-08  0.10566000000E+00  0.10566000000E+00 0.  1.
     999900   -1    0    0    0    0 -0.00000000000E+00 -0.00000000000E+00 -0.74505805969E-08  0.93827000000E+00  0.93827000000E+00 0. -1.
     999902    2    1    2    0    0 -0.90806188959E-03  0.19230041972E-01  0.12720171644E-01  0.10208557317E+01  0.10205949261E+01 0.  0.
     999903    2    3    3    0    0 -0.15977010583E-01 -0.11554556431E+00 -0.49395948725E-01  0.12830324044E+00  0.20389199504E-01 0.  0.
         14    1    1    2    0    0  0.90806188959E-03 -0.19230041972E-01 -0.12720171644E-01  0.23074268294E-01  0.00000000000E+00 0. -1.
     999901    1    3    3    0    0  0.15068948694E-01  0.13477560628E+00  0.62116120370E-01  0.89255249127E+00  0.88000000000E+00 0.  1.
        -11    1    4    4    0    0 -0.11590858006E-01 -0.23349085580E-01 -0.12246318647E-01  0.28805576337E-01  0.51100000000E-03 0. -1.
         11    1    4    4    0    0 -0.43861525779E-02 -0.92196478732E-01 -0.37149630078E-01  0.99497664098E-01  0.51100000000E-03 0.  1.
</event>
<event>
 8    1  0.1161271E+005  0.1043930E+01  0.7957747E-01            NaN
         13   -1    0    0    0    0  0.00000000000E+00  0.00000000000E+00  0.74505805969E-08  0.10566000000E+00  0.10566000000E+00 0. -1.
     999900   -1    0    0    0    0 -0.00000000000E+00 -0.00000000000E+00 -0.74505805969E-08  0.93827000000E+00  0.93827000000E+00 0. -1.
     999902    2    1    2    0    0 -0.11302853484E-01  0.18872797878E-01  0.80644911307E-02  0.10204998268E+01  0.10202308188E+01 0.  0.
     999903    2    3    3    0    0  0.29740800119E-01  0.12731629051E+00  0.12741337104E-01  0.13288141476E+00  0.20029370845E-01 0.  0.
         14    1    1    2    0    0  0.11302853484E-01 -0.18872797878E-01 -0.80644911307E-02  0.23430173150E-01  0.00000000000E+00 0.  1.
     999901    1    3    3    0    0 -0.41043653604E-01 -0.10844349263E+00 -0.46768459732E-02  0.88761841209E+00  0.88000000000E+00 0. -1.
        -11    1    4    4    0    0  0.89015684511E-02  0.37224061365E-01 -0.53706893585E-02  0.38651961018E-01  0.51100000000E-03 0.  1.
         11    1    4    4    0    0  0.20839231668E-01  0.90092229144E-01  0.18112026462E-01  0.94229453740E-01  0.51100000000E-03 0. -1.
</event>
<event>
 8    1  0.1161271E+005  0.1043930E+01  0.7957747E-01            NaN
         13   -1    0    0    0    0  0.00000000000E+00  0.00000000000E+00  0.74505805969E-08  0.10566000000E+00  0.10566000000E+00 0. -1.
     999900   -1    0    0    0    0 -0.00000000000E+00 -0.00000000000E+00 -0.74505805969E-08  0.93827000000E+00  0.93827000000E+00 0.  1.
     999902    2    1    2    0    0  0.14609294010E-01 -0.78116529510E-02 -0.13630638166E-01  0.10224766159E+01  0.10222515260E+01 0.  0.
     999903    2    3    3    0    0  0.58004422480E-01 -0.73531888752E-01 -0.95415204964E-01  0.13518241330E+00  0.19969272307E-01 0.  0.
         14    1    1    2    0    0 -0.14609294010E-01  0.78116529510E-02  0.13630638166E-01  0.21453384118E-01  0.00000000000E+00 0. -1.
     999901    1    3    3    0    0 -0.43395128470E-01  0.65720235801E-01  0.81784566798E-01  0.88729420258E+00  0.88000000000E+00 0. -1.
        -11    1    4    4    0    0  0.36691664868E-01 -0.38954925054E-01 -0.41741824058E-01  0.67870505033E-01  0.51100000000E-03 0. -1.
         11    1    4    4    0    0  0.21312757613E-01 -0.34576963698E-01 -0.53673380906E-01  0.67311908267E-01  0.51100000000E-03 0.  1.
</event>
<event>
 8    1  0.1161271E+005  0.1043930E+01  0.7957747E-01            NaN
         13   -1    0    0    0    0  0.00000000000E+00  0.00000000000E+00  0.74505805969E-08  0.10566000000E+00  0.10566000000E+00 0. -1.
     999900   -1    0    0    0    0 -0.00000000000E+00 -0.00000000000E+00 -0.74505805969E-08  0.93827000000E+00  0.93827000000E+00 0. -1.
     999902    2    1    2    0    0  0.46006508515E-02  0.22504146127E-01 -0.26429063470E-02  0.10208088509E+01  0.10205469722E+01 0.  0.
     999903    2    3    3    0    0 -0.23929459112E-01  0.69927759582E-01 -0.10866409480E+00  0.13271907015E+00  0.18546037578E-01 0.  0.
         14    1    1    2    0    0 -0.46006508515E-02 -0.22504146127E-01  0.26429063470E-02  0.23121149087E-01  0.00000000000E+00 0. -1.
     999901    1    3    3    0    0  0.28530109963E-01 -0.47423613455E-01  0.10602118845E+00  0.88808978076E+00  0.88000000000E+00 0.  1.
        -11    1    4    4    0    0 -0.22575920708E-01  0.55413575031E-01 -0.74385725872E-01  0.95466401566E-01  0.51100000000E-03 0.  1.
         11    1    4    4    0    0 -0.13535384041E-02  0.14514184551E-01 -0.34278368930E-01  0.37252668587E-01  0.51100000000E-03 0. -1.
</event>
<event>
 8    1  0.1161271E+005  0.1043930E+01  0.7957747E-01            NaN
         13   -1    0    0    0    0  0.00000000000E+00  0.00000000000E+00  0.74505805969E-08  0.10566000000E+00  0.10566000000E+00 0. -1.
     999900   -1    0    0    0    0 -0.00000000000E+00 -0.00000000000E+00 -0.74505805969E-08  0.93827000000E+00  0.93827000000E+00 0. -1.
     999902    2    1    2    0    0 -0.17610278881E-01  0.27664862648E-02 -0.15652386109E-01  0.10202071722E+01  0.10199313220E+01 0.  0.
     999903    2    3    3    0    0  0.91466734757E-01 -0.35591530760E-01  0.79309487937E-01  0.12757797151E+00  0.18794236076E-01 0.  0.
         14    1    1    2    0    0  0.17610278881E-01 -0.27664862648E-02  0.15652386109E-01  0.23722827812E-01  0.00000000000E+00 0.  1.
     999901    1    3    3    0    0 -0.10907701364E+00  0.38358017025E-01 -0.94961874046E-01  0.89262920067E+00  0.88000000000E+00 0.  1.
        -11    1    4    4    0    0  0.62096258247E-01 -0.14537146355E-01  0.51587624443E-01  0.82029372965E-01  0.51100000000E-03 0. -1.
         11    1    4    4    0    0  0.29370476510E-01 -0.21054384406E-01  0.27721863494E-01  0.45548598549E-01  0.51100000000E-03 0.  1.
</event>
<event>
 8    1  0.1161271E+005  0.1043930E+01  0.7957747E-01            NaN
         13   -1    0    0    0    0  0.00000000000E+00  0.00000000000E+00  0.74505805969E-08  0.10566000000E+00  0.10566000000E+00 0. -1.
     999900   -1    0    0    0    0 -0.00000000000E+00 -0.00000000000E+00 -0.74505805969E-08  0.93827000000E+00  0.93827000000E+00 0.  1.
     999902    2    1    2    0    0 -0.44584292308E-03  0.22401051348E-01  0.75571002927E-02  0.10202843737E+01  0.10200103370E+01 0.  0.
     999903    2    3    3    0    0 -0.68977181614E-01 -0.45906321594E-01  0.98533928089E-01  0.13031851776E+00  0.20217298042E-01 0.  0.
         14    1    1    2    0    0  0.44584292308E-03 -0.22401051348E-01 -0.75571002927E-02  0.23645626282E-01  0.00000000000E+00 0. -1.
     999901    1    3    3    0    0  0.68531338691E-01  0.68307372942E-01 -0.90976827796E-01  0.88996585596E+00  0.88000000000E+00 0.  1.
        -11    1    4    4    0    0 -0.21491409580E-01 -0.49376356628E-02  0.32186685591E-01  0.39019287308E-01  0.51100000000E-03 0. -1.
         11    1    4    4    0    0 -0.47485772033E-01 -0.40968685931E-01  0.66347242498E-01  0.91299230450E-01  0.51100000000E-03 0.  1.
</event>
<event>
 8    1  0.1161271E+005  0.1043930E+01  0.7957747E-01            NaN
         13   -1    0    0    0    0  0.00000000000E+00  0.00000000000E+00  0.74505805969E-08  0.10566000000E+00  0.10566000000E+00 0. -1.
     999900   -1    0    0    0    0 -0.00000000000E+00 -0.00000000000E+00 -0.74505805969E-08  0.93827000000E+00  0.93827000000E+00 0.  1.
     999902    2    1    2    0    0  0.89676637220E-02  0.19780724512E-01 -0.90965732663E-02  0.10203833718E+01  0.10201116516E+01 0.  0.
     999903    2    3    3    0    0  0.10911132150E-02  0.10735048480E+00 -0.76708726472E-01  0.13342119321E+00  0.19790628233E-01 0.  0.
         14    1    1    2    0    0 -0.89676637220E-02 -0.19780724512E-01  0.90965732663E-02  0.23546628210E-01  0.00000000000E+00 0.  1.
     999901    1    3    3    0    0  0.78765505070E-02 -0.87569760291E-01  0.67612153206E-01  0.88696217858E+00  0.88000000000E+00 0. -1.
        -11    1    4    4    0    0  0.26274451794E-02  0.57046910171E-01 -0.28906961419E-01  0.64008803830E-01  0.51100000000E-03 0. -1.
         11    1    4    4    0    0 -0.15363319644E-02  0.50303574632E-01 -0.47801765053E-01  0.69412389383E-01  0.51100000000E-03 0.  1.
</event>
<event>
 8    1  0.1161271E+005  0.1043930E+01  0.7957747E-01            NaN
         13   -1    0    0    0    0  0.00000000000E+00  0.00000000000E+00  0.74505805969E-08  0.10566000000E+00  0.10566000000E+00 0.  1.
     999900   -1    0    0    0    0 -0.00000000000E+00 -0.00000000000E+00 -0.74505805969E-08  0.93827000000E+00  0.93827000000E+00 0. -1.
     999902    2    1    2    0    0 -0.77822074550E-02  0.17921003493E-01  0.12288772177E-01  0.10208488596E+01  0.10205878968E+01 0.  0.
     999903    2    3    3    0    0  0.11831156568E+00 -0.33813201631E-01 -0.33583731534E-01  0.12917607537E+00  0.20436052560E-01 0.  0.
         14    1    1    2    0    0  0.77822074550E-02 -0.17921003493E-01 -0.12288772177E-01  0.23081140368E-01  0.00000000000E+00 0.  1.
     999901    1    3    3    0    0 -0.12609377314E+00  0.51734205124E-01  0.45872503711E-01  0.89167278427E+00  0.88000000000E+00 0. -1.
        -11    1    4    4    0    0  0.12196241537E-01 -0.60821453736E-02  0.21821577099E-02  0.13811724485E-01  0.51100000000E-03 0. -1.
         11    1    4    4    0    0  0.10611532415E+00 -0.27731056258E-01 -0.35765889244E-01  0.11536435088E+00  0.51100000000E-03 0.  1.
</event>
<event>
 8    1  0.1161271E+005  0.1043930E+01  0.7957747E-01            NaN
         13   -1    0    0    0    0  0.00000000000E+00  0.00000000000E+00  0.74505805969E-08  0.10566000000E+00  0.10566000000E+00 0.  1.
     999900   -1    0    0    0    0 -0.00000000000E+00 -0.00000000000E+00 -0.74505805969E-08  0.93827000000E+00  0.93827000000E+00 0.  1.
     999902    2    1    2    0    0 -0.17628483751E-01 -0.93675204346E-02  0.55660562187E-02  0.10232057422E+01  0.10229958436E+01 0.  0.
     999903    2    3    3    0    0 -0.97217417099E-01 -0.25190543966E-01  0.88918053081E-01  0.13555022246E+00  0.19535940040E-01 0.  0.
         14    1    1    2    0    0  0.17628483751E-01  0.93675204346E-02 -0.55660562187E-02  0.20724257774E-01  0.00000000000E+00 0.  1.
     999901    1    3    3    0    0  0.79588933348E-01  0.15823023532E-01 -0.83351996863E-01  0.88765551976E+00  0.88000000000E+00 0. -1.
        -11    1    4    4    0    0 -0.23134002101E-01 -0.58373002777E-02  0.33044212614E-01  0.40760731545E-01  0.51100000000E-03 0. -1.
         11    1    4    4    0    0 -0.74083414998E-01 -0.19353243688E-01  0.55873840467E-01  0.94789490918E-01  0.51100000000E-03 0.  1.
</event>
<event>
 8    1  0.1161271E+005  0.1043930E+01  0.7957747E-01            NaN
         13   -1    0    0    0    0  0.00000000000E+00  0.00000000000E+00  0.74505805969E-08  0.10566000000E+00  0.10566000000E+00 0. -1.
     999900   -1    0    0    0    0 -0.00000000000E+00 -0.00000000000E+00 -0.74505805969E-08  0.93827000000E+00  0.93827000000E+00 0. -1.
     999902    2    1    2    0    0  0.15739925728E-01 -0.45368737106E-02  0.17179835207E-01  0.10201923670E+01  0.10199161683E+01 0.  0.
     999903    2    3    3    0    0  0.13969176707E-01  0.12396894858E+00 -0.28899118179E-01  0.12966434838E+00  0.20353036631E-01 0.  0.
         14    1    1    2    0    0 -0.15739925728E-01  0.45368737106E-02 -0.17179835207E-01  0.23737633048E-01  0.00000000000E+00 0.  1.
     999901    1    3    3    0    0  0.17707490211E-02 -0.12850582229E+00  0.46078953386E-01  0.89052801857E+00  0.88000000000E+00 0.  1.
        -11    1    4    4    0    0 -0.37443047032E-02  0.54045917647E-01 -0.99588031728E-02  0.55085569015E-01  0.51100000000E-03 0.  1.
         11    1    4    4    0    0  0.17713481410E-01  0.69923030931E-01 -0.18940315006E-01  0.74578779366E-01  0.51100000000E-03 0. -1.
</event>
<event>
 8    1  0.1161271E+005  0.1043930E+01  0.7957747E-01            NaN
         13   -1    0    0    0    0  0.00000000000E+00  0.00000000000E+00  0.74505805969E-08  0.10566000000E+00  0.10566000000E+00 0.  1.
     999900   -1    0    0    0    0 -0.00000000000E+00 -0.00000000000E+00 -0.74505805969E-08  0.93827000000E+00  0.93827000000E+00 0.  1.
     999902    2    1    2    0    0  0.15578032696E-01  0.18425272092E-01  0.13694202557E-02  0.10197630584E+01  0.10194766570E+01 0.  0.
     999903    2    3    3    0    0  0.16637239575E-01 -0.92346432148E-01 -0.84843196593E-01  0.12863786648E+00  0.23338196428E-01 0.  0.
         14    1    1    2    0    0 -0.15578032696E-01 -0.18425272092E-01 -0.13694202557E-02  0.24166941598E-01  0.00000000000E+00 0. -1.
     999901    1    3    3    0    0 -0.10592068790E-02  0.11077170424E+00  0.86212616848E-01  0.89112519193E+00  0.88000000000E+00 0. -1.
        -11    1    4    4    0    0 -0.14159989368E-02 -0.31624508037E-01 -0.17478898251E-01  0.36164728212E-01  0.51100000000E-03 0. -1.
         11    1    4    4    0    0  0.18053238512E-01 -0.60721924111E-01 -0.67364298342E-01  0.92473138265E-01  0.51100000000E-03 0.  1.
</event>
<event>
 8    1  0.1161271E+005  0.1043930E+01  0.7957747E-01            NaN
         13   -1    0    0    0    0  0.00000000000E+00  0.00000000000E+00  0.74505805969E-08  0.10566000000E+00  0.10566000000E+00 0. -1.
     999900   -1    0    0    0    0 -0.00000000000E+00 -0.00000000000E+00 -0.74505805969E-08  0.93827000000E+00  0.93827000000E+00 0. -1.
     999902    2    1    2    0    0  0.51819968437E-02  0.20483797365E-01  0.38835592803E-02  0.10224469584E+01  0.10222212390E+01 0.  0.
     999903    2    3    3    0    0  0.91058670511E-01  0.44562021756E-01  0.85813062955E-01  0.13415252094E+00  0.18856347518E-01 0.  0.
         14    1    1    2    0    0 -0.51819968437E-02 -0.20483797365E-01 -0.38835592803E-02  0.21483041649E-01  0.00000000000E+00 0.  1.
     999901    1    3    3    0    0 -0.85876673667E-01 -0.24078224391E-01 -0.81929503675E-01  0.88829443741E+00  0.88000000000E+00 0. -1.
        -11    1    4    4    0    0  0.58332861396E-01  0.34184297297E-01  0.66123510552E-01  0.94572028999E-01  0.51100000000E-03 0.  1.
         11    1    4    4    0    0  0.32725809114E-01  0.10377724459E-01  0.19689552403E-01  0.39580491937E-01  0.51100000000E-03 0. -1.
</event>
<event>
 8    1  0.1161271E+005  0.1043930E+01  0.7957747E-01            NaN
         13   -1    0    0    0    0  0.00000000000E+00  0.00000000000E+00  0.74505805969E-08  0.10566000000E+00  0.10566000000E+00 0. -1.
     999900   -1    0    0    0    0 -0.00000000000E+00 -0.00000000000E+00 -0.74505805969E-08  0.93827000000E+00  0.93827000000E+00 0.  1.
     999902    2    1    2    0    0  0.12743678713E-01  0.17697925921E-01 -0.43101718019E-02  0.10216994915E+01  0.10214576131E+01 0.  0.
     999903    2    3    3    0    0  0.68569456360E-01 -0.10634391874E+00  0.27790449153E-01  0.13067011678E+00  0.17075448905E-01 0.  0.
         14    1    1    2    0    0 -0.12743678713E-01 -0.17697925921E-01  0.43101718019E-02  0.22230508542E-01  0.00000000000E+00 0.  1.
     999901    1    3    3    0    0 -0.55825777647E-01  0.12404184467E+00 -0.32100620955E-01  0.89102937468E+00  0.88000000000E+00 0.  1.
        -11    1    4    4    0    0  0.35088815227E-01 -0.43880339038E-01  0.59099786466E-02  0.56496885549E-01  0.51100000000E-03 0. -1.
         11    1    4    4    0    0  0.33480641133E-01 -0.62463579706E-01  0.21880470506E-01  0.74173231229E-01  0.51100000000E-03 0.  1.
</event>
<event>
 8    1  0.1161271E+005  0.1043930E+01  0.7957747E-01            NaN
         13   -1    0    0    0    0  0.00000000000E+00  0.00000000000E+00  0.74505805969E-08  0.10566000000E+00  0.10566000000E+00 0. -1.
     999900   -1    0    0    0    0 -0.00000000000E+00 -0.00000000000E+00 -0.74505805969E-08  0.93827000000E+00  0.93827000000E+00 0. -1.
     999902    2    1    2    0    0  0.12113695999E-02  0.23717296445E-01  0.32808529136E-02  0.10199562318E+01  0.10196744447E+01 0.  0.
     999903    2    3    3    0    0  0.12839624977E+00  0.14193506513E-01  0.50073145089E-02  0.13076014711E+00  0.19649180428E-01 0.  0.
         14    1    1    2    0    0 -0.12113695999E-02 -0.23717296445E-01 -0.32808529136E-02  0.23973768223E-01  0.00000000000E+00 0. -1.
     999901    1    3    3    0    0 -0.12718488017E+00  0.95237899326E-02 -0.17264615953E-02  0.88919608467E+00  0.88000000000E+00 0.  1.
        -11    1    4    4    0    0  0.10295284580E+00  0.15500518910E-01  0.10659671500E-01  0.10465870371E+00  0.51100000000E-03 0. -1.
         11    1    4    4    0    0  0.25443403971E-01 -0.13070123975E-02 -0.56523569915E-02  0.26101443401E-01  0.51100000000E-03 0.  1.
</event>
<event>
 8    1  0.1161271E+005  0.1043930E+01  0.7957747E-01            NaN
         13   -1    0    0    0    0  0.00000000000E+00  0.00000000000E+00  0.74505805969E-08  0.10566000000E+00  0.10566000000E+00 0. -1.
     999900   -1    0    0    0    0 -0.00000000000E+00 -0.00000000000E+00 -0.74505805969E-08  0.93827000000E+00  0.93827000000E+00 0. -1.
     999902    2    1    2    0    0 -0.18457274624E-01  0.11795878438E-01  0.67921276670E-02  0.10209964714E+01  0.10207388735E+01 0.  0.
     999903    2    3    3    0    0 -0.62631960222E-01  0.16371743399E-01  0.11380658483E+00  0.13340172413E+00  0.25559437104E-01 0.  0.
         14    1    1    2    0    0  0.18457274624E-01 -0.11795878438E-01 -0.67921276670E-02  0.22933528576E-01  0.00000000000E+00 0.  1.
     999901    1    3    3    0    0  0.44174685598E-01 -0.45758649607E-02 -0.10701445717E+00  0.88759474730E+00  0.88000000000E+00 0. -1.
        -11    1    4    4    0    0 -0.32063056100E-01 -0.10489077114E-02  0.37363806057E-01  0.49248907581E-01  0.51100000000E-03 0. -1.
         11    1    4    4    0    0 -0.30568904122E-01  0.17420651110E-01  0.76442778777E-01  0.84152816545E-01  0.51100000000E-03 0.  1.
</event>
<event>
 8    1  0.1161271E+005  0.1043930E+01  0.7957747E-01            NaN
         13   -1    0    0    0    0  0.00000000000E+00  0.00000000000E+00  0.74505805969E-08  0.10566000000E+00  0.10566000000E+00 0.  1.
     999900   -1    0    0    0    0 -0.00000000000E+00 -0.00000000000E+00 -0.74505805969E-08  0.93827000000E+00  0.93827000000E+00 0. -1.
     999902    2    1    2    0    0  0.63889719073E-02  0.20703121822E-01 -0.10239172239E-01  0.10199658838E+01  0.10196843263E+01 0.  0.
     999903    2    3    3    0    0 -0.84986082014E-01 -0.23259084646E-01 -0.93762495910E-01  0.13021410853E+00  0.20017224213E-01 0.  0.
         14    1    1    2    0    0 -0.63889719073E-02 -0.20703121822E-01  0.10239172239E-01  0.23964116161E-01  0.00000000000E+00 0. -1.
     999901    1    3    3    0    0  0.91375053922E-01  0.43962206468E-01  0.83523323671E-01  0.88975177531E+00  0.88000000000E+00 0.  1.
        -11    1    4    4    0    0 -0.29590333612E-01 -0.81516512028E-02 -0.19600711999E-01  0.36420959522E-01  0.51100000000E-03 0.  1.
         11    1    4    4    0    0 -0.55395748402E-01 -0.15107433443E-01 -0.74161783911E-01  0.93793149004E-01  0.51100000000E-03 0. -1.
</event>
<event>
 8    1  0.1161271E+005  0.1043930E+01  0.7957747E-01            NaN
         13   -1    0    0    0    0  0.00000000000E+00  0.00000000000E+00  0.74505805969E-08  0.10566000000E+00  0.10566000000E+00 0.  1.
     999900   -1    0    0    0    0 -0.00000000000E+00 -0.00000000000E+00 -0.74505805969E-08  0.93827000000E+00  0.93827000000E+00 0.  1.
     999902    2    1    2    0    0 -0.13286374754E-01 -0.19402799396E-01 -0.53398961510E-03  0.10204080629E+01  0.10201369189E+01 0.  0.
     999903    2    3    3    0    0 -0.55626759132E-01 -0.23180515647E-01  0.11546312384E+00  0.13177860719E+00  0.20054817561E-01 0.  0.
         14    1    1    2    0    0  0.13286374754E-01  0.19402799396E-01  0.53398961510E-03  0.23521937067E-01  0.00000000000E+00 0.  1.
     999901    1    3    3    0    0  0.42340384378E-01  0.37777162515E-02 -0.11599711346E+00  0.88862945575E+00  0.88000000000E+00 0.  1.
        -11    1    4    4    0    0 -0.45443911566E-01 -0.14044630657E-01  0.10215207009E+00  0.11268410399E+00  0.51100000000E-03 0. -1.
         11    1    4    4    0    0 -0.10182847566E-01 -0.91358849905E-02  0.13311053754E-01  0.19094503192E-01  0.51100000000E-03 0.  1.
</event>
<event>
 8    1  0.1161271E+005  0.1043930E+01  0.7957747E-01            NaN
         13   -1    0    0    0    0  0.00000000000E+00  0.00000000000E+00  0.74505805969E-08  0.10566000000E+00  0.10566000000E+00 0.  1.
     999900   -1    0    0    0    0 -0.00000000000E+00 -0.00000000000E+00 -0.74505805969E-08  0.93827000000E+00  0.93827000000E+00 0. -1.
     999902    2    1    2    0    0 -0.11249093512E-02  0.76826631720E-02  0.22466673104E-01  0.10201594271E+01  0.10198824524E+01 0.  0.
     999903    2    3    3    0    0  0.65382083035E-01  0.76024071114E-01 -0.80033930662E-01  0.12909259358E+00  0.14317523829E-01 0.  0.
         14    1    1    2    0    0  0.11249093512E-02 -0.76826631720E-02 -0.22466673104E-01  0.23770572875E-01  0.00000000000E+00 0. -1.
     999901    1    3    3    0    0 -0.66506992386E-01 -0.68341407942E-01  0.10250060377E+00  0.89106683355E+00  0.88000000000E+00 0.  1.
        -11    1    4    4    0    0  0.23250913101E-01  0.37677112841E-01 -0.36813683065E-01  0.57581925757E-01  0.51100000000E-03 0. -1.
         11    1    4    4    0    0  0.42131169933E-01  0.38346958272E-01 -0.43220247597E-01  0.71510667820E-01  0.51100000000E-03 0.  1.
</event>
<event>
 8    1  0.1161271E+005  0.1043930E+01  0.7957747E-01            NaN
         13   -1    0    0    0    0  0.00000000000E+00  0.00000000000E+00  0.74505805969E-08  0.10566000000E+00  0.10566000000E+00 0.  1.
     999900   -1    0    0    0    0 -0.00000000000E+00 -0.00000000000E+00 -0.74505805969E-08  0.93827000000E+00  0.93827000000E+00 0.  1.
     999902    2    1    2    0    0  0.42417591684E-02 -0.69069839774E-02  0.22492376819E-01  0.10200217177E+01  0.10197414862E+01 0.  0.
     999903    2    3    3    0    0 -0.29305422581E-01 -0.88691461939E-01 -0.86617778769E-01  0.12888809117E+00  0.19609110995E-01 0.  0.
         14    1    1    2    0    0 -0.42417591684E-02  0.69069839774E-02 -0.22492376819E-01  0.23908282319E-01  0.00000000000E+00 0. -1.
     999901    1    3    3    0    0  0.33547181749E-01  0.81784477962E-01  0.10911015559E+00  0.89113362651E+00  0.88000000000E+00 0. -1.
        -11    1    4    4    0    0 -0.14316847208E-01 -0.50499778482E-01 -0.61174737616E-01  0.80608990715E-01  0.51100000000E-03 0. -1.
         11    1    4    4    0    0 -0.14988575373E-01 -0.38191683457E-01 -0.25443041153E-01  0.48279100459E-01  0.51100000000E-03 0.  1.
</event>
<event>
 8    1  0.1161271E+005  0.1043930E+01  0.7957747E-01            NaN
         13   -1    0    0    0    0  0.00000000000E+00  0.00000000000E+00  0.74505805969E-08  0.10566000000E+00  0.10566000000E+00 0. -1.
     999900   -1    0    0    0    0 -0.00000000000E+00 -0.00000000000E+00 -0.74505805969E-08  0.93827000000E+00  0.93827000000E+00 0. -1.
     999902    2    1    2    0    0  0.18789622919E-01  0.10482411207E-02 -0.14046894775E-01  0.10204467295E+01  0.10201764866E+01 0.  0.
     999903    2    3    3    0    0  0.95009742160E-01  0.88883884828E-01 -0.16737338135E-01  0.13279147812E+00  0.20645631149E-01 0.  0.
         14    1    1    2    0    0 -0.18789622919E-01 -0.10482411207E-02  0.14046894775E-01  0.23483270465E-01  0.00000000000E+00 0. -1.
     999901    1    3    3    0    0 -0.76220119241E-01 -0.87835643708E-01  0.26904433599E-02  0.88765525142E+00  0.88000000000E+00 0.  1.
        -11    1    4    4    0    0  0.37414456257E-01  0.28073213250E-01  0.25272151543E-02  0.46846502287E-01  0.51100000000E-03 0.  1.
         11    1    4    4    0    0  0.57595285903E-01  0.60810671579E-01 -0.19264553290E-01  0.85944975831E-01  0.51100000000E-03 0. -1.
</event>
<event>
 8    1  0.1161271E+005  0.1043930E+01  0.7957747E-01            NaN
         13   -1    0    0    0    0  0.00000000000E+00  0.00000000000E+00  0.74505805969E-08  0.10566000000E+00  0.10566000000E+00 0. -1.
     999900   -1    0    0    0    0 -0.00000000000E+00 -0.00000000000E+00 -0.74505805969E-08  0.93827000000E+00  0.93827000000E+00 0.  1.
     999902    2    1    2    0    0 -0.76199652842E-02  0.12791769645E-01  0.19387514534E-01  0.10194847763E+01  0.10191916602E+01 0.  0.
     999903    2    3    3    0    0  0.44429922706E-02 -0.89183449131E-01 -0.86982826508E-01  0.12715125702E+00  0.25059973570E-01 0.  0.
         14    1    1    2    0    0  0.76199652842E-02 -0.12791769645E-01 -0.19387514534E-01  0.24445223692E-01  0.00000000000E+00 0.  1.
     999901    1    3    3    0    0 -0.12062957555E-01  0.10197521878E+00  0.10637034104E+00  0.89233351929E+00  0.88000000000E+00 0. -1.
        -11    1    4    4    0    0 -0.12357536208E-02 -0.77206730268E-01 -0.62646357519E-01  0.99434569025E-01  0.51100000000E-03 0.  1.
         11    1    4    4    0    0  0.56787458914E-02 -0.11976718863E-01 -0.24336468989E-01  0.27716687996E-01  0.51100000000E-03 0. -1.
</event>
<event>
 8    1  0.1161271E+005  0.1043930E+01  0.7957747E-01            NaN
         13   -1    0    0    0    0  0.00000000000E+00  0.00000000000E+00  0.74505805969E-08  0.10566000000E+00  0.10566000000E+00 0.  1.
     999900   -1    0    0    0    0 -0.00000000000E+00 -0.00000000000E+00 -0.74505805969E-08  0.93827000000E+00  0.93827000000E+00 0. -1.
     999902    2    1    2    0    0 -0.17229935875E-01 -0.15748861150E-01  0.31005721695E-02  0.10203819456E+01  0.10201101921E+01 0.  0.
     999903    2    3    3    0    0  0.83893949717E-01  0.94015709492E-01  0.84631815982E-02  0.12779970358E+00  0.19595672027E-01 0.  0.
         14    1    1    2    0    0  0.17229935875E-01  0.15748861150E-01 -0.31005721695E-02  0.23548054390E-01  0.00000000000E+00 0.  1.
     999901    1    3    3    0    0 -0.10112388559E+00 -0.10976457064E+00 -0.53626094287E-02  0.89258224203E+00  0.88000000000E+00 0. -1.
        -11    1    4    4    0    0  0.49703007037E-01  0.65572335185E-01 -0.11684970566E-02  0.82290622531E-01  0.51100000000E-03 0.  1.
         11    1    4    4    0    0  0.34190942680E-01  0.28443374307E-01  0.96316786548E-02  0.45509081050E-01  0.51100000000E-03 0. -1.
</event>
<event>
 8    1  0.1161271E+005  0.1043930E+01  0.7957747E-01            NaN
         13   -1    0    0    0    0  0.00000000000E+00  0.00000000000E+00  0.74505805969E-08  0.10566000000E+00  0.10566000000E+00 0. -1.
     999900   -1    0    0    0    0 -0.00000000000E+00 -0.00000000000E+00 -0.74505805969E-08  0.93827000000E+00  0.93827000000E+00 0.  1.
     999902    2    1    2    0    0  0.11477923926E-01 -0.92378320741E-02 -0.10164883545E-01  0.10260301359E+01  0.10258739857E+01 0.  0.
     999903    2    3    3    0    0  0.90996222018E-01 -0.53460362341E-01  0.83912545303E-01  0.13635078095E+00  0.20295256676E-01 0.  0.
         14    1    1    2    0    0 -0.11477923926E-01  0.92378320741E-02  0.10164883545E-01  0.17899864150E-01  0.00000000000E+00 0. -1.
     999901    1    3    3    0    0 -0.79518298092E-01  0.44222530267E-01 -0.94077428849E-01  0.88967935490E+00  0.88000000000E+00 0.  1.
        -11    1    4    4    0    0  0.80583543760E-01 -0.40561915020E-01  0.64988784868E-01  0.11118803782E+00  0.51100000000E-03 0.  1.
         11    1    4    4    0    0  0.10412678258E-01 -0.12898447321E-01  0.18923760435E-01  0.25162743130E-01  0.51100000000E-03 0. -1.
</event>
<event>
 8    1  0.1161271E+005  0.1043930E+01  0.7957747E-01            NaN
         13   -1    0    0    0    0  0.00000000000E+00  0.00000000000E+00  0.74505805969E-08  0.10566000000E+00  0.10566000000E+00 0.  1.
     999900   -1    0    0    0    0 -0.00000000000E+00 -0.00000000000E+00 -0.74505805969E-08  0.93827000000E+00  0.93827000000E+00 0.  1.
     999902    2    1    2    0    0  0.39149555628E-02  0.81941640622E-02  0.22638736083E-01  0.10195377149E+01  0.10192458823E+01 0.  0.
     999903    2    3    3    0    0  0.54633892827E-01  0.49032334557E-01 -0.10326819437E+00  0.12819450270E+00  0.19505857485E-01 0.  0.
         14    1    1    2    0    0 -0.39149555628E-02 -0.81941640622E-02 -0.22638736083E-01  0.24392285115E-01  0.00000000000E+00 0. -1.
     999901    1    3    3    0    0 -0.50718937265E-01 -0.40838170495E-01  0.12590693046E+00  0.89134321218E+00  0.88000000000E+00 0. -1.
        -11    1    4    4    0    0  0.11465045465E-01  0.19128413400E-01 -0.41524181324E-01  0.47136633549E-01  0.51100000000E-03 0. -1.
         11    1    4    4    0    0  0.43168847362E-01  0.29903921157E-01 -0.61744013050E-01  0.81057869153E-01  0.51100000000E-03 0.  1.
</event>
<event>
 8    1  0.1161271E+005  0.1043930E+01  0.7957747E-01            NaN
         13   -1    0    0    0    0  0.00000000000E+00  0.00000000000E+00  0.74505805969E-08  0.10566000000E+00  0.10566000000E+00 0.  1.
     999900   -1    0    0    0    0 -0.00000000000E+00 -0.00000000000E+00 -0.74505805969E-08  0.93827000000E+00  0.93827000000E+00 0.  1.
     999902    2    1    2    0    0  0.14263675270E-02 -0.24295463056E-01  0.93356469659E-02  0.10178635780E+01  0.10175297564E+01 0.  0.
     999903    2    3    3    0    0 -0.11712297383E+00  0.20025850679E-01 -0.41710836048E-01  0.12734458969E+00  0.18921548204E-01 0.  0.
         14    1    1    2    0    0 -0.14263675270E-02  0.24295463056E-01 -0.93356469659E-02  0.26066421958E-01  0.00000000000E+00 0. -1.
     999901    1    3    3    0    0  0.11854934135E+00 -0.44321313735E-01  0.51046483014E-01  0.89051898835E+00  0.88000000000E+00 0. -1.
        -11    1    4    4    0    0 -0.89823592490E-01  0.18469629202E-01 -0.39680009555E-01  0.99920814898E-01  0.51100000000E-03 0. -1.
         11    1    4    4    0    0 -0.27299381336E-01  0.15562214765E-02 -0.20308264929E-02  0.27423774792E-01  0.51100000000E-03 0.  1.
</event>
<event>
 8    1  0.1161271E+005  0.1043930E+01  0.7957747E-01            NaN
         13   -1    0    0    0    0  0.00000000000E+00  0.00000000000E+00  0.74505805969E-08  0.10566000000E+00  0.10566000000E+00 0.  1.
     999900   -1    0    0    0    0 -0.00000000000E+00 -0.00000000000E+00 -0.74505805969E-08  0.93827000000E+00  0.93827000000E+00 0.  1.
     999902    2    1    2    0    0  0.48391416223E-02  0.74773503248E-02  0.22377272519E-01  0.10198453496E+01  0.10195609186E+01 0.  0.
     999903    2    3    3    0    0 -0.93966636473E-01  0.86579895060E-01 -0.13585580035E-01  0.13006272382E+00  0.20147881894E-01 0.  0.
         14    1    1    2    0    0 -0.48391416223E-02 -0.74773503248E-02 -0.22377272519E-01  0.24084650401E-01  0.00000000000E+00 0. -1.
     999901    1    3    3    0    0  0.98805778095E-01 -0.79102544735E-01  0.35962852554E-01  0.88978262578E+00  0.88000000000E+00 0.  1.
        -11    1    4    4    0    0 -0.35158640936E-01  0.19979195906E-01 -0.60784821714E-02  0.40896300175E-01  0.51100000000E-03 0.  1.
         11    1    4    4    0    0 -0.58807995537E-01  0.66600699154E-01 -0.75070978634E-02  0.89166423648E-01  0.51100000000E-03 0. -1.
</event>
<event>
 8    1  0.1161271E+005  0.1043930E+01  0.7957747E-01            NaN
         13   -1    0    0    0    0  0.00000000000E+00  0.00000000000E+00  0.74505805969E-08  0.10566000000E+00  0.10566000000E+00 0. -1.
     999900   -1    0    0    0    0 -0.00000000000E+00 -0.00000000000E+00 -0.74505805969E-08  0.93827000000E+00  0.93827000000E+00 0.  1.
     999902    2    1    2    0    0  0.35445518570E-02 -0.17925521791E-01  0.14554905414E-01  0.10205690614E+01  0.10203016592E+01 0.  0.
     999903    2    3    3    0    0  0.61014488046E-01  0.67949691155E-01 -0.88685580772E-01  0.12852873512E+00  0.17736268949E-01 0.  0.
         14    1    1    2    0    0 -0.35445518570E-02  0.17925521791E-01 -0.14554905414E-01  0.23360938572E-01  0.00000000000E+00 0.  1.
     999901    1    3    3    0    0 -0.57469936189E-01 -0.85875212946E-01  0.10324048619E+00  0.89204032630E+00  0.88000000000E+00 0. -1.
        -11    1    4    4    0    0  0.27387265295E-01  0.38486153083E-01 -0.55288553274E-01  0.72720915311E-01  0.51100000000E-03 0.  1.
         11    1    4    4    0    0  0.33627222751E-01  0.29463538072E-01 -0.33397027497E-01  0.55807819813E-01  0.51100000000E-03 0. -1.
</event>
<event>
 8    1  0.1161271E+005  0.1043930E+01  0.7957747E-01            NaN
         13   -1    0    0    0    0  0.00000000000E+00  0.00000000000E+00  0.74505805969E-08  0.10566000000E+00  0.10566000000E+00 0. -1.
     999900   -1    0    0    0    0 -0.00000000000E+00 -0.00000000000E+00 -0.74505805969E-08  0.93827000000E+00  0.93827000000E+00 0. -1.
     999902    2    1    2    0    0  0.59203782647E-02  0.15878876312E-01  0.16759925533E-01  0.10200954726E+01  0.10198169878E+01 0.  0.
     999903    2    3    3    0    0  0.11128664592E+00 -0.44517162227E-01 -0.41087001367E-01  0.12987302919E+00  0.28502047934E-01 0.  0.
         14    1    1    2    0    0 -0.59203782647E-02 -0.15878876312E-01 -0.16759925533E-01  0.23834527384E-01  0.00000000000E+00 0.  1.
     999901    1    3    3    0    0 -0.10536626766E+00  0.60396038539E-01  0.57846926900E-01  0.89022244343E+00  0.88000000000E+00 0. -1.
        -11    1    4    4    0    0  0.70202461423E-01 -0.41610266632E-01 -0.32220288938E-01  0.87739432521E-01  0.51100000000E-03 0. -1.
         11    1    4    4    0    0  0.41084184497E-01 -0.29068955951E-02 -0.88667124297E-02  0.42133596667E-01  0.51100000000E-03 0.  1.
</event>
<event>
 8    1  0.1161271E+005  0.1043930E+01  0.7957747E-01            NaN
         13   -1    0    0    0    0  0.00000000000E+00  0.00000000000E+00  0.74505805969E-08  0.10566000000E+00  0.10566000000E+00 0. -1.
     999900   -1    0    0    0    0 -0.00000000000E+00 -0.00000000000E+00 -0.74505805969E-08  0.93827000000E+00  0.93827000000E+00 0.  1.
     999902    2    1    2    0    0  0.93814694933E-02 -0.18934416838E-01  0.11160287727E-01  0.10200328007E+01  0.10197528320E+01 0.  0.
     999903    2    3    3    0    0  0.64643937403E-02 -0.12717243983E+00  0.33370429095E-01  0.13311833511E+00  0.19806255711E-01 0.  0.
         14    1    1    2    0    0 -0.93814694933E-02  0.18934416838E-01 -0.11160287727E-01  0.23897199271E-01  0.00000000000E+00 0.  1.
     999901    1    3    3    0    0  0.29170757530E-02  0.10823802299E+00 -0.22210141368E-01  0.88691446562E+00  0.88000000000E+00 0. -1.
        -11    1    4    4    0    0  0.76956396175E-02 -0.86810903173E-01  0.13785871577E-01  0.88236427596E-01  0.51100000000E-03 0. -1.
         11    1    4    4    0    0 -0.12312458771E-02 -0.40361536655E-01  0.19584557518E-01  0.44881907510E-01  0.51100000000E-03 0.  1.
</event>
<event>
 8    1  0.1161271E+005  0.1043930E+01  0.7957747E-01            NaN
         13   -1    0    0    0    0  0.00000000000E+00  0.00000000000E+00  0.74505805969E-08  0.10566000000E+00  0.10566000000E+00 0. -1.
     999900   -1    0    0    0    0 -0.00000000000E+00 -0.00000000000E+00 -0.74505805969E-08  0.93827000000E+00  0.93827000000E+00 0. -1.
     999902    2    1    2    0    0 -0.20366457199E-01  0.14716526613E-01  0.65302679936E-02  0.10179682371E+01  0.10176371252E+01 0.  0.
     999903    2    3    3    0    0 -0.10178686934E+00  0.50788815887E-01  0.63328436315E-01  0.13165196988E+00  0.19536625547E-01 0.  0.
         14    1    1    2    0    0  0.20366457199E-01 -0.14716526613E-01 -0.65302679936E-02  0.25961762930E-01  0.00000000000E+00 0. -1.
     999901    1    3    3    0    0  0.81420412138E-01 -0.36072289274E-01 -0.56798168321E-01  0.88631626719E+00  0.88000000000E+00 0.  1.
        -11    1    4    4    0    0 -0.12735155744E-01  0.68565234475E-02  0.16239119324E-01  0.21752384306E-01  0.51100000000E-03 0. -1.
         11    1    4    4    0    0 -0.89051713593E-01  0.43932292440E-01  0.47089316991E-01  0.10989958557E+00  0.51100000000E-03 0.  1.
</event>
<event>
 8    1  0.1161271E+005  0.1043930E+01  0.7957747E-01            NaN
         13   -1    0    0    0    0  0.00000000000E+00  0.00000000000E+00  0.74505805969E-08  0.10566000000E+00  0.10566000000E+00 0. -1.
     999900   -1    0    0    0    0 -0.00000000000E+00 -0.00000000000E+00 -0.74505805969E-08  0.93827000000E+00  0.93827000000E+00 0. -1.
     999902    2    1    2    0    0  0.12298665297E-01  0.17276874440E-01 -0.13264076704E-01  0.10189163379E+01  0.10186092580E+01 0.  0.
     999903    2    3    3    0    0  0.50002391275E-01  0.88523084146E-01  0.78946669264E-01  0.13043425314E+00  0.21069936983E-01 0.  0.
         14    1    1    2    0    0 -0.12298665297E-01 -0.17276874440E-01  0.13264076704E-01  0.25013662053E-01  0.00000000000E+00 0.  1.
     999901    1    3    3    0    0 -0.37703725978E-01 -0.71246209707E-01 -0.92210745968E-01  0.88848208481E+00  0.88000000000E+00 0. -1.
        -11    1    4    4    0    0  0.29200816987E-01  0.67527851795E-01  0.49261518288E-01  0.88541836359E-01  0.51100000000E-03 0. -1.
         11    1    4    4    0    0  0.20801574288E-01  0.20995232351E-01  0.29685150976E-01  0.41892416782E-01  0.51100000000E-03 0.  1.
</event>
<event>
 8    1  0.1161271E+005  0.1043930E+01  0.7957747E-01            NaN
         13   -1    0    0    0    0  0.00000000000E+00  0.00000000000E+00  0.74505805969E-08  0.10566000000E+00  0.10566000000E+00 0. -1.
     999900   -1    0    0    0    0 -0.00000000000E+00 -0.00000000000E+00 -0.74505805969E-08  0.93827000000E+00  0.93827000000E+00 0. -1.
     999902    2    1    2    0    0  0.13583205083E-01 -0.16257167183E-01  0.93063397064E-02  0.10207911387E+01  0.10205288540E+01 0.  0.
     999903    2    3    3    0    0 -0.13373302070E-01 -0.10283315858E+00  0.81242687011E-01  0.13321190636E+00  0.19787220394E-01 0.  0.
         14    1    1    2    0    0 -0.13583205083E-01  0.16257167183E-01 -0.93063397064E-02  0.23138861335E-01  0.00000000000E+00 0.  1.
     999901    1    3    3    0    0  0.26956507153E-01  0.86575991393E-01 -0.71936347305E-01  0.88757923231E+00  0.88000000000E+00 0.  1.
        -11    1    4    4    0    0 -0.98063874354E-02 -0.46698627554E-01  0.48903679768E-01  0.68328310866E-01  0.51100000000E-03 0. -1.
         11    1    4    4    0    0 -0.35669146343E-02 -0.56134531023E-01  0.32339007243E-01  0.64883595489E-01  0.51100000000E-03 0.  1.
</event>
<event>
 8    1  0.1161271E+005  0.1043930E+01  0.7957747E-01            NaN
         13   -1    0    0    0    0  0.00000000000E+00  0.00000000000E+00  0.74505805969E-08  0.10566000000E+00  0.10566000000E+00 0. -1.
     999900   -1    0    0    0    0 -0.00000000000E+00 -0.00000000000E+00 -0.74505805969E-08  0.93827000000E+00  0.93827000000E+00 0.  1.
     999902    2    1    2    0    0  0.41770965474E-02 -0.59441751655E-02 -0.22257797112E-01  0.10205165234E+01  0.10202479030E+01 0.  0.
     999903    2    3    3    0    0  0.51343253512E-02 -0.14708688267E-01  0.12558789141E+00  0.12813987614E+00  0.20119706289E-01 0.  0.
         14    1    1    2    0    0 -0.41770965474E-02  0.59441751655E-02  0.22257797112E-01  0.23413476595E-01  0.00000000000E+00 0. -1.
     999901    1    3    3    0    0 -0.95722880378E-03  0.87645131012E-02 -0.14784568852E+00  0.89237664727E+00  0.88000000000E+00 0.  1.
        -11    1    4    4    0    0  0.10427190507E-01 -0.33602405118E-02  0.83756916777E-01  0.84471887319E-01  0.51100000000E-03 0.  1.
         11    1    4    4    0    0 -0.52928651556E-02 -0.11348447755E-01  0.41830974629E-01  0.43667988818E-01  0.51100000000E-03 0. -1.
</event>
<event>
 8    1  0.1161271E+005  0.1043930E+01  0.7957747E-01            NaN
         13   -1    0    0    0    0  0.00000000000E+00  0.00000000000E+00  0.74505805969E-08  0.10566000000E+00  0.10566000000E+00 0. -1.
     999900   -1    0    0    0    0 -0.00000000000E+00 -0.00000000000E+00 -0.74505805969E-08  0.93827000000E+00  0.93827000000E+00 0.  1.
     999902    2    1    2    0    0 -0.52369845183E-02 -0.21873183341E-01  0.83655113323E-02  0.10199332515E+01  0.10196509176E+01 0.  0.
     999903    2    3    3    0    0  0.63822731730E-01  0.28148977652E-01  0.10788666949E+00  0.13022772615E+00  0.21307772693E-01 0.  0.
         14    1    1    2    0    0  0.52369845183E-02  0.21873183341E-01 -0.83655113323E-02  0.23996748450E-01  0.00000000000E+00 0. -1.
     999901    1    3    3    0    0 -0.69059716248E-01 -0.50022160993E-01 -0.99521158158E-01  0.88970552540E+00  0.88000000000E+00 0.  1.
        -11    1    4    4    0    0  0.16833228920E-01  0.11971490761E-01  0.48957989640E-01  0.53139627939E-01  0.51100000000E-03 0. -1.
         11    1    4    4    0    0  0.46989502810E-01  0.16177486891E-01  0.58928679850E-01  0.77088098215E-01  0.51100000000E-03 0.  1.
</event>
<event>
 8    1  0.1161271E+005  0.1043930E+01  0.7957747E-01            NaN
         13   -1    0    0    0    0  0.00000000000E+00  0.00000000000E+00  0.74505805969E-08  0.10566000000E+00  0.10566000000E+00 0.  1.
     999900   -1    0    0    0    0 -0.00000000000E+00 -0.00000000000E+00 -0.74505805969E-08  0.93827000000E+00  0.93827000000E+00 0.  1.
     999902    2    1    2    0    0 -0.75626967930E-02 -0.18231865071E-01  0.19911384602E-01  0.10158932647E+01  0.10155063106E+01 0.  0.
     999903    2    3    3    0    0  0.88979533519E-01 -0.88365719513E-01  0.16443489020E-01  0.12783291428E+00  0.18574387533E-01 0.  0.
         14    1    1    2    0    0  0.75626967930E-02  0.18231865071E-01 -0.19911384602E-01  0.28036735251E-01  0.00000000000E+00 0. -1.
     999901    1    3    3    0    0 -0.96542230312E-01  0.70133854443E-01  0.34678955819E-02  0.88806035047E+00  0.88000000000E+00 0.  1.
        -11    1    4    4    0    0  0.35635535517E-01 -0.37573260813E-01 -0.22585460934E-02  0.51836314213E-01  0.51100000000E-03 0. -1.
         11    1    4    4    0    0  0.53343998002E-01 -0.50792458701E-01  0.18702035113E-01  0.75996600069E-01  0.51100000000E-03 0.  1.
</event>
<event>
 8    1  0.1161271E+005  0.1043930E+01  0.7957747E-01            NaN
         13   -1    0    0    0    0  0.00000000000E+00  0.00000000000E+00  0.74505805969E-08  0.10566000000E+00  0.10566000000E+00 0.  1.
     999900   -1    0    0    0    0 -0.00000000000E+00 -0.00000000000E+00 -0.74505805969E-08  0.93827000000E+00  0.93827000000E+00 0. -1.
     999902    2    1    2    0    0 -0.11777351962E-01  0.63053356075E-02  0.19322824984E-01  0.10204388348E+01  0.10201684080E+01 0.  0.
     999903    2    3    3    0    0 -0.51774067731E-01  0.96197051416E-01  0.73710605455E-01  0.13328705045E+00  0.19943862967E-01 0.  0.
         14    1    1    2    0    0  0.11777351962E-01 -0.63053356075E-02 -0.19322824984E-01  0.23491165185E-01  0.00000000000E+00 0. -1.
     999901    1    3    3    0    0  0.39996715769E-01 -0.89891715808E-01 -0.54387780470E-01  0.88715178437E+00  0.88000000000E+00 0. -1.
        -11    1    4    4    0    0 -0.21816355046E-01  0.33021688909E-01  0.37597515988E-01  0.54591387740E-01  0.51100000000E-03 0. -1.
         11    1    4    4    0    0 -0.29957712684E-01  0.63175362507E-01  0.36113089467E-01  0.78695662707E-01  0.51100000000E-03 0.  1.
</event>
<event>
 8    1  0.1161271E+005  0.1043930E+01  0.7957747E-01            NaN
         13   -1    0    0    0    0  0.00000000000E+00  0.00000000000E+00  0.74505805969E-08  0.10566000000E+00  0.10566000000E+00 0.  1.
     999900   -1    0    0    0    0 -0.00000000000E+00 -0.00000000000E+00 -0.74505805969E-08  0.93827000000E+00  0.93827000000E+00 0.  1.
     999902    2    1    2    0    0  0.10989250308E-01 -0.16266040056E-01 -0.13613963410E-01  0.10200409297E+01  0.10197611537E+01 0.  0.
     999903    2    3    3    0    0  0.10268717570E+00  0.44703335139E-01 -0.66071254513E-01  0.13162799549E+00  0.20432187802E-01 0.  0.
         14    1    1    2    0    0 -0.10989250308E-01  0.16266040056E-01  0.13613963410E-01  0.23889070329E-01  0.00000000000E+00 0.  1.
     999901    1    3    3    0    0 -0.91697925389E-01 -0.60969375195E-01  0.52457291103E-01  0.88841293418E+00  0.88000000000E+00 0. -1.
        -11    1    4    4    0    0  0.87134113019E-01  0.29616022864E-01 -0.55979647314E-01  0.10771928563E+00  0.51100000000E-03 0. -1.
         11    1    4    4    0    0  0.15553062678E-01  0.15087312275E-01 -0.10091607199E-01  0.23908709861E-01  0.51100000000E-03 0.  1.
</event>
<event>
 8    1  0.1161271E+005  0.1043930E+01  0.7957747E-01            NaN
         13   -1    0    0    0    0  0.00000000000E+00  0.00000000000E+00  0.74505805969E-08  0.10566000000E+00  0.10566000000E+00 0. -1.
     999900   -1    0    0    0    0 -0.00000000000E+00 -0.00000000000E+00 -0.74505805969E-08  0.93827000000E+00  0.93827000000E+00 0. -1.
     999902    2    1    2    0    0  0.22576811647E-01  0.87477224090E-04  0.45464460968E-02  0.10208997970E+01  0.10206399979E+01 0.  0.
     999903    2    3    3    0    0 -0.28841938982E-01  0.11665854842E+00 -0.45999229336E-01  0.13028901344E+00  0.20450514922E-01 0.  0.
         14    1    1    2    0    0 -0.22576811647E-01 -0.87477224090E-04 -0.45464460968E-02  0.23030202963E-01  0.00000000000E+00 0. -1.
     999901    1    3    3    0    0  0.51418750629E-01 -0.11657107119E+00  0.50545675433E-01  0.89061078360E+00  0.88000000000E+00 0. -1.
        -11    1    4    4    0    0 -0.96443524663E-02  0.49497723312E-01 -0.29817784834E-01  0.58586684161E-01  0.51100000000E-03 0. -1.
         11    1    4    4    0    0 -0.19197586516E-01  0.67160825105E-01 -0.16181444502E-01  0.71702329278E-01  0.51100000000E-03 0.  1.
</event>
<event>
 8    1  0.1161271E+005  0.1043930E+01  0.7957747E-01            NaN
         13   -1    0    0    0    0  0.00000000000E+00  0.00000000000E+00  0.74505805969E-08  0.10566000000E+00  0.10566000000E+00 0. -1.
     999900   -1    0    0    0    0 -0.00000000000E+00 -0.00000000000E+00 -0.74505805969E-08  0.93827000000E+00  0.93827000000E+00 0. -1.
     999902    2    1    2    0    0  0.81467334866E-02  0.11732767730E-01 -0.19177531268E-01  0.10200175595E+01  0.10197372293E+01 0.  0.
     999903    2    3    3    0    0  0.81665857573E-02  0.53104319668E-01 -0.12035046234E+00  0.13325515181E+00  0.19645350822E-01 0.  0.
         14    1    1    2    0    0 -0.81467334866E-02 -0.11732767730E-01  0.19177531268E-01  0.23912440500E-01  0.00000000000E+00 0. -1.
     999901    1    3    3    0    0 -0.19852270689E-04 -0.41371551938E-01  0.10117293107E+00  0.88676240769E+00  0.88000000000E+00 0.  1.
        -11    1    4    4    0    0 -0.56281090818E-02  0.18486581706E-01 -0.50706822495E-01  0.54266677469E-01  0.51100000000E-03 0. -1.
         11    1    4    4    0    0  0.13794694839E-01  0.34617737962E-01 -0.69643639847E-01  0.78988474345E-01  0.51100000000E-03 0.  1.
</event>
<event>
 8    1  0.1161271E+005  0.1043930E+01  0.7957747E-01            NaN
         13   -1    0    0    0    0  0.00000000000E+00  0.00000000000E+00  0.74505805969E-08  0.10566000000E+00  0.10566000000E+00 0.  1.
     999900   -1    0    0    0    0 -0.00000000000E+00 -0.00000000000E+00 -0.74505805969E-08  0.93827000000E+00  0.93827000000E+00 0. -1.
     999902    2    1    2    0    0 -0.56310140783E-02  0.15078047363E-01 -0.17533835602E-01  0.10201289239E+01  0.10198512294E+01 0.  0.
     999903    2    3    3    0    0  0.51418448133E-02 -0.34173104221E-01  0.12139990882E+00  0.12780369410E+00  0.20040128359E-01 0.  0.
         14    1    1    2    0    0  0.56310140783E-02 -0.15078047363E-01  0.17533835602E-01  0.23801076084E-01  0.00000000000E+00 0.  1.
     999901    1    3    3    0    0 -0.10772858892E-01  0.49251151584E-01 -0.13893374442E+00  0.89232522981E+00  0.88000000000E+00 0. -1.
        -11    1    4    4    0    0  0.22196536566E-02 -0.22247636475E-01  0.43214191323E-01  0.48658109743E-01  0.51100000000E-03 0. -1.
         11    1    4    4    0    0  0.29221911567E-02 -0.11925467746E-01  0.78185717498E-01  0.79145584360E-01  0.51100000000E-03 0.  1.
</event>
<event>
 8    1  0.1161271E+005  0.1043930E+01  0.7957747E-01            NaN
         13   -1    0    0    0    0  0.00000000000E+00  0.00000000000E+00  0.74505805969E-08  0.10566000000E+00  0.10566000000E+00 0. -1.
     999900   -1    0    0    0    0 -0.00000000000E+00 -0.00000000000E+00 -0.74505805969E-08  0.93827000000E+00  0.93827000000E+00 0. -1.
     999902    2    1    2    0    0  0.15404603758E-01 -0.12920790624E-01  0.14101366699E-01  0.10193719628E+01  0.10190761019E+01 0.  0.
     999903    2    3    3    0    0  0.72511393755E-01  0.60580652145E-01 -0.85486063388E-01  0.12887698598E+00  0.19325962911E-01 0.  0.
         14    1    1    2    0    0 -0.15404603758E-01  0.12920790624E-01 -0.14101366699E-01  0.24558037178E-01  0.00000000000E+00 0.  1.
     999901    1    3    3    0    0 -0.57106789997E-01 -0.73501442769E-01  0.99587430087E-01  0.89049497684E+00  0.88000000000E+00 0.  1.
        -11    1    4    4    0    0  0.56193239387E-01  0.40951622875E-01 -0.52305274485E-01  0.87010450113E-01  0.51100000000E-03 0. -1.
         11    1    4    4    0    0  0.16318154368E-01  0.19629029270E-01 -0.33180788903E-01  0.41866535864E-01  0.51100000000E-03 0.  1.
</event>
<event>
 8    1  0.1161271E+005  0.1043930E+01  0.7957747E-01            NaN
         13   -1    0    0    0    0  0.00000000000E+00  0.00000000000E+00  0.74505805969E-08  0.10566000000E+00  0.10566000000E+00 0. -1.
     999900   -1    0    0    0    0 -0.00000000000E+00 -0.00000000000E+00 -0.74505805969E-08  0.93827000000E+00  0.93827000000E+00 0.  1.
     999902    2    1    2    0    0 -0.20624199747E-01 -0.73274579985E-02  0.53974370414E-02  0.10213871168E+01  0.10211383162E+01 0.  0.
     999903    2    3    3    0    0  0.15131985972E-01 -0.11299054954E+00  0.63753345196E-01  0.13242783442E+00  0.21835773846E-01 0.  0.
         14    1    1    2    0    0  0.20624199747E-01  0.73274579985E-02 -0.53974370414E-02  0.22542883190E-01  0.00000000000E+00 0.  1.
     999901    1    3    3    0    0 -0.35756185719E-01  0.10566309155E+00 -0.58355908155E-01  0.88895928239E+00  0.88000000000E+00 0.  1.
        -11    1    4    4    0    0  0.13871775623E-01 -0.35618079802E-01  0.15622452754E-01  0.41296439541E-01  0.51100000000E-03 0.  1.
         11    1    4    4    0    0  0.12602103491E-02 -0.77372469742E-01  0.48130892442E-01  0.91131394878E-01  0.51100000000E-03 0. -1.
</event>
<event>
 8    1  0.1161271E+005  0.1043930E+01  0.7957747E-01            NaN
         13   -1    0    0    0    0  0.00000000000E+00  0.00000000000E+00  0.74505805969E-08  0.10566000000E+00  0.10566000000E+00 0.  1.
     999900   -1    0    0    0    0 -0.00000000000E+00 -0.00000000000E+00 -0.74505805969E-08  0.93827000000E+00  0.93827000000E+00 0. -1.
     999902    2    1    2    0    0 -0.12146993204E-01 -0.17057918668E-01  0.11817133247E-01  0.10198849034E+01  0.10196014170E+01 0.  0.
     999903    2    3    3    0    0  0.12667671445E+00  0.66956559295E-02 -0.53652306146E-02  0.12851994572E+00  0.19919060171E-01 0.  0.
         14    1    1    2    0    0  0.12146993204E-01  0.17057918668E-01 -0.11817133247E-01  0.24045096618E-01  0.00000000000E+00 0. -1.
     999901    1    3    3    0    0 -0.13882370765E+00 -0.23753574597E-01  0.17182363862E-01  0.89136495766E+00  0.88000000000E+00 0.  1.
        -11    1    4    4    0    0  0.66903289786E-01  0.17357235522E-02 -0.12602254984E-01  0.68103897628E-01  0.51100000000E-03 0. -1.
         11    1    4    4    0    0  0.59773424660E-01  0.49599323773E-02  0.72370243694E-02  0.60416048096E-01  0.51100000000E-03 0.  1.
</event>
<event>
 8    1  0.1161271E+005  0.1043930E+01  0.7957747E-01            NaN
         13   -1    0    0    0    0  0.00000000000E+00  0.00000000000E+00  0.74505805969E-08  0.10566000000E+00  0.10566000000E+00 0. -1.
     999900   -1    0    0    0    0 -0.00000000000E+00 -0.00000000000E+00 -0.74505805969E-08  0.93827000000E+00  0.93827000000E+00 0. -1.
     999902    2    1    2    0    0 -0.18838652260E-01  0.13273395253E-01  0.79583635454E-02  0.10195494054E+01  0.10192578559E+01 0.  0.
     999903    2    3    3    0    0 -0.11847694127E+00  0.33372672379E-01 -0.43741197417E-01  0.13219118343E+00  0.20265629762E-01 0.  0.
         14    1    1    2    0    0  0.18838652260E-01 -0.13273395253E-01 -0.79583635454E-02  0.24380594554E-01  0.00000000000E+00 0. -1.
     999901    1    3    3    0    0  0.99638289013E-01 -0.20099277127E-01  0.51699560962E-01  0.88735822202E+00  0.88000000000E+00 0. -1.
        -11    1    4    4    0    0 -0.64688759789E-01  0.24968376895E-01 -0.32585605782E-01  0.76616827870E-01  0.51100000000E-03 0.  1.
         11    1    4    4    0    0 -0.53788181484E-01  0.84042954845E-02 -0.11155591635E-01  0.55574355558E-01  0.51100000000E-03 0. -1.
</event>
<event>
 8    1  0.1161271E+005  0.1043930E+01  0.7957747E-01            NaN
         13   -1    0    0    0    0  0.00000000000E+00  0.00000000000E+00  0.74505805969E-08  0.10566000000E+00  0.10566000000E+00 0. -1.
     999900   -1    0    0    0    0 -0.00000000000E+00 -0.00000000000E+00 -0.74505805969E-08  0.93827000000E+00  0.93827000000E+00 0. -1.
     999902    2    1    2    0    0  0.13424283829E-01  0.10313066326E-01 -0.17065125199E-01  0.10198927532E+01  0.10196094541E+01 0.  0.
     999903    2    3    3    0    0 -0.30345045619E-01  0.12080765351E+00  0.33055475289E-01  0.13049021076E+00  0.20487062149E-01 0.  0.
         14    1    1    2    0    0 -0.13424283829E-01 -0.10313066326E-01  0.17065125199E-01  0.24037246752E-01  0.00000000000E+00 0. -1.
     999901    1    3    3    0    0  0.43769329448E-01 -0.11049458719E+00 -0.50120600488E-01  0.88940254249E+00  0.88000000000E+00 0.  1.
        -11    1    4    4    0    0 -0.94877367826E-02  0.42716691518E-01  0.17064227905E-02  0.43793902352E-01  0.51100000000E-03 0.  1.
         11    1    4    4    0    0 -0.20857308836E-01  0.78090961995E-01  0.31349052498E-01  0.86696308403E-01  0.51100000000E-03 0. -1.
</event>
<event>
 8    1  0.1161271E+005  0.1043930E+01  0.7957747E-01            NaN
         13   -1    0    0    0    0  0.00000000000E+00  0.00000000000E+00  0.74505805969E-08  0.10566000000E+00  0.10566000000E+00 0.  1.
     999900   -1    0    0    0    0 -0.00000000000E+00 -0.00000000000E+00 -0.74505805969E-08  0.93827000000E+00  0.93827000000E+00 0.  1.
     999902    2    1    2    0    0 -0.22403583030E-01  0.88522897892E-02 -0.10357698428E-02  0.10198186669E+01  0.10195335977E+01 0.  0.
     999903    2    3    3    0    0  0.18509556588E-02  0.60732189722E-02  0.12827766517E+00  0.13003331613E+00  0.20327171391E-01 0.  0.
         14    1    1    2    0    0  0.22403583030E-01 -0.88522897892E-02  0.10357698428E-02  0.24111333150E-01  0.00000000000E+00 0.  1.
     999901    1    3    3    0    0 -0.24254538689E-01  0.27790708170E-02 -0.12931343501E+00  0.88978535072E+00  0.88000000000E+00 0.  1.
        -11    1    4    4    0    0  0.50072796403E-02 -0.26701941145E-02  0.10193249768E+00  0.10209161567E+00  0.51100000000E-03 0.  1.
         11    1    4    4    0    0 -0.31563239815E-02  0.87434130868E-02  0.26345167493E-01  0.27941700462E-01  0.51100000000E-03 0. -1.
</event>
<event>
 7    1  0.1161271E+005  0.1043930E+01  0.7957747E-01            NaN
         13   -1    0    0    0    0  0.00000000000E+00  0.00000000000E+00  0.74505805969E-08  0.10566000000E+00  0.10566000000E+00 0. -1.
     999900   -1    0    0    0    0 -0.00000000000E+00 -0.00000000000E+00 -0.74505805969E-08  0.93827000000E+00  0.93827000000E+00 0. -1.
     999902    2    1    2    0    0  0.16025441704E-01 -0.12863261007E-01  0.11807817170E-01  0.10202297297E+01  0.10199544100E+01 0.  0.
         14    1    1    2    0    0 -0.16025441704E-01  0.12863261007E-01 -0.11807817170E-01  0.23700270290E-01  0.00000000000E+00 0. -1.
     999901    1    3    3    0    0  0.11822294618E+00 -0.81327246220E-02  0.81131897157E-01  0.89164185128E+00  0.88000000000E+00 0.  1.
        -11    1    3    3    0    0 -0.34858584404E-01  0.14180844420E-01 -0.31446881805E-01  0.49044721952E-01  0.51100000000E-03 0. -1.
         11    1    3    3    0    0 -0.67338920067E-01 -0.18911380805E-01 -0.37877198182E-01  0.79543156481E-01  0.51100000000E-03 0.  1.
</event>
<event>
 8    1  0.1161271E+005  0.1043930E+01  0.7957747E-01            NaN
         13   -1    0    0    0    0  0.00000000000E+00  0.00000000000E+00  0.74505805969E-08  0.10566000000E+00  0.10566000000E+00 0.  1.
     999900   -1    0    0    0    0 -0.00000000000E+00 -0.00000000000E+00 -0.74505805969E-08  0.93827000000E+00  0.93827000000E+00 0.  1.
     999902    2    1    2    0    0 -0.20752934474E-01  0.10132291860E-01 -0.49506785856E-02  0.10203110067E+01  0.10200375941E+01 0.  0.
     999903    2    3    3    0    0  0.38790815627E-01  0.23086729205E-01 -0.12084517518E+00  0.13062296585E+00  0.20520194966E-01 0.  0.
         14    1    1    2    0    0  0.20752934474E-01 -0.10132291860E-01  0.49506785856E-02  0.23618993333E-01  0.00000000000E+00 0. -1.
     999901    1    3    3    0    0 -0.59543750101E-01 -0.12954437345E-01  0.11589449660E+00  0.88968804081E+00  0.88000000000E+00 0. -1.
        -11    1    4    4    0    0  0.32357858992E-02  0.25062018741E-03 -0.32766313279E-01  0.32930616875E-01  0.51100000000E-03 0.  1.
         11    1    4    4    0    0  0.35555029728E-01  0.22836109017E-01 -0.88078861903E-01  0.97692348979E-01  0.51100000000E-03 0. -1.
</event>
<event>
 7    1  0.1297300E+005  0.1043930E+01  0.7957747E-01            NaN
         13   -1    0    0    0    0  0.00000000000E+00  0.00000000000E+00  0.74505805969E-08  0.10566000000E+00  0.10566000000E+00 0.  1.
     999900   -1    0    0    0    0 -0.00000000000E+00 -0.00000000000E+00 -0.74505805969E-08  0.93827000000E+00  0.93827000000E+00 0.  1.
     999903    2    1    2    0    0 -0.48392162697E-01  0.63269698561E-01 -0.82010605981E-01  0.11601934956E+00  0.19745728938E-01 0.  0.
         14    1    1    2    0    0 -0.40274982998E-02  0.17121352625E-02  0.42870112518E-01  0.43092907735E-01  0.00000000000E+00 0.  1.
     999901    1    1    2    0    0  0.52419660997E-01 -0.64981833824E-01  0.39140493463E-01  0.88481774271E+00  0.88000000000E+00 0.  1.
        -11    1    3    3    0    0 -0.13720105780E-01  0.22384362710E-01 -0.15136899726E-01  0.30309863920E-01  0.51100000000E-03 0. -1.
         11    1    3    3    0    0 -0.34672056917E-01  0.40885335851E-01 -0.66873706255E-01  0.85709485635E-01  0.51100000000E-03 0.  1.
</event>
<event>
 8    1  0.1161271E+005  0.1043930E+01  0.7957747E-01            NaN
         13   -1    0    0    0    0  0.00000000000E+00  0.00000000000E+00  0.74505805969E-08  0.10566000000E+00  0.10566000000E+00 0. -1.
     999900   -1    0    0    0    0 -0.00000000000E+00 -0.00000000000E+00 -0.74505805969E-08  0.93827000000E+00  0.93827000000E+00 0.  1.
     999902    2    1    2    0    0 -0.23457891238E-02  0.24949054019E-01 -0.61139400573E-02  0.10181358478E+01  0.10178090520E+01 0.  0.
     999903    2    3    3    0    0  0.35778218500E-01  0.68938005956E-01  0.10191433609E+00  0.12962103293E+00  0.19558903164E-01 0.  0.
         14    1    1    2    0    0  0.23457891238E-02 -0.24949054019E-01  0.61139400573E-02  0.25794152169E-01  0.00000000000E+00 0.  1.
     999901    1    3    3    0    0 -0.38124007624E-01 -0.43988951937E-01 -0.10802827615E+00  0.88851481490E+00  0.88000000000E+00 0.  1.
        -11    1    4    4    0    0  0.61493211328E-02  0.24294654574E-01  0.21689332698E-01  0.33147136605E-01  0.51100000000E-03 0.  1.
         11    1    4    4    0    0  0.29628897367E-01  0.44643351383E-01  0.80225003393E-01  0.96473896325E-01  0.51100000000E-03 0. -1.
</event>
<event>
 8    1  0.1161271E+005  0.1043930E+01  0.7957747E-01            NaN
         13   -1    0    0    0    0  0.00000000000E+00  0.00000000000E+00  0.74505805969E-08  0.10566000000E+00  0.10566000000E+00 0. -1.
     999900   -1    0    0    0    0 -0.00000000000E+00 -0.00000000000E+00 -0.74505805969E-08  0.93827000000E+00  0.93827000000E+00 0. -1.
     999902    2    1    2    0    0 -0.23050449044E-01  0.66006554932E-02 -0.19247268037E-02  0.10198759686E+01  0.10195922689E+01 0.  0.
     999903    2    3    3    0    0  0.10451436617E+00 -0.33569529118E-01  0.61498308359E-01  0.12751454674E+00  0.20682158440E-01 0.  0.
         14    1    1    2    0    0  0.23050449044E-01 -0.66006554932E-02  0.19247268037E-02  0.24054031415E-01  0.00000000000E+00 0.  1.
     999901    1    3    3    0    0 -0.12756481521E+00  0.40170184611E-01 -0.63423035163E-01  0.89236142185E+00  0.88000000000E+00 0. -1.
        -11    1    4    4    0    0  0.62604655063E-01 -0.16469555584E-01  0.46941212696E-01  0.79964540060E-01  0.51100000000E-03 0.  1.
         11    1    4    4    0    0  0.41909711106E-01 -0.17099973534E-01  0.14557095663E-01  0.47550006678E-01  0.51100000000E-03 0. -1.
</event>
<event>
 8    1  0.1161271E+005  0.1043930E+01  0.7957747E-01            NaN
         13   -1    0    0    0    0  0.00000000000E+00  0.00000000000E+00  0.74505805969E-08  0.10566000000E+00  0.10566000000E+00 0.  1.
     999900   -1    0    0    0    0 -0.00000000000E+00 -0.00000000000E+00 -0.74505805969E-08  0.93827000000E+00  0.93827000000E+00 0.  1.
     999902    2    1    2    0    0  0.32197838801E-02  0.14749939726E-01  0.16457455311E-01  0.10215967162E+01  0.10213525713E+01 0.  0.
     999903    2    3    3    0    0 -0.44741414691E-01 -0.55113779786E-01 -0.10631035447E+00  0.12904243158E+00  0.17627670524E-01 0.  0.
         14    1    1    2    0    0 -0.32197838801E-02 -0.14749939726E-01 -0.16457455311E-01  0.22333283804E-01  0.00000000000E+00 0. -1.
     999901    1    3    3    0    0  0.47961198571E-01  0.69863719512E-01  0.12276780978E+00  0.89255428462E+00  0.88000000000E+00 0. -1.
        -11    1    4    4    0    0 -0.29929323405E-01 -0.27183380979E-01 -0.70484262129E-01  0.81258802168E-01  0.51100000000E-03 0. -1.
         11    1    4    4    0    0 -0.14812091286E-01 -0.27930398807E-01 -0.35826092344E-01  0.47783629408E-01  0.51100000000E-03 0.  1.
</event>
<event>
 8    1  0.1161271E+005  0.1043930E+01  0.7957747E-01            NaN
         13   -1    0    0    0    0  0.00000000000E+00  0.00000000000E+00  0.74505805969E-08  0.10566000000E+00  0.10566000000E+00 0. -1.
     999900   -1    0    0    0    0 -0.00000000000E+00 -0.00000000000E+00 -0.74505805969E-08  0.93827000000E+00  0.93827000000E+00 0. -1.
     999902    2    1    2    0    0 -0.20495788770E-01 -0.11829696599E-01  0.68777064992E-02  0.10192860976E+01  0.10189881387E+01 0.  0.
     999903    2    3    3    0    0  0.44411483989E-01  0.79637250939E-01 -0.86633753622E-01  0.12725271833E+00  0.19322924453E-01 0.  0.
         14    1    1    2    0    0  0.20495788770E-01  0.11829696599E-01 -0.68777064992E-02  0.24643902402E-01  0.00000000000E+00 0.  1.
     999901    1    3    3    0    0 -0.64907272759E-01 -0.91466947537E-01  0.93511460121E-01  0.89203337926E+00  0.88000000000E+00 0.  1.
        -11    1    4    4    0    0  0.21900194950E-01  0.50469424759E-01 -0.62191159309E-01  0.83034828786E-01  0.51100000000E-03 0. -1.
         11    1    4    4    0    0  0.22511289039E-01  0.29167826180E-01 -0.24442594313E-01  0.44217889547E-01  0.51100000000E-03 0.  1.
</event>
<event>
 8    1  0.1161271E+005  0.1043930E+01  0.7957747E-01            NaN
         13   -1    0    0    0    0  0.00000000000E+00  0.00000000000E+00  0.74505805969E-08  0.10566000000E+00  0.10566000000E+00 0.  1.
     999900   -1    0    0    0    0 -0.00000000000E+00 -0.00000000000E+00 -0.74505805969E-08  0.93827000000E+00  0.93827000000E+00 0.  1.
     999902    2    1    2    0    0  0.89118364554E-02 -0.33737755770E-02 -0.20440202918E-01  0.10213777255E+01  0.10211287152E+01 0.  0.
     999903    2    3    3    0    0 -0.39545347354E-01  0.57275490483E-01 -0.11183531047E+00  0.13324513526E+00  0.20070204118E-01 0.  0.
         14    1    1    2    0    0 -0.89118364554E-02  0.33737755770E-02  0.20440202918E-01  0.22552274519E-01  0.00000000000E+00 0.  1.
     999901    1    3    3    0    0  0.48457183810E-01 -0.60649266060E-01  0.91395107555E-01  0.88813259023E+00  0.88000000000E+00 0. -1.
        -11    1    4    4    0    0 -0.33107386207E-01  0.34086414066E-01 -0.64211098756E-01  0.79883095645E-01  0.51100000000E-03 0.  1.
         11    1    4    4    0    0 -0.64379611472E-02  0.23189076417E-01 -0.47624211716E-01  0.53362039610E-01  0.51100000000E-03 0. -1.
</event>
<event>
 8    1  0.1161271E+005  0.1043930E+01  0.7957747E-01            NaN
         13   -1    0    0    0    0  0.00000000000E+00  0.00000000000E+00  0.74505805969E-08  0.10566000000E+00  0.10566000000E+00 0. -1.
     999900   -1    0    0    0    0 -0.00000000000E+00 -0.00000000000E+00 -0.74505805969E-08  0.93827000000E+00  0.93827000000E+00 0. -1.
     999902    2    1    2    0    0  0.21279658253E-01 -0.75141130298E-03 -0.12577106961E-01  0.10192000163E+01  0.10188999466E+01 0.  0.
     999903    2    3    3    0    0  0.10600568390E+00  0.10406959963E-01 -0.76711546145E-01  0.13273725061E+00  0.19723249030E-01 0.  0.
         14    1    1    2    0    0 -0.21279658253E-01  0.75141130298E-03  0.12577106961E-01  0.24729983701E-01  0.00000000000E+00 0. -1.
     999901    1    3    3    0    0 -0.84726025644E-01 -0.11158371266E-01  0.64134439184E-01  0.88646276569E+00  0.88000000000E+00 0.  1.
        -11    1    4    4    0    0  0.89961241038E-01  0.12839435461E-01 -0.57300485345E-01  0.10743129308E+00  0.51100000000E-03 0.  1.
         11    1    4    4    0    0  0.16044442860E-01 -0.24324754972E-02 -0.19411060800E-01  0.25305957522E-01  0.51100000000E-03 0. -1.
</event>
<event>
 8    1  0.1161271E+005  0.1043930E+01  0.7957747E-01            NaN
         13   -1    0    0    0    0  0.00000000000E+00  0.00000000000E+00  0.74505805969E-08  0.10566000000E+00  0.10566000000E+00 0.  1.
     999900   -1    0    0    0    0 -0.00000000000E+00 -0.00000000000E+00 -0.74505805969E-08  0.93827000000E+00  0.93827000000E+00 0. -1.
     999902    2    1    2    0    0 -0.11129426615E-02  0.65522416088E-02 -0.22361154533E-01  0.10206020823E+01  0.10203354442E+01 0.  0.
     999903    2    3    3    0    0 -0.31946211677E-01  0.30521139669E-01  0.11904198109E+00  0.12845857070E+00  0.19455351895E-01 0.  0.
         14    1    1    2    0    0  0.11129426615E-02 -0.65522416088E-02  0.22361154533E-01  0.23327917685E-01  0.00000000000E+00 0. -1.
     999901    1    3    3    0    0  0.30833269015E-01 -0.23968898060E-01 -0.14140313562E+00  0.89214351161E+00  0.88000000000E+00 0. -1.
        -11    1    4    4    0    0 -0.12771788184E-01  0.25102626059E-01  0.75024435362E-01  0.80138551464E-01  0.51100000000E-03 0. -1.
         11    1    4    4    0    0 -0.19174423492E-01  0.54185136093E-02  0.44017545728E-01  0.48320019236E-01  0.51100000000E-03 0.  1.
</event>
<event>
 8    1  0.1161271E+005  0.1043930E+01  0.7957747E-01            NaN
         13   -1    0    0    0    0  0.00000000000E+00  0.00000000000E+00  0.74505805969E-08  0.10566000000E+00  0.10566000000E+00 0. -1.
     999900   -1    0    0    0    0 -0.00000000000E+00 -0.00000000000E+00 -0.74505805969E-08  0.93827000000E+00  0.93827000000E+00 0.  1.
     999902    2    1    2    0    0 -0.11125066824E-01  0.12313396770E-02  0.21464502334E-01  0.10197223944E+01  0.10194350168E+01 0.  0.
     999903    2    3    3    0    0 -0.94909370910E-01 -0.55398659087E-02 -0.85139463705E-01  0.12931234030E+00  0.20844046469E-01 0.  0.
         14    1    1    2    0    0  0.11125066824E-01 -0.12313396770E-02 -0.21464502334E-01  0.24207605617E-01  0.00000000000E+00 0.  1.
     999901    1    3    3    0    0  0.83784304086E-01  0.67712055857E-02  0.10660396604E+00  0.89041005408E+00  0.88000000000E+00 0.  1.
        -11    1    4    4    0    0 -0.10148101667E-01  0.18426407098E-02 -0.23367537294E-02  0.10587768000E-01  0.51100000000E-03 0. -1.
         11    1    4    4    0    0 -0.84761269243E-01 -0.73825066185E-02 -0.82802709975E-01  0.11872457230E+00  0.51100000000E-03 0.  1.
</event>
<event>
 8    1  0.1161271E+005  0.1043930E+01  0.7957747E-01            NaN
         13   -1    0    0    0    0  0.00000000000E+00  0.00000000000E+00  0.74505805969E-08  0.10566000000E+00  0.10566000000E+00 0.  1.
     999900   -1    0    0    0    0 -0.00000000000E+00 -0.00000000000E+00 -0.74505805969E-08  0.93827000000E+00  0.93827000000E+00 0.  1.
     999902    2    1    2    0    0 -0.70044478330E-02  0.32848920056E-02 -0.21880808419E-01  0.10207217562E+01  0.10204578781E+01 0.  0.
     999903    2    3    3    0    0  0.72876036081E-01  0.43468232661E-01  0.94376927782E-01  0.12858305966E+00  0.20644487099E-01 0.  0.
         14    1    1    2    0    0  0.70044478330E-02 -0.32848920056E-02  0.21880808419E-01  0.23208243837E-01  0.00000000000E+00 0.  1.
     999901    1    3    3    0    0 -0.79880483914E-01 -0.40183340655E-01 -0.11625773620E+00  0.89213869651E+00  0.88000000000E+00 0. -1.
        -11    1    4    4    0    0  0.39976700642E-01  0.18682099397E-01  0.35043630892E-01  0.56351349755E-01  0.51100000000E-03 0.  1.
         11    1    4    4    0    0  0.32899335439E-01  0.24786133264E-01  0.59333296891E-01  0.72231709902E-01  0.51100000000E-03 0. -1.
</event>
<event>
 8    1  0.1162432E+005  0.1043930E+01  0.7957747E-01            NaN
         13   -1    0    0    0    0  0.00000000000E+00  0.00000000000E+00  0.74505805969E-08  0.10566000000E+00  0.10566000000E+00 0.  1.
     999900   -1    0    0    0    0 -0.00000000000E+00 -0.00000000000E+00 -0.74505805969E-08  0.93827000000E+00  0.93827000000E+00 0.  1.
     999902    2    1    2    0    0 -0.14613159780E-01 -0.12839694802E-01  0.12890856899E-01  0.10205938394E+01  0.10203270106E+01 0.  0.
     999903    2    3    3    0    0  0.86875820548E-01  0.37842974505E-02  0.95589147540E-01  0.13075375401E+00  0.19938153274E-01 0.  0.
         14    1    1    2    0    0  0.14613159780E-01  0.12839694802E-01 -0.12890856899E-01  0.23336160630E-01  0.00000000000E+00 0. -1.
     999901    1    3    3    0    0 -0.10148898033E+00 -0.16623992253E-01 -0.82698290641E-01  0.88984008536E+00  0.88000000000E+00 0.  1.
        -11    1    4    4    0    0  0.47314687024E-01  0.11562872249E-01  0.56446632037E-01  0.74557783042E-01  0.51100000000E-03 0. -1.
         11    1    4    4    0    0  0.39561133524E-01 -0.77785747988E-02  0.39142515503E-01  0.56195970963E-01  0.51100000000E-03 0.  1.
</event>
<event>
 8    1  0.1161271E+005  0.1043930E+01  0.7957747E-01            NaN
         13   -1    0    0    0    0  0.00000000000E+00  0.00000000000E+00  0.74505805969E-08  0.10566000000E+00  0.10566000000E+00 0. -1.
     999900   -1    0    0    0    0 -0.00000000000E+00 -0.00000000000E+00 -0.74505805969E-08  0.93827000000E+00  0.93827000000E+00 0.  1.
     999902    2    1    2    0    0 -0.89112053982E-02 -0.23055369153E-01 -0.91600902335E-03  0.10191954351E+01  0.10188952528E+01 0.  0.
     999903    2    3    3    0    0  0.10745817006E+00 -0.29774680153E-01  0.62693523797E-01  0.12923299019E+00  0.18354779641E-01 0.  0.
         14    1    1    2    0    0  0.89112053982E-02  0.23055369153E-01  0.91600902335E-03  0.24734564904E-01  0.00000000000E+00 0. -1.
     999901    1    3    3    0    0 -0.11636937546E+00  0.67193109997E-02 -0.63609532820E-01  0.88996244491E+00  0.88000000000E+00 0.  1.
        -11    1    4    4    0    0  0.62606352809E-01 -0.79399602700E-02  0.35896522124E-01  0.72604543954E-01  0.51100000000E-03 0. -1.
         11    1    4    4    0    0  0.44851817250E-01 -0.21834719883E-01  0.26797001672E-01  0.56628446232E-01  0.51100000000E-03 0.  1.
</event>
<event>
 8    1  0.1161271E+005  0.1043930E+01  0.7957747E-01            NaN
         13   -1    0    0    0    0  0.00000000000E+00  0.00000000000E+00  0.74505805969E-08  0.10566000000E+00  0.10566000000E+00 0. -1.
     999900   -1    0    0    0    0 -0.00000000000E+00 -0.00000000000E+00 -0.74505805969E-08  0.93827000000E+00  0.93827000000E+00 0. -1.
     999902    2    1    2    0    0 -0.12091536719E-01  0.12406951182E-01  0.15053120652E-01  0.10209793107E+01  0.10207213228E+01 0.  0.
     999903    2    3    3    0    0 -0.95001066283E-01 -0.75275404165E-01  0.48534477653E-01  0.13211307397E+00  0.20166301749E-01 0.  0.
         14    1    1    2    0    0  0.12091536719E-01 -0.12406951182E-01 -0.15053120652E-01  0.22950689298E-01  0.00000000000E+00 0.  1.
     999901    1    3    3    0    0  0.82909529564E-01  0.87682355347E-01 -0.33481357001E-01  0.88886623673E+00  0.88000000000E+00 0. -1.
        -11    1    4    4    0    0 -0.14792606074E-01 -0.34843566150E-02  0.68602402694E-02  0.16681904958E-01  0.51100000000E-03 0.  1.
         11    1    4    4    0    0 -0.80208460209E-01 -0.71791047550E-01  0.41674237383E-01  0.11543116901E+00  0.51100000000E-03 0. -1.
</event>
<event>
 8    1  0.1161271E+005  0.1043930E+01  0.7957747E-01            NaN
         13   -1    0    0    0    0  0.00000000000E+00  0.00000000000E+00  0.74505805969E-08  0.10566000000E+00  0.10566000000E+00 0.  1.
     999900   -1    0    0    0    0 -0.00000000000E+00 -0.00000000000E+00 -0.74505805969E-08  0.93827000000E+00  0.93827000000E+00 0.  1.
     999902    2    1    2    0    0  0.17772978076E-01  0.78627209085E-03  0.11812810866E-01  0.10225749192E+01  0.10223519091E+01 0.  0.
     999903    2    3    3    0    0 -0.32368795899E-01  0.11647813651E+00 -0.47876978327E-01  0.13158576335E+00  0.20191900092E-01 0.  0.
         14    1    1    2    0    0 -0.17772978076E-01 -0.78627209085E-03 -0.11812810866E-01  0.21355080755E-01  0.00000000000E+00 0. -1.
     999901    1    3    3    0    0  0.50141773975E-01 -0.11569186442E+00  0.59689789193E-01  0.89098915590E+00  0.88000000000E+00 0. -1.
        -11    1    4    4    0    0 -0.37969790971E-02  0.35718312214E-01 -0.67234308099E-02  0.36546963219E-01  0.51100000000E-03 0. -1.
         11    1    4    4    0    0 -0.28571816802E-01  0.80759824298E-01 -0.41153547517E-01  0.95038800130E-01  0.51100000000E-03 0.  1.
</event>
<event>
 8    1  0.1161271E+005  0.1043930E+01  0.7957747E-01            NaN
         13   -1    0    0    0    0  0.00000000000E+00  0.00000000000E+00  0.74505805969E-08  0.10566000000E+00  0.10566000000E+00 0. -1.
     999900   -1    0    0    0    0 -0.00000000000E+00 -0.00000000000E+00 -0.74505805969E-08  0.93827000000E+00  0.93827000000E+00 0.  1.
     999902    2    1    2    0    0 -0.91208993546E-02 -0.16700031470E-01  0.13372155333E-01  0.10206728206E+01  0.10204078157E+01 0.  0.
     999903    2    3    3    0    0 -0.63311883986E-01 -0.10989427566E+00  0.36080598538E-01  0.13380332435E+00  0.22723853960E-01 0.  0.
         14    1    1    2    0    0  0.91208993546E-02  0.16700031470E-01 -0.13372155333E-01  0.23257179416E-01  0.00000000000E+00 0.  1.
     999901    1    3    3    0    0  0.54190984631E-01  0.93194244188E-01 -0.22708443205E-01  0.88686949624E+00  0.88000000000E+00 0. -1.
        -11    1    4    4    0    0 -0.30158526902E-01 -0.35778182376E-01  0.58368146988E-02  0.47158717178E-01  0.51100000000E-03 0.  1.
         11    1    4    4    0    0 -0.33153357083E-01 -0.74116093282E-01  0.30243783839E-01  0.86644607167E-01  0.51100000000E-03 0. -1.
</event>
<event>
 8    1  0.1161271E+005  0.1043930E+01  0.7957747E-01            NaN
         13   -1    0    0    0    0  0.00000000000E+00  0.00000000000E+00  0.74505805969E-08  0.10566000000E+00  0.10566000000E+00 0.  1.
     999900   -1    0    0    0    0 -0.00000000000E+00 -0.00000000000E+00 -0.74505805969E-08  0.93827000000E+00  0.93827000000E+00 0.  1.
     999902    2    1    2    0    0 -0.20206094497E-01  0.97518211291E-02 -0.72146814502E-02  0.10203623124E+01  0.10200901003E+01 0.  0.
     999903    2    3    3    0    0 -0.12712899766E-02  0.10093204737E+00 -0.83050920197E-01  0.13220495271E+00  0.19793933669E-01 0.  0.
         14    1    1    2    0    0  0.20206094497E-01 -0.97518211291E-02  0.72146814502E-02  0.23567687595E-01  0.00000000000E+00 0.  1.
     999901    1    3    3    0    0 -0.18934804520E-01 -0.91180226241E-01  0.75836238746E-01  0.88815735970E+00  0.88000000000E+00 0. -1.
        -11    1    4    4    0    0  0.17622382044E-02  0.84347894356E-01 -0.59506338384E-01  0.10324213382E+00  0.51100000000E-03 0.  1.
         11    1    4    4    0    0 -0.30335281810E-02  0.16584153014E-01 -0.23544581812E-01  0.28962818891E-01  0.51100000000E-03 0. -1.
</event>
<event>
 8    1  0.1161271E+005  0.1043930E+01  0.7957747E-01            NaN
         13   -1    0    0    0    0  0.00000000000E+00  0.00000000000E+00  0.74505805969E-08  0.10566000000E+00  0.10566000000E+00 0.  1.
     999900   -1    0    0    0    0 -0.00000000000E+00 -0.00000000000E+00 -0.74505805969E-08  0.93827000000E+00  0.93827000000E+00 0.  1.
     999902    2    1    2    0    0 -0.16119921094E-01 -0.13187237066E-02  0.16290451664E-01  0.10209741793E+01  0.10207160747E+01 0.  0.
     999903    2    3    3    0    0  0.11346493203E+00 -0.36158454179E-01 -0.44784433002E-01  0.12870954226E+00  0.19462174142E-01 0.  0.
         14    1    1    2    0    0  0.16119921094E-01  0.13187237066E-02 -0.16290451664E-01  0.22955820694E-01  0.00000000000E+00 0. -1.
     999901    1    3    3    0    0 -0.12958485312E+00  0.34839730473E-01  0.61074884666E-01  0.89226463704E+00  0.88000000000E+00 0. -1.
        -11    1    4    4    0    0  0.61701820474E-01 -0.95985447591E-02 -0.24821808305E-01  0.67198437480E-01  0.51100000000E-03 0.  1.
         11    1    4    4    0    0  0.51763111553E-01 -0.26559909420E-01 -0.19962624697E-01  0.61511104785E-01  0.51100000000E-03 0. -1.
</event>
<event>
 8    1  0.1161271E+005  0.1043930E+01  0.7957747E-01            NaN
         13   -1    0    0    0    0  0.00000000000E+00  0.00000000000E+00  0.74505805969E-08  0.10566000000E+00  0.10566000000E+00 0.  1.
     999900   -1    0    0    0    0 -0.00000000000E+00 -0.00000000000E+00 -0.74505805969E-08  0.93827000000E+00  0.93827000000E+00 0. -1.
     999902    2    1    2    0    0 -0.19429688619E-01 -0.72690594600E-02 -0.95110505298E-02  0.10211086918E+01  0.10208536371E+01 0.  0.
     999903    2    3    3    0    0  0.28334016581E-01  0.96187468880E-01 -0.81525926237E-01  0.13084425519E+00  0.20466968557E-01 0.  0.
         14    1    1    2    0    0  0.19429688619E-01  0.72690594600E-02  0.95110505298E-02  0.22821308189E-01  0.00000000000E+00 0.  1.
     999901    1    3    3    0    0 -0.47763705201E-01 -0.10345652834E+00  0.72014875707E-01  0.89026443662E+00  0.88000000000E+00 0. -1.
        -11    1    4    4    0    0 -0.34658307665E-03  0.21540730684E-01 -0.10882367435E-01  0.24141463092E-01  0.51100000000E-03 0. -1.
         11    1    4    4    0    0  0.28680599658E-01  0.74646738196E-01 -0.70643558802E-01  0.10670279210E+00  0.51100000000E-03 0.  1.
</event>
<event>
 8    1  0.1161271E+005  0.1043930E+01  0.7957747E-01            NaN
         13   -1    0    0    0    0  0.00000000000E+00  0.00000000000E+00  0.74505805969E-08  0.10566000000E+00  0.10566000000E+00 0.  1.
     999900   -1    0    0    0    0 -0.00000000000E+00 -0.00000000000E+00 -0.74505805969E-08  0.93827000000E+00  0.93827000000E+00 0.  1.
     999902    2    1    2    0    0  0.20653644029E-01  0.12270078298E-01 -0.33994144222E-02  0.10196671920E+01  0.10193784864E+01 0.  0.
     999903    2    3    3    0    0 -0.13949498474E-01  0.10951499004E-01  0.12667921075E+00  0.12943151263E+00  0.19757788014E-01 0.  0.
         14    1    1    2    0    0 -0.20653644029E-01 -0.12270078298E-01  0.33994144222E-02  0.24262807989E-01  0.00000000000E+00 0. -1.
     999901    1    3    3    0    0  0.34603142503E-01  0.13185792939E-02 -0.13007862517E+00  0.89023567938E+00  0.88000000000E+00 0.  1.
        -11    1    4    4    0    0 -0.70775735158E-03  0.12182337203E-01  0.78643799236E-01  0.79586547478E-01  0.51100000000E-03 0. -1.
         11    1    4    4    0    0 -0.13241741123E-01 -0.12308381990E-02  0.48035411512E-01  0.49844965149E-01  0.51100000000E-03 0.  1.
</event>
<event>
 8    1  0.1161271E+005  0.1043930E+01  0.7957747E-01            NaN
         13   -1    0    0    0    0  0.00000000000E+00  0.00000000000E+00  0.74505805969E-08  0.10566000000E+00  0.10566000000E+00 0. -1.
     999900   -1    0    0    0    0 -0.00000000000E+00 -0.00000000000E+00 -0.74505805969E-08  0.93827000000E+00  0.93827000000E+00 0.  1.
     999902    2    1    2    0    0 -0.73724055682E-02 -0.99891802394E-02  0.18997606675E-01  0.10212353939E+01  0.10209831951E+01 0.  0.
     999903    2    3    3    0    0 -0.12667237887E+00 -0.33786102540E-01  0.49162419159E-02  0.13275519607E+00  0.20307150364E-01 0.  0.
         14    1    1    2    0    0  0.73724055682E-02  0.99891802394E-02 -0.18997606675E-01  0.22694606080E-01  0.00000000000E+00 0.  1.
     999901    1    3    3    0    0  0.11929997330E+00  0.23796922300E-01  0.14081364760E-01  0.88848019785E+00  0.88000000000E+00 0.  1.
        -11    1    4    4    0    0 -0.15130748171E-01 -0.49612603457E-02 -0.60182517099E-02  0.17030388107E-01  0.51100000000E-03 0.  1.
         11    1    4    4    0    0 -0.11154163070E+00 -0.28824842194E-01  0.10934493626E-01  0.11572480796E+00  0.51100000000E-03 0. -1.
</event>
<event>
 8    1  0.1161271E+005  0.1043930E+01  0.7957747E-01            NaN
         13   -1    0    0    0    0  0.00000000000E+00  0.00000000000E+00  0.74505805969E-08  0.10566000000E+00  0.10566000000E+00 0. -1.
     999900   -1    0    0    0    0 -0.00000000000E+00 -0.00000000000E+00 -0.74505805969E-08  0.93827000000E+00  0.93827000000E+00 0. -1.
     999902    2    1    2    0    0 -0.24385669350E-01  0.56179164611E-02  0.21236089212E-02  0.10188156302E+01  0.10185060416E+01 0.  0.
     999903    2    3    3    0    0  0.10006022513E+00  0.59521128359E-01  0.47047857402E-01  0.12729416384E+00  0.20868394446E-01 0.  0.
         14    1    1    2    0    0  0.24385669350E-01 -0.56179164611E-02 -0.21236089212E-02  0.25114369789E-01  0.00000000000E+00 0. -1.
     999901    1    3    3    0    0 -0.12444589448E+00 -0.53903211898E-01 -0.44924248481E-01  0.89152146637E+00  0.88000000000E+00 0.  1.
        -11    1    4    4    0    0  0.36795067519E-01  0.33620066381E-01  0.17640726166E-01  0.52873832827E-01  0.51100000000E-03 0.  1.
         11    1    4    4    0    0  0.63265157610E-01  0.25901061979E-01  0.29407131236E-01  0.74420331009E-01  0.51100000000E-03 0. -1.
</event>
<event>
 8    1  0.1161271E+005  0.1043930E+01  0.7957747E-01            NaN
         13   -1    0    0    0    0  0.00000000000E+00  0.00000000000E+00  0.74505805969E-08  0.10566000000E+00  0.10566000000E+00 0.  1.
     999900   -1    0    0    0    0 -0.00000000000E+00 -0.00000000000E+00 -0.74505805969E-08  0.93827000000E+00  0.93827000000E+00 0. -1.
     999902    2    1    2    0    0  0.18097176600E-01 -0.71557505058E-02  0.14262595166E-01  0.10198025429E+01  0.10195170878E+01 0.  0.
     999903    2    3    3    0    0  0.41975987018E-01 -0.10719226559E+00 -0.58783137050E-01  0.13080694057E+00  0.20070705285E-01 0.  0.
         14    1    1    2    0    0 -0.18097176600E-01  0.71557505058E-02 -0.14262595166E-01  0.24127457120E-01  0.00000000000E+00 0. -1.
     999901    1    3    3    0    0 -0.23878810418E-01  0.10003651508E+00  0.73045732217E-01  0.88899560231E+00  0.88000000000E+00 0.  1.
        -11    1    4    4    0    0  0.16428238737E-02 -0.20007749974E-01 -0.15864530850E-01  0.25592057154E-01  0.51100000000E-03 0. -1.
         11    1    4    4    0    0  0.40333163145E-01 -0.87184515616E-01 -0.42918606201E-01  0.10521488341E+00  0.51100000000E-03 0.  1.
</event>
<event>
 8    1  0.1161271E+005  0.1043930E+01  0.7957747E-01            NaN
         13   -1    0    0    0    0  0.00000000000E+00  0.00000000000E+00  0.74505805969E-08  0.10566000000E+00  0.10566000000E+00 0. -1.
     999900   -1    0    0    0    0 -0.00000000000E+00 -0.00000000000E+00 -0.74505805969E-08  0.93827000000E+00  0.93827000000E+00 0.  1.
     999902    2    1    2    0    0  0.17505388357E-01 -0.16717125281E-01 -0.50835715705E-02  0.10191965490E+01  0.10188963941E+01 0.  0.
     999903    2    3    3    0    0 -0.18828041894E-01  0.71343414231E-01  0.10230388544E+00  0.12756498679E+00  0.19035833692E-01 0.  0.
         14    1    1    2    0    0 -0.17505388357E-01  0.16717125281E-01  0.50835715705E-02  0.24733451015E-01  0.00000000000E+00 0.  1.
     999901    1    3    3    0    0  0.36333430250E-01 -0.88060539512E-01 -0.10738745701E+00  0.89163156219E+00  0.88000000000E+00 0.  1.
        -11    1    4    4    0    0 -0.11792880267E-01  0.45422435070E-01  0.48853357221E-01  0.67743496112E-01  0.51100000000E-03 0.  1.
         11    1    4    4    0    0 -0.70351616272E-02  0.25920979161E-01  0.53450528217E-01  0.59821490682E-01  0.51100000000E-03 0. -1.
</event>
<event>
 8    1  0.1161271E+005  0.1043930E+01  0.7957747E-01            NaN
         13   -1    0    0    0    0  0.00000000000E+00  0.00000000000E+00  0.74505805969E-08  0.10566000000E+00  0.10566000000E+00 0. -1.
     999900   -1    0    0    0    0 -0.00000000000E+00 -0.00000000000E+00 -0.74505805969E-08  0.93827000000E+00  0.93827000000E+00 0. -1.
     999902    2    1    2    0    0  0.72631562799E-02  0.21664957131E-01  0.84597731711E-02  0.10195642132E+01  0.10192730219E+01 0.  0.
     999903    2    3    3    0    0  0.11960212565E+00  0.52353577519E-01  0.34051359144E-02  0.13187767793E+00  0.18291020913E-01 0.  0.
         14    1    1    2    0    0 -0.72631562799E-02 -0.21664957131E-01 -0.84597731711E-02  0.24365786849E-01  0.00000000000E+00 0.  1.
     999901    1    3    3    0    0 -0.11233896937E+00 -0.30688620387E-01  0.50546372567E-02  0.88768653522E+00  0.88000000000E+00 0. -1.
        -11    1    4    4    0    0  0.60160399652E-01  0.31068670178E-01  0.97929399577E-02  0.68415632329E-01  0.51100000000E-03 0. -1.
         11    1    4    4    0    0  0.59441725998E-01  0.21284907340E-01 -0.63878040434E-02  0.63462045598E-01  0.51100000000E-03 0.  1.
</event>
<event>
 8    1  0.1161271E+005  0.1043930E+01  0.7957747E-01            NaN
         13   -1    0    0    0    0  0.00000000000E+00  0.00000000000E+00  0.74505805969E-08  0.10566000000E+00  0.10566000000E+00 0. -1.
     999900   -1    0    0    0    0 -0.00000000000E+00 -0.00000000000E+00 -0.74505805969E-08  0.93827000000E+00  0.93827000000E+00 0. -1.
     999902    2    1    2    0    0  0.15159057141E-01  0.15591134790E-02  0.17811462952E-01  0.10204890943E+01  0.10202198368E+01 0.  0.
     999903    2    3    3    0    0  0.10504457727E+00  0.32544384374E-01 -0.68598772650E-01  0.13116000865E+00  0.20091194394E-01 0.  0.
         14    1    1    2    0    0 -0.15159057141E-01 -0.15591134790E-02 -0.17811462952E-01  0.23440905715E-01  0.00000000000E+00 0.  1.
     999901    1    3    3    0    0 -0.89885520126E-01 -0.30985270895E-01  0.86410235602E-01  0.88932908564E+00  0.88000000000E+00 0.  1.
        -11    1    4    4    0    0  0.17351722381E-01  0.94053919272E-02 -0.49367347724E-02  0.20351317847E-01  0.51100000000E-03 0. -1.
         11    1    4    4    0    0  0.87692854886E-01  0.23138992447E-01 -0.63662037877E-01  0.11080869080E+00  0.51100000000E-03 0.  1.
</event>
<event>
 8    1  0.1192917E+005  0.1043930E+01  0.7957747E-01            NaN
         13   -1    0    0    0    0  0.00000000000E+00  0.00000000000E+00  0.74505805969E-08  0.10566000000E+00  0.10566000000E+00 0.  1.
     999900   -1    0    0    0    0 -0.00000000000E+00 -0.00000000000E+00 -0.74505805969E-08  0.93827000000E+00  0.93827000000E+00 0.  1.
     999902    2    1    2    0    0  0.20751782297E-02  0.25145677989E-01  0.59806050732E-02  0.10179997257E+01  0.10176694269E+01 0.  0.
     999903    2    3    3    0    0 -0.25631196135E-01  0.39034796019E-01  0.11985129281E+00  0.13012187135E+00  0.19664574750E-01 0.  0.
         14    1    1    2    0    0 -0.20751782297E-02 -0.25145677989E-01 -0.59806050732E-02  0.25930274261E-01  0.00000000000E+00 0. -1.
     999901    1    3    3    0    0  0.27706374365E-01 -0.13889118030E-01 -0.11387068774E+00  0.88787785438E+00  0.88000000000E+00 0.  1.
        -11    1    4    4    0    0 -0.67846458401E-02  0.14638643614E-01  0.67159564273E-01  0.69072349753E-01  0.51100000000E-03 0.  1.
         11    1    4    4    0    0 -0.18846550295E-01  0.24396152404E-01  0.52691728541E-01  0.61049521602E-01  0.51100000000E-03 0. -1.
</event>
<event>
 8    1  0.1161271E+005  0.1043930E+01  0.7957747E-01            NaN
         13   -1    0    0    0    0  0.00000000000E+00  0.00000000000E+00  0.74505805969E-08  0.10566000000E+00  0.10566000000E+00 0.  1.
     999900   -1    0    0    0    0 -0.00000000000E+00 -0.00000000000E+00 -0.74505805969E-08  0.93827000000E+00  0.93827000000E+00 0. -1.
     999902    2    1    2    0    0  0.14719309763E-01  0.18632101304E-01  0.13485704833E-02  0.10201469825E+01  0.10198697142E+01 0.  0.
     999903    2    3    3    0    0 -0.55886636682E-01  0.87955607107E-01 -0.77081533786E-01  0.13113504255E+00  0.19882946251E-01 0.  0.
         14    1    1    2    0    0 -0.14719309763E-01 -0.18632101304E-01 -0.13485704833E-02  0.23783017497E-01  0.00000000000E+00 0. -1.
     999901    1    3    3    0    0  0.70605946445E-01 -0.69323505803E-01  0.78430104269E-01  0.88901193996E+00  0.88000000000E+00 0.  1.
        -11    1    4    4    0    0 -0.26778613160E-01  0.59406811679E-01 -0.50767745939E-01  0.82606831106E-01  0.51100000000E-03 0. -1.
         11    1    4    4    0    0 -0.29108023522E-01  0.28548795428E-01 -0.26313787847E-01  0.48528211441E-01  0.51100000000E-03 0.  1.
</event>
<event>
 8    1  0.1161271E+005  0.1043930E+01  0.7957747E-01            NaN
         13   -1    0    0    0    0  0.00000000000E+00  0.00000000000E+00  0.74505805969E-08  0.10566000000E+00  0.10566000000E+00 0. -1.
     999900   -1    0    0    0    0 -0.00000000000E+00 -0.00000000000E+00 -0.74505805969E-08  0.93827000000E+00  0.93827000000E+00 0. -1.
     999902    2    1    2    0    0  0.10748524999E-01 -0.17649603545E-01 -0.11858083597E-01  0.10201045212E+01  0.10198262502E+01 0.  0.
     999903    2    3    3    0    0  0.84926798291E-01  0.95710913984E-01  0.10029747839E-01  0.12946873684E+00  0.16982869413E-01 0.  0.
         14    1    1    2    0    0 -0.10748524999E-01  0.17649603545E-01  0.11858083597E-01  0.23825478831E-01  0.00000000000E+00 0. -1.
     999901    1    3    3    0    0 -0.74178273292E-01 -0.11336051753E+00 -0.21887831435E-01  0.89063578433E+00  0.88000000000E+00 0. -1.
        -11    1    4    4    0    0  0.56318874377E-01  0.64800988930E-01 -0.12479265492E-02  0.85865023258E-01  0.51100000000E-03 0. -1.
         11    1    4    4    0    0  0.28607923913E-01  0.30909925054E-01  0.11277674388E-01  0.43603713582E-01  0.51100000000E-03 0.  1.
</event>
<event>
 8    1  0.1161271E+005  0.1043930E+01  0.7957747E-01            NaN
         13   -1    0    0    0    0  0.00000000000E+00  0.00000000000E+00  0.74505805969E-08  0.10566000000E+00  0.10566000000E+00 0.  1.
     999900   -1    0    0    0    0 -0.00000000000E+00 -0.00000000000E+00 -0.74505805969E-08  0.93827000000E+00  0.93827000000E+00 0.  1.
     999902    2    1    2    0    0  0.16325758568E-01  0.68336898628E-02  0.16718759149E-01  0.10195836118E+01  0.10192928896E+01 0.  0.
     999903    2    3    3    0    0  0.23814125536E-01  0.12248977498E+00  0.39946756867E-01  0.13168049461E+00  0.13158713020E-01 0.  0.
         14    1    1    2    0    0 -0.16325758568E-01 -0.68336898628E-02 -0.16718759149E-01  0.24346388181E-01  0.00000000000E+00 0. -1.
     999901    1    3    3    0    0 -0.74883669677E-02 -0.11565608512E+00 -0.23227997719E-01  0.88790311720E+00  0.88000000000E+00 0.  1.
        -11    1    4    4    0    0  0.25119125116E-02  0.19159356871E-01  0.11155098890E-01  0.22317885483E-01  0.51100000000E-03 0.  1.
         11    1    4    4    0    0  0.21302213024E-01  0.10333041811E+00  0.28791657978E-01  0.10936260913E+00  0.51100000000E-03 0. -1.
</event>
<event>
 8    1  0.1161271E+005  0.1043930E+01  0.7957747E-01            NaN
         13   -1    0    0    0    0  0.00000000000E+00  0.00000000000E+00  0.74505805969E-08  0.10566000000E+00  0.10566000000E+00 0.  1.
     999900   -1    0    0    0    0 -0.00000000000E+00 -0.00000000000E+00 -0.74505805969E-08  0.93827000000E+00  0.93827000000E+00 0. -1.
     999902    2    1    2    0    0 -0.85917174347E-02 -0.21841481841E-01  0.10273949266E-02  0.10204369483E+01  0.10201664776E+01 0.  0.
     999903    2    3    3    0    0  0.36754734350E-01  0.10792781940E+00  0.53673766416E-01  0.12821051255E+00  0.23616469471E-01 0.  0.
         14    1    1    2    0    0  0.85917174347E-02  0.21841481841E-01 -0.10273949266E-02  0.23493051693E-01  0.00000000000E+00 0.  1.
     999901    1    3    3    0    0 -0.45346451785E-01 -0.12976930124E+00 -0.52646371489E-01  0.89222643576E+00  0.88000000000E+00 0. -1.
        -11    1    4    4    0    0  0.14208498434E-01  0.19763131652E-01  0.18776884764E-01  0.30745655349E-01  0.51100000000E-03 0. -1.
         11    1    4    4    0    0  0.22546235917E-01  0.88164687745E-01  0.34896881652E-01  0.97464857201E-01  0.51100000000E-03 0.  1.
</event>
<event>
 8    1  0.1161271E+005  0.1043930E+01  0.7957747E-01            NaN
         13   -1    0    0    0    0  0.00000000000E+00  0.00000000000E+00  0.74505805969E-08  0.10566000000E+00  0.10566000000E+00 0. -1.
     999900   -1    0    0    0    0 -0.00000000000E+00 -0.00000000000E+00 -0.74505805969E-08  0.93827000000E+00  0.93827000000E+00 0. -1.
     999902    2    1    2    0    0 -0.63708798041E-02 -0.11974189509E-01 -0.18464327526E-01  0.10210192882E+01  0.10207622084E+01 0.  0.
     999903    2    3    3    0    0 -0.74315993839E-01  0.82992890604E-01  0.62876310097E-01  0.12958696652E+00  0.20704219093E-01 0.  0.
         14    1    1    2    0    0  0.63708798041E-02  0.11974189509E-01  0.18464327526E-01  0.22910711793E-01  0.00000000000E+00 0. -1.
     999901    1    3    3    0    0  0.67945114035E-01 -0.94967080113E-01 -0.81340637623E-01  0.89143232169E+00  0.88000000000E+00 0. -1.
        -11    1    4    4    0    0 -0.46024874270E-01  0.65256549465E-01  0.42399986249E-01  0.90414192772E-01  0.51100000000E-03 0. -1.
         11    1    4    4    0    0 -0.28291119569E-01  0.17736341139E-01  0.20476323848E-01  0.39172773744E-01  0.51100000000E-03 0.  1.
</event>
<event>
 8    1  0.1161271E+005  0.1043930E+01  0.7957747E-01            NaN
         13   -1    0    0    0    0  0.00000000000E+00  0.00000000000E+00  0.74505805969E-08  0.10566000000E+00  0.10566000000E+00 0. -1.
     999900   -1    0    0    0    0 -0.00000000000E+00 -0.00000000000E+00 -0.74505805969E-08  0.93827000000E+00  0.93827000000E+00 0.  1.
     999902    2    1    2    0    0  0.18446062383E-01 -0.14362493758E-01 -0.52889162128E-02  0.10199610393E+01  0.10196793665E+01 0.  0.
     999903    2    3    3    0    0 -0.11379086732E+00  0.53738070188E-01  0.30124163072E-02  0.12744033669E+00  0.19895303252E-01 0.  0.
         14    1    1    2    0    0 -0.18446062383E-01  0.14362493758E-01  0.52889162128E-02  0.23968960742E-01  0.00000000000E+00 0. -1.
     999901    1    3    3    0    0  0.13223692970E+00 -0.68100563946E-01 -0.83013325199E-02  0.89252070257E+00  0.88000000000E+00 0. -1.
        -11    1    4    4    0    0 -0.26793549326E-01  0.84965816090E-02  0.80774528777E-02  0.29250513680E-01  0.51100000000E-03 0. -1.
         11    1    4    4    0    0 -0.86997317992E-01  0.45241488580E-01 -0.50650365706E-02  0.98189823012E-01  0.51100000000E-03 0.  1.
</event>
<event>
 8    1  0.1161271E+005  0.1043930E+01  0.7957747E-01            NaN
         13   -1    0    0    0    0  0.00000000000E+00  0.00000000000E+00  0.74505805969E-08  0.10566000000E+00  0.10566000000E+00 0. -1.
     999900   -1    0    0    0    0 -0.00000000000E+00 -0.00000000000E+00 -0.74505805969E-08  0.93827000000E+00  0.93827000000E+00 0.  1.
     999902    2    1    2    0    0  0.61748616899E-02  0.23795677414E-01 -0.65269510589E-02  0.10184945077E+01  0.10181768500E+01 0.  0.
     999903    2    3    3    0    0  0.12440593640E+00 -0.21289608345E-01  0.18309711253E-01  0.12909688578E+00  0.20016891784E-01 0.  0.
         14    1    1    2    0    0 -0.61748616899E-02 -0.23795677414E-01  0.65269510589E-02  0.25435492340E-01  0.00000000000E+00 0.  1.
     999901    1    3    3    0    0 -0.11823107471E+00  0.45085285759E-01 -0.24836662312E-01  0.88939762188E+00  0.88000000000E+00 0. -1.
        -11    1    4    4    0    0  0.83217921452E-01 -0.23023049748E-01  0.88496392554E-02  0.86797813949E-01  0.51100000000E-03 0. -1.
         11    1    4    4    0    0  0.41188014945E-01  0.17334414030E-02  0.94600719972E-02  0.42299071826E-01  0.51100000000E-03 0.  1.
</event>
<event>
 8    1  0.1161271E+005  0.1043930E+01  0.7957747E-01            NaN
         13   -1    0    0    0    0  0.00000000000E+00  0.00000000000E+00  0.74505805969E-08  0.10566000000E+00  0.10566000000E+00 0.  1.
     999900   -1    0    0    0    0 -0.00000000000E+00 -0.00000000000E+00 -0.74505805969E-08  0.93827000000E+00  0.93827000000E+00 0. -1.
     999902    2    1    2    0    0 -0.11705274974E-01 -0.43537517164E-02  0.19785265593E-01  0.10205328773E+01  0.10202646364E+01 0.  0.
     999903    2    3    3    0    0  0.87113129498E-02 -0.12302544963E+00 -0.37528693681E-01  0.13048529493E+00  0.20170798503E-01 0.  0.
         14    1    1    2    0    0  0.11705274974E-01  0.43537517164E-02 -0.19785265593E-01  0.23397122704E-01  0.00000000000E+00 0. -1.
     999901    1    3    3    0    0 -0.20416587924E-01  0.11867169792E+00  0.57313959274E-01  0.89004758237E+00  0.88000000000E+00 0.  1.
        -11    1    4    4    0    0 -0.19739924353E-02 -0.33070458884E-01 -0.20498047032E-02  0.33196607014E-01  0.51100000000E-03 0. -1.
         11    1    4    4    0    0  0.10685305385E-01 -0.89954990751E-01 -0.35478888978E-01  0.97288687915E-01  0.51100000000E-03 0.  1.
</event>
<event>
 8    1  0.1161271E+005  0.1043930E+01  0.7957747E-01            NaN
         13   -1    0    0    0    0  0.00000000000E+00  0.00000000000E+00  0.74505805969E-08  0.10566000000E+00  0.10566000000E+00 0. -1.
     999900   -1    0    0    0    0 -0.00000000000E+00 -0.00000000000E+00 -0.74505805969E-08  0.93827000000E+00  0.93827000000E+00 0. -1.
     999902    2    1    2    0    0 -0.89785024725E-02 -0.31552820629E-02  0.21595055904E-01  0.10203309375E+01  0.10200579916E+01 0.  0.
     999903    2    3    3    0    0 -0.12787879175E+00  0.20345480600E-01  0.15747959238E-01  0.13200455988E+00  0.20255410345E-01 0.  0.
         14    1    1    2    0    0  0.89785024725E-02  0.31552820629E-02 -0.21595055904E-01  0.23599062504E-01  0.00000000000E+00 0.  1.
     999901    1    3    3    0    0  0.11890028928E+00 -0.23500762662E-01  0.58470966665E-02  0.88832637762E+00  0.88000000000E+00 0.  1.
        -11    1    4    4    0    0 -0.87301995738E-01  0.13570813404E-01  0.11798678922E-02  0.88359824839E-01  0.51100000000E-03 0. -1.
         11    1    4    4    0    0 -0.40576796010E-01  0.67746671956E-02  0.14568091346E-01  0.43644735037E-01  0.51100000000E-03 0.  1.
</event>
<event>
 8    1  0.1161271E+005  0.1043930E+01  0.7957747E-01            NaN
         13   -1    0    0    0    0  0.00000000000E+00  0.00000000000E+00  0.74505805969E-08  0.10566000000E+00  0.10566000000E+00 0.  1.
     999900   -1    0    0    0    0 -0.00000000000E+00 -0.00000000000E+00 -0.74505805969E-08  0.93827000000E+00  0.93827000000E+00 0.  1.
     999902    2    1    2    0    0  0.17234275209E-01  0.13940961592E-01 -0.75607284930E-02  0.10205091702E+01  0.10202403791E+01 0.  0.
     999903    2    3    3    0    0  0.57594580424E-01  0.11761812403E+00 -0.16173066605E-01  0.13346233909E+00  0.19986722525E-01 0.  0.
         14    1    1    2    0    0 -0.17234275209E-01 -0.13940961592E-01  0.75607284930E-02  0.23420829777E-01  0.00000000000E+00 0.  1.
     999901    1    3    3    0    0 -0.40360305215E-01 -0.10367716244E+00  0.86123381116E-02  0.88704683113E+00  0.88000000000E+00 0.  1.
        -11    1    4    4    0    0  0.40100827369E-01  0.76303325070E-01 -0.13589096073E-02  0.86211261032E-01  0.51100000000E-03 0. -1.
         11    1    4    4    0    0  0.17493753055E-01  0.41314798965E-01 -0.14814156997E-01  0.47251078062E-01  0.51100000000E-03 0.  1.
</event>
<event>
 8    1  0.1161271E+005  0.1043930E+01  0.7957747E-01            NaN
         13   -1    0    0    0    0  0.00000000000E+00  0.00000000000E+00  0.74505805969E-08  0.10566000000E+00  0.10566000000E+00 0. -1.
     999900   -1    0    0    0    0 -0.00000000000E+00 -0.00000000000E+00 -0.74505805969E-08  0.93827000000E+00  0.93827000000E+00 0. -1.
     999902    2    1    2    0    0 -0.16602001284E-01 -0.16593995190E-01  0.11903508975E-02  0.10204267224E+01  0.10201560134E+01 0.  0.
     999903    2    3    3    0    0 -0.10035778136E+00 -0.27589835522E-01  0.80123601134E-01  0.13286466981E+00  0.20008641172E-01 0.  0.
         14    1    1    2    0    0  0.16602001284E-01  0.16593995190E-01 -0.11903508975E-02  0.23503277606E-01  0.00000000000E+00 0.  1.
     999901    1    3    3    0    0  0.83755780072E-01  0.10995840332E-01 -0.78933250236E-01  0.88756205259E+00  0.88000000000E+00 0.  1.
        -11    1    4    4    0    0 -0.70103474940E-01 -0.97192936162E-02  0.55785123414E-01  0.90117717361E-01  0.51100000000E-03 0. -1.
         11    1    4    4    0    0 -0.30254306415E-01 -0.17870541906E-01  0.24338477720E-01  0.42746952445E-01  0.51100000000E-03 0.  1.
</event>
<event>
 8    1  0.1161271E+005  0.1043930E+01  0.7957747E-01            NaN
         13   -1    0    0    0    0  0.00000000000E+00  0.00000000000E+00  0.74505805969E-08  0.10566000000E+00  0.10566000000E+00 0.  1.
     999900   -1    0    0    0    0 -0.00000000000E+00 -0.00000000000E+00 -0.74505805969E-08  0.93827000000E+00  0.93827000000E+00 0. -1.
     999902    2    1    2    0    0 -0.16333128085E-01  0.36627165236E-03 -0.18193418037E-01  0.10194778899E+01  0.10191846066E+01 0.  0.
     999903    2    3    3    0    0  0.36848809575E-02 -0.12484773191E+00  0.26270624374E-01  0.12927773352E+00  0.20543908259E-01 0.  0.
         14    1    1    2    0    0  0.16333128085E-01 -0.36627165236E-03  0.18193418037E-01  0.24452110089E-01  0.00000000000E+00 0.  1.
     999901    1    3    3    0    0 -0.20018009042E-01  0.12521400357E+00 -0.44464042411E-01  0.89020015639E+00  0.88000000000E+00 0. -1.
        -11    1    4    4    0    0  0.58440994411E-02 -0.11251011411E+00  0.17584801227E-01  0.11402703903E+00  0.51100000000E-03 0.  1.
         11    1    4    4    0    0 -0.21592184836E-02 -0.12337617807E-01  0.86858231471E-02  0.15250694488E-01  0.51100000000E-03 0. -1.
</event>
<event>
 8    1  0.1161271E+005  0.1043930E+01  0.7957747E-01            NaN
         13   -1    0    0    0    0  0.00000000000E+00  0.00000000000E+00  0.74505805969E-08  0.10566000000E+00  0.10566000000E+00 0. -1.
     999900   -1    0    0    0    0 -0.00000000000E+00 -0.00000000000E+00 -0.74505805969E-08  0.93827000000E+00  0.93827000000E+00 0.  1.
     999902    2    1    2    0    0  0.21160228064E-01 -0.91505790622E-02  0.17530859723E-02  0.10208094105E+01  0.10205475446E+01 0.  0.
     999903    2    3    3    0    0 -0.40096704014E-01 -0.10308897262E+00  0.67594281585E-01  0.13125227542E+00  0.20569174788E-01 0.  0.
         14    1    1    2    0    0 -0.21160228064E-01  0.91505790622E-02 -0.17530859723E-02  0.23120589510E-01  0.00000000000E+00 0.  1.
     999901    1    3    3    0    0  0.61256932077E-01  0.93938393558E-01 -0.65841195613E-01  0.88955713507E+00  0.88000000000E+00 0.  1.
        -11    1    4    4    0    0 -0.33279752739E-01 -0.69450298560E-01  0.37759462886E-01  0.85772513493E-01  0.51100000000E-03 0.  1.
         11    1    4    4    0    0 -0.68169512744E-02 -0.33638674060E-01  0.29834818699E-01  0.45479761928E-01  0.51100000000E-03 0. -1.
</event>
<event>
 8    1  0.1161271E+005  0.1043930E+01  0.7957747E-01            NaN
         13   -1    0    0    0    0  0.00000000000E+00  0.00000000000E+00  0.74505805969E-08  0.10566000000E+00  0.10566000000E+00 0.  1.
     999900   -1    0    0    0    0 -0.00000000000E+00 -0.00000000000E+00 -0.74505805969E-08  0.93827000000E+00  0.93827000000E+00 0. -1.
     999902    2    1    2    0    0 -0.19276504677E-01  0.15342770952E-01  0.42355377234E-02  0.10189315194E+01  0.10186248167E+01 0.  0.
     999903    2    3    3    0    0  0.93799512066E-02 -0.81772320301E-01 -0.94614647961E-01  0.12762691791E+00  0.23706596417E-01 0.  0.
         14    1    1    2    0    0  0.19276504677E-01 -0.15342770952E-01 -0.42355377234E-02  0.24998480611E-01  0.00000000000E+00 0. -1.
     999901    1    3    3    0    0 -0.28656455884E-01  0.97115091253E-01  0.98850185684E-01  0.89130460148E+00  0.88000000000E+00 0.  1.
        -11    1    4    4    0    0  0.13085844358E-01 -0.23800620579E-01 -0.24585180593E-01  0.36638792124E-01  0.51100000000E-03 0.  1.
         11    1    4    4    0    0 -0.37058931518E-02 -0.57971699722E-01 -0.70029467368E-01  0.90988125783E-01  0.51100000000E-03 0. -1.
</event>
<event>
 8    1  0.1161271E+005  0.1043930E+01  0.7957747E-01            NaN
         13   -1    0    0    0    0  0.00000000000E+00  0.00000000000E+00  0.74505805969E-08  0.10566000000E+00  0.10566000000E+00 0. -1.
     999900   -1    0    0    0    0 -0.00000000000E+00 -0.00000000000E+00 -0.74505805969E-08  0.93827000000E+00  0.93827000000E+00 0.  1.
     999902    2    1    2    0    0 -0.25863147851E-01 -0.44078398114E-03 -0.57307432842E-02  0.10174358851E+01  0.10170908721E+01 0.  0.
     999903    2    3    3    0    0 -0.64194223915E-02 -0.10751466162E+00 -0.67281321009E-01  0.12859880925E+00  0.20255027469E-01 0.  0.
         14    1    1    2    0    0  0.25863147851E-01  0.44078398114E-03  0.57307432842E-02  0.26494114929E-01  0.00000000000E+00 0. -1.
     999901    1    3    3    0    0 -0.19443725459E-01  0.10707387764E+00  0.61550577724E-01  0.88883707582E+00  0.88000000000E+00 0.  1.
        -11    1    4    4    0    0 -0.13268984559E-01 -0.77861356347E-01 -0.45307945397E-01  0.91057826685E-01  0.51100000000E-03 0.  1.
         11    1    4    4    0    0  0.68495621672E-02 -0.29653305271E-01 -0.21973375612E-01  0.37540982567E-01  0.51100000000E-03 0. -1.
</event>
<event>
 8    1  0.1161271E+005  0.1043930E+01  0.7957747E-01            NaN
         13   -1    0    0    0    0  0.00000000000E+00  0.00000000000E+00  0.74505805969E-08  0.10566000000E+00  0.10566000000E+00 0. -1.
     999900   -1    0    0    0    0 -0.00000000000E+00 -0.00000000000E+00 -0.74505805969E-08  0.93827000000E+00  0.93827000000E+00 0. -1.
     999902    2    1    2    0    0 -0.18163113802E-01  0.13938695038E-01  0.18732424988E-02  0.10209583880E+01  0.10206999241E+01 0.  0.
     999903    2    3    3    0    0 -0.71896872257E-01  0.10745492299E-01  0.10950443555E+00  0.13276810032E+00  0.18748898941E-01 0.  0.
         14    1    1    2    0    0  0.18163113802E-01 -0.13938695038E-01 -0.18732424988E-02  0.22971612042E-01  0.00000000000E+00 0.  1.
     999901    1    3    3    0    0  0.53733758455E-01  0.31932027392E-02 -0.10763119305E+00  0.88819028764E+00  0.88000000000E+00 0. -1.
        -11    1    4    4    0    0 -0.54369441663E-01  0.26500950110E-02  0.68943567082E-01  0.87843814542E-01  0.51100000000E-03 0. -1.
         11    1    4    4    0    0 -0.17527430594E-01  0.80953972876E-02  0.40560868469E-01  0.44924285776E-01  0.51100000000E-03 0.  1.
</event>
<event>
 8    1  0.1161271E+005  0.1043930E+01  0.7957747E-01            NaN
         13   -1    0    0    0    0  0.00000000000E+00  0.00000000000E+00  0.74505805969E-08  0.10566000000E+00  0.10566000000E+00 0. -1.
     999900   -1    0    0    0    0 -0.00000000000E+00 -0.00000000000E+00 -0.74505805969E-08  0.93827000000E+00  0.93827000000E+00 0.  1.
     999902    2    1    2    0    0  0.17706184526E-01  0.14070785002E-01  0.43789073003E-02  0.10208937071E+01  0.10206337690E+01 0.  0.
     999903    2    3    3    0    0  0.73937660457E-01 -0.29255650511E-01 -0.10276816340E+00  0.13155707025E+00  0.20574173191E-01 0.  0.
         14    1    1    2    0    0 -0.17706184526E-01 -0.14070785002E-01 -0.43789073003E-02  0.23036292892E-01  0.00000000000E+00 0. -1.
     999901    1    3    3    0    0 -0.56231475931E-01  0.43326435513E-01  0.10714707070E+00  0.88933663686E+00  0.88000000000E+00 0.  1.
        -11    1    4    4    0    0  0.37797753799E-01 -0.61778728719E-02 -0.38600565376E-01  0.54379233848E-01  0.51100000000E-03 0. -1.
         11    1    4    4    0    0  0.36139906657E-01 -0.23077777639E-01 -0.64167598028E-01  0.77177836401E-01  0.51100000000E-03 0.  1.
</event>
<event>
 8    1  0.1161271E+005  0.1043930E+01  0.7957747E-01            NaN
         13   -1    0    0    0    0  0.00000000000E+00  0.00000000000E+00  0.74505805969E-08  0.10566000000E+00  0.10566000000E+00 0.  1.
     999900   -1    0    0    0    0 -0.00000000000E+00 -0.00000000000E+00 -0.74505805969E-08  0.93827000000E+00  0.93827000000E+00 0. -1.
     999902    2    1    2    0    0 -0.18399471726E-01 -0.51595016634E-03  0.14008371119E-01  0.10207990418E+01  0.10205369384E+01 0.  0.
     999903    2    3    3    0    0 -0.63541738776E-02 -0.12703485167E+00  0.27500329102E-01  0.13156670179E+00  0.19372657425E-01 0.  0.
         14    1    1    2    0    0  0.18399471726E-01  0.51595016634E-03 -0.14008371119E-01  0.23130958168E-01  0.00000000000E+00 0. -1.
     999901    1    3    3    0    0 -0.12045297849E-01  0.12651890150E+00 -0.13491957983E-01  0.88923234004E+00  0.88000000000E+00 0.  1.
        -11    1    4    4    0    0 -0.62537005553E-02 -0.90449270179E-01  0.10670446811E-01  0.91292380858E-01  0.51100000000E-03 0.  1.
         11    1    4    4    0    0 -0.10047332230E-03 -0.36585581492E-01  0.16829882291E-01  0.40274320937E-01  0.51100000000E-03 0. -1.
</event>
<event>
 8    1  0.1161271E+005  0.1043930E+01  0.7957747E-01            NaN
         13   -1    0    0    0    0  0.00000000000E+00  0.00000000000E+00  0.74505805969E-08  0.10566000000E+00  0.10566000000E+00 0. -1.
     999900   -1    0    0    0    0 -0.00000000000E+00 -0.00000000000E+00 -0.74505805969E-08  0.93827000000E+00  0.93827000000E+00 0. -1.
     999902    2    1    2    0    0  0.51546230205E-02 -0.96330799953E-02  0.21257326055E-01  0.10200293665E+01  0.10197493164E+01 0.  0.
     999903    2    3    3    0    0  0.79428119467E-01  0.37552823267E-01  0.97026747343E-01  0.13240102825E+00  0.19919886639E-01 0.  0.
         14    1    1    2    0    0 -0.51546230205E-02  0.96330799953E-02 -0.21257326055E-01  0.23900633458E-01  0.00000000000E+00 0.  1.
     999901    1    3    3    0    0 -0.74273496446E-01 -0.47185903262E-01 -0.75769421288E-01  0.88762833829E+00  0.88000000000E+00 0. -1.
        -11    1    4    4    0    0  0.43428566065E-01  0.27721958458E-01  0.45239442739E-01  0.68566869781E-01  0.51100000000E-03 0. -1.
         11    1    4    4    0    0  0.35999553402E-01  0.98308648090E-02  0.51787304604E-01  0.63834158467E-01  0.51100000000E-03 0.  1.
</event>
<event>
 8    1  0.1161271E+005  0.1043930E+01  0.7957747E-01            NaN
         13   -1    0    0    0    0  0.00000000000E+00  0.00000000000E+00  0.74505805969E-08  0.10566000000E+00  0.10566000000E+00 0. -1.
     999900   -1    0    0    0    0 -0.00000000000E+00 -0.00000000000E+00 -0.74505805969E-08  0.93827000000E+00  0.93827000000E+00 0. -1.
     999902    2    1    2    0    0 -0.76614011336E-02  0.20145575815E-01 -0.96243017582E-02  0.10203255835E+01  0.10200525123E+01 0.  0.
     999903    2    3    3    0    0  0.78019037801E-02  0.13147533822E+00 -0.43457150760E-03  0.13312894190E+00  0.19403403189E-01 0.  0.
         14    1    1    2    0    0  0.76614011336E-02 -0.20145575815E-01  0.96243017582E-02  0.23604416463E-01  0.00000000000E+00 0. -1.
     999901    1    3    3    0    0 -0.15463304914E-01 -0.11132976241E+00 -0.91897302507E-02  0.88719664164E+00  0.88000000000E+00 0.  1.
        -11    1    4    4    0    0  0.35789757156E-02  0.43417717192E-01 -0.92170663026E-02  0.44532265444E-01  0.51100000000E-03 0. -1.
         11    1    4    4    0    0  0.42229280644E-02  0.88057621028E-01  0.87824947950E-02  0.88596676452E-01  0.51100000000E-03 0.  1.
</event>
<event>
 8    1  0.1161271E+005  0.1043930E+01  0.7957747E-01            NaN
         13   -1    0    0    0    0  0.00000000000E+00  0.00000000000E+00  0.74505805969E-08  0.10566000000E+00  0.10566000000E+00 0.  1.
     999900   -1    0    0    0    0 -0.00000000000E+00 -0.00000000000E+00 -0.74505805969E-08  0.93827000000E+00  0.93827000000E+00 0.  1.
     999902    2    1    2    0    0  0.22774320450E-01  0.24661744170E-02 -0.66782448764E-03  0.10210128082E+01  0.10207555814E+01 0.  0.
     999903    2    3    3    0    0 -0.18845973492E-01  0.34735893868E-01  0.12309574838E+00  0.13079316927E+00  0.19812541967E-01 0.  0.
         14    1    1    2    0    0 -0.22774320450E-01 -0.24661744170E-02  0.66782448764E-03  0.22917191751E-01  0.00000000000E+00 0.  1.
     999901    1    3    3    0    0  0.41620293942E-01 -0.32269719451E-01 -0.12376357286E+00  0.89021963898E+00  0.88000000000E+00 0.  1.
        -11    1    4    4    0    0 -0.13453190535E-01  0.67059709934E-02  0.32627139399E-01  0.35927005565E-01  0.51100000000E-03 0.  1.
         11    1    4    4    0    0 -0.53927829566E-02  0.28029922874E-01  0.90468608976E-01  0.94866163702E-01  0.51100000000E-03 0. -1.
</event>
<event>
 8    1  0.1161271E+005  0.1043930E+01  0.7957747E-01            NaN
         13   -1    0    0    0    0  0.00000000000E+00  0.00000000000E+00  0.74505805969E-08  0.10566000000E+00  0.10566000000E+00 0.  1.
     999900   -1    0    0    0    0 -0.00000000000E+00 -0.00000000000E+00 -0.74505805969E-08  0.93827000000E+00  0.93827000000E+00 0.  1.
     999902    2    1    2    0    0 -0.58117827978E-02  0.36220066083E-01  0.87326526889E-02  0.10062215231E+01  0.10055147062E+01 0.  0.
     999903    2    3    3    0    0  0.97823499661E-01 -0.27582956097E-01  0.51045506772E-01  0.11683888609E+00  0.26747429572E-01 0.  0.
         14    1    1    2    0    0  0.58117827978E-02 -0.36220066083E-01 -0.87326526889E-02  0.37708476889E-01  0.00000000000E+00 0.  1.
     999901    1    3    3    0    0 -0.10363528246E+00  0.63803022180E-01 -0.42312854083E-01  0.88938263702E+00  0.88000000000E+00 0. -1.
        -11    1    4    4    0    0  0.75975382332E-01 -0.32559879509E-01  0.39108761915E-01  0.91444851433E-01  0.51100000000E-03 0.  1.
         11    1    4    4    0    0  0.21848117329E-01  0.49769234122E-02  0.11936744857E-01  0.25394034659E-01  0.51100000000E-03 0. -1.
</event>
<event>
 8    1  0.1161271E+005  0.1043930E+01  0.7957747E-01            NaN
         13   -1    0    0    0    0  0.00000000000E+00  0.00000000000E+00  0.74505805969E-08  0.10566000000E+00  0.10566000000E+00 0. -1.
     999900   -1    0    0    0    0 -0.00000000000E+00 -0.00000000000E+00 -0.74505805969E-08  0.93827000000E+00  0.93827000000E+00 0. -1.
     999902    2    1    2    0    0  0.74830408187E-02  0.76449051537E-02 -0.23301174073E-01  0.10182904761E+01  0.10179676362E+01 0.  0.
     999903    2    3    3    0    0 -0.57687272977E-01 -0.90537992456E-01  0.63820607055E-01  0.12617094599E+00  0.17918933729E-01 0.  0.
         14    1    1    2    0    0 -0.74830408187E-02 -0.76449051537E-02  0.23301174073E-01  0.25639523940E-01  0.00000000000E+00 0. -1.
     999901    1    3    3    0    0  0.65170313796E-01  0.98182897610E-01 -0.87121781127E-01  0.89211953007E+00  0.88000000000E+00 0. -1.
        -11    1    4    4    0    0 -0.37404809394E-01 -0.51542996622E-01  0.46799277735E-01  0.79033118273E-01  0.51100000000E-03 0.  1.
         11    1    4    4    0    0 -0.20282463583E-01 -0.38994995835E-01  0.17021329320E-01  0.47137827718E-01  0.51100000000E-03 0. -1.
</event>
<event>
 8    1  0.1161271E+005  0.1043930E+01  0.7957747E-01            NaN
         13   -1    0    0    0    0  0.00000000000E+00  0.00000000000E+00  0.74505805969E-08  0.10566000000E+00  0.10566000000E+00 0.  1.
     999900   -1    0    0    0    0 -0.00000000000E+00 -0.00000000000E+00 -0.74505805969E-08  0.93827000000E+00  0.93827000000E+00 0. -1.
     999902    2    1    2    0    0 -0.43722894556E-02  0.22653456231E-01 -0.51378321990E-02  0.10202933058E+01  0.10200194785E+01 0.  0.
     999903    2    3    3    0    0  0.39431840086E-01 -0.11772484249E-01  0.12147439067E+00  0.12948771412E+00  0.17820749727E-01 0.  0.
         14    1    1    2    0    0  0.43722894556E-02 -0.22653456231E-01  0.51378321990E-02  0.23636694227E-01  0.00000000000E+00 0. -1.
     999901    1    3    3    0    0 -0.43804129542E-01  0.34425940480E-01 -0.12661222287E+00  0.89080559165E+00  0.88000000000E+00 0. -1.
        -11    1    4    4    0    0  0.33387763207E-02 -0.61290706434E-02  0.10207577976E-01  0.12376134429E-01  0.51100000000E-03 0. -1.
         11    1    4    4    0    0  0.36093063765E-01 -0.56434136056E-02  0.11126681269E+00  0.11711157969E+00  0.51100000000E-03 0.  1.
</event>
<event>
 8    1  0.1161271E+005  0.1043930E+01  0.7957747E-01            NaN
         13   -1    0    0    0    0  0.00000000000E+00  0.00000000000E+00  0.74505805969E-08  0.10566000000E+00  0.10566000000E+00 0. -1.
     999900   -1    0    0    0    0 -0.00000000000E+00 -0.00000000000E+00 -0.74505805969E-08  0.93827000000E+00  0.93827000000E+00 0. -1.
     999902    2    1    2    0    0 -0.20736574353E-01  0.50230333706E-02  0.89809941559E-02  0.10207806018E+01  0.10205180755E+01 0.  0.
     999903    2    3    3    0    0 -0.50490191892E-02  0.12871470338E+00 -0.17265741343E-01  0.13160423026E+00  0.20702660174E-01 0.  0.
         14    1    1    2    0    0  0.20736574353E-01 -0.50230333706E-02 -0.89809941559E-02  0.23149398181E-01  0.00000000000E+00 0. -1.
     999901    1    3    3    0    0 -0.15687555163E-01 -0.12369167000E+00  0.26246735499E-01  0.88917637156E+00  0.88000000000E+00 0. -1.
        -11    1    4    4    0    0  0.74434244615E-02  0.29954351553E-01 -0.56163627240E-02  0.31376303095E-01  0.51100000000E-03 0. -1.
         11    1    4    4    0    0 -0.12492443651E-01  0.98760351822E-01 -0.11649378619E-01  0.10022792716E+00  0.51100000000E-03 0.  1.
</event>
<event>
 8    1  0.1161271E+005  0.1043930E+01  0.7957747E-01            NaN
         13   -1    0    0    0    0  0.00000000000E+00  0.00000000000E+00  0.74505805969E-08  0.10566000000E+00  0.10566000000E+00 0.  1.
     999900   -1    0    0    0    0 -0.00000000000E+00 -0.00000000000E+00 -0.74505805969E-08  0.93827000000E+00  0.93827000000E+00 0.  1.
     999902    2    1    2    0    0  0.22276500733E-01  0.24980184320E-02  0.13295617606E-02  0.10214744814E+01  0.10212276269E+01 0.  0.
     999903    2    3    3    0    0 -0.62563047478E-01 -0.86381945442E-01 -0.72519173989E-01  0.12987421632E+00  0.15241589856E-01 0.  0.
         14    1    1    2    0    0 -0.22276500733E-01 -0.24980184320E-02 -0.13295617606E-02  0.22455518597E-01  0.00000000000E+00 0. -1.
     999901    1    3    3    0    0  0.84839548211E-01  0.88879963874E-01  0.73848735750E-01  0.89160026508E+00  0.88000000000E+00 0. -1.
        -11    1    4    4    0    0 -0.18147670614E-01 -0.31475287634E-01 -0.17400155421E-01  0.40287196602E-01  0.51100000000E-03 0. -1.
         11    1    4    4    0    0 -0.44415376864E-01 -0.54906657809E-01 -0.55119018568E-01  0.89587019721E-01  0.51100000000E-03 0.  1.
</event>
<event>
 8    1  0.1161271E+005  0.1043930E+01  0.7957747E-01            NaN
         13   -1    0    0    0    0  0.00000000000E+00  0.00000000000E+00  0.74505805969E-08  0.10566000000E+00  0.10566000000E+00 0.  1.
     999900   -1    0    0    0    0 -0.00000000000E+00 -0.00000000000E+00 -0.74505805969E-08  0.93827000000E+00  0.93827000000E+00 0. -1.
     999902    2    1    2    0    0  0.20978870236E-01  0.11119773856E-01 -0.55465751064E-02  0.10195470785E+01  0.10192554726E+01 0.  0.
     999903    2    3    3    0    0  0.90218970822E-01  0.26990784679E-01 -0.91130171163E-01  0.13254615827E+00  0.19894994921E-01 0.  0.
         14    1    1    2    0    0 -0.20978870236E-01 -0.11119773856E-01  0.55465751064E-02  0.24382921531E-01  0.00000000000E+00 0.  1.
     999901    1    3    3    0    0 -0.69240100587E-01 -0.15871010823E-01  0.85583596057E-01  0.88700092020E+00  0.88000000000E+00 0.  1.
        -11    1    4    4    0    0  0.31055435067E-01  0.12613857924E-02 -0.37027210211E-01  0.48345698447E-01  0.51100000000E-03 0. -1.
         11    1    4    4    0    0  0.59163535755E-01  0.25729398887E-01 -0.54102960952E-01  0.84200459826E-01  0.51100000000E-03 0.  1.
</event>
<event>
 8    1  0.1161271E+005  0.1043930E+01  0.7957747E-01            NaN
         13   -1    0    0    0    0  0.00000000000E+00  0.00000000000E+00  0.74505805969E-08  0.10566000000E+00  0.10566000000E+00 0. -1.
     999900   -1    0    0    0    0 -0.00000000000E+00 -0.00000000000E+00 -0.74505805969E-08  0.93827000000E+00  0.93827000000E+00 0.  1.
     999902    2    1    2    0    0 -0.20631492359E-01  0.35289339318E-02 -0.82258487601E-02  0.10214405260E+01  0.10211929160E+01 0.  0.
     999903    2    3    3    0    0 -0.45724875588E-01  0.55200320187E-01  0.10888752195E+00  0.13182535550E+00  0.19585512976E-01 0.  0.
         14    1    1    2    0    0  0.20631492359E-01 -0.35289339318E-02  0.82258487601E-02  0.22489473971E-01  0.00000000000E+00 0. -1.
     999901    1    3    3    0    0  0.25093383229E-01 -0.51671386255E-01 -0.11711337071E+00  0.88961517053E+00  0.88000000000E+00 0.  1.
        -11    1    4    4    0    0 -0.36655198047E-01  0.29578554194E-01  0.70440470509E-01  0.84738512015E-01  0.51100000000E-03 0. -1.
         11    1    4    4    0    0 -0.90696775409E-02  0.25621765993E-01  0.38447051445E-01  0.47086843482E-01  0.51100000000E-03 0.  1.
</event>
<event>
 8    1  0.1161271E+005  0.1043930E+01  0.7957747E-01            NaN
         13   -1    0    0    0    0  0.00000000000E+00  0.00000000000E+00  0.74505805969E-08  0.10566000000E+00  0.10566000000E+00 0.  1.
     999900   -1    0    0    0    0 -0.00000000000E+00 -0.00000000000E+00 -0.74505805969E-08  0.93827000000E+00  0.93827000000E+00 0. -1.
     999902    2    1    2    0    0  0.23303213268E-01 -0.69570069902E-03  0.12052679005E-02  0.10205852700E+01  0.10203182430E+01 0.  0.
     999903    2    3    3    0    0 -0.73875753018E-02 -0.99970769172E-01 -0.81282805894E-01  0.13064047056E+00  0.20280706537E-01 0.  0.
         14    1    1    2    0    0 -0.23303213268E-01  0.69570069902E-03 -0.12052679005E-02  0.23344730000E-01  0.00000000000E+00 0. -1.
     999901    1    3    3    0    0  0.30690788569E-01  0.99275068473E-01  0.82488073794E-01  0.88994479944E+00  0.88000000000E+00 0.  1.
        -11    1    4    4    0    0  0.49102964608E-02 -0.59567552542E-01 -0.42952333620E-01  0.73604133115E-01  0.51100000000E-03 0.  1.
         11    1    4    4    0    0 -0.12297871763E-01 -0.40403216630E-01 -0.38330472274E-01  0.57036337450E-01  0.51100000000E-03 0. -1.
</event>
<event>
 8    1  0.1161271E+005  0.1043930E+01  0.7957747E-01            NaN
         13   -1    0    0    0    0  0.00000000000E+00  0.00000000000E+00  0.74505805969E-08  0.10566000000E+00  0.10566000000E+00 0. -1.
     999900   -1    0    0    0    0 -0.00000000000E+00 -0.00000000000E+00 -0.74505805969E-08  0.93827000000E+00  0.93827000000E+00 0. -1.
     999902    2    1    2    0    0  0.14891742073E-02  0.11931352289E-01 -0.18060431999E-01  0.10222331336E+01  0.10220028500E+01 0.  0.
     999903    2    3    3    0    0  0.51043671179E-03  0.10462122212E+00 -0.84334659429E-01  0.13488616476E+00  0.11665418937E-01 0.  0.
         14    1    1    2    0    0 -0.14891742073E-02 -0.11931352289E-01  0.18060431999E-01  0.21696866393E-01  0.00000000000E+00 0. -1.
     999901    1    3    3    0    0  0.97873749553E-03 -0.92689869835E-01  0.66274227429E-01  0.88734696885E+00  0.88000000000E+00 0.  1.
        -11    1    4    4    0    0 -0.49503770624E-02  0.44305212996E-01 -0.32563685508E-01  0.55209717139E-01  0.51100000000E-03 0. -1.
         11    1    4    4    0    0  0.54608137742E-02  0.60316009128E-01 -0.51770973921E-01  0.79676447623E-01  0.51100000000E-03 0.  1.
</event>
<event>
 8    1  0.1161271E+005  0.1043930E+01  0.7957747E-01            NaN
         13   -1    0    0    0    0  0.00000000000E+00  0.00000000000E+00  0.74505805969E-08  0.10566000000E+00  0.10566000000E+00 0.  1.
     999900   -1    0    0    0    0 -0.00000000000E+00 -0.00000000000E+00 -0.74505805969E-08  0.93827000000E+00  0.93827000000E+00 0.  1.
     999902    2    1    2    0    0  0.89649663882E-02  0.64883295278E-03  0.21850729434E-01  0.10203027703E+01  0.10200291648E+01 0.  0.
     999903    2    3    3    0    0  0.87035462597E-01 -0.96203165113E-01 -0.25095290394E-02  0.13121968414E+00  0.19547046877E-01 0.  0.
         14    1    1    2    0    0 -0.89649663882E-02 -0.64883295278E-03 -0.21850729434E-01  0.23627229701E-01  0.00000000000E+00 0. -1.
     999901    1    3    3    0    0 -0.78070496209E-01  0.96851998066E-01  0.24360258473E-01  0.88908308616E+00  0.88000000000E+00 0.  1.
        -11    1    4    4    0    0  0.55379500006E-01 -0.60039500026E-01  0.78294060672E-02  0.82056025401E-01  0.51100000000E-03 0.  1.
         11    1    4    4    0    0  0.31655962591E-01 -0.36163665087E-01 -0.10338935107E-01  0.49163658735E-01  0.51100000000E-03 0. -1.
</event>
<event>
 8    1  0.1161271E+005  0.1043930E+01  0.7957747E-01            NaN
         13   -1    0    0    0    0  0.00000000000E+00  0.00000000000E+00  0.74505805969E-08  0.10566000000E+00  0.10566000000E+00 0. -1.
     999900   -1    0    0    0    0 -0.00000000000E+00 -0.00000000000E+00 -0.74505805969E-08  0.93827000000E+00  0.93827000000E+00 0. -1.
     999902    2    1    2    0    0 -0.81937247730E-02 -0.20635006576E-01  0.13412225831E-02  0.10216872596E+01  0.10214451121E+01 0.  0.
     999903    2    3    3    0    0 -0.30923466970E-01  0.58407523530E-01  0.11143406542E+00  0.13102189215E+00  0.19531658241E-01 0.  0.
         14    1    1    2    0    0  0.81937247730E-02  0.20635006576E-01 -0.13412225831E-02  0.22242740390E-01  0.00000000000E+00 0. -1.
     999901    1    3    3    0    0  0.22729742197E-01 -0.79042530106E-01 -0.11009284283E+00  0.89066536746E+00  0.88000000000E+00 0. -1.
        -11    1    4    4    0    0 -0.30214249248E-01  0.38672152610E-01  0.82273141890E-01  0.95799620263E-01  0.51100000000E-03 0. -1.
         11    1    4    4    0    0 -0.70921772221E-03  0.19735370921E-01  0.29160923526E-01  0.35222271889E-01  0.51100000000E-03 0.  1.
</event>
<event>
 8    1  0.1241309E+005  0.1043930E+01  0.7957747E-01            NaN
         13   -1    0    0    0    0  0.00000000000E+00  0.00000000000E+00  0.74505805969E-08  0.10566000000E+00  0.10566000000E+00 0. -1.
     999900   -1    0    0    0    0 -0.00000000000E+00 -0.00000000000E+00 -0.74505805969E-08  0.93827000000E+00  0.93827000000E+00 0. -1.
     999902    2    1    2    0    0 -0.84072101543E-02  0.17263255361E-01  0.21858439291E-01  0.10148354552E+01  0.10144183105E+01 0.  0.
     999903    2    3    3    0    0  0.74854758998E-01 -0.80493494166E-01 -0.50680820433E-01  0.12256258115E+00  0.19251056869E-01 0.  0.
         14    1    1    2    0    0  0.84072101543E-02 -0.17263255361E-01 -0.21858439291E-01  0.29094544789E-01  0.00000000000E+00 0.  1.
     999901    1    3    3    0    0 -0.83261969152E-01  0.97756749527E-01  0.72539259724E-01  0.89227287406E+00  0.88000000000E+00 0.  1.
        -11    1    4    4    0    0  0.20229726364E-01 -0.30362525697E-01 -0.93071612176E-02  0.37656462479E-01  0.51100000000E-03 0. -1.
         11    1    4    4    0    0  0.54625032633E-01 -0.50130968468E-01 -0.41373659216E-01  0.84906118670E-01  0.51100000000E-03 0.  1.
</event>
<event>
 8    1  0.1161271E+005  0.1043930E+01  0.7957747E-01            NaN
         13   -1    0    0    0    0  0.00000000000E+00  0.00000000000E+00  0.74505805969E-08  0.10566000000E+00  0.10566000000E+00 0. -1.
     999900   -1    0    0    0    0 -0.00000000000E+00 -0.00000000000E+00 -0.74505805969E-08  0.93827000000E+00  0.93827000000E+00 0.  1.
     999902    2    1    2    0    0 -0.23849029222E-01  0.58148415671E-03  0.21850200859E-02  0.10199740272E+01  0.10196926633E+01 0.  0.
     999903    2    3    3    0    0  0.11368581811E+00 -0.53343386450E-01 -0.83911740989E-02  0.12759765944E+00  0.20994493949E-01 0.  0.
         14    1    1    2    0    0  0.23849029222E-01 -0.58148415671E-03 -0.21850200859E-02  0.23955972771E-01  0.00000000000E+00 0.  1.
     999901    1    3    3    0    0 -0.13753484733E+00  0.53924870607E-01  0.10576194185E-01  0.89237636779E+00  0.88000000000E+00 0.  1.
        -11    1    4    4    0    0  0.13274360594E-01 -0.75542138270E-02 -0.79729111859E-02  0.17236682671E-01  0.51100000000E-03 0. -1.
         11    1    4    4    0    0  0.10041145751E+00 -0.45789172623E-01 -0.41826291308E-03  0.11036097677E+00  0.51100000000E-03 0.  1.
</event>
<event>
 8    1  0.1161271E+005  0.1043930E+01  0.7957747E-01            NaN
         13   -1    0    0    0    0  0.00000000000E+00  0.00000000000E+00  0.74505805969E-08  0.10566000000E+00  0.10566000000E+00 0. -1.
     999900   -1    0    0    0    0 -0.00000000000E+00 -0.00000000000E+00 -0.74505805969E-08  0.93827000000E+00  0.93827000000E+00 0.  1.
     999902    2    1    2    0    0  0.22042753688E-01  0.91874711178E-02 -0.74038843003E-02  0.10189277977E+01  0.10186210026E+01 0.  0.
     999903    2    3    3    0    0  0.72276694886E-01 -0.10595903888E+00 -0.75521217536E-02  0.13000587226E+00  0.19830626179E-01 0.  0.
         14    1    1    2    0    0 -0.22042753688E-01 -0.91874711178E-02  0.74038843003E-02  0.25002202271E-01  0.00000000000E+00 0. -1.
     999901    1    3    3    0    0 -0.50233941198E-01  0.11514650999E+00  0.14823745328E-03  0.88892192547E+00  0.88000000000E+00 0. -1.
        -11    1    4    4    0    0  0.50172200313E-01 -0.87841673419E-01 -0.45556257519E-02  0.10126413047E+00  0.51100000000E-03 0.  1.
         11    1    4    4    0    0  0.22104494573E-01 -0.18117365458E-01 -0.29964960016E-02  0.28741741783E-01  0.51100000000E-03 0. -1.
</event>
<event>
 8    1  0.1161271E+005  0.1043930E+01  0.7957747E-01            NaN
         13   -1    0    0    0    0  0.00000000000E+00  0.00000000000E+00  0.74505805969E-08  0.10566000000E+00  0.10566000000E+00 0.  1.
     999900   -1    0    0    0    0 -0.00000000000E+00 -0.00000000000E+00 -0.74505805969E-08  0.93827000000E+00  0.93827000000E+00 0. -1.
     999902    2    1    2    0    0  0.19715705127E-01  0.25669380991E-02 -0.10322598217E-01  0.10215278967E+01  0.10212822281E+01 0.  0.
     999903    2    3    3    0    0  0.13044980517E+00 -0.14086691651E-02  0.23109809742E-01  0.13394940872E+00  0.19729287193E-01 0.  0.
         14    1    1    2    0    0 -0.19715705127E-01 -0.25669380991E-02  0.10322598217E-01  0.22402103335E-01  0.00000000000E+00 0.  1.
     999901    1    3    3    0    0 -0.11073410004E+00  0.39756072642E-02 -0.33432407960E-01  0.88757848795E+00  0.88000000000E+00 0. -1.
        -11    1    4    4    0    0  0.68754418808E-01  0.81068288632E-02  0.77846818714E-02  0.69668882385E-01  0.51100000000E-03 0. -1.
         11    1    4    4    0    0  0.61695386357E-01 -0.95154980283E-02  0.15325127871E-01  0.64280526333E-01  0.51100000000E-03 0.  1.
</event>
<event>
 8    1  0.1161271E+005  0.1043930E+01  0.7957747E-01            NaN
         13   -1    0    0    0    0  0.00000000000E+00  0.00000000000E+00  0.74505805969E-08  0.10566000000E+00  0.10566000000E+00 0. -1.
     999900   -1    0    0    0    0 -0.00000000000E+00 -0.00000000000E+00 -0.74505805969E-08  0.93827000000E+00  0.93827000000E+00 0. -1.
     999902    2    1    2    0    0 -0.60594472865E-02  0.19675389322E-01 -0.11537576696E-01  0.10203301372E+01  0.10200571726E+01 0.  0.
     999903    2    3    3    0    0  0.81108624462E-01 -0.47310724336E-01 -0.87833243172E-01  0.13021416677E+00  0.20594587215E-01 0.  0.
         14    1    1    2    0    0  0.60594472865E-02 -0.19675389322E-01  0.11537576696E-01  0.23599862762E-01  0.00000000000E+00 0. -1.
     999901    1    3    3    0    0 -0.87168071749E-01  0.66986113657E-01  0.76295666476E-01  0.89011597047E+00  0.88000000000E+00 0.  1.
        -11    1    4    4    0    0  0.50472677437E-01 -0.36596901864E-01 -0.47145285159E-01  0.78164975708E-01  0.51100000000E-03 0. -1.
         11    1    4    4    0    0  0.30635947025E-01 -0.10713822472E-01 -0.40687958013E-01  0.52049191064E-01  0.51100000000E-03 0.  1.
</event>
<event>
 8    1  0.1161271E+005  0.1043930E+01  0.7957747E-01            NaN
         13   -1    0    0    0    0  0.00000000000E+00  0.00000000000E+00  0.74505805969E-08  0.10566000000E+00  0.10566000000E+00 0. -1.
     999900   -1    0    0    0    0 -0.00000000000E+00 -0.00000000000E+00 -0.74505805969E-08  0.93827000000E+00  0.93827000000E+00 0. -1.
     999902    2    1    2    0    0  0.14189203246E-02 -0.18515237842E-01 -0.14842290872E-01  0.10201577270E+01  0.10198807121E+01 0.  0.
     999903    2    3    3    0    0 -0.53892018469E-01  0.11227259411E+00  0.21368860818E-01  0.12803889830E+00  0.20684443975E-01 0.  0.
         14    1    1    2    0    0 -0.14189203246E-02  0.18515237842E-01  0.14842290872E-01  0.23772273042E-01  0.00000000000E+00 0.  1.
     999901    1    3    3    0    0  0.55310938794E-01 -0.13078783195E+00 -0.36211151690E-01  0.89211882866E+00  0.88000000000E+00 0. -1.
        -11    1    4    4    0    0 -0.29661098604E-01  0.73631724811E-01  0.22164541298E-01  0.82419291922E-01  0.51100000000E-03 0.  1.
         11    1    4    4    0    0 -0.24230919866E-01  0.38640869300E-01 -0.79568047962E-03  0.45619606379E-01  0.51100000000E-03 0. -1.
</event>
<event>
 8    1  0.1161271E+005  0.1043930E+01  0.7957747E-01            NaN
         13   -1    0    0    0    0  0.00000000000E+00  0.00000000000E+00  0.74505805969E-08  0.10566000000E+00  0.10566000000E+00 0. -1.
     999900   -1    0    0    0    0 -0.00000000000E+00 -0.00000000000E+00 -0.74505805969E-08  0.93827000000E+00  0.93827000000E+00 0. -1.
     999902    2    1    2    0    0 -0.10621187495E-01  0.19965256862E-01 -0.60384589173E-02  0.10205230760E+01  0.10202546077E+01 0.  0.
     999903    2    3    3    0    0 -0.34915181094E-01  0.57773850299E-01 -0.11257633460E+00  0.13295898996E+00  0.21160676970E-01 0.  0.
         14    1    1    2    0    0  0.10621187495E-01 -0.19965256862E-01  0.60384589173E-02  0.23406924007E-01  0.00000000000E+00 0. -1.
     999901    1    3    3    0    0  0.24293993599E-01 -0.37808593437E-01  0.10653787568E+00  0.88756408603E+00  0.88000000000E+00 0.  1.
        -11    1    4    4    0    0 -0.15333453381E-01  0.32003916870E-01 -0.39904743758E-01  0.53404261843E-01  0.51100000000E-03 0.  1.
         11    1    4    4    0    0 -0.19581727713E-01  0.25769933429E-01 -0.72671590841E-01  0.79554728116E-01  0.51100000000E-03 0. -1.
</event>
<event>
 8    1  0.1161271E+005  0.1043930E+01  0.7957747E-01            NaN
         13   -1    0    0    0    0  0.00000000000E+00  0.00000000000E+00  0.74505805969E-08  0.10566000000E+00  0.10566000000E+00 0.  1.
     999900   -1    0    0    0    0 -0.00000000000E+00 -0.00000000000E+00 -0.74505805969E-08  0.93827000000E+00  0.93827000000E+00 0. -1.
     999902    2    1    2    0    0  0.21975689513E-01  0.56964560516E-02 -0.74053994547E-02  0.10200507102E+01  0.10197711659E+01 0.  0.
     999903    2    3    3    0    0 -0.27336488950E-01 -0.46257303302E-01 -0.11708216826E+00  0.13035420144E+00  0.19923904511E-01 0.  0.
         14    1    1    2    0    0 -0.21975689513E-01 -0.56964560516E-02  0.74053994547E-02  0.23879289818E-01  0.00000000000E+00 0.  1.
     999901    1    3    3    0    0  0.49312178463E-01  0.51953759354E-01  0.10967676881E+00  0.88969650874E+00  0.88000000000E+00 0.  1.
        -11    1    4    4    0    0 -0.13179775977E-01 -0.36661975174E-01 -0.67948116803E-01  0.78326334119E-01  0.51100000000E-03 0. -1.
         11    1    4    4    0    0 -0.14156712973E-01 -0.95953281284E-02 -0.49134051458E-01  0.52027867319E-01  0.51100000000E-03 0.  1.
</event>
<event>
 8    1  0.1161271E+005  0.1043930E+01  0.7957747E-01            NaN
         13   -1    0    0    0    0  0.00000000000E+00  0.00000000000E+00  0.74505805969E-08  0.10566000000E+00  0.10566000000E+00 0.  1.
     999900   -1    0    0    0    0 -0.00000000000E+00 -0.00000000000E+00 -0.74505805969E-08  0.93827000000E+00  0.93827000000E+00 0. -1.
     999902    2    1    2    0    0 -0.67488998267E-02  0.22827986135E-01 -0.34842978465E-02  0.10198716349E+01  0.10195878318E+01 0.  0.
     999903    2    3    3    0    0 -0.75463624347E-02 -0.44715361758E-01 -0.11931074118E+00  0.12971518530E+00  0.23120665494E-01 0.  0.
         14    1    1    2    0    0  0.67488998267E-02 -0.22827986135E-01  0.34842978465E-02  0.24058365101E-01  0.00000000000E+00 0. -1.
     999901    1    3    3    0    0  0.79746260797E-03  0.67543347893E-01  0.11582644333E+00  0.89015644960E+00  0.88000000000E+00 0.  1.
        -11    1    4    4    0    0 -0.15015614362E-01 -0.19704368090E-01 -0.59687813270E-01  0.64626828566E-01  0.51100000000E-03 0.  1.
         11    1    4    4    0    0  0.74692519270E-02 -0.25010993668E-01 -0.59622927909E-01  0.65088356732E-01  0.51100000000E-03 0. -1.
</event>
<event>
 8    1  0.1161271E+005  0.1043930E+01  0.7957747E-01            NaN
         13   -1    0    0    0    0  0.00000000000E+00  0.00000000000E+00  0.74505805969E-08  0.10566000000E+00  0.10566000000E+00 0.  1.
     999900   -1    0    0    0    0 -0.00000000000E+00 -0.00000000000E+00 -0.74505805969E-08  0.93827000000E+00  0.93827000000E+00 0.  1.
     999902    2    1    2    0    0  0.17309795509E-02  0.17042701595E-01  0.16392083436E-01  0.10202202896E+01  0.10199447480E+01 0.  0.
     999903    2    3    3    0    0 -0.44405722679E-01 -0.27597044728E-01  0.11947400101E+00  0.13188072391E+00  0.19622011565E-01 0.  0.
         14    1    1    2    0    0 -0.17309795509E-02 -0.17042701595E-01 -0.16392083436E-01  0.23709710400E-01  0.00000000000E+00 0. -1.
     999901    1    3    3    0    0  0.46136702230E-01  0.44639746323E-01 -0.10308191757E+00  0.88833956569E+00  0.88000000000E+00 0.  1.
        -11    1    4    4    0    0 -0.92438618104E-02 -0.40645484321E-02  0.45960832986E-01  0.47059843018E-01  0.51100000000E-03 0.  1.
         11    1    4    4    0    0 -0.35161860868E-01 -0.23532496296E-01  0.73513168019E-01  0.84820880890E-01  0.51100000000E-03 0. -1.
</event>
<event>
 8    1  0.1161271E+005  0.1043930E+01  0.7957747E-01            NaN
         13   -1    0    0    0    0  0.00000000000E+00  0.00000000000E+00  0.74505805969E-08  0.10566000000E+00  0.10566000000E+00 0.  1.
     999900   -1    0    0    0    0 -0.00000000000E+00 -0.00000000000E+00 -0.74505805969E-08  0.93827000000E+00  0.93827000000E+00 0. -1.
     999902    2    1    2    0    0  0.20588357267E-01  0.69586859764E-02 -0.77284476510E-02  0.10208641666E+01  0.10206035538E+01 0.  0.
     999903    2    3    3    0    0 -0.12114822889E+00  0.38938532772E-01 -0.17020524499E-02  0.12892903004E+00  0.20656599643E-01 0.  0.
         14    1    1    2    0    0 -0.20588357267E-01 -0.69586859764E-02  0.77284476510E-02  0.23065833360E-01  0.00000000000E+00 0.  1.
     999901    1    3    3    0    0  0.14173658615E+00 -0.31979846796E-01 -0.60263952012E-02  0.89193513660E+00  0.88000000000E+00 0.  1.
        -11    1    4    4    0    0 -0.32793249444E-01  0.77721179854E-02  0.82771325446E-02  0.34706988795E-01  0.51100000000E-03 0. -1.
         11    1    4    4    0    0 -0.88354979443E-01  0.31166414787E-01 -0.99791849945E-02  0.94222041249E-01  0.51100000000E-03 0.  1.
</event>
<event>
 8    1  0.1161271E+005  0.1043930E+01  0.7957747E-01            NaN
         13   -1    0    0    0    0  0.00000000000E+00  0.00000000000E+00  0.74505805969E-08  0.10566000000E+00  0.10566000000E+00 0. -1.
     999900   -1    0    0    0    0 -0.00000000000E+00 -0.00000000000E+00 -0.74505805969E-08  0.93827000000E+00  0.93827000000E+00 0.  1.
     999902    2    1    2    0    0 -0.54763185617E-03  0.18104965049E-01  0.16539477513E-01  0.10194015680E+01  0.10191064286E+01 0.  0.
     999903    2    3    3    0    0  0.37959053625E-01  0.53234253956E-01  0.11361418881E+00  0.13253047740E+00  0.19528645508E-01 0.  0.
         14    1    1    2    0    0  0.54763185617E-03 -0.18104965049E-01 -0.16539477513E-01  0.24528432002E-01  0.00000000000E+00 0.  1.
     999901    1    3    3    0    0 -0.38506685481E-01 -0.35129288906E-01 -0.97074711294E-01  0.88687109060E+00  0.88000000000E+00 0.  1.
        -11    1    4    4    0    0  0.24334503265E-01  0.21269298937E-01  0.66985340225E-01  0.74376394458E-01  0.51100000000E-03 0.  1.
         11    1    4    4    0    0  0.13624550360E-01  0.31964955018E-01  0.46628848581E-01  0.58154082942E-01  0.51100000000E-03 0. -1.
</event>
<event>
 8    1  0.1161271E+005  0.1043930E+01  0.7957747E-01            NaN
         13   -1    0    0    0    0  0.00000000000E+00  0.00000000000E+00  0.74505805969E-08  0.10566000000E+00  0.10566000000E+00 0. -1.
     999900   -1    0    0    0    0 -0.00000000000E+00 -0.00000000000E+00 -0.74505805969E-08  0.93827000000E+00  0.93827000000E+00 0. -1.
     999902    2    1    2    0    0 -0.83218575557E-03  0.18363004599E-01  0.15068557073E-01  0.10201612414E+01  0.10198843094E+01 0.  0.
     999903    2    3    3    0    0  0.72136730211E-01 -0.85017118126E-01 -0.59558560890E-01  0.12798350175E+00  0.20023394432E-01 0.  0.
         14    1    1    2    0    0  0.83218575557E-03 -0.18363004599E-01 -0.15068557073E-01  0.23768758556E-01  0.00000000000E+00 0.  1.
     999901    1    3    3    0    0 -0.72968915967E-01  0.10338012272E+00  0.74627117963E-01  0.89217773970E+00  0.88000000000E+00 0.  1.
        -11    1    4    4    0    0  0.47406057955E-01 -0.58921033470E-01 -0.29710876992E-01  0.81252814404E-01  0.51100000000E-03 0. -1.
         11    1    4    4    0    0  0.24730672257E-01 -0.26096084657E-01 -0.29847683898E-01  0.46730687345E-01  0.51100000000E-03 0.  1.
</event>
<event>
 8    1  0.1161271E+005  0.1043930E+01  0.7957747E-01            NaN
         13   -1    0    0    0    0  0.00000000000E+00  0.00000000000E+00  0.74505805969E-08  0.10566000000E+00  0.10566000000E+00 0.  1.
     999900   -1    0    0    0    0 -0.00000000000E+00 -0.00000000000E+00 -0.74505805969E-08  0.93827000000E+00  0.93827000000E+00 0. -1.
     999902    2    1    2    0    0  0.13429604318E-01  0.48504969496E-02  0.15146850882E-01  0.10231139321E+01  0.10229021504E+01 0.  0.
     999903    2    3    3    0    0 -0.20950586719E-01 -0.10050348518E+00  0.82658564300E-01  0.13359760813E+00  0.21817539492E-01 0.  0.
         14    1    1    2    0    0 -0.13429604318E-01 -0.48504969496E-02 -0.15146850882E-01  0.20816067938E-01  0.00000000000E+00 0. -1.
     999901    1    3    3    0    0  0.34380191037E-01  0.10535398213E+00 -0.67511713419E-01  0.88951632393E+00  0.88000000000E+00 0. -1.
        -11    1    4    4    0    0 -0.97836976555E-02 -0.81919662315E-01  0.58535668170E-01  0.10115946512E+00  0.51100000000E-03 0.  1.
         11    1    4    4    0    0 -0.11166889064E-01 -0.18583822865E-01  0.24122896130E-01  0.32438143016E-01  0.51100000000E-03 0. -1.
</event>
<event>
 8    1  0.1161271E+005  0.1043930E+01  0.7957747E-01            NaN
         13   -1    0    0    0    0  0.00000000000E+00  0.00000000000E+00  0.74505805969E-08  0.10566000000E+00  0.10566000000E+00 0.  1.
     999900   -1    0    0    0    0 -0.00000000000E+00 -0.00000000000E+00 -0.74505805969E-08  0.93827000000E+00  0.93827000000E+00 0.  1.
     999902    2    1    2    0    0 -0.62375320259E-02 -0.57240355859E-02 -0.22530272422E-01  0.10198616688E+01  0.10195776278E+01 0.  0.
     999903    2    3    3    0    0 -0.20203569669E-01  0.11473043172E+00 -0.56366090759E-01  0.13090205699E+00  0.19671200972E-01 0.  0.
         14    1    1    2    0    0  0.62375320259E-02  0.57240355859E-02  0.22530272422E-01  0.24068331155E-01  0.00000000000E+00 0.  1.
     999901    1    3    3    0    0  0.13966037643E-01 -0.12045446731E+00  0.33835818338E-01  0.88895961185E+00  0.88000000000E+00 0. -1.
        -11    1    4    4    0    0 -0.16483919892E-02  0.46984344757E-01 -0.14840295764E-01  0.49302549100E-01  0.51100000000E-03 0.  1.
         11    1    4    4    0    0 -0.18555177680E-01  0.67746086963E-01 -0.41525794995E-01  0.81599507893E-01  0.51100000000E-03 0. -1.
</event>
<event>
 8    1  0.1161271E+005  0.1043930E+01  0.7957747E-01            NaN
         13   -1    0    0    0    0  0.00000000000E+00  0.00000000000E+00  0.74505805969E-08  0.10566000000E+00  0.10566000000E+00 0. -1.
     999900   -1    0    0    0    0 -0.00000000000E+00 -0.00000000000E+00 -0.74505805969E-08  0.93827000000E+00  0.93827000000E+00 0.  1.
     999902    2    1    2    0    0 -0.20460477376E-01  0.48916406925E-02 -0.15066195954E-01  0.10180543446E+01  0.10177254536E+01 0.  0.
     999903    2    3    3    0    0 -0.68226561680E-02 -0.23075299330E-01  0.12283594676E+00  0.12677148214E+00  0.20082848194E-01 0.  0.
         14    1    1    2    0    0  0.20460477376E-01 -0.48916406925E-02  0.15066195954E-01  0.25875655424E-01  0.00000000000E+00 0. -1.
     999901    1    3    3    0    0 -0.13637821208E-01  0.27966940022E-01 -0.13790214272E+00  0.89128286243E+00  0.88000000000E+00 0.  1.
        -11    1    4    4    0    0  0.46443848277E-02  0.78976355509E-03  0.14957624431E-01  0.15690305495E-01  0.51100000000E-03 0. -1.
         11    1    4    4    0    0 -0.11467040996E-01 -0.23865062885E-01  0.10787832233E+00  0.11108117665E+00  0.51100000000E-03 0.  1.
</event>
<event>
 8    1  0.1161271E+005  0.1043930E+01  0.7957747E-01            NaN
         13   -1    0    0    0    0  0.00000000000E+00  0.00000000000E+00  0.74505805969E-08  0.10566000000E+00  0.10566000000E+00 0.  1.
     999900   -1    0    0    0    0 -0.00000000000E+00 -0.00000000000E+00 -0.74505805969E-08  0.93827000000E+00  0.93827000000E+00 0. -1.
     999902    2    1    2    0    0 -0.57827889665E-03 -0.28589584293E-02  0.24438810177E-01  0.10193177369E+01  0.10190205520E+01 0.  0.
     999903    2    3    3    0    0 -0.57029010865E-01  0.76254390658E-01 -0.82407872007E-01  0.12754320230E+00  0.20227973456E-01 0.  0.
         14    1    1    2    0    0  0.57827889665E-03  0.28589584293E-02 -0.24438810177E-01  0.24612263054E-01  0.00000000000E+00 0. -1.
     999901    1    3    3    0    0  0.56450731969E-01 -0.79113349087E-01  0.10684668218E+00  0.89177453464E+00  0.88000000000E+00 0.  1.
        -11    1    4    4    0    0 -0.35871612766E-01  0.34025802093E-01 -0.34688024759E-01  0.60399072784E-01  0.51100000000E-03 0. -1.
         11    1    4    4    0    0 -0.21157398100E-01  0.42228588564E-01 -0.47719847247E-01  0.67144129519E-01  0.51100000000E-03 0.  1.
</event>
<event>
 8    1  0.1161271E+005  0.1043930E+01  0.7957747E-01            NaN
         13   -1    0    0    0    0  0.00000000000E+00  0.00000000000E+00  0.74505805969E-08  0.10566000000E+00  0.10566000000E+00 0. -1.
     999900   -1    0    0    0    0 -0.00000000000E+00 -0.00000000000E+00 -0.74505805969E-08  0.93827000000E+00  0.93827000000E+00 0. -1.
     999902    2    1    2    0    0  0.18795395330E-01 -0.18836836240E-02  0.13954289230E-01  0.10204451679E+01  0.10201748886E+01 0.  0.
     999903    2    3    3    0    0  0.67696662522E-01  0.76781275605E-01 -0.77733356373E-01  0.13084630659E+00  0.24496506972E-01 0.  0.
         14    1    1    2    0    0 -0.18795395330E-01  0.18836836240E-02 -0.13954289230E-01  0.23484832073E-01  0.00000000000E+00 0.  1.
     999901    1    3    3    0    0 -0.48901267192E-01 -0.78664959229E-01  0.91687645603E-01  0.88959886134E+00  0.88000000000E+00 0.  1.
        -11    1    4    4    0    0  0.82998811412E-02  0.32830799678E-02 -0.77420812098E-03  0.89736926763E-02  0.51100000000E-03 0.  1.
         11    1    4    4    0    0  0.59396781381E-01  0.73498195637E-01 -0.76959148252E-01  0.12187261391E+00  0.51100000000E-03 0. -1.
</event>
<event>
 8    1  0.1161271E+005  0.1043930E+01  0.7957747E-01            NaN
         13   -1    0    0    0    0  0.00000000000E+00  0.00000000000E+00  0.74505805969E-08  0.10566000000E+00  0.10566000000E+00 0.  1.
     999900   -1    0    0    0    0 -0.00000000000E+00 -0.00000000000E+00 -0.74505805969E-08  0.93827000000E+00  0.93827000000E+00 0.  1.
     999902    2    1    2    0    0 -0.13317278815E-01 -0.12742213334E-01  0.13956703907E-01  0.10208106683E+01  0.10205488312E+01 0.  0.
     999903    2    3    3    0    0  0.59293972091E-01  0.88517977227E-01 -0.67686572556E-01  0.12829083962E+00  0.22931637669E-01 0.  0.
         14    1    1    2    0    0  0.13317278815E-01  0.12742213334E-01 -0.13956703907E-01  0.23119331730E-01  0.00000000000E+00 0. -1.
     999901    1    3    3    0    0 -0.72611250905E-01 -0.10126019056E+00  0.81643276463E-01  0.89251982865E+00  0.88000000000E+00 0. -1.
        -11    1    4    4    0    0  0.34979859675E-01  0.70534686872E-01 -0.49249709209E-01  0.92868334825E-01  0.51100000000E-03 0. -1.
         11    1    4    4    0    0  0.24314112415E-01  0.17983290355E-01 -0.18436863347E-01  0.35422504790E-01  0.51100000000E-03 0.  1.
</event>
<event>
 8    1  0.1161271E+005  0.1043930E+01  0.7957747E-01            NaN
         13   -1    0    0    0    0  0.00000000000E+00  0.00000000000E+00  0.74505805969E-08  0.10566000000E+00  0.10566000000E+00 0. -1.
     999900   -1    0    0    0    0 -0.00000000000E+00 -0.00000000000E+00 -0.74505805969E-08  0.93827000000E+00  0.93827000000E+00 0.  1.
     999902    2    1    2    0    0 -0.25134788505E-02 -0.22134714489E-01 -0.69961569418E-02  0.10205802811E+01  0.10203131386E+01 0.  0.
     999903    2    3    3    0    0 -0.26876774100E-01 -0.93522962517E-01  0.87447920155E-01  0.13231819374E+00  0.19800508883E-01 0.  0.
         14    1    1    2    0    0  0.25134788505E-02  0.22134714489E-01  0.69961569418E-02  0.23349718914E-01  0.00000000000E+00 0. -1.
     999901    1    3    3    0    0  0.24363295249E-01  0.71388248028E-01 -0.94444077096E-01  0.88826208734E+00  0.88000000000E+00 0.  1.
        -11    1    4    4    0    0 -0.16682318260E-01 -0.62051998919E-01  0.69597601465E-01  0.94725063014E-01  0.51100000000E-03 0. -1.
         11    1    4    4    0    0 -0.10194455840E-01 -0.31470963598E-01  0.17850318689E-01  0.37593130728E-01  0.51100000000E-03 0.  1.
</event>
<event>
 8    1  0.1161271E+005  0.1043930E+01  0.7957747E-01            NaN
         13   -1    0    0    0    0  0.00000000000E+00  0.00000000000E+00  0.74505805969E-08  0.10566000000E+00  0.10566000000E+00 0.  1.
     999900   -1    0    0    0    0 -0.00000000000E+00 -0.00000000000E+00 -0.74505805969E-08  0.93827000000E+00  0.93827000000E+00 0. -1.
     999902    2    1    2    0    0 -0.75260066689E-02  0.30443084692E-01  0.13498705140E-01  0.10097885703E+01  0.10092112363E+01 0.  0.
     999903    2    3    3    0    0 -0.10823059075E+00 -0.25005713311E-01 -0.42979372385E-01  0.12051597109E+00  0.18377332888E-01 0.  0.
         14    1    1    2    0    0  0.75260066689E-02 -0.30443084692E-01 -0.13498705140E-01  0.34141429706E-01  0.00000000000E+00 0. -1.
     999901    1    3    3    0    0  0.10070458408E+00  0.55448798002E-01  0.56478077525E-01  0.88927259920E+00  0.88000000000E+00 0.  1.
        -11    1    4    4    0    0 -0.10099538205E+00 -0.21283857516E-01 -0.34687764052E-01  0.10888788675E+00  0.51100000000E-03 0. -1.
         11    1    4    4    0    0 -0.72352087042E-02 -0.37218557946E-02 -0.82916083329E-02  0.11628084335E-01  0.51100000000E-03 0.  1.
</event>
<event>
 8    1  0.1161271E+005  0.1043930E+01  0.7957747E-01            NaN
         13   -1    0    0    0    0  0.00000000000E+00  0.00000000000E+00  0.74505805969E-08  0.10566000000E+00  0.10566000000E+00 0. -1.
     999900   -1    0    0    0    0 -0.00000000000E+00 -0.00000000000E+00 -0.74505805969E-08  0.93827000000E+00  0.93827000000E+00 0. -1.
     999902    2    1    2    0    0 -0.20841248479E-01 -0.13660840574E-01 -0.47245874878E-02  0.10185666814E+01  0.10182508466E+01 0.  0.
     999903    2    3    3    0    0 -0.41936584693E-01  0.26637767210E-01 -0.11856500602E+00  0.13006871748E+00  0.19798051319E-01 0.  0.
         14    1    1    2    0    0  0.20841248479E-01  0.13660840574E-01  0.47245874878E-02  0.25363318597E-01  0.00000000000E+00 0. -1.
     999901    1    3    3    0    0  0.21095336215E-01 -0.40298607784E-01  0.11384041854E+00  0.88849796392E+00  0.88000000000E+00 0.  1.
        -11    1    4    4    0    0 -0.16663967605E-01 -0.10482301981E-03 -0.35796418389E-01  0.39488523582E-01  0.51100000000E-03 0.  1.
         11    1    4    4    0    0 -0.25272617088E-01  0.26742590230E-01 -0.82768587636E-01  0.90580193900E-01  0.51100000000E-03 0. -1.
</event>
<event>
 8    1  0.1161271E+005  0.1043930E+01  0.7957747E-01            NaN
         13   -1    0    0    0    0  0.00000000000E+00  0.00000000000E+00  0.74505805969E-08  0.10566000000E+00  0.10566000000E+00 0.  1.
     999900   -1    0    0    0    0 -0.00000000000E+00 -0.00000000000E+00 -0.74505805969E-08  0.93827000000E+00  0.93827000000E+00 0. -1.
     999902    2    1    2    0    0 -0.14152947004E-01 -0.13107784695E-01  0.13501017998E-01  0.10203843546E+01  0.10201126574E+01 0.  0.
     999903    2    3    3    0    0 -0.18195769689E-01  0.12616255160E+00 -0.72877901034E-02  0.12918025594E+00  0.19655817989E-01 0.  0.
         14    1    1    2    0    0  0.14152947004E-01  0.13107784695E-01 -0.13501017998E-01  0.23545645362E-01  0.00000000000E+00 0. -1.
     999901    1    3    3    0    0  0.40428226852E-02 -0.13927033629E+00  0.20788808102E-01  0.89120409869E+00  0.88000000000E+00 0.  1.
        -11    1    4    4    0    0  0.42093161591E-02  0.22702852558E-01 -0.43481986342E-03  0.23099524803E-01  0.51100000000E-03 0. -1.
         11    1    4    4    0    0 -0.22405085849E-01  0.10345969904E+00 -0.68529702400E-02  0.10608073114E+00  0.51100000000E-03 0.  1.
</event>
<event>
 8    1  0.1161271E+005  0.1043930E+01  0.7957747E-01            NaN
         13   -1    0    0    0    0  0.00000000000E+00  0.00000000000E+00  0.74505805969E-08  0.10566000000E+00  0.10566000000E+00 0. -1.
     999900   -1    0    0    0    0 -0.00000000000E+00 -0.00000000000E+00 -0.74505805969E-08  0.93827000000E+00  0.93827000000E+00 0. -1.
     999902    2    1    2    0    0  0.49631642421E-02 -0.74202353842E-02  0.20761546434E-01  0.10213305597E+01  0.10210804951E+01 0.  0.
     999903    2    3    3    0    0  0.23693188326E-01  0.85121529960E-01 -0.92081875286E-01  0.12911509806E+00  0.19611087534E-01 0.  0.
         14    1    1    2    0    0 -0.49631642421E-02  0.74202353842E-02 -0.20761546434E-01  0.22599440320E-01  0.00000000000E+00 0.  1.
     999901    1    3    3    0    0 -0.18730024084E-01 -0.92541765344E-01  0.11284342172E+00  0.89221546162E+00  0.88000000000E+00 0.  1.
        -11    1    4    4    0    0  0.23542041796E-01  0.56192305853E-01 -0.69406079184E-01  0.92354035741E-01  0.51100000000E-03 0. -1.
         11    1    4    4    0    0  0.15114653016E-03  0.28929224107E-01 -0.22675796102E-01  0.36761062316E-01  0.51100000000E-03 0.  1.
</event>
<event>
 8    1  0.1161271E+005  0.1043930E+01  0.7957747E-01            NaN
         13   -1    0    0    0    0  0.00000000000E+00  0.00000000000E+00  0.74505805969E-08  0.10566000000E+00  0.10566000000E+00 0.  1.
     999900   -1    0    0    0    0 -0.00000000000E+00 -0.00000000000E+00 -0.74505805969E-08  0.93827000000E+00  0.93827000000E+00 0. -1.
     999902    2    1    2    0    0  0.10269259122E-01 -0.20989390632E-01  0.66064593694E-02  0.10196471355E+01  0.10193579467E+01 0.  0.
     999903    2    3    3    0    0  0.16924262387E-01 -0.78428421119E-01 -0.10172487640E+00  0.13112070957E+00  0.20180240461E-01 0.  0.
         14    1    1    2    0    0 -0.10269259122E-01  0.20989390632E-01 -0.66064593694E-02  0.24282864482E-01  0.00000000000E+00 0.  1.
     999901    1    3    3    0    0 -0.66550032645E-02  0.57439030487E-01  0.10833133576E+00  0.88852642594E+00  0.88000000000E+00 0.  1.
        -11    1    4    4    0    0  0.13161266286E-01 -0.29239841482E-01 -0.28975348945E-01  0.43220588007E-01  0.51100000000E-03 0. -1.
         11    1    4    4    0    0  0.37629961004E-02 -0.49188579637E-01 -0.72749527451E-01  0.87900121568E-01  0.51100000000E-03 0.  1.
</event>
<event>
 8    1  0.1161271E+005  0.1043930E+01  0.7957747E-01            NaN
         13   -1    0    0    0    0  0.00000000000E+00  0.00000000000E+00  0.74505805969E-08  0.10566000000E+00  0.10566000000E+00 0.  1.
     999900   -1    0    0    0    0 -0.00000000000E+00 -0.00000000000E+00 -0.74505805969E-08  0.93827000000E+00  0.93827000000E+00 0.  1.
     999902    2    1    2    0    0  0.50745480497E-02 -0.11647973860E-01  0.17085836809E-01  0.10226379322E+01  0.10224162500E+01 0.  0.
     999903    2    3    3    0    0  0.10108444466E+00 -0.37594207924E-02 -0.82303851115E-01  0.13181896090E+00  0.19238408078E-01 0.  0.
         14    1    1    2    0    0 -0.50745480497E-02  0.11647973860E-01 -0.17085836809E-01  0.21292067829E-01  0.00000000000E+00 0. -1.
     999901    1    3    3    0    0 -0.96009896615E-01 -0.78885530679E-02  0.99389687925E-01  0.89081897127E+00  0.88000000000E+00 0.  1.
        -11    1    4    4    0    0  0.85658213992E-02 -0.22577012967E-02 -0.14892010061E-01  0.17335039546E-01  0.51100000000E-03 0. -1.
         11    1    4    4    0    0  0.92518623266E-01 -0.15017194957E-02 -0.67411841054E-01  0.11448392135E+00  0.51100000000E-03 0.  1.
</event>
<event>
 8    1  0.1161271E+005  0.1043930E+01  0.7957747E-01            NaN
         13   -1    0    0    0    0  0.00000000000E+00  0.00000000000E+00  0.74505805969E-08  0.10566000000E+00  0.10566000000E+00 0.  1.
     999900   -1    0    0    0    0 -0.00000000000E+00 -0.00000000000E+00 -0.74505805969E-08  0.93827000000E+00  0.93827000000E+00 0.  1.
     999902    2    1    2    0    0  0.60732040527E-02  0.13490856882E-01  0.18363261848E-01  0.10203483034E+01  0.10200757638E+01 0.  0.
     999903    2    3    3    0    0  0.10621850242E+00  0.20297282763E-01 -0.69990892628E-01  0.13024613805E+00  0.19260879594E-01 0.  0.
         14    1    1    2    0    0 -0.60732040527E-02 -0.13490856882E-01 -0.18363261848E-01  0.23581696558E-01  0.00000000000E+00 0. -1.
     999901    1    3    3    0    0 -0.10014529837E+00 -0.68064258814E-02  0.88354154476E-01  0.89010216539E+00  0.88000000000E+00 0. -1.
        -11    1    4    4    0    0  0.24898470922E-02 -0.34455605256E-03 -0.62595632142E-02  0.67647106404E-02  0.51100000000E-03 0.  1.
         11    1    4    4    0    0  0.10372865533E+00  0.20641838816E-01 -0.63731329414E-01  0.12348142741E+00  0.51100000000E-03 0. -1.
</event>
<event>
 8    1  0.1161271E+005  0.1043930E+01  0.7957747E-01            NaN
         13   -1    0    0    0    0  0.00000000000E+00  0.00000000000E+00  0.74505805969E-08  0.10566000000E+00  0.10566000000E+00 0.  1.
     999900   -1    0    0    0    0 -0.00000000000E+00 -0.00000000000E+00 -0.74505805969E-08  0.93827000000E+00  0.93827000000E+00 0. -1.
     999902    2    1    2    0    0 -0.11291333570E-01 -0.14197190306E-01 -0.13763304530E-01  0.10211597787E+01  0.10209058775E+01 0.  0.
     999903    2    3    3    0    0  0.18716257284E-01  0.47653176662E-01  0.11723140757E+00  0.12881145097E+00  0.15101769663E-01 0.  0.
         14    1    1    2    0    0  0.11291333570E-01  0.14197190306E-01  0.13763304530E-01  0.22770221298E-01  0.00000000000E+00 0. -1.
     999901    1    3    3    0    0 -0.30007590855E-01 -0.61850366968E-01 -0.13099471210E+00  0.89234832773E+00  0.88000000000E+00 0. -1.
        -11    1    4    4    0    0  0.15274205922E-01  0.47229201613E-01  0.11207421684E+00  0.12257565033E+00  0.51100000000E-03 0.  1.
         11    1    4    4    0    0  0.34420513623E-02  0.42397504942E-03  0.51571907297E-02  0.62358006419E-02  0.51100000000E-03 0. -1.
</event>
<event>
 8    1  0.1161271E+005  0.1043930E+01  0.7957747E-01            NaN
         13   -1    0    0    0    0  0.00000000000E+00  0.00000000000E+00  0.74505805969E-08  0.10566000000E+00  0.10566000000E+00 0. -1.
     999900   -1    0    0    0    0 -0.00000000000E+00 -0.00000000000E+00 -0.74505805969E-08  0.93827000000E+00  0.93827000000E+00 0.  1.
     999902    2    1    2    0    0  0.10972541485E-01  0.18399087803E-01  0.96561268339E-02  0.10204318323E+01  0.10201612424E+01 0.  0.
     999903    2    3    3    0    0  0.27603977165E-01  0.33430673080E-01  0.12389822525E+00  0.13276420857E+00  0.19899130634E-01 0.  0.
         14    1    1    2    0    0 -0.10972541485E-01 -0.18399087803E-01 -0.96561268339E-02  0.23498167674E-01  0.00000000000E+00 0.  1.
     999901    1    3    3    0    0 -0.16631435681E-01 -0.15031585276E-01 -0.11424209842E+00  0.88766762375E+00  0.88000000000E+00 0.  1.
        -11    1    4    4    0    0  0.25504735405E-01  0.33519343829E-01  0.96648202652E-01  0.10542852620E+00  0.51100000000E-03 0. -1.
         11    1    4    4    0    0  0.20992417598E-02 -0.88670749291E-04  0.27250022598E-01  0.27335682378E-01  0.51100000000E-03 0.  1.
</event>
<event>
 8    1  0.1161271E+005  0.1043930E+01  0.7957747E-01            NaN
         13   -1    0    0    0    0  0.00000000000E+00  0.00000000000E+00  0.74505805969E-08  0.10566000000E+00  0.10566000000E+00 0. -1.
     999900   -1    0    0    0    0 -0.00000000000E+00 -0.00000000000E+00 -0.74505805969E-08  0.93827000000E+00  0.93827000000E+00 0. -1.
     999902    2    1    2    0    0 -0.10141207653E-01  0.20225484874E-01 -0.10605296592E-01  0.10189422701E+01  0.10186358344E+01 0.  0.
     999903    2    3    3    0    0 -0.98107714413E-01 -0.80357169887E-01 -0.12638028542E-01  0.12885288762E+00  0.18998644799E-01 0.  0.
         14    1    1    2    0    0  0.10141207653E-01 -0.20225484874E-01  0.10605296592E-01  0.24987729926E-01  0.00000000000E+00 0. -1.
     999901    1    3    3    0    0  0.87966506760E-01  0.10058265476E+00  0.20327319506E-02  0.89008938245E+00  0.88000000000E+00 0.  1.
        -11    1    4    4    0    0 -0.64587793056E-01 -0.48056403858E-01  0.40458829315E-03  0.80507302627E-01  0.51100000000E-03 0.  1.
         11    1    4    4    0    0 -0.33519921357E-01 -0.32300766029E-01 -0.13042616836E-01  0.48345584998E-01  0.51100000000E-03 0. -1.
</event>
<event>
 8    1  0.1161271E+005  0.1043930E+01  0.7957747E-01            NaN
         13   -1    0    0    0    0  0.00000000000E+00  0.00000000000E+00  0.74505805969E-08  0.10566000000E+00  0.10566000000E+00 0. -1.
     999900   -1    0    0    0    0 -0.00000000000E+00 -0.00000000000E+00 -0.74505805969E-08  0.93827000000E+00  0.93827000000E+00 0. -1.
     999902    2    1    2    0    0  0.19391893278E-01  0.42285517863E-02 -0.12610693285E-01  0.10204149886E+01  0.10201440061E+01 0.  0.
     999903    2    3    3    0    0  0.43682607379E-01  0.11926848659E+00  0.28478491542E-01  0.13164474469E+00  0.19651265659E-01 0.  0.
         14    1    1    2    0    0 -0.19391893278E-01 -0.42285517863E-02  0.12610693285E-01  0.23515011381E-01  0.00000000000E+00 0. -1.
     999901    1    3    3    0    0 -0.24290714100E-01 -0.11503993480E+00 -0.41089184827E-01  0.88877024393E+00  0.88000000000E+00 0. -1.
        -11    1    4    4    0    0  0.70526415758E-02  0.39855898652E-01  0.31743403366E-02  0.40602585732E-01  0.51100000000E-03 0.  1.
         11    1    4    4    0    0  0.36629965803E-01  0.79412587938E-01  0.25304151205E-01  0.91042158954E-01  0.51100000000E-03 0. -1.
</event>
<event>
 8    1  0.1161271E+005  0.1043930E+01  0.7957747E-01            NaN
         13   -1    0    0    0    0  0.00000000000E+00  0.00000000000E+00  0.74505805969E-08  0.10566000000E+00  0.10566000000E+00 0. -1.
     999900   -1    0    0    0    0 -0.00000000000E+00 -0.00000000000E+00 -0.74505805969E-08  0.93827000000E+00  0.93827000000E+00 0. -1.
     999902    2    1    2    0    0 -0.12175972902E-01  0.19286964424E-01 -0.52464341808E-02  0.10205255905E+01  0.10202571806E+01 0.  0.
     999903    2    3    3    0    0 -0.76030925130E-02  0.70331652740E-01  0.10922609432E+00  0.13163277849E+00  0.19811620316E-01 0.  0.
         14    1    1    2    0    0  0.12175972902E-01 -0.19286964424E-01  0.52464341808E-02  0.23404409508E-01  0.00000000000E+00 0. -1.
     999901    1    3    3    0    0 -0.45728803892E-02 -0.51044688316E-01 -0.11447252851E+00  0.88889281200E+00  0.88000000000E+00 0. -1.
        -11    1    4    4    0    0  0.37761227560E-02  0.45696061899E-01  0.75601819404E-01  0.88421068724E-01  0.51100000000E-03 0.  1.
         11    1    4    4    0    0 -0.11379215269E-01  0.24635590841E-01  0.33624274920E-01  0.43211709769E-01  0.51100000000E-03 0. -1.
</event>
<event>
 8    1  0.1161271E+005  0.1043930E+01  0.7957747E-01            NaN
         13   -1    0    0    0    0  0.00000000000E+00  0.00000000000E+00  0.74505805969E-08  0.10566000000E+00  0.10566000000E+00 0. -1.
     999900   -1    0    0    0    0 -0.00000000000E+00 -0.00000000000E+00 -0.74505805969E-08  0.93827000000E+00  0.93827000000E+00 0.  1.
     999902    2    1    2    0    0 -0.39894763221E-02 -0.14321567478E-01  0.16258131830E-01  0.10218993380E+01  0.10216618359E+01 0.  0.
     999903    2    3    3    0    0  0.39857611380E-01  0.49713251113E-01 -0.11082411706E+00  0.12938999742E+00  0.19993748743E-01 0.  0.
         14    1    1    2    0    0  0.39894763221E-02  0.14321567478E-01 -0.16258131830E-01  0.22030661973E-01  0.00000000000E+00 0.  1.
     999901    1    3    3    0    0 -0.43847087702E-01 -0.64034818592E-01  0.12708224889E+00  0.89250934061E+00  0.88000000000E+00 0. -1.
        -11    1    4    4    0    0  0.24508750175E-01  0.41312840777E-01 -0.69248124676E-01  0.84279259254E-01  0.51100000000E-03 0.  1.
         11    1    4    4    0    0  0.15348861206E-01  0.84004103359E-02 -0.41575992382E-01  0.45110738164E-01  0.51100000000E-03 0. -1.
</event>
<event>
 8    1  0.1161271E+005  0.1043930E+01  0.7957747E-01            NaN
         13   -1    0    0    0    0  0.00000000000E+00  0.00000000000E+00  0.74505805969E-08  0.10566000000E+00  0.10566000000E+00 0.  1.
     999900   -1    0    0    0    0 -0.00000000000E+00 -0.00000000000E+00 -0.74505805969E-08  0.93827000000E+00  0.93827000000E+00 0.  1.
     999902    2    1    2    0    0 -0.14060039862E-01  0.18988533474E-01 -0.91435217317E-02  0.10185951798E+01  0.10182800633E+01 0.  0.
     999903    2    3    3    0    0  0.34661370331E-01  0.10624271480E+00  0.63264153673E-01  0.12998393780E+00  0.20113326542E-01 0.  0.
         14    1    1    2    0    0  0.14060039862E-01 -0.18988533474E-01  0.91435217317E-02  0.25334820190E-01  0.00000000000E+00 0. -1.
     999901    1    3    3    0    0 -0.48721410193E-01 -0.87254181326E-01 -0.72407675405E-01  0.88861124201E+00  0.88000000000E+00 0.  1.
        -11    1    4    4    0    0  0.15885702742E-01  0.55289775763E-01  0.43768152525E-01  0.72285732700E-01  0.51100000000E-03 0. -1.
         11    1    4    4    0    0  0.18775667590E-01  0.50952939037E-01  0.19496001148E-01  0.57698205100E-01  0.51100000000E-03 0.  1.
</event>
<event>
 8    1  0.1161271E+005  0.1043930E+01  0.7957747E-01            NaN
         13   -1    0    0    0    0  0.00000000000E+00  0.00000000000E+00  0.74505805969E-08  0.10566000000E+00  0.10566000000E+00 0.  1.
     999900   -1    0    0    0    0 -0.00000000000E+00 -0.00000000000E+00 -0.74505805969E-08  0.93827000000E+00  0.93827000000E+00 0. -1.
     999902    2    1    2    0    0 -0.38792144453E-03  0.14875214339E-01 -0.17999196704E-01  0.10205763372E+01  0.10203091034E+01 0.  0.
     999903    2    3    3    0    0  0.95033183074E-01 -0.74636203851E-01 -0.45213015535E-01  0.13048753650E+00  0.19516956683E-01 0.  0.
         14    1    1    2    0    0  0.38792144453E-03 -0.14875214339E-01  0.17999196704E-01  0.23353662810E-01  0.00000000000E+00 0.  1.
     999901    1    3    3    0    0 -0.95421104519E-01  0.89511418190E-01  0.27213818831E-01  0.89008880069E+00  0.88000000000E+00 0. -1.
        -11    1    4    4    0    0  0.59088170029E-01 -0.45744516693E-01 -0.37907677186E-01  0.83792754791E-01  0.51100000000E-03 0.  1.
         11    1    4    4    0    0  0.35945013045E-01 -0.28891687158E-01 -0.73053383491E-02  0.46694781711E-01  0.51100000000E-03 0. -1.
</event>
<event>
 8    1  0.1161271E+005  0.1043930E+01  0.7957747E-01            NaN
         13   -1    0    0    0    0  0.00000000000E+00  0.00000000000E+00  0.74505805969E-08  0.10566000000E+00  0.10566000000E+00 0. -1.
     999900   -1    0    0    0    0 -0.00000000000E+00 -0.00000000000E+00 -0.74505805969E-08  0.93827000000E+00  0.93827000000E+00 0.  1.
     999902    2    1    2    0    0 -0.20387600667E-01 -0.82348470053E-02 -0.25257266773E-02  0.10217975293E+01  0.10215578028E+01 0.  0.
     999903    2    3    3    0    0 -0.66876963587E-01  0.46472505503E-01 -0.10313877177E+00  0.13315972895E+00  0.21486859861E-01 0.  0.
         14    1    1    2    0    0  0.20387600667E-01  0.82348470053E-02  0.25257266773E-02  0.22132470748E-01  0.00000000000E+00 0.  1.
     999901    1    3    3    0    0  0.46489362920E-01 -0.54707352508E-01  0.10061304509E+00  0.88863780030E+00  0.88000000000E+00 0. -1.
        -11    1    4    4    0    0 -0.48840386359E-01  0.31442746575E-01 -0.87205599995E-01  0.10478123612E+00  0.51100000000E-03 0.  1.
         11    1    4    4    0    0 -0.18036577228E-01  0.15029758928E-01 -0.15933171770E-01  0.28378492828E-01  0.51100000000E-03 0. -1.
</event>
<event>
 8    1  0.1161271E+005  0.1043930E+01  0.7957747E-01            NaN
         13   -1    0    0    0    0  0.00000000000E+00  0.00000000000E+00  0.74505805969E-08  0.10566000000E+00  0.10566000000E+00 0. -1.
     999900   -1    0    0    0    0 -0.00000000000E+00 -0.00000000000E+00 -0.74505805969E-08  0.93827000000E+00  0.93827000000E+00 0. -1.
     999902    2    1    2    0    0 -0.16168640471E-01 -0.85719761565E-02  0.14782298184E-01  0.10204051185E+01  0.10201339058E+01 0.  0.
     999903    2    3    3    0    0 -0.63973717227E-01  0.23339246632E-01 -0.10943963325E+00  0.12982399376E+00  0.15488030828E-01 0.  0.
         14    1    1    2    0    0  0.16168640471E-01  0.85719761565E-02 -0.14782298184E-01  0.23524881498E-01  0.00000000000E+00 0.  1.
     999901    1    3    3    0    0  0.47805076756E-01 -0.31911222788E-01  0.12422193144E+00  0.89058112475E+00  0.88000000000E+00 0.  1.
        -11    1    4    4    0    0 -0.26656505099E-01  0.71311980958E-02 -0.31331045473E-01  0.41753069131E-01  0.51100000000E-03 0.  1.
         11    1    4    4    0    0 -0.37317212128E-01  0.16208048536E-01 -0.78108587780E-01  0.88070924625E-01  0.51100000000E-03 0. -1.
</event>
<event>
 8    1  0.1161271E+005  0.1043930E+01  0.7957747E-01            NaN
         13   -1    0    0    0    0  0.00000000000E+00  0.00000000000E+00  0.74505805969E-08  0.10566000000E+00  0.10566000000E+00 0. -1.
     999900   -1    0    0    0    0 -0.00000000000E+00 -0.00000000000E+00 -0.74505805969E-08  0.93827000000E+00  0.93827000000E+00 0.  1.
     999902    2    1    2    0    0 -0.18733588581E-01  0.12531862787E-01 -0.62615254811E-02  0.10205376588E+01  0.10202695288E+01 0.  0.
     999903    2    3    3    0    0  0.12338004559E+00  0.11527588072E-01  0.27570676747E-01  0.12849398750E+00  0.19875655217E-01 0.  0.
         14    1    1    2    0    0  0.18733588581E-01 -0.12531862787E-01  0.62615254811E-02  0.23392341212E-01  0.00000000000E+00 0. -1.
     999901    1    3    3    0    0 -0.14211363417E+00  0.10042747146E-02 -0.33832202228E-01  0.89204367129E+00  0.88000000000E+00 0.  1.
        -11    1    4    4    0    0  0.50055188803E-01  0.84644165331E-02  0.21092693342E-02  0.50812187627E-01  0.51100000000E-03 0. -1.
         11    1    4    4    0    0  0.73324856785E-01  0.30631715393E-02  0.25461407413E-01  0.77681799869E-01  0.51100000000E-03 0.  1.
</event>
<event>
 8    1  0.1161271E+005  0.1043930E+01  0.7957747E-01            NaN
         13   -1    0    0    0    0  0.00000000000E+00  0.00000000000E+00  0.74505805969E-08  0.10566000000E+00  0.10566000000E+00 0. -1.
     999900   -1    0    0    0    0 -0.00000000000E+00 -0.00000000000E+00 -0.74505805969E-08  0.93827000000E+00  0.93827000000E+00 0. -1.
     999902    2    1    2    0    0  0.11706036840E-01  0.24504037385E-01 -0.43533016992E-02  0.10164267205E+01  0.10160545496E+01 0.  0.
     999903    2    3    3    0    0 -0.10817510399E+00  0.50411194608E-01 -0.39277723490E-01  0.12723473677E+00  0.20069803529E-01 0.  0.
         14    1    1    2    0    0 -0.11706036840E-01 -0.24504037385E-01  0.43533016992E-02  0.27503279484E-01  0.00000000000E+00 0. -1.
     999901    1    3    3    0    0  0.11988114083E+00 -0.25907157223E-01  0.34924421790E-01  0.88919198375E+00  0.88000000000E+00 0.  1.
        -11    1    4    4    0    0 -0.58570587952E-01  0.28579840500E-01 -0.31816836617E-01  0.72525121644E-01  0.51100000000E-03 0.  1.
         11    1    4    4    0    0 -0.49604516036E-01  0.21831354108E-01 -0.74608868724E-02  0.54709615126E-01  0.51100000000E-03 0. -1.
</event>
<event>
 8    1  0.1161271E+005  0.1043930E+01  0.7957747E-01            NaN
         13   -1    0    0    0    0  0.00000000000E+00  0.00000000000E+00  0.74505805969E-08  0.10566000000E+00  0.10566000000E+00 0. -1.
     999900   -1    0    0    0    0 -0.00000000000E+00 -0.00000000000E+00 -0.74505805969E-08  0.93827000000E+00  0.93827000000E+00 0. -1.
     999902    2    1    2    0    0 -0.54990530331E-03  0.25328371612E-01  0.26482544236E-03  0.10185942755E+01  0.10182791361E+01 0.  0.
     999903    2    3    3    0    0 -0.12137180372E+00 -0.72780586800E-02  0.37804476123E-01  0.12894808974E+00  0.20355504344E-01 0.  0.
         14    1    1    2    0    0  0.54990530331E-03 -0.25328371612E-01 -0.26482544236E-03  0.25335724519E-01  0.00000000000E+00 0.  1.
     999901    1    3    3    0    0  0.12082189841E+00  0.32606430292E-01 -0.37539650681E-01  0.88964618574E+00  0.88000000000E+00 0. -1.
        -11    1    4    4    0    0 -0.58480571391E-01 -0.13632210159E-01  0.19513666548E-01  0.63141576534E-01  0.51100000000E-03 0. -1.
         11    1    4    4    0    0 -0.62891232324E-01  0.63541514789E-02  0.18290809575E-01  0.65806513205E-01  0.51100000000E-03 0.  1.
</event>
<event>
 8    1  0.1161271E+005  0.1043930E+01  0.7957747E-01            NaN
         13   -1    0    0    0    0  0.00000000000E+00  0.00000000000E+00  0.74505805969E-08  0.10566000000E+00  0.10566000000E+00 0.  1.
     999900   -1    0    0    0    0 -0.00000000000E+00 -0.00000000000E+00 -0.74505805969E-08  0.93827000000E+00  0.93827000000E+00 0. -1.
     999902    2    1    2    0    0  0.15532933872E-02  0.18989785433E-01 -0.13357608453E-01  0.10206609138E+01  0.10203956343E+01 0.  0.
     999903    2    3    3    0    0  0.16285349042E-02  0.29017068799E-01  0.12512509766E+00  0.12977483127E+00  0.18454656837E-01 0.  0.
         14    1    1    2    0    0 -0.15532933872E-02 -0.18989785433E-01  0.13357608453E-01  0.23269086246E-01  0.00000000000E+00 0. -1.
     999901    1    3    3    0    0 -0.75241516914E-04 -0.10027283366E-01 -0.13848270611E+00  0.89088608248E+00  0.88000000000E+00 0. -1.
        -11    1    4    4    0    0 -0.45420142108E-02  0.27559976307E-01  0.10600895022E+00  0.10962819361E+00  0.51100000000E-03 0. -1.
         11    1    4    4    0    0  0.61705491150E-02  0.14570924920E-02  0.19116147442E-01  0.20146637658E-01  0.51100000000E-03 0.  1.
</event>
<event>
 8    1  0.1161271E+005  0.1043930E+01  0.7957747E-01            NaN
         13   -1    0    0    0    0  0.00000000000E+00  0.00000000000E+00  0.74505805969E-08  0.10566000000E+00  0.10566000000E+00 0. -1.
     999900   -1    0    0    0    0 -0.00000000000E+00 -0.00000000000E+00 -0.74505805969E-08  0.93827000000E+00  0.93827000000E+00 0.  1.
     999902    2    1    2    0    0  0.11410561451E-01  0.15870853911E-01  0.12616162331E-01  0.10206651667E+01  0.10203999853E+01 0.  0.
     999903    2    3    3    0    0  0.12466457833E+00 -0.37708087224E-01  0.52653037777E-02  0.13176066655E+00  0.19235199346E-01 0.  0.
         14    1    1    2    0    0 -0.11410561451E-01 -0.15870853911E-01 -0.12616162331E-01  0.23264833299E-01  0.00000000000E+00 0.  1.
     999901    1    3    3    0    0 -0.11325401688E+00  0.53578941134E-01  0.73508585535E-02  0.88890450015E+00  0.88000000000E+00 0. -1.
        -11    1    4    4    0    0  0.13730686680E-01 -0.27009363280E-02  0.64730856850E-02  0.15426884748E-01  0.51100000000E-03 0. -1.
         11    1    4    4    0    0  0.11093389165E+00 -0.35007150896E-01 -0.12077819073E-02  0.11633378180E+00  0.51100000000E-03 0.  1.
</event>
<event>
 8    1  0.1161271E+005  0.1043930E+01  0.7957747E-01            NaN
         13   -1    0    0    0    0  0.00000000000E+00  0.00000000000E+00  0.74505805969E-08  0.10566000000E+00  0.10566000000E+00 0. -1.
     999900   -1    0    0    0    0 -0.00000000000E+00 -0.00000000000E+00 -0.74505805969E-08  0.93827000000E+00  0.93827000000E+00 0. -1.
     999902    2    1    2    0    0 -0.45620154232E-02 -0.76166240999E-02  0.21265984069E-01  0.10208851085E+01  0.10206249741E+01 0.  0.
     999903    2    3    3    0    0  0.12104678124E-01 -0.10806812007E+00  0.74652865493E-01  0.13340640967E+00  0.19974433812E-01 0.  0.
         14    1    1    2    0    0  0.45620154232E-02  0.76166240999E-02 -0.21265984069E-01  0.23044891535E-01  0.00000000000E+00 0.  1.
     999901    1    3    3    0    0 -0.16666693547E-01  0.10045149597E+00 -0.53386881423E-01  0.88747869880E+00  0.88000000000E+00 0.  1.
        -11    1    4    4    0    0  0.10057462122E-01 -0.95284124003E-01  0.72764171239E-01  0.12031252041E+00  0.51100000000E-03 0.  1.
         11    1    4    4    0    0  0.20472160018E-02 -0.12783996064E-01  0.18886942537E-02  0.13093889251E-01  0.51100000000E-03 0. -1.
</event>
<event>
 8    1  0.1161271E+005  0.1043930E+01  0.7957747E-01            NaN
         13   -1    0    0    0    0  0.00000000000E+00  0.00000000000E+00  0.74505805969E-08  0.10566000000E+00  0.10566000000E+00 0.  1.
     999900   -1    0    0    0    0 -0.00000000000E+00 -0.00000000000E+00 -0.74505805969E-08  0.93827000000E+00  0.93827000000E+00 0. -1.
     999902    2    1    2    0    0 -0.18928181103E-01 -0.90149585892E-03 -0.13908626046E-01  0.10204238601E+01  0.10201530844E+01 0.  0.
     999903    2    3    3    0    0 -0.12942344855E+00 -0.22718784382E-01 -0.12937300672E-01  0.13324510602E+00  0.17897271619E-01 0.  0.
         14    1    1    2    0    0  0.18928181103E-01  0.90149585892E-03  0.13908626046E-01  0.23506139903E-01  0.00000000000E+00 0. -1.
     999901    1    3    3    0    0  0.11049526745E+00  0.21817288523E-01 -0.97132537364E-03  0.88717875407E+00  0.88000000000E+00 0.  1.
        -11    1    4    4    0    0 -0.10057673554E+00 -0.18785832540E-01 -0.17402126801E-01  0.10378671578E+00  0.51100000000E-03 0. -1.
         11    1    4    4    0    0 -0.28846713017E-01 -0.39329518423E-02  0.44648261283E-02  0.29458390238E-01  0.51100000000E-03 0.  1.
</event>
<event>
 8    1  0.1161271E+005  0.1043930E+01  0.7957747E-01            NaN
         13   -1    0    0    0    0  0.00000000000E+00  0.00000000000E+00  0.74505805969E-08  0.10566000000E+00  0.10566000000E+00 0. -1.
     999900   -1    0    0    0    0 -0.00000000000E+00 -0.00000000000E+00 -0.74505805969E-08  0.93827000000E+00  0.93827000000E+00 0. -1.
     999902    2    1    2    0    0 -0.22800077069E-01 -0.88869476520E-03  0.82088428213E-02  0.10196809094E+01  0.10193925341E+01 0.  0.
     999903    2    3    3    0    0  0.56876377565E-01 -0.33323391815E-01 -0.10790539247E+00  0.12789457705E+00  0.19185368050E-01 0.  0.
         14    1    1    2    0    0  0.22800077069E-01  0.88869476520E-03 -0.82088428213E-02  0.24249090564E-01  0.00000000000E+00 0.  1.
     999901    1    3    3    0    0 -0.79676454634E-01  0.32434697050E-01  0.11611423529E+00  0.89178633239E+00  0.88000000000E+00 0.  1.
        -11    1    4    4    0    0  0.45703378140E-01 -0.17484421057E-01 -0.71422873430E-01  0.86579395488E-01  0.51100000000E-03 0. -1.
         11    1    4    4    0    0  0.11172999426E-01 -0.15838970759E-01 -0.36482519040E-01  0.41315181560E-01  0.51100000000E-03 0.  1.
</event>
<event>
 8    1  0.1161271E+005  0.1043930E+01  0.7957747E-01            NaN
         13   -1    0    0    0    0  0.00000000000E+00  0.00000000000E+00  0.74505805969E-08  0.10566000000E+00  0.10566000000E+00 0.  1.
     999900   -1    0    0    0    0 -0.00000000000E+00 -0.00000000000E+00 -0.74505805969E-08  0.93827000000E+00  0.93827000000E+00 0. -1.
     999902    2    1    2    0    0  0.21398272154E-01 -0.41253683741E-02 -0.73012824780E-02  0.10209471055E+01  0.10206883847E+01 0.  0.
     999903    2    3    3    0    0  0.41016741821E-01 -0.11726735556E+00  0.41843326956E-01  0.13212699641E+00  0.16512824761E-01 0.  0.
         14    1    1    2    0    0 -0.21398272154E-01  0.41253683741E-02  0.73012824780E-02  0.22982894535E-01  0.00000000000E+00 0. -1.
     999901    1    3    3    0    0 -0.19618469667E-01  0.11314198718E+00 -0.49144609434E-01  0.88882010905E+00  0.88000000000E+00 0. -1.
        -11    1    4    4    0    0  0.16638537315E-01 -0.29575725515E-01  0.69100345047E-02  0.34634869158E-01  0.51100000000E-03 0.  1.
         11    1    4    4    0    0  0.24378204506E-01 -0.87691630043E-01  0.34933292451E-01  0.97492127257E-01  0.51100000000E-03 0. -1.
</event>
<event>
 8    1  0.1161271E+005  0.1043930E+01  0.7957747E-01            NaN
         13   -1    0    0    0    0  0.00000000000E+00  0.00000000000E+00  0.74505805969E-08  0.10566000000E+00  0.10566000000E+00 0.  1.
     999900   -1    0    0    0    0 -0.00000000000E+00 -0.00000000000E+00 -0.74505805969E-08  0.93827000000E+00  0.93827000000E+00 0.  1.
     999902    2    1    2    0    0 -0.18058063751E-01  0.29235023879E-02  0.15761741223E-01  0.10197830950E+01  0.10194971741E+01 0.  0.
     999903    2    3    3    0    0 -0.12639834098E+00 -0.66633902219E-02  0.35139581115E-01  0.13287553230E+00  0.20004388285E-01 0.  0.
         14    1    1    2    0    0  0.18058063751E-01 -0.29235023879E-02 -0.15761741223E-01  0.24146904957E-01  0.00000000000E+00 0. -1.
     999901    1    3    3    0    0  0.10834027723E+00  0.95868926098E-02 -0.19377839892E-01  0.88690756275E+00  0.88000000000E+00 0.  1.
        -11    1    4    4    0    0 -0.81537143204E-01 -0.93197712421E-02  0.31050824643E-01  0.87747243204E-01  0.51100000000E-03 0.  1.
         11    1    4    4    0    0 -0.44861197774E-01  0.26563810202E-02  0.40887564717E-02  0.45128289092E-01  0.51100000000E-03 0. -1.
</event>
<event>
 8    1  0.1161271E+005  0.1043930E+01  0.7957747E-01            NaN
         13   -1    0    0    0    0  0.00000000000E+00  0.00000000000E+00  0.74505805969E-08  0.10566000000E+00  0.10566000000E+00 0.  1.
     999900   -1    0    0    0    0 -0.00000000000E+00 -0.00000000000E+00 -0.74505805969E-08  0.93827000000E+00  0.93827000000E+00 0.  1.
     999902    2    1    2    0    0  0.20268159702E-01  0.93618680242E-02  0.59015738648E-02  0.10208373292E+01  0.10205761026E+01 0.  0.
     999903    2    3    3    0    0  0.76832267827E-01  0.98931805302E-01 -0.40707957646E-01  0.13325932112E+00  0.20253626119E-01 0.  0.
         14    1    1    2    0    0 -0.20268159702E-01 -0.93618680242E-02 -0.59015738648E-02  0.23092670800E-01  0.00000000000E+00 0. -1.
     999901    1    3    3    0    0 -0.56564108125E-01 -0.89569937278E-01  0.46609531510E-01  0.88757800808E+00  0.88000000000E+00 0. -1.
        -11    1    4    4    0    0  0.13166463557E-01  0.27490272134E-01 -0.39157779271E-02  0.30735407308E-01  0.51100000000E-03 0.  1.
         11    1    4    4    0    0  0.63665804270E-01  0.71441533168E-01 -0.36792179718E-01  0.10252391382E+00  0.51100000000E-03 0. -1.
</event>
<event>
 8    1  0.1161271E+005  0.1043930E+01  0.7957747E-01            NaN
         13   -1    0    0    0    0  0.00000000000E+00  0.00000000000E+00  0.74505805969E-08  0.10566000000E+00  0.10566000000E+00 0. -1.
     999900   -1    0    0    0    0 -0.00000000000E+00 -0.00000000000E+00 -0.74505805969E-08  0.93827000000E+00  0.93827000000E+00 0.  1.
     999902    2    1    2    0    0  0.69011310679E-02  0.13747283712E-01  0.18190693872E-01  0.10201074316E+01  0.10198292295E+01 0.  0.
     999903    2    3    3    0    0  0.53624594131E-01 -0.10383448069E+00 -0.49409575280E-01  0.12849184760E+00  0.20289216205E-01 0.  0.
         14    1    1    2    0    0 -0.69011310679E-02 -0.13747283712E-01 -0.18190693872E-01  0.23822568355E-01  0.00000000000E+00 0.  1.
     999901    1    3    3    0    0 -0.46723463063E-01  0.11758176440E+00  0.67600269152E-01  0.89161558404E+00  0.88000000000E+00 0.  1.
        -11    1    4    4    0    0  0.13226349085E-01 -0.22617692451E-01 -0.20544660174E-01  0.33299256817E-01  0.51100000000E-03 0. -1.
         11    1    4    4    0    0  0.40398245047E-01 -0.81216788241E-01 -0.28864915106E-01  0.95192590784E-01  0.51100000000E-03 0.  1.
</event>
<event>
 8    1  0.1161271E+005  0.1043930E+01  0.7957747E-01            NaN
         13   -1    0    0    0    0  0.00000000000E+00  0.00000000000E+00  0.74505805969E-08  0.10566000000E+00  0.10566000000E+00 0.  1.
     999900   -1    0    0    0    0 -0.00000000000E+00 -0.00000000000E+00 -0.74505805969E-08  0.93827000000E+00  0.93827000000E+00 0.  1.
     999902    2    1    2    0    0 -0.19870072086E-01 -0.65392900347E-02  0.93880379979E-02  0.10210014733E+01  0.10207439890E+01 0.  0.
     999903    2    3    3    0    0 -0.80592525893E-01  0.17582442175E-01 -0.10078326656E+00  0.13172829216E+00  0.19768121633E-01 0.  0.
         14    1    1    2    0    0  0.19870072086E-01  0.65392900347E-02 -0.93880379979E-02  0.22928526693E-01  0.00000000000E+00 0. -1.
     999901    1    3    3    0    0  0.60722453807E-01 -0.24121732210E-01  0.11017130456E+00  0.88927318115E+00  0.88000000000E+00 0. -1.
        -11    1    4    4    0    0 -0.52292466558E-01  0.44142585726E-02 -0.52505920930E-01  0.74236922021E-01  0.51100000000E-03 0.  1.
         11    1    4    4    0    0 -0.28300059335E-01  0.13168183603E-01 -0.48277345634E-01  0.57491370137E-01  0.51100000000E-03 0. -1.
</event>
<event>
 8    1  0.1161271E+005  0.1043930E+01  0.7957747E-01            NaN
         13   -1    0    0    0    0  0.00000000000E+00  0.00000000000E+00  0.74505805969E-08  0.10566000000E+00  0.10566000000E+00 0.  1.
     999900   -1    0    0    0    0 -0.00000000000E+00 -0.00000000000E+00 -0.74505805969E-08  0.93827000000E+00  0.93827000000E+00 0. -1.
     999902    2    1    2    0    0 -0.10378143857E-01  0.28147764480E-02  0.21113441841E-01  0.10202359868E+01  0.10199608142E+01 0.  0.
     999903    2    3    3    0    0 -0.84523739959E-01 -0.96184109206E-01 -0.17187547288E-01  0.13076124596E+00  0.20185296187E-01 0.  0.
         14    1    1    2    0    0  0.10378143857E-01 -0.28147764480E-02 -0.21113441841E-01  0.23694013226E-01  0.00000000000E+00 0. -1.
     999901    1    3    3    0    0  0.74145596103E-01  0.98998885654E-01  0.38300989129E-01  0.88947474082E+00  0.88000000000E+00 0.  1.
        -11    1    4    4    0    0 -0.18276080952E-01 -0.33658733198E-01 -0.86332082877E-02  0.39264727961E-01  0.51100000000E-03 0.  1.
         11    1    4    4    0    0 -0.66247659008E-01 -0.62525376008E-01 -0.85543390003E-02  0.91496517997E-01  0.51100000000E-03 0. -1.
</event>
<event>
 8    1  0.1161271E+005  0.1043930E+01  0.7957747E-01            NaN
         13   -1    0    0    0    0  0.00000000000E+00  0.00000000000E+00  0.74505805969E-08  0.10566000000E+00  0.10566000000E+00 0. -1.
     999900   -1    0    0    0    0 -0.00000000000E+00 -0.00000000000E+00 -0.74505805969E-08  0.93827000000E+00  0.93827000000E+00 0.  1.
     999902    2    1    2    0    0 -0.16666536651E-01  0.13414668875E-02 -0.17366390244E-01  0.10198226466E+01  0.10195376727E+01 0.  0.
     999903    2    3    3    0    0 -0.62769777550E-01  0.19001193964E-01 -0.11420150538E+00  0.13313532049E+00  0.19543269537E-01 0.  0.
         14    1    1    2    0    0  0.16666536651E-01 -0.13414668875E-02  0.17366390244E-01  0.24107353390E-01  0.00000000000E+00 0. -1.
     999901    1    3    3    0    0  0.46103240898E-01 -0.17659727076E-01  0.96835115138E-01  0.88668732612E+00  0.88000000000E+00 0. -1.
        -11    1    4    4    0    0 -0.25426830447E-01  0.13832409458E-01 -0.35028121519E-01  0.45443257764E-01  0.51100000000E-03 0.  1.
         11    1    4    4    0    0 -0.37342947102E-01  0.51687845059E-02 -0.79173383863E-01  0.87692062724E-01  0.51100000000E-03 0. -1.
</event>
<event>
 8    1  0.1161271E+005  0.1043930E+01  0.7957747E-01            NaN
         13   -1    0    0    0    0  0.00000000000E+00  0.00000000000E+00  0.74505805969E-08  0.10566000000E+00  0.10566000000E+00 0. -1.
     999900   -1    0    0    0    0 -0.00000000000E+00 -0.00000000000E+00 -0.74505805969E-08  0.93827000000E+00  0.93827000000E+00 0.  1.
     999902    2    1    2    0    0  0.15397706754E-01 -0.12612942660E-01 -0.61426809424E-02  0.10230995361E+01  0.10228874584E+01 0.  0.
     999903    2    3    3    0    0  0.69344297211E-01  0.80498283577E-01  0.77020553811E-01  0.13265242446E+00  0.19388006360E-01 0.  0.
         14    1    1    2    0    0 -0.15397706754E-01  0.12612942660E-01  0.61426809424E-02  0.20830463869E-01  0.00000000000E+00 0. -1.
     999901    1    3    3    0    0 -0.53946590456E-01 -0.93111226237E-01 -0.83163234753E-01  0.89044711167E+00  0.88000000000E+00 0.  1.
        -11    1    4    4    0    0  0.36886198110E-01  0.54122381326E-01  0.54131565355E-01  0.84972414702E-01  0.51100000000E-03 0. -1.
         11    1    4    4    0    0  0.32458099101E-01  0.26375902251E-01  0.22888988455E-01  0.47680009756E-01  0.51100000000E-03 0.  1.
</event>
<event>
 8    1  0.1161271E+005  0.1043930E+01  0.7957747E-01            NaN
         13   -1    0    0    0    0  0.00000000000E+00  0.00000000000E+00  0.74505805969E-08  0.10566000000E+00  0.10566000000E+00 0.  1.
     999900   -1    0    0    0    0 -0.00000000000E+00 -0.00000000000E+00 -0.74505805969E-08  0.93827000000E+00  0.93827000000E+00 0. -1.
     999902    2    1    2    0    0 -0.13757384548E-01  0.88256255190E-02 -0.20546979672E-01  0.10176747973E+01  0.10173360592E+01 0.  0.
     999903    2    3    3    0    0  0.50876116606E-01  0.10830138185E+00 -0.44928077336E-01  0.12938016515E+00  0.20078009117E-01 0.  0.
         14    1    1    2    0    0  0.13757384548E-01 -0.88256255190E-02  0.20546979672E-01  0.26255202704E-01  0.00000000000E+00 0.  1.
     999901    1    3    3    0    0 -0.64633501154E-01 -0.99475756333E-01  0.24381097665E-01  0.88829463214E+00  0.88000000000E+00 0. -1.
        -11    1    4    4    0    0  0.27357190026E-01  0.35719978472E-01 -0.15171317081E-01  0.47484341537E-01  0.51100000000E-03 0.  1.
         11    1    4    4    0    0  0.23518926580E-01  0.72581403380E-01 -0.29756760255E-01  0.81895823617E-01  0.51100000000E-03 0. -1.
</event>
<event>
 8    1  0.1161271E+005  0.1043930E+01  0.7957747E-01            NaN
         13   -1    0    0    0    0  0.00000000000E+00  0.00000000000E+00  0.74505805969E-08  0.10566000000E+00  0.10566000000E+00 0.  1.
     999900   -1    0    0    0    0 -0.00000000000E+00 -0.00000000000E+00 -0.74505805969E-08  0.93827000000E+00  0.93827000000E+00 0. -1.
     999902    2    1    2    0    0  0.20353845513E-01  0.56808871992E-03 -0.10913513273E-01  0.10208279108E+01  0.10205664687E+01 0.  0.
     999903    2    3    3    0    0  0.23183285562E-01  0.38049666390E-01 -0.12355397663E+00  0.13285226455E+00  0.19972411334E-01 0.  0.
         14    1    1    2    0    0 -0.20353845513E-01 -0.56808871992E-03  0.10913513273E-01  0.23102089168E-01  0.00000000000E+00 0.  1.
     999901    1    3    3    0    0 -0.28294400492E-02 -0.37481577670E-01  0.11264046336E+00  0.88797564628E+00  0.88000000000E+00 0.  1.
        -11    1    4    4    0    0  0.24019061542E-01  0.39766932913E-01 -0.12106329337E+00  0.12967230388E+00  0.51100000000E-03 0. -1.
         11    1    4    4    0    0 -0.83577597976E-03 -0.17172665229E-02 -0.24906832573E-02  0.31799606739E-02  0.51100000000E-03 0.  1.
</event>
<event>
 8    1  0.1161271E+005  0.1043930E+01  0.7957747E-01            NaN
         13   -1    0    0    0    0  0.00000000000E+00  0.00000000000E+00  0.74505805969E-08  0.10566000000E+00  0.10566000000E+00 0. -1.
     999900   -1    0    0    0    0 -0.00000000000E+00 -0.00000000000E+00 -0.74505805969E-08  0.93827000000E+00  0.93827000000E+00 0.  1.
     999902    2    1    2    0    0 -0.80932910480E-02  0.21780478812E-01 -0.10210674290E-02  0.10206720294E+01  0.10204070063E+01 0.  0.
     999903    2    3    3    0    0  0.38623739998E-01  0.56914947614E-01  0.11060870143E+00  0.13169614831E+00  0.19454719074E-01 0.  0.
         14    1    1    2    0    0  0.80932910480E-02 -0.21780478812E-01  0.10210674290E-02  0.23257970590E-01  0.00000000000E+00 0.  1.
     999901    1    3    3    0    0 -0.46717031046E-01 -0.35134468802E-01 -0.11162976886E+00  0.88897588110E+00  0.88000000000E+00 0.  1.
        -11    1    4    4    0    0  0.19483128381E-01  0.24762357865E-01  0.33533747761E-01  0.46016736286E-01  0.51100000000E-03 0. -1.
         11    1    4    4    0    0  0.19140611618E-01  0.32152589749E-01  0.77074953666E-01  0.85679412022E-01  0.51100000000E-03 0.  1.
</event>
<event>
 8    1  0.1161271E+005  0.1043930E+01  0.7957747E-01            NaN
         13   -1    0    0    0    0  0.00000000000E+00  0.00000000000E+00  0.74505805969E-08  0.10566000000E+00  0.10566000000E+00 0. -1.
     999900   -1    0    0    0    0 -0.00000000000E+00 -0.00000000000E+00 -0.74505805969E-08  0.93827000000E+00  0.93827000000E+00 0. -1.
     999902    2    1    2    0    0  0.23660313161E-01 -0.25853007732E-01  0.23774346812E-02  0.10088039324E+01  0.10081922106E+01 0.  0.
     999903    2    3    3    0    0  0.90931797125E-02  0.11010369118E+00  0.32743843957E-01  0.11772675049E+00  0.24123012524E-01 0.  0.
         14    1    1    2    0    0 -0.23660313161E-01  0.25853007732E-01 -0.23774346812E-02  0.35126067576E-01  0.00000000000E+00 0.  1.
     999901    1    3    3    0    0  0.14567133448E-01 -0.13595669892E+00 -0.30366409276E-01  0.89107718194E+00  0.88000000000E+00 0. -1.
        -11    1    4    4    0    0  0.66338317442E-02  0.43524258737E-01  0.25050486902E-01  0.50657248615E-01  0.51100000000E-03 0. -1.
         11    1    4    4    0    0  0.24593479683E-02  0.66579432448E-01  0.76933570548E-02  0.67069501872E-01  0.51100000000E-03 0.  1.
</event>
<event>
 8    1  0.1161271E+005  0.1043930E+01  0.7957747E-01            NaN
         13   -1    0    0    0    0  0.00000000000E+00  0.00000000000E+00  0.74505805969E-08  0.10566000000E+00  0.10566000000E+00 0.  1.
     999900   -1    0    0    0    0 -0.00000000000E+00 -0.00000000000E+00 -0.74505805969E-08  0.93827000000E+00  0.93827000000E+00 0. -1.
     999902    2    1    2    0    0 -0.15766316732E-01 -0.13131471244E-01  0.11687423754E-01  0.10203162719E+01  0.10200429827E+01 0.  0.
     999903    2    3    3    0    0  0.10536530675E+00  0.49077682712E-01  0.52166079735E-01  0.12892333351E+00  0.19734721683E-01 0.  0.
         14    1    1    2    0    0  0.15766316732E-01  0.13131471244E-01 -0.11687423754E-01  0.23613728091E-01  0.00000000000E+00 0. -1.
     999901    1    3    3    0    0 -0.12113162349E+00 -0.62209153957E-01 -0.40478655981E-01  0.89139293840E+00  0.88000000000E+00 0. -1.
        -11    1    4    4    0    0  0.83755671914E-01  0.35045589242E-01  0.32240866641E-01  0.96348017654E-01  0.51100000000E-03 0.  1.
         11    1    4    4    0    0  0.21609634839E-01  0.14032093471E-01  0.19925213094E-01  0.32575315853E-01  0.51100000000E-03 0. -1.
</event>
<event>
 8    1  0.1161271E+005  0.1043930E+01  0.7957747E-01            NaN
         13   -1    0    0    0    0  0.00000000000E+00  0.00000000000E+00  0.74505805969E-08  0.10566000000E+00  0.10566000000E+00 0.  1.
     999900   -1    0    0    0    0 -0.00000000000E+00 -0.00000000000E+00 -0.74505805969E-08  0.93827000000E+00  0.93827000000E+00 0.  1.
     999902    2    1    2    0    0  0.74238961931E-02  0.25411776404E-02 -0.30932611876E-01  0.10120176467E+01  0.10115143691E+01 0.  0.
     999903    2    3    3    0    0 -0.72575008170E-01 -0.48639339302E-01  0.79599373483E-01  0.12003301125E+00  0.20951047519E-01 0.  0.
         14    1    1    2    0    0 -0.74238961931E-02 -0.25411776404E-02  0.30932611876E-01  0.31912353344E-01  0.00000000000E+00 0.  1.
     999901    1    3    3    0    0  0.79998904363E-01  0.51180516943E-01 -0.11053198536E+00  0.89198463541E+00  0.88000000000E+00 0.  1.
        -11    1    4    4    0    0 -0.31187160953E-01 -0.25778376209E-01  0.24004854477E-01  0.47049525479E-01  0.51100000000E-03 0.  1.
         11    1    4    4    0    0 -0.41387847217E-01 -0.22860963093E-01  0.55594519006E-01  0.72983485771E-01  0.51100000000E-03 0. -1.
</event>
<event>
 8    1  0.1161271E+005  0.1043930E+01  0.7957747E-01            NaN
         13   -1    0    0    0    0  0.00000000000E+00  0.00000000000E+00  0.74505805969E-08  0.10566000000E+00  0.10566000000E+00 0.  1.
     999900   -1    0    0    0    0 -0.00000000000E+00 -0.00000000000E+00 -0.74505805969E-08  0.93827000000E+00  0.93827000000E+00 0. -1.
     999902    2    1    2    0    0  0.23438899110E-01  0.54486904301E-03  0.10986970927E-03  0.10204845112E+01  0.10202151472E+01 0.  0.
     999903    2    3    3    0    0  0.11990823635E+00 -0.32172366059E-01  0.44660931075E-01  0.13348871213E+00  0.20287711025E-01 0.  0.
         14    1    1    2    0    0 -0.23438899110E-01 -0.54486904301E-03 -0.10986970927E-03  0.23445488800E-01  0.00000000000E+00 0.  1.
     999901    1    3    3    0    0 -0.96469337241E-01  0.32717235102E-01 -0.44551061366E-01  0.88699579907E+00  0.88000000000E+00 0.  1.
        -11    1    4    4    0    0  0.90922216194E-01 -0.15149371788E-01  0.32719956556E-01  0.97812113469E-01  0.51100000000E-03 0. -1.
         11    1    4    4    0    0  0.28986020157E-01 -0.17022994270E-01  0.11940974519E-01  0.35676598660E-01  0.51100000000E-03 0.  1.
</event>
<event>
 8    1  0.1161271E+005  0.1043930E+01  0.7957747E-01            NaN
         13   -1    0    0    0    0  0.00000000000E+00  0.00000000000E+00  0.74505805969E-08  0.10566000000E+00  0.10566000000E+00 0. -1.
     999900   -1    0    0    0    0 -0.00000000000E+00 -0.00000000000E+00 -0.74505805969E-08  0.93827000000E+00  0.93827000000E+00 0. -1.
     999902    2    1    2    0    0  0.17054569992E-03 -0.24156227226E-01 -0.17668561958E-02  0.10197086421E+01  0.10194209339E+01 0.  0.
     999903    2    3    3    0    0 -0.57096606957E-01  0.52638262891E-01 -0.10103455838E+00  0.12896120469E+00  0.19804067279E-01 0.  0.
         14    1    1    2    0    0 -0.17054569992E-03  0.24156227226E-01  0.17668561958E-02  0.24221357940E-01  0.00000000000E+00 0. -1.
     999901    1    3    3    0    0  0.57267152657E-01 -0.76794490116E-01  0.99267702189E-01  0.89074743737E+00  0.88000000000E+00 0.  1.
        -11    1    4    4    0    0 -0.79371488622E-03  0.85897539795E-02 -0.10158816845E-01  0.13337036306E-01  0.51100000000E-03 0. -1.
         11    1    4    4    0    0 -0.56302892071E-01  0.44048508911E-01 -0.90875741540E-01  0.11562416838E+00  0.51100000000E-03 0.  1.
</event>
<event>
 8    1  0.1161271E+005  0.1043930E+01  0.7957747E-01            NaN
         13   -1    0    0    0    0  0.00000000000E+00  0.00000000000E+00  0.74505805969E-08  0.10566000000E+00  0.10566000000E+00 0.  1.
     999900   -1    0    0    0    0 -0.00000000000E+00 -0.00000000000E+00 -0.74505805969E-08  0.93827000000E+00  0.93827000000E+00 0.  1.
     999902    2    1    2    0    0  0.23405389515E-02 -0.10360757922E-01 -0.17195813985E-01  0.10237181360E+01  0.10235185893E+01 0.  0.
     999903    2    3    3    0    0  0.27226137920E-01  0.11291984750E-01  0.12655685131E+00  0.13144409566E+00  0.19802579729E-01 0.  0.
         14    1    1    2    0    0 -0.23405389515E-02  0.10360757922E-01  0.17195813985E-01  0.20211863989E-01  0.00000000000E+00 0. -1.
     999901    1    3    3    0    0 -0.24885598969E-01 -0.21652742672E-01 -0.14375266530E+00  0.89227404035E+00  0.88000000000E+00 0.  1.
        -11    1    4    4    0    0  0.23919529568E-01  0.14059070314E-01  0.79823563855E-01  0.84509548694E-01  0.51100000000E-03 0. -1.
         11    1    4    4    0    0  0.33066083525E-02 -0.27670855640E-02  0.46733287460E-01  0.46934546968E-01  0.51100000000E-03 0.  1.
</event>
<event>
 8    1  0.1161271E+005  0.1043930E+01  0.7957747E-01            NaN
         13   -1    0    0    0    0  0.00000000000E+00  0.00000000000E+00  0.74505805969E-08  0.10566000000E+00  0.10566000000E+00 0.  1.
     999900   -1    0    0    0    0 -0.00000000000E+00 -0.00000000000E+00 -0.74505805969E-08  0.93827000000E+00  0.93827000000E+00 0.  1.
     999902    2    1    2    0    0  0.20532285110E-01  0.11024405930E-01  0.37876141244E-02  0.10203194456E+01  0.10200462307E+01 0.  0.
     999903    2    3    3    0    0  0.43611355329E-01  0.83737301489E-01  0.91454020668E-01  0.13267919894E+00  0.18056742824E-01 0.  0.
         14    1    1    2    0    0 -0.20532285110E-01 -0.11024405930E-01 -0.37876141244E-02  0.23610554392E-01  0.00000000000E+00 0.  1.
     999901    1    3    3    0    0 -0.23079070219E-01 -0.72712895559E-01 -0.87666406544E-01  0.88764024666E+00  0.88000000000E+00 0.  1.
        -11    1    4    4    0    0  0.21866480593E-01  0.50634799723E-01  0.42050927425E-01  0.69358254986E-01  0.51100000000E-03 0.  1.
         11    1    4    4    0    0  0.21744874737E-01  0.33102501766E-01  0.49403093244E-01  0.63320943956E-01  0.51100000000E-03 0. -1.
</event>
<event>
 8    1  0.1161271E+005  0.1043930E+01  0.7957747E-01            NaN
         13   -1    0    0    0    0  0.00000000000E+00  0.00000000000E+00  0.74505805969E-08  0.10566000000E+00  0.10566000000E+00 0.  1.
     999900   -1    0    0    0    0 -0.00000000000E+00 -0.00000000000E+00 -0.74505805969E-08  0.93827000000E+00  0.93827000000E+00 0.  1.
     999902    2    1    2    0    0  0.76468946922E-02  0.81883231029E-02  0.21599930567E-01  0.10195972929E+01  0.10193069013E+01 0.  0.
     999903    2    3    3    0    0  0.50634656270E-01 -0.94433737246E-01 -0.67484397173E-01  0.12812926075E+00  0.19528554820E-01 0.  0.
         14    1    1    2    0    0 -0.76468946922E-02 -0.81883231029E-02 -0.21599930567E-01  0.24332707087E-01  0.00000000000E+00 0.  1.
     999901    1    3    3    0    0 -0.42987761578E-01  0.10262206035E+00  0.89084327740E-01  0.89146803216E+00  0.88000000000E+00 0. -1.
        -11    1    4    4    0    0  0.32846771468E-01 -0.51076824852E-01 -0.28116195031E-01  0.66921849772E-01  0.51100000000E-03 0. -1.
         11    1    4    4    0    0  0.17787884802E-01 -0.43356912394E-01 -0.39368202143E-01  0.61207410981E-01  0.51100000000E-03 0.  1.
</event>
<event>
 8    1  0.1161271E+005  0.1043930E+01  0.7957747E-01            NaN
         13   -1    0    0    0    0  0.00000000000E+00  0.00000000000E+00  0.74505805969E-08  0.10566000000E+00  0.10566000000E+00 0.  1.
     999900   -1    0    0    0    0 -0.00000000000E+00 -0.00000000000E+00 -0.74505805969E-08  0.93827000000E+00  0.93827000000E+00 0. -1.
     999902    2    1    2    0    0  0.16869814387E-01 -0.15191693632E-01  0.40127427613E-02  0.10208761435E+01  0.10206158044E+01 0.  0.
     999903    2    3    3    0    0  0.29310854021E-01  0.62762086102E-01  0.10935865698E+00  0.13108440787E+00  0.20630087579E-01 0.  0.
         14    1    1    2    0    0 -0.16869814387E-01  0.15191693632E-01 -0.40127427613E-02  0.23053856453E-01  0.00000000000E+00 0. -1.
     999901    1    3    3    0    0 -0.12441039633E-01 -0.77953779734E-01 -0.10534591422E+00  0.88979173568E+00  0.88000000000E+00 0. -1.
        -11    1    4    4    0    0  0.27892591991E-01  0.44775178892E-01  0.68859994486E-01  0.86745451145E-01  0.51100000000E-03 0. -1.
         11    1    4    4    0    0  0.14182620298E-02  0.17986907211E-01  0.40498662497E-01  0.44338956722E-01  0.51100000000E-03 0.  1.
</event>
<event>
 8    1  0.1161271E+005  0.1043930E+01  0.7957747E-01            NaN
         13   -1    0    0    0    0  0.00000000000E+00  0.00000000000E+00  0.74505805969E-08  0.10566000000E+00  0.10566000000E+00 0. -1.
     999900   -1    0    0    0    0 -0.00000000000E+00 -0.00000000000E+00 -0.74505805969E-08  0.93827000000E+00  0.93827000000E+00 0.  1.
     999902    2    1    2    0    0  0.11584105648E-01  0.15410554118E-01 -0.14546169427E-01  0.10197790636E+01  0.10194930460E+01 0.  0.
     999903    2    3    3    0    0 -0.12149402155E-01  0.11537876900E+00 -0.60927899054E-01  0.13258788457E+00  0.20185884747E-01 0.  0.
         14    1    1    2    0    0 -0.11584105648E-01 -0.15410554118E-01  0.14546169427E-01  0.24150936356E-01  0.00000000000E+00 0.  1.
     999901    1    3    3    0    0  0.23733507803E-01 -0.99968214884E-01  0.46381729627E-01  0.88719117907E+00  0.88000000000E+00 0. -1.
        -11    1    4    4    0    0 -0.88171998725E-02  0.93900168781E-01 -0.40118605123E-01  0.10249267441E+00  0.51100000000E-03 0.  1.
         11    1    4    4    0    0 -0.33322022824E-02  0.21478600221E-01 -0.20809293931E-01  0.30095210158E-01  0.51100000000E-03 0. -1.
</event>
<event>
 8    1  0.1161271E+005  0.1043930E+01  0.7957747E-01            NaN
         13   -1    0    0    0    0  0.00000000000E+00  0.00000000000E+00  0.74505805969E-08  0.10566000000E+00  0.10566000000E+00 0.  1.
     999900   -1    0    0    0    0 -0.00000000000E+00 -0.00000000000E+00 -0.74505805969E-08  0.93827000000E+00  0.93827000000E+00 0. -1.
     999902    2    1    2    0    0  0.14245795678E-01  0.17331006681E-01  0.48619588276E-02  0.10209747145E+01  0.10207166221E+01 0.  0.
     999903    2    3    3    0    0  0.50209069220E-01 -0.74696033539E-01 -0.91881568243E-01  0.13017639662E+00  0.20080428165E-01 0.  0.
         14    1    1    2    0    0 -0.14245795678E-01 -0.17331006681E-01 -0.48619588276E-02  0.22955285464E-01  0.00000000000E+00 0. -1.
     999901    1    3    3    0    0 -0.35963273541E-01  0.92027040220E-01  0.96743527071E-01  0.89079831792E+00  0.88000000000E+00 0.  1.
        -11    1    4    4    0    0  0.33691526234E-01 -0.45911474891E-01 -0.44244659249E-01  0.72116804281E-01  0.51100000000E-03 0. -1.
         11    1    4    4    0    0  0.16517542986E-01 -0.28784558648E-01 -0.47636908994E-01  0.58059592337E-01  0.51100000000E-03 0.  1.
</event>
<event>
 8    1  0.1161271E+005  0.1043930E+01  0.7957747E-01            NaN
         13   -1    0    0    0    0  0.00000000000E+00  0.00000000000E+00  0.74505805969E-08  0.10566000000E+00  0.10566000000E+00 0.  1.
     999900   -1    0    0    0    0 -0.00000000000E+00 -0.00000000000E+00 -0.74505805969E-08  0.93827000000E+00  0.93827000000E+00 0. -1.
     999902    2    1    2    0    0  0.98335307635E-02 -0.85889231156E-02  0.19511231268E-01  0.10204532866E+01  0.10201831963E+01 0.  0.
     999903    2    3    3    0    0  0.32824781112E-01  0.10055302015E+00 -0.70720555982E-01  0.12883546666E+00  0.20218909818E-01 0.  0.
         14    1    1    2    0    0 -0.98335307635E-02  0.85889231156E-02 -0.19511231268E-01  0.23476713423E-01  0.00000000000E+00 0. -1.
     999901    1    3    3    0    0 -0.22991250349E-01 -0.10914194326E+00  0.90231787250E-01  0.89161781992E+00  0.88000000000E+00 0.  1.
        -11    1    4    4    0    0  0.38067606004E-02  0.17519414404E-01 -0.21649642786E-01  0.28113865993E-01  0.51100000000E-03 0.  1.
         11    1    4    4    0    0  0.29018020512E-01  0.83033605743E-01 -0.49070913197E-01  0.10072160066E+00  0.51100000000E-03 0. -1.
</event>
<event>
 8    1  0.1161271E+005  0.1043930E+01  0.7957747E-01            NaN
         13   -1    0    0    0    0  0.00000000000E+00  0.00000000000E+00  0.74505805969E-08  0.10566000000E+00  0.10566000000E+00 0. -1.
     999900   -1    0    0    0    0 -0.00000000000E+00 -0.00000000000E+00 -0.74505805969E-08  0.93827000000E+00  0.93827000000E+00 0. -1.
     999902    2    1    2    0    0 -0.42310044573E-02  0.88588947214E-02  0.21214524227E-01  0.10205539984E+01  0.10202862471E+01 0.  0.
     999903    2    3    3    0    0 -0.56344465195E-01  0.17828072323E-01  0.11821033603E+00  0.13364676170E+00  0.19880504220E-01 0.  0.
         14    1    1    2    0    0  0.42310044573E-02 -0.88588947214E-02 -0.21214524227E-01  0.23376001638E-01  0.00000000000E+00 0.  1.
     999901    1    3    3    0    0  0.52113460738E-01 -0.89691776020E-02 -0.96995811800E-01  0.88690723666E+00  0.88000000000E+00 0. -1.
        -11    1    4    4    0    0 -0.11065163041E-01  0.11253257006E-01  0.21681547798E-01  0.26822085346E-01  0.51100000000E-03 0.  1.
         11    1    4    4    0    0 -0.45279302154E-01  0.65748153175E-02  0.96528788230E-01  0.10682467635E+00  0.51100000000E-03 0. -1.
</event>
<event>
 8    1  0.1161271E+005  0.1043930E+01  0.7957747E-01            NaN
         13   -1    0    0    0    0  0.00000000000E+00  0.00000000000E+00  0.74505805969E-08  0.10566000000E+00  0.10566000000E+00 0. -1.
     999900   -1    0    0    0    0 -0.00000000000E+00 -0.00000000000E+00 -0.74505805969E-08  0.93827000000E+00  0.93827000000E+00 0.  1.
     999902    2    1    2    0    0  0.84292478988E-02  0.11550438116E-01 -0.14879096926E-01  0.10232938093E+01  0.10230857089E+01 0.  0.
     999903    2    3    3    0    0  0.36011718139E-01  0.11406363954E+00 -0.60949888301E-01  0.13571718335E+00  0.19922531600E-01 0.  0.
         14    1    1    2    0    0 -0.84292478988E-02 -0.11550438116E-01  0.14879096926E-01  0.20636190689E-01  0.00000000000E+00 0. -1.
     999901    1    3    3    0    0 -0.27582470240E-01 -0.10251320142E+00  0.46070791376E-01  0.88757662596E+00  0.88000000000E+00 0. -1.
        -11    1    4    4    0    0  0.14381553494E-01  0.19729689018E-01 -0.10621075894E-01  0.26630022226E-01  0.51100000000E-03 0.  1.
         11    1    4    4    0    0  0.21630164645E-01  0.94333950520E-01 -0.50328812408E-01  0.10908716113E+00  0.51100000000E-03 0. -1.
</event>
<event>
 8    1  0.1161271E+005  0.1043930E+01  0.7957747E-01            NaN
         13   -1    0    0    0    0  0.00000000000E+00  0.00000000000E+00  0.74505805969E-08  0.10566000000E+00  0.10566000000E+00 0.  1.
     999900   -1    0    0    0    0 -0.00000000000E+00 -0.00000000000E+00 -0.74505805969E-08  0.93827000000E+00  0.93827000000E+00 0. -1.
     999902    2    1    2    0    0  0.13125035456E-01  0.18423091862E-01 -0.68474227053E-02  0.10202960400E+01  0.10200222768E+01 0.  0.
     999903    2    3    3    0    0  0.77494624264E-01 -0.31147124533E-01  0.98339557617E-01  0.13031573054E+00  0.18329235621E-01 0.  0.
         14    1    1    2    0    0 -0.13125035456E-01 -0.18423091862E-01  0.68474227053E-02  0.23633960041E-01  0.00000000000E+00 0.  1.
     999901    1    3    3    0    0 -0.64369588808E-01  0.49570216395E-01 -0.10518698032E+00  0.88998030941E+00  0.88000000000E+00 0. -1.
        -11    1    4    4    0    0  0.67995962843E-01 -0.23856638847E-01  0.74590780600E-01  0.10371420275E+00  0.51100000000E-03 0.  1.
         11    1    4    4    0    0  0.94986614216E-02 -0.72904856855E-02  0.23748777017E-01  0.26601527797E-01  0.51100000000E-03 0. -1.
</event>
<event>
 8    1  0.1161271E+005  0.1043930E+01  0.7957747E-01            NaN
         13   -1    0    0    0    0  0.00000000000E+00  0.00000000000E+00  0.74505805969E-08  0.10566000000E+00  0.10566000000E+00 0.  1.
     999900   -1    0    0    0    0 -0.00000000000E+00 -0.00000000000E+00 -0.74505805969E-08  0.93827000000E+00  0.93827000000E+00 0.  1.
     999902    2    1    2    0    0 -0.56729469858E-02 -0.23399981036E-01  0.59898125358E-02  0.10191183234E+01  0.10188162434E+01 0.  0.
     999903    2    3    3    0    0 -0.23662057100E-01 -0.80862633154E-01 -0.98181710320E-01  0.13093069086E+00  0.20113159411E-01 0.  0.
         14    1    1    2    0    0  0.56729469858E-02  0.23399981036E-01 -0.59898125358E-02  0.24811676570E-01  0.00000000000E+00 0.  1.
     999901    1    3    3    0    0  0.17989110114E-01  0.57462652118E-01  0.10417152286E+00  0.88818763257E+00  0.88000000000E+00 0. -1.
        -11    1    4    4    0    0  0.25891023379E-02 -0.15132628350E-01 -0.23146038390E-01  0.27779490741E-01  0.51100000000E-03 0.  1.
         11    1    4    4    0    0 -0.26251159438E-01 -0.65730004805E-01 -0.75035671930E-01  0.10315120012E+00  0.51100000000E-03 0. -1.
</event>
<event>
 8    1  0.1161271E+005  0.1043930E+01  0.7957747E-01            NaN
         13   -1    0    0    0    0  0.00000000000E+00  0.00000000000E+00  0.74505805969E-08  0.10566000000E+00  0.10566000000E+00 0.  1.
     999900   -1    0    0    0    0 -0.00000000000E+00 -0.00000000000E+00 -0.74505805969E-08  0.93827000000E+00  0.93827000000E+00 0.  1.
     999902    2    1    2    0    0  0.10796748780E-01 -0.17722150326E-01 -0.10838187879E-01  0.10205182356E+01  0.10202496550E+01 0.  0.
     999903    2    3    3    0    0  0.12855116147E+00  0.20129853989E-01 -0.86834855988E-02  0.13186559328E+00  0.19558109102E-01 0.  0.
         14    1    1    2    0    0 -0.10796748780E-01  0.17722150326E-01  0.10838187879E-01  0.23411764412E-01  0.00000000000E+00 0.  1.
     999901    1    3    3    0    0 -0.11775441269E+00 -0.37852004315E-01 -0.21547022804E-02  0.88865264231E+00  0.88000000000E+00 0.  1.
        -11    1    4    4    0    0  0.61702914633E-01  0.18989322949E-01 -0.75015506169E-02  0.64995218616E-01  0.51100000000E-03 0.  1.
         11    1    4    4    0    0  0.66848246838E-01  0.11405310404E-02 -0.11819349819E-02  0.66870374664E-01  0.51100000000E-03 0. -1.
</event>
<event>
 8    1  0.1161271E+005  0.1043930E+01  0.7957747E-01            NaN
         13   -1    0    0    0    0  0.00000000000E+00  0.00000000000E+00  0.74505805969E-08  0.10566000000E+00  0.10566000000E+00 0. -1.
     999900   -1    0    0    0    0 -0.00000000000E+00 -0.00000000000E+00 -0.74505805969E-08  0.93827000000E+00  0.93827000000E+00 0.  1.
     999902    2    1    2    0    0  0.34716741957E-02  0.83395456278E-02 -0.21040244083E-01  0.10210325675E+01  0.10207757891E+01 0.  0.
     999903    2    3    3    0    0 -0.90786551751E-01  0.47986969238E-01  0.73393925418E-01  0.13009242154E+00  0.31502740481E-01 0.  0.
         14    1    1    2    0    0 -0.34716741957E-02 -0.83395456278E-02  0.21040244083E-01  0.22897432477E-01  0.00000000000E+00 0. -1.
     999901    1    3    3    0    0  0.94258225947E-01 -0.39647423611E-01 -0.94434169501E-01  0.89094014598E+00  0.88000000000E+00 0.  1.
        -11    1    4    4    0    0 -0.48124927528E-01  0.42624984891E-01  0.40921853016E-01  0.76208642304E-01  0.51100000000E-03 0. -1.
         11    1    4    4    0    0 -0.42661624223E-01  0.53619843478E-02  0.32472072402E-01  0.53883779235E-01  0.51100000000E-03 0.  1.
</event>
<event>
 8    1  0.1161271E+005  0.1043930E+01  0.7957747E-01            NaN
         13   -1    0    0    0    0  0.00000000000E+00  0.00000000000E+00  0.74505805969E-08  0.10566000000E+00  0.10566000000E+00 0. -1.
     999900   -1    0    0    0    0 -0.00000000000E+00 -0.00000000000E+00 -0.74505805969E-08  0.93827000000E+00  0.93827000000E+00 0. -1.
     999902    2    1    2    0    0 -0.22659058243E-01  0.80071442645E-02  0.40604145713E-02  0.10195571822E+01  0.10192658209E+01 0.  0.
     999903    2    3    3    0    0  0.32672252915E-01 -0.41392256623E-01  0.11639360587E+00  0.12932092107E+00  0.19890553539E-01 0.  0.
         14    1    1    2    0    0  0.22659058243E-01 -0.80071442645E-02 -0.40604145713E-02  0.24372817774E-01  0.00000000000E+00 0.  1.
     999901    1    3    3    0    0 -0.55331311158E-01  0.49399400887E-01 -0.11233319130E+00  0.89023626115E+00  0.88000000000E+00 0. -1.
        -11    1    4    4    0    0  0.28530447029E-01 -0.20859793673E-01  0.75951924379E-01  0.83773941877E-01  0.51100000000E-03 0. -1.
         11    1    4    4    0    0  0.41418058858E-02 -0.20532462950E-01  0.40441681495E-01  0.45546979197E-01  0.51100000000E-03 0.  1.
</event>
<event>
 8    1  0.1161271E+005  0.1043930E+01  0.7957747E-01            NaN
         13   -1    0    0    0    0  0.00000000000E+00  0.00000000000E+00  0.74505805969E-08  0.10566000000E+00  0.10566000000E+00 0.  1.
     999900   -1    0    0    0    0 -0.00000000000E+00 -0.00000000000E+00 -0.74505805969E-08  0.93827000000E+00  0.93827000000E+00 0.  1.
     999902    2    1    2    0    0 -0.50624976715E-02  0.17431787502E-01 -0.15781558482E-01  0.10198768570E+01  0.10195931786E+01 0.  0.
     999903    2    3    3    0    0  0.39995765369E-01  0.40144242389E-01  0.11416343791E+00  0.12890446422E+00  0.19283383970E-01 0.  0.
         14    1    1    2    0    0  0.50624976715E-02 -0.17431787502E-01  0.15781558482E-01  0.24053142961E-01  0.00000000000E+00 0.  1.
     999901    1    3    3    0    0 -0.45058263041E-01 -0.22712454887E-01 -0.12994499639E+00  0.89097239282E+00  0.88000000000E+00 0.  1.
        -11    1    4    4    0    0  0.21546359669E-01  0.17779303212E-01  0.76011337157E-01  0.80983539902E-01  0.51100000000E-03 0. -1.
         11    1    4    4    0    0  0.18449405700E-01  0.22364939177E-01  0.38152100749E-01  0.47920924320E-01  0.51100000000E-03 0.  1.
</event>
<event>
 8    1  0.1161271E+005  0.1043930E+01  0.7957747E-01            NaN
         13   -1    0    0    0    0  0.00000000000E+00  0.00000000000E+00  0.74505805969E-08  0.10566000000E+00  0.10566000000E+00 0. -1.
     999900   -1    0    0    0    0 -0.00000000000E+00 -0.00000000000E+00 -0.74505805969E-08  0.93827000000E+00  0.93827000000E+00 0.  1.
     999902    2    1    2    0    0  0.32957533267E-01 -0.23422372982E-02  0.15533297339E-01  0.10074201602E+01  0.10067583676E+01 0.  0.
     999903    2    3    3    0    0 -0.16862964156E-01  0.60268525770E-01 -0.96496592385E-01  0.11671656990E+00  0.19862290621E-01 0.  0.
         14    1    1    2    0    0 -0.32957533267E-01  0.23422372982E-02 -0.15533297339E-01  0.36509839781E-01  0.00000000000E+00 0.  1.
     999901    1    3    3    0    0  0.49820497424E-01 -0.62610763068E-01  0.11202988972E+00  0.89070359032E+00  0.88000000000E+00 0. -1.
        -11    1    4    4    0    0 -0.93804911740E-02  0.56435706255E-01 -0.85157180601E-01  0.10259136944E+00  0.51100000000E-03 0. -1.
         11    1    4    4    0    0 -0.74824729823E-02  0.38328195154E-02 -0.11339411783E-01  0.14125200457E-01  0.51100000000E-03 0.  1.
</event>
<event>
 8    1  0.1161271E+005  0.1043930E+01  0.7957747E-01            NaN
         13   -1    0    0    0    0  0.00000000000E+00  0.00000000000E+00  0.74505805969E-08  0.10566000000E+00  0.10566000000E+00 0.  1.
     999900   -1    0    0    0    0 -0.00000000000E+00 -0.00000000000E+00 -0.74505805969E-08  0.93827000000E+00  0.93827000000E+00 0.  1.
     999902    2    1    2    0    0 -0.96114258162E-02  0.93281627111E-03 -0.21437971955E-01  0.10204175290E+01  0.10201466057E+01 0.  0.
     999903    2    3    3    0    0 -0.53864777189E-01  0.88433802155E-01 -0.76824342393E-01  0.13324086580E+00  0.33603528839E-01 0.  0.
         14    1    1    2    0    0  0.96114258162E-02 -0.93281627111E-03  0.21437971955E-01  0.23512471030E-01  0.00000000000E+00 0.  1.
     999901    1    3    3    0    0  0.44253351373E-01 -0.87500985884E-01  0.55386370438E-01  0.88717666317E+00  0.88000000000E+00 0. -1.
        -11    1    4    4    0    0 -0.28115569875E-01  0.42995175833E-01 -0.17669840277E-01  0.54328213579E-01  0.51100000000E-03 0.  1.
         11    1    4    4    0    0 -0.25749207314E-01  0.45438626322E-01 -0.59154502116E-01  0.78912652223E-01  0.51100000000E-03 0. -1.
</event>
<event>
 8    1  0.1161271E+005  0.1043930E+01  0.7957747E-01            NaN
         13   -1    0    0    0    0  0.00000000000E+00  0.00000000000E+00  0.74505805969E-08  0.10566000000E+00  0.10566000000E+00 0.  1.
     999900   -1    0    0    0    0 -0.00000000000E+00 -0.00000000000E+00 -0.74505805969E-08  0.93827000000E+00  0.93827000000E+00 0.  1.
     999902    2    1    2    0    0  0.86776320204E-02  0.86397902482E-02  0.20768066081E-01  0.10198206690E+01  0.10195356478E+01 0.  0.
     999903    2    3    3    0    0 -0.11962010594E-01  0.10978612085E+00  0.70341866587E-01  0.13240073641E+00  0.19644204688E-01 0.  0.
         14    1    1    2    0    0 -0.86776320204E-02 -0.86397902482E-02 -0.20768066081E-01  0.24109331010E-01  0.00000000000E+00 0. -1.
     999901    1    3    3    0    0  0.20639642614E-01 -0.10114633060E+00 -0.49573800506E-01  0.88741993258E+00  0.88000000000E+00 0.  1.
        -11    1    4    4    0    0 -0.24229645891E-02  0.43057696543E-01  0.16684418165E-01  0.46243560844E-01  0.51100000000E-03 0.  1.
         11    1    4    4    0    0 -0.95390460045E-02  0.66728424309E-01  0.53657448422E-01  0.86157175567E-01  0.51100000000E-03 0. -1.
</event>
<event>
 8    1  0.1161271E+005  0.1043930E+01  0.7957747E-01            NaN
         13   -1    0    0    0    0  0.00000000000E+00  0.00000000000E+00  0.74505805969E-08  0.10566000000E+00  0.10566000000E+00 0.  1.
     999900   -1    0    0    0    0 -0.00000000000E+00 -0.00000000000E+00 -0.74505805969E-08  0.93827000000E+00  0.93827000000E+00 0. -1.
     999902    2    1    2    0    0 -0.30093485886E-02 -0.41189758452E-02  0.27064018297E-01  0.10163894258E+01  0.10160162310E+01 0.  0.
     999903    2    3    3    0    0  0.13815819065E-02 -0.12349904016E+00  0.27469772638E-01  0.12831789452E+00  0.21376902430E-01 0.  0.
         14    1    1    2    0    0  0.30093485886E-02  0.41189758452E-02 -0.27064018297E-01  0.27540574201E-01  0.00000000000E+00 0. -1.
     999901    1    3    3    0    0 -0.43909304950E-02  0.11938006431E+00 -0.40575434080E-03  0.88807153128E+00  0.88000000000E+00 0. -1.
        -11    1    4    4    0    0  0.10755758202E-01 -0.61869773851E-01  0.10134516310E-01  0.63612300640E-01  0.51100000000E-03 0.  1.
         11    1    4    4    0    0 -0.93741762959E-02 -0.61629266308E-01  0.17335256328E-01  0.64705593883E-01  0.51100000000E-03 0. -1.
</event>
<event>
 8    1  0.1161271E+005  0.1043930E+01  0.7957747E-01            NaN
         13   -1    0    0    0    0  0.00000000000E+00  0.00000000000E+00  0.74505805969E-08  0.10566000000E+00  0.10566000000E+00 0.  1.
     999900   -1    0    0    0    0 -0.00000000000E+00 -0.00000000000E+00 -0.74505805969E-08  0.93827000000E+00  0.93827000000E+00 0. -1.
     999902    2    1    2    0    0 -0.75400069707E-02  0.66683226806E-02 -0.10702559379E-01  0.10292377228E+01  0.10291328520E+01 0.  0.
     999903    2    3    3    0    0  0.86025713704E-01 -0.16179573039E-01 -0.10584728653E+00  0.13888437185E+00  0.20567417809E-01 0.  0.
         14    1    1    2    0    0  0.75400069707E-02 -0.66683226806E-02  0.10702559379E-01  0.14692277215E-01  0.00000000000E+00 0. -1.
     999901    1    3    3    0    0 -0.93565720675E-01  0.22847895719E-01  0.95144727151E-01  0.89035335094E+00  0.88000000000E+00 0.  1.
        -11    1    4    4    0    0  0.27415328464E-01 -0.14767930212E-01 -0.40514913452E-01  0.51101969928E-01  0.51100000000E-03 0.  1.
         11    1    4    4    0    0  0.58610385239E-01 -0.14116428265E-02 -0.65332373078E-01  0.87782401918E-01  0.51100000000E-03 0. -1.
</event>
<event>
 8    1  0.1161271E+005  0.1043930E+01  0.7957747E-01            NaN
         13   -1    0    0    0    0  0.00000000000E+00  0.00000000000E+00  0.74505805969E-08  0.10566000000E+00  0.10566000000E+00 0.  1.
     999900   -1    0    0    0    0 -0.00000000000E+00 -0.00000000000E+00 -0.74505805969E-08  0.93827000000E+00  0.93827000000E+00 0.  1.
     999902    2    1    2    0    0  0.68114702612E-02 -0.18124178576E-01  0.12644856192E-01  0.10208048110E+01  0.10205428398E+01 0.  0.
     999903    2    3    3    0    0 -0.42143741666E-01 -0.11819068882E+00  0.40622987148E-01  0.13334061737E+00  0.19605082765E-01 0.  0.
         14    1    1    2    0    0 -0.68114702612E-02  0.18124178576E-01 -0.12644856192E-01  0.23125188956E-01  0.00000000000E+00 0. -1.
     999901    1    3    3    0    0  0.48955211927E-01  0.10006651024E+00 -0.27978130956E-01  0.88746419368E+00  0.88000000000E+00 0. -1.
        -11    1    4    4    0    0  0.12156662006E-02 -0.83981722013E-02  0.14289851896E-06  0.85010741471E-02  0.51100000000E-03 0.  1.
         11    1    4    4    0    0 -0.43359407866E-01 -0.10979251662E+00  0.40622844249E-01  0.12483954322E+00  0.51100000000E-03 0. -1.
</event>
<event>
 8    1  0.1161271E+005  0.1043930E+01  0.7957747E-01            NaN
         13   -1    0    0    0    0  0.00000000000E+00  0.00000000000E+00  0.74505805969E-08  0.10566000000E+00  0.10566000000E+00 0.  1.
     999900   -1    0    0    0    0 -0.00000000000E+00 -0.00000000000E+00 -0.74505805969E-08  0.93827000000E+00  0.93827000000E+00 0.  1.
     999902    2    1    2    0    0  0.16421484721E-01  0.45234778914E-02  0.15277382940E-01  0.10210493216E+01  0.10207929231E+01 0.  0.
     999903    2    3    3    0    0 -0.10035926446E+00 -0.61464487041E-01  0.52070386211E-01  0.13012514979E+00  0.19270816234E-01 0.  0.
         14    1    1    2    0    0 -0.16421484721E-01 -0.45234778914E-02 -0.15277382940E-01  0.22880678359E-01  0.00000000000E+00 0. -1.
     999901    1    3    3    0    0  0.11678074918E+00  0.65987964932E-01 -0.36793003272E-01  0.89092417185E+00  0.88000000000E+00 0. -1.
        -11    1    4    4    0    0 -0.27338603753E-01 -0.80341161748E-02  0.16279237822E-01  0.32821044818E-01  0.51100000000E-03 0.  1.
         11    1    4    4    0    0 -0.73020660706E-01 -0.53430370866E-01  0.35791148389E-01  0.97304104974E-01  0.51100000000E-03 0. -1.
</event>
<event>
 8    1  0.1161271E+005  0.1043930E+01  0.7957747E-01            NaN
         13   -1    0    0    0    0  0.00000000000E+00  0.00000000000E+00  0.74505805969E-08  0.10566000000E+00  0.10566000000E+00 0. -1.
     999900   -1    0    0    0    0 -0.00000000000E+00 -0.00000000000E+00 -0.74505805969E-08  0.93827000000E+00  0.93827000000E+00 0.  1.
     999902    2    1    2    0    0 -0.12077371607E-01 -0.88554356280E-02  0.18035068632E-01  0.10204876165E+01  0.10202183247E+01 0.  0.
     999903    2    3    3    0    0 -0.36238565393E-01  0.48610205927E-01  0.11653379145E+00  0.13280070002E+00  0.19486293475E-01 0.  0.
         14    1    1    2    0    0  0.12077371607E-01  0.88554356280E-02 -0.18035068632E-01  0.23442383532E-01  0.00000000000E+00 0.  1.
     999901    1    3    3    0    0  0.24161193786E-01 -0.57465641555E-01 -0.98498722816E-01  0.88768691645E+00  0.88000000000E+00 0.  1.
        -11    1    4    4    0    0 -0.25230188309E-01  0.42736211506E-01  0.79520337663E-01  0.93737353275E-01  0.51100000000E-03 0.  1.
         11    1    4    4    0    0 -0.11008377084E-01  0.58739944213E-02  0.37013453785E-01  0.39063346741E-01  0.51100000000E-03 0. -1.
</event>
<event>
 8    1  0.1161271E+005  0.1043930E+01  0.7957747E-01            NaN
         13   -1    0    0    0    0  0.00000000000E+00  0.00000000000E+00  0.74505805969E-08  0.10566000000E+00  0.10566000000E+00 0. -1.
     999900   -1    0    0    0    0 -0.00000000000E+00 -0.00000000000E+00 -0.74505805969E-08  0.93827000000E+00  0.93827000000E+00 0.  1.
     999902    2    1    2    0    0  0.15413887606E-03  0.17715919234E-01  0.14839474486E-01  0.10208196656E+01  0.10205580347E+01 0.  0.
     999903    2    3    3    0    0 -0.47299754548E-01  0.11582992989E+00 -0.38547336984E-01  0.13249068221E+00  0.20348077194E-01 0.  0.
         14    1    1    2    0    0 -0.15413887606E-03 -0.17715919234E-01 -0.14839474486E-01  0.23110334401E-01  0.00000000000E+00 0.  1.
     999901    1    3    3    0    0  0.47453893424E-01 -0.98114010657E-01  0.53386811469E-01  0.88832898339E+00  0.88000000000E+00 0. -1.
        -11    1    4    4    0    0 -0.17935572134E-01  0.39961351383E-01 -0.23657242469E-01  0.49784742586E-01  0.51100000000E-03 0.  1.
         11    1    4    4    0    0 -0.29364182414E-01  0.75868578508E-01 -0.14890094515E-01  0.82705939625E-01  0.51100000000E-03 0. -1.
</event>
<event>
 8    1  0.1161271E+005  0.1043930E+01  0.7957747E-01            NaN
         13   -1    0    0    0    0  0.00000000000E+00  0.00000000000E+00  0.74505805969E-08  0.10566000000E+00  0.10566000000E+00 0. -1.
     999900   -1    0    0    0    0 -0.00000000000E+00 -0.00000000000E+00 -0.74505805969E-08  0.93827000000E+00  0.93827000000E+00 0. -1.
     999902    2    1    2    0    0 -0.13793534753E-01  0.81295981823E-03 -0.18407700022E-01  0.10209133555E+01  0.10206538657E+01 0.  0.
     999903    2    3    3    0    0  0.11796395265E+00  0.39786201356E-01 -0.32945075833E-01  0.13013263929E+00  0.18726714716E-01 0.  0.
         14    1    1    2    0    0  0.13793534753E-01 -0.81295981823E-03  0.18407700022E-01  0.23016644516E-01  0.00000000000E+00 0.  1.
     999901    1    3    3    0    0 -0.13175748741E+00 -0.38973241538E-01  0.14537375810E-01  0.89078071619E+00  0.88000000000E+00 0. -1.
        -11    1    4    4    0    0  0.95357586376E-01  0.30863242440E-01 -0.18704127700E-01  0.10195937685E+00  0.51100000000E-03 0. -1.
         11    1    4    4    0    0  0.22606366276E-01  0.89229589156E-02 -0.14240948133E-01  0.28173262444E-01  0.51100000000E-03 0.  1.
</event>
<event>
 8    1  0.1161271E+005  0.1043930E+01  0.7957747E-01            NaN
         13   -1    0    0    0    0  0.00000000000E+00  0.00000000000E+00  0.74505805969E-08  0.10566000000E+00  0.10566000000E+00 0.  1.
     999900   -1    0    0    0    0 -0.00000000000E+00 -0.00000000000E+00 -0.74505805969E-08  0.93827000000E+00  0.93827000000E+00 0.  1.
     999902    2    1    2    0    0 -0.15707645497E-01 -0.20212678782E-01  0.86465038703E-02  0.10169106636E+01  0.10165516481E+01 0.  0.
     999903    2    3    3    0    0  0.43374682228E-01  0.11156855630E+00  0.29477426283E-01  0.12489556131E+00  0.20026900979E-01 0.  0.
         14    1    1    2    0    0  0.15707645497E-01  0.20212678782E-01 -0.86465038703E-02  0.27019336405E-01  0.00000000000E+00 0. -1.
     999901    1    3    3    0    0 -0.59082327725E-01 -0.13178123508E+00 -0.20830922412E-01  0.89201510228E+00  0.88000000000E+00 0.  1.
        -11    1    4    4    0    0  0.26844410785E-01  0.81145144516E-01  0.12675196265E-01  0.86406473081E-01  0.51100000000E-03 0.  1.
         11    1    4    4    0    0  0.16530271443E-01  0.30423411781E-01  0.16802230017E-01  0.38489088232E-01  0.51100000000E-03 0. -1.
</event>
<event>
 7    1  0.1161271E+005  0.1043930E+01  0.7957747E-01            NaN
         13   -1    0    0    0    0  0.00000000000E+00  0.00000000000E+00  0.74505805969E-08  0.10566000000E+00  0.10566000000E+00 0. -1.
     999900   -1    0    0    0    0 -0.00000000000E+00 -0.00000000000E+00 -0.74505805969E-08  0.93827000000E+00  0.93827000000E+00 0.  1.
     999902    2    1    2    0    0 -0.46104457019E-02 -0.21723855032E-01 -0.82026617104E-02  0.10202558422E+01  0.10199811360E+01 0.  0.
         14    1    1    2    0    0  0.46104457019E-02  0.21723855032E-01  0.82026617104E-02  0.23674157771E-01  0.00000000000E+00 0. -1.
     999901    1    3    3    0    0 -0.86872334079E-02 -0.91696702418E-01 -0.11015535034E+00  0.89163779331E+00  0.88000000000E+00 0. -1.
        -11    1    3    3    0    0 -0.12038242268E-01  0.38926120812E-01  0.37975060034E-01  0.55700345277E-01  0.51100000000E-03 0. -1.
         11    1    3    3    0    0  0.16115029974E-01  0.31046726575E-01  0.63977628596E-01  0.72917703638E-01  0.51100000000E-03 0.  1.
</event>
<event>
 8    1  0.1161271E+005  0.1043930E+01  0.7957747E-01            NaN
         13   -1    0    0    0    0  0.00000000000E+00  0.00000000000E+00  0.74505805969E-08  0.10566000000E+00  0.10566000000E+00 0.  1.
     999900   -1    0    0    0    0 -0.00000000000E+00 -0.00000000000E+00 -0.74505805969E-08  0.93827000000E+00  0.93827000000E+00 0. -1.
     999902    2    1    2    0    0  0.14352917761E-01 -0.16038309523E-01 -0.37563394468E-02  0.10220818031E+01  0.10218482610E+01 0.  0.
     999903    2    3    3    0    0 -0.51752352076E-03 -0.69175730575E-01 -0.11257654484E+00  0.13366379754E+00  0.20173814581E-01 0.  0.
         14    1    1    2    0    0 -0.14352917761E-01  0.16038309523E-01  0.37563394468E-02  0.21848196874E-01  0.00000000000E+00 0.  1.
     999901    1    3    3    0    0  0.14870441282E-01  0.53137421053E-01  0.10882020539E+00  0.88841800558E+00  0.88000000000E+00 0.  1.
        -11    1    4    4    0    0  0.51402566326E-03 -0.45838341050E-01 -0.55473399372E-01  0.71965108848E-01  0.51100000000E-03 0. -1.
         11    1    4    4    0    0 -0.10315491840E-02 -0.23337389525E-01 -0.57103145467E-01  0.61698688696E-01  0.51100000000E-03 0.  1.
</event>
<event>
 8    1  0.1161271E+005  0.1043930E+01  0.7957747E-01            NaN
         13   -1    0    0    0    0  0.00000000000E+00  0.00000000000E+00  0.74505805969E-08  0.10566000000E+00  0.10566000000E+00 0.  1.
     999900   -1    0    0    0    0 -0.00000000000E+00 -0.00000000000E+00 -0.74505805969E-08  0.93827000000E+00  0.93827000000E+00 0. -1.
     999902    2    1    2    0    0 -0.19829635245E-01 -0.83408681242E-02 -0.74655607484E-02  0.10211589853E+01  0.10209050661E+01 0.  0.
     999903    2    3    3    0    0  0.32371211102E-01  0.12004836076E+00  0.29351875991E-01  0.12955131027E+00  0.21505932619E-01 0.  0.
         14    1    1    2    0    0  0.19829635245E-01  0.83408681242E-02  0.74655607484E-02  0.22771014741E-01  0.00000000000E+00 0.  1.
     999901    1    3    3    0    0 -0.52200846347E-01 -0.12838922889E+00 -0.36817436740E-01  0.89160767499E+00  0.88000000000E+00 0.  1.
        -11    1    4    4    0    0  0.28618562117E-01  0.11220315371E+00  0.32528677309E-01  0.12027861726E+00  0.51100000000E-03 0.  1.
         11    1    4    4    0    0  0.37526489849E-02  0.78452070510E-02 -0.31768013177E-02  0.92726930117E-02  0.51100000000E-03 0. -1.
</event>
<event>
 8    1  0.1161271E+005  0.1043930E+01  0.7957747E-01            NaN
         13   -1    0    0    0    0  0.00000000000E+00  0.00000000000E+00  0.74505805969E-08  0.10566000000E+00  0.10566000000E+00 0. -1.
     999900   -1    0    0    0    0 -0.00000000000E+00 -0.00000000000E+00 -0.74505805969E-08  0.93827000000E+00  0.93827000000E+00 0. -1.
     999902    2    1    2    0    0  0.21840304761E-01 -0.42751928966E-02  0.28732635083E-02  0.10214904851E+01  0.10212439862E+01 0.  0.
     999903    2    3    3    0    0  0.13043591871E+00  0.85129648676E-02  0.25753612916E-01  0.13442788598E+00  0.17933446154E-01 0.  0.
         14    1    1    2    0    0 -0.21840304761E-01  0.42751928966E-02 -0.28732635083E-02  0.22439514913E-01  0.00000000000E+00 0. -1.
     999901    1    3    3    0    0 -0.10859561395E+00 -0.12788157764E-01 -0.22880349408E-01  0.88706259911E+00  0.88000000000E+00 0.  1.
        -11    1    4    4    0    0  0.83256687518E-01  0.87434061772E-02  0.83239342501E-02  0.84128902111E-01  0.51100000000E-03 0.  1.
         11    1    4    4    0    0  0.47179231189E-01 -0.23044130966E-03  0.17429678666E-01  0.50298983868E-01  0.51100000000E-03 0. -1.
</event>
<event>
 8    1  0.1161271E+005  0.1043930E+01  0.7957747E-01            NaN
         13   -1    0    0    0    0  0.00000000000E+00  0.00000000000E+00  0.74505805969E-08  0.10566000000E+00  0.10566000000E+00 0.  1.
     999900   -1    0    0    0    0 -0.00000000000E+00 -0.00000000000E+00 -0.74505805969E-08  0.93827000000E+00  0.93827000000E+00 0. -1.
     999902    2    1    2    0    0  0.69031644557E-02 -0.11404357473E-01 -0.19851209384E-01  0.10200180038E+01  0.10197376842E+01 0.  0.
     999903    2    3    3    0    0 -0.10078088985E+00 -0.66565495186E-01 -0.47173342060E-01  0.13131945782E+00  0.20777942481E-01 0.  0.
         14    1    1    2    0    0 -0.69031644557E-02  0.11404357473E-01  0.19851209384E-01  0.23911996213E-01  0.00000000000E+00 0.  1.
     999901    1    3    3    0    0  0.10768405430E+00  0.55161137713E-01  0.27322132676E-01  0.88869854596E+00  0.88000000000E+00 0. -1.
        -11    1    4    4    0    0 -0.23053458057E-01 -0.18555236001E-01 -0.20975827808E-01  0.36276785755E-01  0.51100000000E-03 0. -1.
         11    1    4    4    0    0 -0.77727431791E-01 -0.48010259185E-01 -0.26197514252E-01  0.95042672068E-01  0.51100000000E-03 0.  1.
</event>
<event>
 8    1  0.1161271E+005  0.1043930E+01  0.7957747E-01            NaN
         13   -1    0    0    0    0  0.00000000000E+00  0.00000000000E+00  0.74505805969E-08  0.10566000000E+00  0.10566000000E+00 0.  1.
     999900   -1    0    0    0    0 -0.00000000000E+00 -0.00000000000E+00 -0.74505805969E-08  0.93827000000E+00  0.93827000000E+00 0.  1.
     999902    2    1    2    0    0  0.62518803273E-02 -0.11974567094E-01 -0.17813026243E-01  0.10215742363E+01  0.10213295943E+01 0.  0.
     999903    2    3    3    0    0  0.62970179000E-01  0.39456490635E-01  0.10450623399E+00  0.12982083964E+00  0.20244489755E-01 0.  0.
         14    1    1    2    0    0 -0.62518803273E-02  0.11974567094E-01  0.17813026243E-01  0.22355763656E-01  0.00000000000E+00 0. -1.
     999901    1    3    3    0    0 -0.56718298673E-01 -0.51431057729E-01 -0.12231926024E+00  0.89175339670E+00  0.88000000000E+00 0.  1.
        -11    1    4    4    0    0  0.85891899277E-02  0.15186200088E-01  0.22773520844E-01  0.28693017083E-01  0.51100000000E-03 0.  1.
         11    1    4    4    0    0  0.54380989073E-01  0.24270290547E-01  0.81732713150E-01  0.10112782256E+00  0.51100000000E-03 0. -1.
</event>
<event>
 8    1  0.1161271E+005  0.1043930E+01  0.7957747E-01            NaN
         13   -1    0    0    0    0  0.00000000000E+00  0.00000000000E+00  0.74505805969E-08  0.10566000000E+00  0.10566000000E+00 0.  1.
     999900   -1    0    0    0    0 -0.00000000000E+00 -0.00000000000E+00 -0.74505805969E-08  0.93827000000E+00  0.93827000000E+00 0.  1.
     999902    2    1    2    0    0  0.21214079071E-01 -0.56843993467E-02 -0.11815132779E-01  0.10189911366E+01  0.10186859131E+01 0.  0.
     999903    2    3    3    0    0 -0.55301663031E-01 -0.71534948318E-02  0.11240921981E+00  0.12697739967E+00  0.19441731042E-01 0.  0.
         14    1    1    2    0    0 -0.21214079071E-01  0.56843993467E-02  0.11815132779E-01  0.24938863433E-01  0.00000000000E+00 0. -1.
     999901    1    3    3    0    0  0.76515742102E-01  0.14690954851E-02 -0.12422435259E+00  0.89201373689E+00  0.88000000000E+00 0.  1.
        -11    1    4    4    0    0 -0.41501448193E-01 -0.41746294917E-02  0.62767237518E-01  0.75364348071E-01  0.51100000000E-03 0. -1.
         11    1    4    4    0    0 -0.13800214838E-01 -0.29788653401E-02  0.49641982297E-01  0.51613051602E-01  0.51100000000E-03 0.  1.
</event>
<event>
 8    1  0.1161271E+005  0.1043930E+01  0.7957747E-01            NaN
         13   -1    0    0    0    0  0.00000000000E+00  0.00000000000E+00  0.74505805969E-08  0.10566000000E+00  0.10566000000E+00 0.  1.
     999900   -1    0    0    0    0 -0.00000000000E+00 -0.00000000000E+00 -0.74505805969E-08  0.93827000000E+00  0.93827000000E+00 0.  1.
     999902    2    1    2    0    0  0.11347885004E-01 -0.19664765408E-01  0.39548725755E-02  0.10208839915E+01  0.10206238315E+01 0.  0.
     999903    2    3    3    0    0  0.74496814768E-01  0.82103923119E-01  0.66138831312E-01  0.13059667940E+00  0.19756468810E-01 0.  0.
         14    1    1    2    0    0 -0.11347885004E-01  0.19664765408E-01 -0.39548725755E-02  0.23046008542E-01  0.00000000000E+00 0.  1.
     999901    1    3    3    0    0 -0.63148929764E-01 -0.10176868853E+00 -0.62183958737E-01  0.89028731206E+00  0.88000000000E+00 0. -1.
        -11    1    4    4    0    0  0.35495499172E-01  0.38427933622E-01  0.42674953230E-01  0.67513326819E-01  0.51100000000E-03 0.  1.
         11    1    4    4    0    0  0.39001315595E-01  0.43675989497E-01  0.23463878082E-01  0.63083352577E-01  0.51100000000E-03 0. -1.
</event>
<event>
 8    1  0.1161271E+005  0.1043930E+01  0.7957747E-01            NaN
         13   -1    0    0    0    0  0.00000000000E+00  0.00000000000E+00  0.74505805969E-08  0.10566000000E+00  0.10566000000E+00 0.  1.
     999900   -1    0    0    0    0 -0.00000000000E+00 -0.00000000000E+00 -0.74505805969E-08  0.93827000000E+00  0.93827000000E+00 0. -1.
     999902    2    1    2    0    0  0.21805320185E-01  0.33907005691E-02 -0.10752108933E-01  0.10193825626E+01  0.10190869601E+01 0.  0.
     999903    2    3    3    0    0 -0.10103924371E+00  0.73379769308E-01 -0.20882261850E-01  0.12803982453E+00  0.19094724234E-01 0.  0.
         14    1    1    2    0    0 -0.21805320185E-01 -0.33907005691E-02  0.10752108933E-01  0.24547437447E-01  0.00000000000E+00 0.  1.
     999901    1    3    3    0    0  0.12284456389E+00 -0.69989068738E-01  0.10130152917E-01  0.89134273802E+00  0.88000000000E+00 0.  1.
        -11    1    4    4    0    0 -0.60863056701E-01  0.43657232151E-01 -0.30157407878E-02  0.74964134114E-01  0.51100000000E-03 0. -1.
         11    1    4    4    0    0 -0.40176187009E-01  0.29722537157E-01 -0.17866521062E-01  0.53075690419E-01  0.51100000000E-03 0.  1.
</event>
<event>
 8    1  0.1161271E+005  0.1043930E+01  0.7957747E-01            NaN
         13   -1    0    0    0    0  0.00000000000E+00  0.00000000000E+00  0.74505805969E-08  0.10566000000E+00  0.10566000000E+00 0. -1.
     999900   -1    0    0    0    0 -0.00000000000E+00 -0.00000000000E+00 -0.74505805969E-08  0.93827000000E+00  0.93827000000E+00 0.  1.
     999902    2    1    2    0    0 -0.17545637634E-01  0.14754131929E-01  0.39446937669E-02  0.10206685637E+01  0.10204034607E+01 0.  0.
     999903    2    3    3    0    0  0.20284621871E-01  0.29014458082E-01  0.12522200657E+00  0.13143143447E+00  0.18449020949E-01 0.  0.
         14    1    1    2    0    0  0.17545637634E-01 -0.14754131929E-01 -0.39446937669E-02  0.23261436281E-01  0.00000000000E+00 0. -1.
     999901    1    3    3    0    0 -0.37830259505E-01 -0.14260326153E-01 -0.12127731281E+00  0.88923712925E+00  0.88000000000E+00 0.  1.
        -11    1    4    4    0    0 -0.20857264069E-02  0.10041123913E-02  0.22669131210E-01  0.22792742861E-01  0.51100000000E-03 0. -1.
         11    1    4    4    0    0  0.22370348278E-01  0.28010345690E-01  0.10255287536E+00  0.10863869161E+00  0.51100000000E-03 0.  1.
</event>
<event>
 8    1  0.1161271E+005  0.1043930E+01  0.7957747E-01            NaN
         13   -1    0    0    0    0  0.00000000000E+00  0.00000000000E+00  0.74505805969E-08  0.10566000000E+00  0.10566000000E+00 0.  1.
     999900   -1    0    0    0    0 -0.00000000000E+00 -0.00000000000E+00 -0.74505805969E-08  0.93827000000E+00  0.93827000000E+00 0.  1.
     999902    2    1    2    0    0  0.15736659762E-02  0.19160805025E-01 -0.14993349075E-01  0.10195494055E+01  0.10192578559E+01 0.  0.
     999903    2    3    3    0    0 -0.21780395221E-01  0.36302836312E-01 -0.12391807267E+00  0.13236066746E+00  0.19271118707E-01 0.  0.
         14    1    1    2    0    0 -0.15736659762E-02 -0.19160805025E-01  0.14993349075E-01  0.24380594544E-01  0.00000000000E+00 0.  1.
     999901    1    3    3    0    0  0.23354061197E-01 -0.17142031286E-01  0.10892472360E+00  0.88718873799E+00  0.88000000000E+00 0. -1.
        -11    1    4    4    0    0 -0.12543331627E-01  0.46018465551E-02 -0.31521576948E-01  0.34240080232E-01  0.51100000000E-03 0.  1.
         11    1    4    4    0    0 -0.92370635936E-02  0.31700989757E-01 -0.92396495724E-01  0.98120587231E-01  0.51100000000E-03 0. -1.
</event>
<event>
 8    1  0.1161271E+005  0.1043930E+01  0.7957747E-01            NaN
         13   -1    0    0    0    0  0.00000000000E+00  0.00000000000E+00  0.74505805969E-08  0.10566000000E+00  0.10566000000E+00 0. -1.
     999900   -1    0    0    0    0 -0.00000000000E+00 -0.00000000000E+00 -0.74505805969E-08  0.93827000000E+00  0.93827000000E+00 0. -1.
     999902    2    1    2    0    0  0.11927537968E-01 -0.18384222065E-01 -0.10553473409E-01  0.10196067275E+01  0.10193165638E+01 0.  0.
     999903    2    3    3    0    0 -0.11081361090E+00 -0.62751742460E-01  0.15303422611E-01  0.12960535361E+00  0.18598801037E-01 0.  0.
         14    1    1    2    0    0 -0.11927537968E-01  0.18384222065E-01  0.10553473409E-01  0.24323272475E-01  0.00000000000E+00 0.  1.
     999901    1    3    3    0    0  0.12274114887E+00  0.44367520395E-01 -0.25856896020E-01  0.89000137391E+00  0.88000000000E+00 0. -1.
        -11    1    4    4    0    0 -0.96023423179E-02 -0.12070100995E-01  0.32685418251E-02  0.15774561886E-01  0.51100000000E-03 0.  1.
         11    1    4    4    0    0 -0.10121126858E+00 -0.50681641464E-01  0.12034880786E-01  0.11383079173E+00  0.51100000000E-03 0. -1.
</event>
<event>
 8    1  0.1161271E+005  0.1043930E+01  0.7957747E-01            NaN
         13   -1    0    0    0    0  0.00000000000E+00  0.00000000000E+00  0.74505805969E-08  0.10566000000E+00  0.10566000000E+00 0. -1.
     999900   -1    0    0    0    0 -0.00000000000E+00 -0.00000000000E+00 -0.74505805969E-08  0.93827000000E+00  0.93827000000E+00 0. -1.
     999902    2    1    2    0    0  0.10317420866E-01  0.66256682064E-02 -0.21803657866E-01  0.10189150415E+01  0.10186079293E+01 0.  0.
     999903    2    3    3    0    0 -0.61222259848E-01 -0.10261172154E+00  0.38905968263E-01  0.12721083497E+00  0.19788675298E-01 0.  0.
         14    1    1    2    0    0 -0.10317420866E-01 -0.66256682064E-02  0.21803657866E-01  0.25014958502E-01  0.00000000000E+00 0. -1.
     999901    1    3    3    0    0  0.71539680714E-01  0.10923738974E+00 -0.60709626129E-01  0.89170420653E+00  0.88000000000E+00 0. -1.
        -11    1    4    4    0    0 -0.35211377883E-01 -0.41461571970E-01  0.21688370923E-01  0.58562356825E-01  0.51100000000E-03 0.  1.
         11    1    4    4    0    0 -0.26010881965E-01 -0.61150149566E-01  0.17217597340E-01  0.68648478146E-01  0.51100000000E-03 0. -1.
</event>
<event>
 8    1  0.1161271E+005  0.1043930E+01  0.7957747E-01            NaN
         13   -1    0    0    0    0  0.00000000000E+00  0.00000000000E+00  0.74505805969E-08  0.10566000000E+00  0.10566000000E+00 0.  1.
     999900   -1    0    0    0    0 -0.00000000000E+00 -0.00000000000E+00 -0.74505805969E-08  0.93827000000E+00  0.93827000000E+00 0.  1.
     999902    2    1    2    0    0  0.21894423571E-01 -0.84501370332E-02  0.49238076310E-02  0.10199505404E+01  0.10196686180E+01 0.  0.
     999903    2    3    3    0    0  0.85822916402E-01 -0.46202383919E-01 -0.86978913920E-01  0.13205516678E+00  0.19313268648E-01 0.  0.
         14    1    1    2    0    0 -0.21894423571E-01  0.84501370332E-02 -0.49238076310E-02  0.23979459564E-01  0.00000000000E+00 0. -1.
     999901    1    3    3    0    0 -0.63928492831E-01  0.37752246886E-01  0.91902721551E-01  0.88789537366E+00  0.88000000000E+00 0. -1.
        -11    1    4    4    0    0  0.33403603469E-01 -0.76226526366E-02 -0.30895395803E-01  0.46137752012E-01  0.51100000000E-03 0. -1.
         11    1    4    4    0    0  0.52419312933E-01 -0.38579731283E-01 -0.56083518117E-01  0.85917414763E-01  0.51100000000E-03 0.  1.
</event>
<event>
 8    1  0.1161271E+005  0.1043930E+01  0.7957747E-01            NaN
         13   -1    0    0    0    0  0.00000000000E+00  0.00000000000E+00  0.74505805969E-08  0.10566000000E+00  0.10566000000E+00 0.  1.
     999900   -1    0    0    0    0 -0.00000000000E+00 -0.00000000000E+00 -0.74505805969E-08  0.93827000000E+00  0.93827000000E+00 0.  1.
     999902    2    1    2    0    0 -0.13754050735E-01  0.18733646233E-01 -0.84399266440E-03  0.10206741247E+01  0.10204091498E+01 0.  0.
     999903    2    3    3    0    0 -0.10013008070E+00  0.79643816602E-01 -0.36669321354E-01  0.13362603040E+00  0.11920834199E-01 0.  0.
         14    1    1    2    0    0  0.13754050735E-01 -0.18733646233E-01  0.84399266440E-03  0.23255875309E-01  0.00000000000E+00 0. -1.
     999901    1    3    3    0    0  0.86376029966E-01 -0.60910170370E-01  0.35825328690E-01  0.88704809429E+00  0.88000000000E+00 0. -1.
        -11    1    4    4    0    0 -0.63373912740E-01  0.43819006591E-01 -0.19202632127E-01  0.79406299222E-01  0.51100000000E-03 0. -1.
         11    1    4    4    0    0 -0.36756167961E-01  0.35824810011E-01 -0.17466689228E-01  0.54219731179E-01  0.51100000000E-03 0.  1.
</event>
<event>
 8    1  0.1161271E+005  0.1043930E+01  0.7957747E-01            NaN
         13   -1    0    0    0    0  0.00000000000E+00  0.00000000000E+00  0.74505805969E-08  0.10566000000E+00  0.10566000000E+00 0.  1.
     999900   -1    0    0    0    0 -0.00000000000E+00 -0.00000000000E+00 -0.74505805969E-08  0.93827000000E+00  0.93827000000E+00 0. -1.
     999902    2    1    2    0    0  0.44724010665E-02 -0.16939215887E-02  0.26360514479E-01  0.10171391720E+01  0.10167862837E+01 0.  0.
     999903    2    3    3    0    0  0.31357093309E-01  0.72613986228E-01  0.10181583633E+00  0.13038218305E+00  0.19416251773E-01 0.  0.
         14    1    1    2    0    0 -0.44724010665E-02  0.16939215887E-02 -0.26360514479E-01  0.26790828006E-01  0.00000000000E+00 0. -1.
     999901    1    3    3    0    0 -0.26884692243E-01 -0.74307907816E-01 -0.75455321852E-01  0.88675698894E+00  0.88000000000E+00 0. -1.
        -11    1    4    4    0    0  0.14890935350E-01  0.55065529581E-01  0.66090841718E-01  0.87305286115E-01  0.51100000000E-03 0. -1.
         11    1    4    4    0    0  0.16466157959E-01  0.17548456647E-01  0.35724994613E-01  0.43076896937E-01  0.51100000000E-03 0.  1.
</event>
<event>
 8    1  0.1161271E+005  0.1043930E+01  0.7957747E-01            NaN
         13   -1    0    0    0    0  0.00000000000E+00  0.00000000000E+00  0.74505805969E-08  0.10566000000E+00  0.10566000000E+00 0.  1.
     999900   -1    0    0    0    0 -0.00000000000E+00 -0.00000000000E+00 -0.74505805969E-08  0.93827000000E+00  0.93827000000E+00 0.  1.
     999902    2    1    2    0    0 -0.31495146300E-02 -0.17743094030E-01  0.15825672188E-01  0.10199469074E+01  0.10196648985E+01 0.  0.
     999903    2    3    3    0    0 -0.53904716477E-01 -0.39785592881E-01  0.11269005549E+00  0.13290425288E+00  0.21814673205E-01 0.  0.
         14    1    1    2    0    0  0.31495146300E-02  0.17743094030E-01 -0.15825672188E-01  0.23983092552E-01  0.00000000000E+00 0. -1.
     999901    1    3    3    0    0  0.50755201847E-01  0.22042498851E-01 -0.96864383305E-01  0.88704265457E+00  0.88000000000E+00 0.  1.
        -11    1    4    4    0    0 -0.45736413896E-01 -0.41761522555E-01  0.96737576553E-01  0.11486628818E+00  0.51100000000E-03 0. -1.
         11    1    4    4    0    0 -0.81683025807E-02  0.19759296732E-02  0.15952478940E-01  0.18037964699E-01  0.51100000000E-03 0.  1.
</event>
<event>
 8    1  0.1161271E+005  0.1043930E+01  0.7957747E-01            NaN
         13   -1    0    0    0    0  0.00000000000E+00  0.00000000000E+00  0.74505805969E-08  0.10566000000E+00  0.10566000000E+00 0.  1.
     999900   -1    0    0    0    0 -0.00000000000E+00 -0.00000000000E+00 -0.74505805969E-08  0.93827000000E+00  0.93827000000E+00 0. -1.
     999902    2    1    2    0    0 -0.65466828187E-02  0.21379480344E-01 -0.77400602313E-02  0.10202688553E+01  0.10199944546E+01 0.  0.
     999903    2    3    3    0    0 -0.36636709334E-02  0.25246813791E-01 -0.12825145299E+00  0.13204238429E+00  0.18328446862E-01 0.  0.
         14    1    1    2    0    0  0.65466828187E-02 -0.21379480344E-01  0.77400602313E-02  0.23661144691E-01  0.00000000000E+00 0. -1.
     999901    1    3    3    0    0 -0.28830118853E-02 -0.38673334465E-02  0.12051139276E+00  0.88822647101E+00  0.88000000000E+00 0.  1.
        -11    1    4    4    0    0 -0.15656365631E-02  0.26546268327E-01 -0.12559614298E+00  0.12838149334E+00  0.51100000000E-03 0. -1.
         11    1    4    4    0    0 -0.20980343704E-02 -0.12994545359E-02 -0.26553100076E-02  0.36608909499E-02  0.51100000000E-03 0.  1.
</event>
<event>
 8    1  0.1161271E+005  0.1043930E+01  0.7957747E-01            NaN
         13   -1    0    0    0    0  0.00000000000E+00  0.00000000000E+00  0.74505805969E-08  0.10566000000E+00  0.10566000000E+00 0. -1.
     999900   -1    0    0    0    0 -0.00000000000E+00 -0.00000000000E+00 -0.74505805969E-08  0.93827000000E+00  0.93827000000E+00 0.  1.
     999902    2    1    2    0    0  0.17431272371E-01  0.27745048345E-02  0.15154847848E-01  0.10206659387E+01  0.10204007752E+01 0.  0.
     999903    2    3    3    0    0 -0.78236195644E-01  0.91390172095E-01 -0.42186371178E-01  0.12921037824E+00  0.21037254287E-01 0.  0.
         14    1    1    2    0    0 -0.17431272371E-01 -0.27745048345E-02 -0.15154847848E-01  0.23264061272E-01  0.00000000000E+00 0.  1.
     999901    1    3    3    0    0  0.95667468016E-01 -0.88615667261E-01  0.57341219027E-01  0.89145556049E+00  0.88000000000E+00 0.  1.
        -11    1    4    4    0    0 -0.21608065050E-01  0.12396741459E-01 -0.77372017608E-02  0.26090478840E-01  0.51100000000E-03 0.  1.
         11    1    4    4    0    0 -0.56628130594E-01  0.78993430636E-01 -0.34449169418E-01  0.10311989940E+00  0.51100000000E-03 0. -1.
</event>
<event>
 8    1  0.1161271E+005  0.1043930E+01  0.7957747E-01            NaN
         13   -1    0    0    0    0  0.00000000000E+00  0.00000000000E+00  0.74505805969E-08  0.10566000000E+00  0.10566000000E+00 0. -1.
     999900   -1    0    0    0    0 -0.00000000000E+00 -0.00000000000E+00 -0.74505805969E-08  0.93827000000E+00  0.93827000000E+00 0. -1.
     999902    2    1    2    0    0  0.65769004852E-02 -0.18475245901E-01  0.12303123870E-01  0.10207792508E+01  0.10205166935E+01 0.  0.
     999903    2    3    3    0    0  0.80668761147E-01  0.88579863627E-02  0.10290138672E+00  0.13260992313E+00  0.20267791608E-01 0.  0.
         14    1    1    2    0    0 -0.65769004852E-02  0.18475245901E-01 -0.12303123870E-01  0.23150749190E-01  0.00000000000E+00 0.  1.
     999901    1    3    3    0    0 -0.74091860662E-01 -0.27333232264E-01 -0.90598262847E-01  0.88816932768E+00  0.88000000000E+00 0. -1.
        -11    1    4    4    0    0  0.33037365856E-01  0.43859418929E-02  0.27031699268E-01  0.42914775023E-01  0.51100000000E-03 0.  1.
         11    1    4    4    0    0  0.47631395291E-01  0.44720444697E-02  0.75869687449E-01  0.89695148106E-01  0.51100000000E-03 0. -1.
</event>
<event>
 8    1  0.1161271E+005  0.1043930E+01  0.7957747E-01            NaN
         13   -1    0    0    0    0  0.00000000000E+00  0.00000000000E+00  0.74505805969E-08  0.10566000000E+00  0.10566000000E+00 0. -1.
     999900   -1    0    0    0    0 -0.00000000000E+00 -0.00000000000E+00 -0.74505805969E-08  0.93827000000E+00  0.93827000000E+00 0. -1.
     999902    2    1    2    0    0 -0.13575108042E-01  0.99037201090E-02  0.18749068730E-01  0.10187527323E+01  0.10184415716E+01 0.  0.
     999903    2    3    3    0    0  0.83525324368E-01  0.83928715105E-01 -0.44299455918E-01  0.12808819932E+00  0.20582419201E-01 0.  0.
         14    1    1    2    0    0  0.13575108042E-01 -0.99037201090E-02 -0.18749068730E-01  0.25177267695E-01  0.00000000000E+00 0.  1.
     999901    1    3    3    0    0 -0.97100432410E-01 -0.74024994996E-01  0.63048524648E-01  0.89066453299E+00  0.88000000000E+00 0. -1.
        -11    1    4    4    0    0  0.45774909802E-01  0.49060862908E-01 -0.35617138956E-01  0.75968100839E-01  0.51100000000E-03 0.  1.
         11    1    4    4    0    0  0.37750414566E-01  0.34867852198E-01 -0.86823169622E-02  0.52120098480E-01  0.51100000000E-03 0. -1.
</event>
<event>
 8    1  0.1161271E+005  0.1043930E+01  0.7957747E-01            NaN
         13   -1    0    0    0    0  0.00000000000E+00  0.00000000000E+00  0.74505805969E-08  0.10566000000E+00  0.10566000000E+00 0.  1.
     999900   -1    0    0    0    0 -0.00000000000E+00 -0.00000000000E+00 -0.74505805969E-08  0.93827000000E+00  0.93827000000E+00 0.  1.
     999902    2    1    2    0    0 -0.11745457017E-01 -0.18732394587E-01 -0.63460027174E-02  0.10209271715E+01  0.10206679967E+01 0.  0.
     999903    2    3    3    0    0  0.32527599576E-01  0.12061130106E+00 -0.24167936469E-01  0.12868595392E+00  0.19257593478E-01 0.  0.
         14    1    1    2    0    0  0.11745457017E-01  0.18732394587E-01  0.63460027174E-02  0.23002828478E-01  0.00000000000E+00 0.  1.
     999901    1    3    3    0    0 -0.44273056593E-01 -0.13934369565E+00  0.17821933752E-01  0.89224121760E+00  0.88000000000E+00 0.  1.
        -11    1    4    4    0    0 -0.20784686727E-02  0.13042703010E-01 -0.46631327704E-02  0.14015636342E-01  0.51100000000E-03 0.  1.
         11    1    4    4    0    0  0.34606068249E-01  0.10756859805E+00 -0.19504803699E-01  0.11467031758E+00  0.51100000000E-03 0. -1.
</event>
<event>
 8    1  0.1161271E+005  0.1043930E+01  0.7957747E-01            NaN
         13   -1    0    0    0    0  0.00000000000E+00  0.00000000000E+00  0.74505805969E-08  0.10566000000E+00  0.10566000000E+00 0.  1.
     999900   -1    0    0    0    0 -0.00000000000E+00 -0.00000000000E+00 -0.74505805969E-08  0.93827000000E+00  0.93827000000E+00 0.  1.
     999902    2    1    2    0    0  0.91873169022E-03  0.15752299844E-01  0.17228181035E-01  0.10205678674E+01  0.10203004375E+01 0.  0.
     999903    2    3    3    0    0  0.71690604623E-01 -0.10294990922E+00 -0.21767378526E-01  0.12892919276E+00  0.20265521870E-01 0.  0.
         14    1    1    2    0    0 -0.91873169022E-03 -0.15752299844E-01 -0.17228181035E-01  0.23362132609E-01  0.00000000000E+00 0. -1.
     999901    1    3    3    0    0 -0.70771872933E-01  0.11870220907E+00  0.38995559561E-01  0.89163867463E+00  0.88000000000E+00 0. -1.
        -11    1    4    4    0    0  0.53512294372E-01 -0.88163647573E-01 -0.22158973544E-01  0.10548779850E+00  0.51100000000E-03 0.  1.
         11    1    4    4    0    0  0.18178310251E-01 -0.14786261652E-01  0.39159501742E-03  0.23441394260E-01  0.51100000000E-03 0. -1.
</event>
<event>
 8    1  0.1161271E+005  0.1043930E+01  0.7957747E-01            NaN
         13   -1    0    0    0    0  0.00000000000E+00  0.00000000000E+00  0.74505805969E-08  0.10566000000E+00  0.10566000000E+00 0.  1.
     999900   -1    0    0    0    0 -0.00000000000E+00 -0.00000000000E+00 -0.74505805969E-08  0.93827000000E+00  0.93827000000E+00 0. -1.
     999902    2    1    2    0    0 -0.22836059838E-01 -0.16440670401E-02  0.45363687417E-02  0.10205897509E+01  0.10203228276E+01 0.  0.
     999903    2    3    3    0    0 -0.93198649473E-01  0.28009596072E-01  0.88909457813E-01  0.13326283715E+00  0.19584849779E-01 0.  0.
         14    1    1    2    0    0  0.22836059838E-01  0.16440670401E-02 -0.45363687417E-02  0.23340249072E-01  0.00000000000E+00 0. -1.
     999901    1    3    3    0    0  0.70362589635E-01 -0.29653663113E-01 -0.84373089071E-01  0.88732691378E+00  0.88000000000E+00 0. -1.
        -11    1    4    4    0    0 -0.82358992177E-01  0.18399168157E-01  0.79779773853E-01  0.11613184929E+00  0.51100000000E-03 0. -1.
         11    1    4    4    0    0 -0.10839657296E-01  0.96104279158E-02  0.91296839597E-02  0.17130987865E-01  0.51100000000E-03 0.  1.
</event>
<event>
 8    1  0.1161271E+005  0.1043930E+01  0.7957747E-01            NaN
         13   -1    0    0    0    0  0.00000000000E+00  0.00000000000E+00  0.74505805969E-08  0.10566000000E+00  0.10566000000E+00 0. -1.
     999900   -1    0    0    0    0 -0.00000000000E+00 -0.00000000000E+00 -0.74505805969E-08  0.93827000000E+00  0.93827000000E+00 0.  1.
     999902    2    1    2    0    0 -0.11797876875E-01  0.22190155158E-01 -0.24760489275E-02  0.10186768081E+01  0.10183637442E+01 0.  0.
     999903    2    3    3    0    0 -0.38663743109E-01 -0.30421169430E-01 -0.11783934134E+00  0.12918346043E+00  0.19542863202E-01 0.  0.
         14    1    1    2    0    0  0.11797876875E-01 -0.22190155158E-01  0.24760489275E-02  0.25253191937E-01  0.00000000000E+00 0.  1.
     999901    1    3    3    0    0  0.26865866233E-01  0.52611324589E-01  0.11536329241E+00  0.88949334763E+00  0.88000000000E+00 0. -1.
        -11    1    4    4    0    0 -0.35582806667E-01 -0.19682184462E-01 -0.80252699711E-01  0.89968224655E-01  0.51100000000E-03 0.  1.
         11    1    4    4    0    0 -0.30809364413E-02 -0.10738984968E-01 -0.37586641624E-01  0.39215235778E-01  0.51100000000E-03 0. -1.
</event>
<event>
 8    1  0.1161271E+005  0.1043930E+01  0.7957747E-01            NaN
         13   -1    0    0    0    0  0.00000000000E+00  0.00000000000E+00  0.74505805969E-08  0.10566000000E+00  0.10566000000E+00 0. -1.
     999900   -1    0    0    0    0 -0.00000000000E+00 -0.00000000000E+00 -0.74505805969E-08  0.93827000000E+00  0.93827000000E+00 0.  1.
     999902    2    1    2    0    0 -0.29092767514E-02 -0.22024247842E-01  0.13241959899E-01  0.10180672684E+01  0.10177387101E+01 0.  0.
     999903    2    3    3    0    0  0.20962031348E-01  0.11242391996E+00 -0.47391115474E-01  0.12547412535E+00  0.20476664000E-01 0.  0.
         14    1    1    2    0    0  0.29092767514E-02  0.22024247842E-01 -0.13241959899E-01  0.25862731607E-01  0.00000000000E+00 0.  1.
     999901    1    3    3    0    0 -0.23871308099E-01 -0.13444816781E+00  0.60633075373E-01  0.89259314304E+00  0.88000000000E+00 0. -1.
        -11    1    4    4    0    0  0.14241218055E-01  0.34985849611E-01 -0.21923669642E-01  0.43677572921E-01  0.51100000000E-03 0. -1.
         11    1    4    4    0    0  0.67208132924E-02  0.77438070352E-01 -0.25467445832E-01  0.81796552429E-01  0.51100000000E-03 0.  1.
</event>
<event>
 8    1  0.1161271E+005  0.1043930E+01  0.7957747E-01            NaN
         13   -1    0    0    0    0  0.00000000000E+00  0.00000000000E+00  0.74505805969E-08  0.10566000000E+00  0.10566000000E+00 0. -1.
     999900   -1    0    0    0    0 -0.00000000000E+00 -0.00000000000E+00 -0.74505805969E-08  0.93827000000E+00  0.93827000000E+00 0.  1.
     999902    2    1    2    0    0  0.11096695573E-01 -0.18039324697E-01  0.40196277531E-02  0.10223728366E+01  0.10221455403E+01 0.  0.
     999903    2    3    3    0    0 -0.10276674768E+00  0.76847284173E-01  0.57861466572E-02  0.12997635918E+00  0.19846030836E-01 0.  0.
         14    1    1    2    0    0 -0.11096695573E-01  0.18039324697E-01 -0.40196277531E-02  0.21557163436E-01  0.00000000000E+00 0.  1.
     999901    1    3    3    0    0  0.11386344325E+00 -0.94886608870E-01 -0.17665189040E-02  0.89239647738E+00  0.88000000000E+00 0.  1.
        -11    1    4    4    0    0 -0.34602230585E-01  0.29292195876E-01  0.11144911039E-01  0.46688513189E-01  0.51100000000E-03 0. -1.
         11    1    4    4    0    0 -0.68164517095E-01  0.47555088297E-01 -0.53587643822E-02  0.83287845995E-01  0.51100000000E-03 0.  1.
</event>
<event>
 8    1  0.1161271E+005  0.1043930E+01  0.7957747E-01            NaN
         13   -1    0    0    0    0  0.00000000000E+00  0.00000000000E+00  0.74505805969E-08  0.10566000000E+00  0.10566000000E+00 0. -1.
     999900   -1    0    0    0    0 -0.00000000000E+00 -0.00000000000E+00 -0.74505805969E-08  0.93827000000E+00  0.93827000000E+00 0.  1.
     999902    2    1    2    0    0  0.19793156689E-02  0.19430951557E-01 -0.11416452216E-01  0.10213066724E+01  0.10210560730E+01 0.  0.
     999903    2    3    3    0    0 -0.72935433917E-01  0.25378720300E-02  0.10578708513E+00  0.13022066929E+00  0.20988020704E-01 0.  0.
         14    1    1    2    0    0 -0.19793156689E-02 -0.19430951557E-01  0.11416452216E-01  0.22623327565E-01  0.00000000000E+00 0. -1.
     999901    1    3    3    0    0  0.74914749586E-01  0.16893079527E-01 -0.11720353735E+00  0.89108600315E+00  0.88000000000E+00 0.  1.
        -11    1    4    4    0    0 -0.70444592302E-02 -0.18192398179E-02  0.26623301242E-02  0.77642232098E-02  0.51100000000E-03 0. -1.
         11    1    4    4    0    0 -0.65890974687E-01  0.43571118479E-02  0.10312475501E+00  0.12245644608E+00  0.51100000000E-03 0.  1.
</event>
<event>
 8    1  0.1161271E+005  0.1043930E+01  0.7957747E-01            NaN
         13   -1    0    0    0    0  0.00000000000E+00  0.00000000000E+00  0.74505805969E-08  0.10566000000E+00  0.10566000000E+00 0. -1.
     999900   -1    0    0    0    0 -0.00000000000E+00 -0.00000000000E+00 -0.74505805969E-08  0.93827000000E+00  0.93827000000E+00 0. -1.
     999902    2    1    2    0    0 -0.16449870653E-01 -0.67481776262E-02  0.15981440699E-01  0.10200230430E+01  0.10197428429E+01 0.  0.
     999903    2    3    3    0    0 -0.53327315113E-02  0.12776687804E+00  0.86686383140E-02  0.12970210758E+00  0.19866511321E-01 0.  0.
         14    1    1    2    0    0  0.16449870653E-01  0.67481776262E-02 -0.15981440699E-01  0.23906956991E-01  0.00000000000E+00 0.  1.
     999901    1    3    3    0    0 -0.11117139141E-01 -0.13451505566E+00  0.73128023847E-02  0.89032093543E+00  0.88000000000E+00 0. -1.
        -11    1    4    4    0    0 -0.47354069063E-02  0.59694584874E-01  0.13727557009E-01  0.61437565742E-01  0.51100000000E-03 0. -1.
         11    1    4    4    0    0 -0.59732460499E-03  0.68072293163E-01 -0.50589186954E-02  0.68264541839E-01  0.51100000000E-03 0.  1.
</event>
<event>
 8    1  0.1161271E+005  0.1043930E+01  0.7957747E-01            NaN
         13   -1    0    0    0    0  0.00000000000E+00  0.00000000000E+00  0.74505805969E-08  0.10566000000E+00  0.10566000000E+00 0.  1.
     999900   -1    0    0    0    0 -0.00000000000E+00 -0.00000000000E+00 -0.74505805969E-08  0.93827000000E+00  0.93827000000E+00 0.  1.
     999902    2    1    2    0    0 -0.12937144489E-01 -0.16512346401E-01  0.13849121994E-01  0.10187938613E+01  0.10184837290E+01 0.  0.
     999903    2    3    3    0    0 -0.65267187467E-01 -0.15013628111E-02 -0.10895899816E+00  0.12859972658E+00  0.20093943048E-01 0.  0.
         14    1    1    2    0    0  0.12937144489E-01  0.16512346401E-01 -0.13849121994E-01  0.25136138749E-01  0.00000000000E+00 0.  1.
     999901    1    3    3    0    0  0.52330042978E-01 -0.15010983590E-01  0.12280812015E+00  0.89019413467E+00  0.88000000000E+00 0. -1.
        -11    1    4    4    0    0 -0.46274091343E-01  0.26740162955E-03 -0.58095488617E-01  0.74274557905E-01  0.51100000000E-03 0. -1.
         11    1    4    4    0    0 -0.18993096123E-01 -0.17687644406E-02 -0.50863509540E-01  0.54325168676E-01  0.51100000000E-03 0.  1.
</event>
<event>
 8    1  0.1161271E+005  0.1043930E+01  0.7957747E-01            NaN
         13   -1    0    0    0    0  0.00000000000E+00  0.00000000000E+00  0.74505805969E-08  0.10566000000E+00  0.10566000000E+00 0. -1.
     999900   -1    0    0    0    0 -0.00000000000E+00 -0.00000000000E+00 -0.74505805969E-08  0.93827000000E+00  0.93827000000E+00 0.  1.
     999902    2    1    2    0    0  0.10579747362E-01  0.17337537882E-01  0.14613806803E-01  0.10189083169E+01  0.10186010376E+01 0.  0.
     999903    2    3    3    0    0  0.68279852169E-01  0.28009138810E-01  0.10767158229E+00  0.13205831004E+00  0.19989435890E-01 0.  0.
         14    1    1    2    0    0 -0.10579747362E-01 -0.17337537882E-01 -0.14613806803E-01  0.25021683063E-01  0.00000000000E+00 0. -1.
     999901    1    3    3    0    0 -0.57700104807E-01 -0.10671600928E-01 -0.93057775489E-01  0.88685000690E+00  0.88000000000E+00 0.  1.
        -11    1    4    4    0    0  0.13520596700E-01 -0.25216231187E-02  0.19393684811E-01  0.23781111199E-01  0.51100000000E-03 0. -1.
         11    1    4    4    0    0  0.54759255469E-01  0.30530761929E-01  0.88277897481E-01  0.10827719884E+00  0.51100000000E-03 0.  1.
</event>
<event>
 8    1  0.1161271E+005  0.1043930E+01  0.7957747E-01            NaN
         13   -1    0    0    0    0  0.00000000000E+00  0.00000000000E+00  0.74505805969E-08  0.10566000000E+00  0.10566000000E+00 0. -1.
     999900   -1    0    0    0    0 -0.00000000000E+00 -0.00000000000E+00 -0.74505805969E-08  0.93827000000E+00  0.93827000000E+00 0. -1.
     999902    2    1    2    0    0  0.14698779691E-01  0.13175670305E-01 -0.13334151936E-01  0.10201087486E+01  0.10198305775E+01 0.  0.
     999903    2    3    3    0    0 -0.43047262386E-01 -0.10631544850E+00 -0.55923631939E-01  0.12913927846E+00  0.19835807099E-01 0.  0.
         14    1    1    2    0    0 -0.14698779691E-01 -0.13175670305E-01  0.13334151936E-01  0.23821251441E-01  0.00000000000E+00 0.  1.
     999901    1    3    3    0    0  0.57746042077E-01  0.11949111880E+00  0.42589480003E-01  0.89096947010E+00  0.88000000000E+00 0.  1.
        -11    1    4    4    0    0 -0.30763631528E-01 -0.68867702792E-01 -0.26478848536E-01  0.79940928525E-01  0.51100000000E-03 0. -1.
         11    1    4    4    0    0 -0.12283630859E-01 -0.37447745703E-01 -0.29444783403E-01  0.49198349931E-01  0.51100000000E-03 0.  1.
</event>
<event>
 8    1  0.1161271E+005  0.1043930E+01  0.7957747E-01            NaN
         13   -1    0    0    0    0  0.00000000000E+00  0.00000000000E+00  0.74505805969E-08  0.10566000000E+00  0.10566000000E+00 0.  1.
     999900   -1    0    0    0    0 -0.00000000000E+00 -0.00000000000E+00 -0.74505805969E-08  0.93827000000E+00  0.93827000000E+00 0.  1.
     999902    2    1    2    0    0 -0.49005900713E-02 -0.15952233371E-01  0.17268246366E-01  0.10199157987E+01  0.10196330490E+01 0.  0.
     999903    2    3    3    0    0  0.94900941392E-01 -0.10878437801E-01 -0.83478475343E-01  0.12854831497E+00  0.20772201350E-01 0.  0.
         14    1    1    2    0    0  0.49005900713E-02  0.15952233371E-01 -0.17268246366E-01  0.24014201322E-01  0.00000000000E+00 0. -1.
     999901    1    3    3    0    0 -0.99801531463E-01 -0.50737955704E-02  0.10074672171E+00  0.89136748371E+00  0.88000000000E+00 0. -1.
        -11    1    4    4    0    0  0.35336929646E-01  0.43063976891E-02 -0.38077403670E-01  0.52128624086E-01  0.51100000000E-03 0. -1.
         11    1    4    4    0    0  0.59564011746E-01 -0.15184835490E-01 -0.45401071673E-01  0.76419690880E-01  0.51100000000E-03 0.  1.
</event>
<event>
 8    1  0.1161271E+005  0.1043930E+01  0.7957747E-01            NaN
         13   -1    0    0    0    0  0.00000000000E+00  0.00000000000E+00  0.74505805969E-08  0.10566000000E+00  0.10566000000E+00 0. -1.
     999900   -1    0    0    0    0 -0.00000000000E+00 -0.00000000000E+00 -0.74505805969E-08  0.93827000000E+00  0.93827000000E+00 0.  1.
     999902    2    1    2    0    0  0.22835570729E-01 -0.34120183962E-02  0.12729886067E-02  0.10208058641E+01  0.10205439170E+01 0.  0.
     999903    2    3    3    0    0 -0.12381541573E+00 -0.57515234986E-02 -0.26021707988E-01  0.12824943141E+00  0.20185395139E-01 0.  0.
         14    1    1    2    0    0 -0.22835570729E-01  0.34120183962E-02 -0.12729886067E-02  0.23124135877E-01  0.00000000000E+00 0. -1.
     999901    1    3    3    0    0  0.14665098645E+00  0.23395051025E-02  0.27294696595E-01  0.89255643271E+00  0.88000000000E+00 0. -1.
        -11    1    4    4    0    0 -0.11027148841E+00 -0.98197702569E-02 -0.18567629953E-01  0.11225527625E+00  0.51100000000E-03 0.  1.
         11    1    4    4    0    0 -0.13543927316E-01  0.40682467583E-02 -0.74540780352E-02  0.15994155157E-01  0.51100000000E-03 0. -1.
</event>
<event>
 8    1  0.1161271E+005  0.1043930E+01  0.7957747E-01            NaN
         13   -1    0    0    0    0  0.00000000000E+00  0.00000000000E+00  0.74505805969E-08  0.10566000000E+00  0.10566000000E+00 0.  1.
     999900   -1    0    0    0    0 -0.00000000000E+00 -0.00000000000E+00 -0.74505805969E-08  0.93827000000E+00  0.93827000000E+00 0.  1.
     999902    2    1    2    0    0 -0.12412464968E-03 -0.15003869997E-01 -0.18539108419E-01  0.10200798415E+01  0.10198009869E+01 0.  0.
     999903    2    3    3    0    0  0.92616757758E-01 -0.39233260342E-01  0.79092187012E-01  0.12950710188E+00  0.19985065811E-01 0.  0.
         14    1    1    2    0    0  0.12412464968E-03  0.15003869997E-01  0.18539108419E-01  0.23850158548E-01  0.00000000000E+00 0.  1.
     999901    1    3    3    0    0 -0.92740882408E-01  0.24229390345E-01 -0.97631295431E-01  0.89057273957E+00  0.88000000000E+00 0.  1.
        -11    1    4    4    0    0  0.21745824244E-01 -0.18653388098E-01  0.19649541849E-01  0.34744717231E-01  0.51100000000E-03 0. -1.
         11    1    4    4    0    0  0.70870933514E-01 -0.20579872244E-01  0.59442645163E-01  0.94762384646E-01  0.51100000000E-03 0.  1.
</event>
<event>
 8    1  0.1161271E+005  0.1043930E+01  0.7957747E-01            NaN
         13   -1    0    0    0    0  0.00000000000E+00  0.00000000000E+00  0.74505805969E-08  0.10566000000E+00  0.10566000000E+00 0. -1.
     999900   -1    0    0    0    0 -0.00000000000E+00 -0.00000000000E+00 -0.74505805969E-08  0.93827000000E+00  0.93827000000E+00 0. -1.
     999902    2    1    2    0    0 -0.75593506307E-02 -0.21691801299E-01  0.10307633768E-01  0.10187521260E+01  0.10184409501E+01 0.  0.
     999903    2    3    3    0    0 -0.38383269951E-01 -0.10650082823E+00  0.65699600769E-01  0.13240515383E+00  0.19974618731E-01 0.  0.
         14    1    1    2    0    0  0.75593506307E-02  0.21691801299E-01 -0.10307633768E-01  0.25177874005E-01  0.00000000000E+00 0.  1.
     999901    1    3    3    0    0  0.30823919320E-01  0.84809026936E-01 -0.55391967002E-01  0.88634697216E+00  0.88000000000E+00 0. -1.
        -11    1    4    4    0    0 -0.17447158893E-01 -0.23252180184E-01  0.15148898377E-01  0.32784409096E-01  0.51100000000E-03 0.  1.
         11    1    4    4    0    0 -0.20936111057E-01 -0.83248648051E-01  0.50550702392E-01  0.99620744736E-01  0.51100000000E-03 0. -1.
</event>
<event>
 8    1  0.1161271E+005  0.1043930E+01  0.7957747E-01            NaN
         13   -1    0    0    0    0  0.00000000000E+00  0.00000000000E+00  0.74505805969E-08  0.10566000000E+00  0.10566000000E+00 0.  1.
     999900   -1    0    0    0    0 -0.00000000000E+00 -0.00000000000E+00 -0.74505805969E-08  0.93827000000E+00  0.93827000000E+00 0. -1.
     999902    2    1    2    0    0  0.19421057774E-01  0.42651892676E-02  0.13056375263E-01  0.10201426450E+01  0.10198652743E+01 0.  0.
     999903    2    3    3    0    0  0.31185174665E-01 -0.14688282718E-01  0.12660493002E+00  0.13256678746E+00  0.18891375339E-01 0.  0.
         14    1    1    2    0    0 -0.19421057774E-01 -0.42651892676E-02 -0.13056375263E-01  0.23787355035E-01  0.00000000000E+00 0. -1.
     999901    1    3    3    0    0 -0.11764116892E-01  0.18953471986E-01 -0.11354855476E+00  0.88757585751E+00  0.88000000000E+00 0. -1.
        -11    1    4    4    0    0  0.46489638182E-02 -0.11647554458E-01  0.37656983562E-01  0.39693676088E-01  0.51100000000E-03 0.  1.
         11    1    4    4    0    0  0.26536210847E-01 -0.30407282607E-02  0.88947946461E-01  0.92873111367E-01  0.51100000000E-03 0. -1.
</event>
<event>
 8    1  0.1161271E+005  0.1043930E+01  0.7957747E-01            NaN
         13   -1    0    0    0    0  0.00000000000E+00  0.00000000000E+00  0.74505805969E-08  0.10566000000E+00  0.10566000000E+00 0.  1.
     999900   -1    0    0    0    0 -0.00000000000E+00 -0.00000000000E+00 -0.74505805969E-08  0.93827000000E+00  0.93827000000E+00 0.  1.
     999902    2    1    2    0    0  0.13466126272E-01  0.12537362813E-01 -0.13654906681E-01  0.10210175907E+01  0.10207604724E+01 0.  0.
     999903    2    3    3    0    0  0.80579208111E-01  0.77966474190E-01  0.67407607977E-01  0.13233527084E+00  0.19926324722E-01 0.  0.
         14    1    1    2    0    0 -0.13466126272E-01 -0.12537362813E-01  0.13654906681E-01  0.22912409292E-01  0.00000000000E+00 0.  1.
     999901    1    3    3    0    0 -0.67113081839E-01 -0.65429111377E-01 -0.81062514657E-01  0.88868231987E+00  0.88000000000E+00 0.  1.
        -11    1    4    4    0    0  0.57004626873E-01  0.43036683914E-01  0.37640150238E-01  0.80738625689E-01  0.51100000000E-03 0. -1.
         11    1    4    4    0    0  0.23574581238E-01  0.34929790277E-01  0.29767457738E-01  0.51596645148E-01  0.51100000000E-03 0.  1.
</event>
<event>
 8    1  0.1161271E+005  0.1043930E+01  0.7957747E-01            NaN
         13   -1    0    0    0    0  0.00000000000E+00  0.00000000000E+00  0.74505805969E-08  0.10566000000E+00  0.10566000000E+00 0.  1.
     999900   -1    0    0    0    0 -0.00000000000E+00 -0.00000000000E+00 -0.74505805969E-08  0.93827000000E+00  0.93827000000E+00 0. -1.
     999902    2    1    2    0    0  0.94421592544E-02  0.21183044587E-01  0.35033308133E-02  0.10204747431E+01  0.10202051520E+01 0.  0.
     999903    2    3    3    0    0 -0.90738042595E-02  0.37524502337E-01 -0.12338152125E+00  0.13103129362E+00  0.21348955989E-01 0.  0.
         14    1    1    2    0    0 -0.94421592544E-02 -0.21183044587E-01 -0.35033308133E-02  0.23455256898E-01  0.00000000000E+00 0. -1.
     999901    1    3    3    0    0  0.18515963514E-01 -0.16341457750E-01  0.12688485206E+00  0.88944344948E+00  0.88000000000E+00 0.  1.
        -11    1    4    4    0    0  0.48845393797E-02  0.86414784818E-02 -0.49441612286E-01  0.50430824123E-01  0.51100000000E-03 0. -1.
         11    1    4    4    0    0 -0.13958343639E-01  0.28883023855E-01 -0.73939908964E-01  0.80600469495E-01  0.51100000000E-03 0.  1.
</event>
<event>
 8    1  0.1161271E+005  0.1043930E+01  0.7957747E-01            NaN
         13   -1    0    0    0    0  0.00000000000E+00  0.00000000000E+00  0.74505805969E-08  0.10566000000E+00  0.10566000000E+00 0. -1.
     999900   -1    0    0    0    0 -0.00000000000E+00 -0.00000000000E+00 -0.74505805969E-08  0.93827000000E+00  0.93827000000E+00 0. -1.
     999902    2    1    2    0    0  0.17944648460E-01  0.14906328535E-01 -0.44096515222E-02  0.10201886002E+01  0.10199123128E+01 0.  0.
     999903    2    3    3    0    0  0.70372952041E-01 -0.10290313659E+00 -0.32129646103E-01  0.13035929341E+00  0.20489590528E-01 0.  0.
         14    1    1    2    0    0 -0.17944648460E-01 -0.14906328535E-01  0.44096515222E-02  0.23741399817E-01  0.00000000000E+00 0. -1.
     999901    1    3    3    0    0 -0.52428303581E-01  0.11780946513E+00  0.27719994581E-01  0.88982930677E+00  0.88000000000E+00 0. -1.
        -11    1    4    4    0    0  0.53188958345E-01 -0.80354935594E-01 -0.15838685221E-01  0.97658107880E-01  0.51100000000E-03 0. -1.
         11    1    4    4    0    0  0.17183993696E-01 -0.22548201001E-01 -0.16290960882E-01  0.32701185532E-01  0.51100000000E-03 0.  1.
</event>
<event>
 8    1  0.1161271E+005  0.1043930E+01  0.7957747E-01            NaN
         13   -1    0    0    0    0  0.00000000000E+00  0.00000000000E+00  0.74505805969E-08  0.10566000000E+00  0.10566000000E+00 0.  1.
     999900   -1    0    0    0    0 -0.00000000000E+00 -0.00000000000E+00 -0.74505805969E-08  0.93827000000E+00  0.93827000000E+00 0.  1.
     999902    2    1    2    0    0 -0.62455363005E-02 -0.20968144240E-01 -0.98850747772E-02  0.10199219909E+01  0.10196393887E+01 0.  0.
     999903    2    3    3    0    0 -0.98066733848E-01  0.41903294160E-01  0.71718828974E-01  0.12916773346E+00  0.12951547695E-01 0.  0.
         14    1    1    2    0    0  0.62455363005E-02  0.20968144240E-01  0.98850747772E-02  0.24008009078E-01  0.00000000000E+00 0.  1.
     999901    1    3    3    0    0  0.91821197547E-01 -0.62871438400E-01 -0.81603903752E-01  0.89075425747E+00  0.88000000000E+00 0.  1.
        -11    1    4    4    0    0 -0.34593873792E-01  0.20213528959E-01  0.31374197918E-01  0.50891298597E-01  0.51100000000E-03 0. -1.
         11    1    4    4    0    0 -0.63472860056E-01  0.21689765201E-01  0.40344631057E-01  0.78276434859E-01  0.51100000000E-03 0.  1.
</event>
<event>
 8    1  0.1161271E+005  0.1043930E+01  0.7957747E-01            NaN
         13   -1    0    0    0    0  0.00000000000E+00  0.00000000000E+00  0.74505805969E-08  0.10566000000E+00  0.10566000000E+00 0.  1.
     999900   -1    0    0    0    0 -0.00000000000E+00 -0.00000000000E+00 -0.74505805969E-08  0.93827000000E+00  0.93827000000E+00 0. -1.
     999902    2    1    2    0    0 -0.57880723243E-02 -0.21324396703E-01  0.82403634548E-02  0.10203474797E+01  0.10200749208E+01 0.  0.
     999903    2    3    3    0    0  0.87492065046E-01 -0.10019863215E-01  0.95601542635E-01  0.13104384639E+00  0.16660600779E-01 0.  0.
         14    1    1    2    0    0  0.57880723243E-02  0.21324396703E-01 -0.82403634548E-02  0.23582520346E-01  0.00000000000E+00 0. -1.
     999901    1    3    3    0    0 -0.93280137370E-01 -0.11304533488E-01 -0.87361179180E-01  0.88930363326E+00  0.88000000000E+00 0. -1.
        -11    1    4    4    0    0  0.51862978186E-01 -0.12304765606E-01  0.64636163771E-01  0.83781087072E-01  0.51100000000E-03 0. -1.
         11    1    4    4    0    0  0.35629086859E-01  0.22849023906E-02  0.30965378864E-01  0.47262759320E-01  0.51100000000E-03 0.  1.
</event>
<event>
 8    1  0.1161271E+005  0.1043930E+01  0.7957747E-01            NaN
         13   -1    0    0    0    0  0.00000000000E+00  0.00000000000E+00  0.74505805969E-08  0.10566000000E+00  0.10566000000E+00 0.  1.
     999900   -1    0    0    0    0 -0.00000000000E+00 -0.00000000000E+00 -0.74505805969E-08  0.93827000000E+00  0.93827000000E+00 0. -1.
     999902    2    1    2    0    0 -0.20722115095E-01 -0.52185394221E-02  0.12707039951E-01  0.10190682207E+01  0.10187649043E+01 0.  0.
     999903    2    3    3    0    0  0.22886511818E-01  0.12467409483E+00  0.50250685948E-02  0.12843203149E+00  0.20052756745E-01 0.  0.
         14    1    1    2    0    0  0.20722115095E-01  0.52185394221E-02 -0.12707039951E-01  0.24861779341E-01  0.00000000000E+00 0. -1.
     999901    1    3    3    0    0 -0.43608626913E-01 -0.12989263425E+00  0.76819713562E-02  0.89063618917E+00  0.88000000000E+00 0.  1.
        -11    1    4    4    0    0  0.12899341423E-01  0.29826639189E-01 -0.34496375337E-02  0.32683061891E-01  0.51100000000E-03 0.  1.
         11    1    4    4    0    0  0.99871703954E-02  0.94847455642E-01  0.84747061285E-02  0.95748969599E-01  0.51100000000E-03 0. -1.
</event>
<event>
 8    1  0.1161271E+005  0.1043930E+01  0.7957747E-01            NaN
         13   -1    0    0    0    0  0.00000000000E+00  0.00000000000E+00  0.74505805969E-08  0.10566000000E+00  0.10566000000E+00 0. -1.
     999900   -1    0    0    0    0 -0.00000000000E+00 -0.00000000000E+00 -0.74505805969E-08  0.93827000000E+00  0.93827000000E+00 0.  1.
     999902    2    1    2    0    0 -0.95146611629E-02 -0.14592493169E-01  0.17861769168E-01  0.10189798010E+01  0.10186742965E+01 0.  0.
     999903    2    3    3    0    0  0.70214012950E-01 -0.39483879750E-01 -0.96890330821E-01  0.12760766372E+00  0.20174123523E-01 0.  0.
         14    1    1    2    0    0  0.95146611629E-02  0.14592493169E-01 -0.17861769168E-01  0.24950199033E-01  0.00000000000E+00 0.  1.
     999901    1    3    3    0    0 -0.79728674113E-01  0.24891386581E-01  0.11475209999E+00  0.89137213724E+00  0.88000000000E+00 0. -1.
        -11    1    4    4    0    0  0.51923817255E-01 -0.19572296290E-01 -0.58323469256E-01  0.80504942503E-01  0.51100000000E-03 0. -1.
         11    1    4    4    0    0  0.18290195695E-01 -0.19911583461E-01 -0.38566861565E-01  0.47102721221E-01  0.51100000000E-03 0.  1.
</event>
<event>
 8    1  0.1161271E+005  0.1043930E+01  0.7957747E-01            NaN
         13   -1    0    0    0    0  0.00000000000E+00  0.00000000000E+00  0.74505805969E-08  0.10566000000E+00  0.10566000000E+00 0.  1.
     999900   -1    0    0    0    0 -0.00000000000E+00 -0.00000000000E+00 -0.74505805969E-08  0.93827000000E+00  0.93827000000E+00 0. -1.
     999902    2    1    2    0    0  0.26314746287E-01 -0.28524821612E-02  0.92205690931E-02  0.10159010610E+01  0.10155143250E+01 0.  0.
     999903    2    3    3    0    0  0.90496821999E-01  0.56953251576E-01 -0.67819155701E-01  0.12818985581E+00  0.19996339576E-01 0.  0.
         14    1    1    2    0    0 -0.26314746287E-01  0.28524821612E-02 -0.92205690931E-02  0.28028938993E-01  0.00000000000E+00 0. -1.
     999901    1    3    3    0    0 -0.64182075712E-01 -0.59805733737E-01  0.77039724794E-01  0.88771120519E+00  0.88000000000E+00 0.  1.
        -11    1    4    4    0    0  0.10009133859E-01  0.89072249091E-02 -0.17829965018E-02  0.13526330386E-01  0.51100000000E-03 0. -1.
         11    1    4    4    0    0  0.80487688140E-01  0.48046026667E-01 -0.66036159199E-01  0.11466352543E+00  0.51100000000E-03 0.  1.
</event>
<event>
 8    1  0.1161271E+005  0.1043930E+01  0.7957747E-01            NaN
         13   -1    0    0    0    0  0.00000000000E+00  0.00000000000E+00  0.74505805969E-08  0.10566000000E+00  0.10566000000E+00 0. -1.
     999900   -1    0    0    0    0 -0.00000000000E+00 -0.00000000000E+00 -0.74505805969E-08  0.93827000000E+00  0.93827000000E+00 0. -1.
     999902    2    1    2    0    0 -0.14856120228E-01  0.95893575370E-02 -0.15937029490E-01  0.10201256097E+01  0.10198478370E+01 0.  0.
     999903    2    3    3    0    0  0.87252984162E-01  0.84405225726E-01  0.39019034150E-01  0.12937095651E+00  0.21841107754E-01 0.  0.
         14    1    1    2    0    0  0.14856120228E-01 -0.95893575370E-02  0.15937029490E-01  0.23804390250E-01  0.00000000000E+00 0. -1.
     999901    1    3    3    0    0 -0.10210910439E+00 -0.74815868189E-01 -0.54956063641E-01  0.89075465324E+00  0.88000000000E+00 0. -1.
        -11    1    4    4    0    0  0.48931923117E-01  0.40757125413E-01  0.10085970811E-01  0.64478401811E-01  0.51100000000E-03 0.  1.
         11    1    4    4    0    0  0.38321061045E-01  0.43648100313E-01  0.28933063339E-01  0.64892554702E-01  0.51100000000E-03 0. -1.
</event>
<event>
 8    1  0.1161271E+005  0.1043930E+01  0.7957747E-01            NaN
         13   -1    0    0    0    0  0.00000000000E+00  0.00000000000E+00  0.74505805969E-08  0.10566000000E+00  0.10566000000E+00 0. -1.
     999900   -1    0    0    0    0 -0.00000000000E+00 -0.00000000000E+00 -0.74505805969E-08  0.93827000000E+00  0.93827000000E+00 0.  1.
     999902    2    1    2    0    0  0.19192043770E-01 -0.70053221844E-02 -0.37129340481E-02  0.10231647655E+01  0.10229540275E+01 0.  0.
     999903    2    3    3    0    0 -0.98989132113E-01  0.44896517456E-03 -0.83346627628E-01  0.13166945883E+00  0.24313292766E-01 0.  0.
         14    1    1    2    0    0 -0.19192043770E-01  0.70053221844E-02  0.37129340481E-02  0.20765234461E-01  0.00000000000E+00 0. -1.
     999901    1    3    3    0    0  0.11818117588E+00 -0.74542873590E-02  0.79633693580E-01  0.89149530671E+00  0.88000000000E+00 0.  1.
        -11    1    4    4    0    0 -0.49323626560E-01  0.31047721803E-02 -0.26306511400E-01  0.55988868629E-01  0.51100000000E-03 0. -1.
         11    1    4    4    0    0 -0.49665505553E-01 -0.26558070057E-02 -0.57040116228E-01  0.75680590200E-01  0.51100000000E-03 0.  1.
</event>
<event>
 8    1  0.1161271E+005  0.1043930E+01  0.7957747E-01            NaN
         13   -1    0    0    0    0  0.00000000000E+00  0.00000000000E+00  0.74505805969E-08  0.10566000000E+00  0.10566000000E+00 0. -1.
     999900   -1    0    0    0    0 -0.00000000000E+00 -0.00000000000E+00 -0.74505805969E-08  0.93827000000E+00  0.93827000000E+00 0. -1.
     999902    2    1    2    0    0  0.13660507115E-01 -0.14889880251E-01  0.12503510907E-01  0.10201675133E+01  0.10198907292E+01 0.  0.
     999903    2    3    3    0    0  0.16551053455E-01 -0.12104461388E+00  0.48537243583E-01  0.13305105387E+00  0.20517870275E-01 0.  0.
         14    1    1    2    0    0 -0.13660507115E-01  0.14889880251E-01 -0.12503510907E-01  0.23762486687E-01  0.00000000000E+00 0.  1.
     999901    1    3    3    0    0 -0.28905463401E-02  0.10615473363E+00 -0.36033732676E-01  0.88711645945E+00  0.88000000000E+00 0. -1.
        -11    1    4    4    0    0  0.15317206075E-01 -0.10911958319E+00  0.36561219345E-01  0.11609773520E+00  0.51100000000E-03 0.  1.
         11    1    4    4    0    0  0.12338473793E-02 -0.11925030694E-01  0.11976024238E-01  0.16953318671E-01  0.51100000000E-03 0. -1.
</event>
<event>
 8    1  0.1161271E+005  0.1043930E+01  0.7957747E-01            NaN
         13   -1    0    0    0    0  0.00000000000E+00  0.00000000000E+00  0.74505805969E-08  0.10566000000E+00  0.10566000000E+00 0.  1.
     999900   -1    0    0    0    0 -0.00000000000E+00 -0.00000000000E+00 -0.74505805969E-08  0.93827000000E+00  0.93827000000E+00 0.  1.
     999902    2    1    2    0    0  0.21746130808E-01 -0.85038399919E-02 -0.48089653284E-02  0.10200902087E+01  0.10198115994E+01 0.  0.
     999903    2    3    3    0    0  0.12214474778E+00  0.23487295552E-01  0.42526679176E-01  0.13254078573E+00  0.16957269168E-01 0.  0.
         14    1    1    2    0    0 -0.21746130808E-01  0.85038399919E-02  0.48089653284E-02  0.23839791258E-01  0.00000000000E+00 0. -1.
     999901    1    3    3    0    0 -0.10039861697E+00 -0.31991135544E-01 -0.47335644504E-01  0.88754942301E+00  0.88000000000E+00 0.  1.
        -11    1    4    4    0    0  0.55614556886E-01  0.11132073632E-01  0.28315442502E-01  0.63395010893E-01  0.51100000000E-03 0.  1.
         11    1    4    4    0    0  0.66530190896E-01  0.12355221920E-01  0.14211236674E-01  0.69145774839E-01  0.51100000000E-03 0. -1.
</event>
<event>
 8    1  0.1161271E+005  0.1043930E+01  0.7957747E-01            NaN
         13   -1    0    0    0    0  0.00000000000E+00  0.00000000000E+00  0.74505805969E-08  0.10566000000E+00  0.10566000000E+00 0.  1.
     999900   -1    0    0    0    0 -0.00000000000E+00 -0.00000000000E+00 -0.74505805969E-08  0.93827000000E+00  0.93827000000E+00 0. -1.
     999902    2    1    2    0    0 -0.21448766005E-01 -0.78428161401E-02 -0.41111106214E-02  0.10207252471E+01  0.10204614493E+01 0.  0.
     999903    2    3    3    0    0  0.86778891200E-01 -0.91626085456E-01 -0.23659948821E-01  0.12993064724E+00  0.19906391457E-01 0.  0.
         14    1    1    2    0    0  0.21448766005E-01  0.78428161401E-02  0.41111106214E-02  0.23204752933E-01  0.00000000000E+00 0. -1.
     999901    1    3    3    0    0 -0.10822765720E+00  0.83783269316E-01  0.19548838199E-01  0.89079459982E+00  0.88000000000E+00 0. -1.
        -11    1    4    4    0    0  0.56483929285E-01 -0.51958695242E-01 -0.59993081286E-02  0.76983070202E-01  0.51100000000E-03 0.  1.
         11    1    4    4    0    0  0.30294961915E-01 -0.39667390214E-01 -0.17660640692E-01  0.52947577041E-01  0.51100000000E-03 0. -1.
</event>
<event>
 8    1  0.1161271E+005  0.1043930E+01  0.7957747E-01            NaN
         13   -1    0    0    0    0  0.00000000000E+00  0.00000000000E+00  0.74505805969E-08  0.10566000000E+00  0.10566000000E+00 0.  1.
     999900   -1    0    0    0    0 -0.00000000000E+00 -0.00000000000E+00 -0.74505805969E-08  0.93827000000E+00  0.93827000000E+00 0.  1.
     999902    2    1    2    0    0  0.20501299192E-01 -0.10384221587E-01 -0.78773388788E-02  0.10196362190E+01  0.10193467670E+01 0.  0.
     999903    2    3    3    0    0  0.87757341822E-01 -0.95976791066E-01 -0.17134221778E-01  0.13288081131E+00  0.21232828153E-01 0.  0.
         14    1    1    2    0    0 -0.20501299192E-01  0.10384221587E-01  0.78773388788E-02  0.24293780981E-01  0.00000000000E+00 0.  1.
     999901    1    3    3    0    0 -0.67256042630E-01  0.85592569479E-01  0.92568828993E-02  0.88675540771E+00  0.88000000000E+00 0.  1.
        -11    1    4    4    0    0  0.43719282630E-01 -0.54288538577E-01 -0.18865596572E-01  0.72213523315E-01  0.51100000000E-03 0. -1.
         11    1    4    4    0    0  0.44038059192E-01 -0.41688252489E-01  0.17313747938E-02  0.60667287995E-01  0.51100000000E-03 0.  1.
</event>
<event>
 8    1  0.1161271E+005  0.1043930E+01  0.7957747E-01            NaN
         13   -1    0    0    0    0  0.00000000000E+00  0.00000000000E+00  0.74505805969E-08  0.10566000000E+00  0.10566000000E+00 0.  1.
     999900   -1    0    0    0    0 -0.00000000000E+00 -0.00000000000E+00 -0.74505805969E-08  0.93827000000E+00  0.93827000000E+00 0.  1.
     999902    2    1    2    0    0  0.19460851042E-01  0.33900928186E-02 -0.12064497644E-01  0.10207833036E+01  0.10205208392E+01 0.  0.
     999903    2    3    3    0    0 -0.76832343869E-01 -0.40114381474E-01  0.92891458264E-01  0.12826956622E+00  0.17660292565E-01 0.  0.
         14    1    1    2    0    0 -0.19460851042E-01 -0.33900928186E-02  0.12064497644E-01  0.23146696438E-01  0.00000000000E+00 0.  1.
     999901    1    3    3    0    0  0.96293194911E-01  0.43504474293E-01 -0.10495595591E+00  0.89251373735E+00  0.88000000000E+00 0.  1.
        -11    1    4    4    0    0 -0.52309397564E-01 -0.35549177486E-01  0.62087938769E-01  0.88629511761E-01  0.51100000000E-03 0. -1.
         11    1    4    4    0    0 -0.24522946305E-01 -0.45652039878E-02  0.30803519495E-01  0.39640054455E-01  0.51100000000E-03 0.  1.
</event>
<event>
 8    1  0.1161271E+005  0.1043930E+01  0.7957747E-01            NaN
         13   -1    0    0    0    0  0.00000000000E+00  0.00000000000E+00  0.74505805969E-08  0.10566000000E+00  0.10566000000E+00 0. -1.
     999900   -1    0    0    0    0 -0.00000000000E+00 -0.00000000000E+00 -0.74505805969E-08  0.93827000000E+00  0.93827000000E+00 0. -1.
     999902    2    1    2    0    0  0.15235111771E-02  0.10108304106E-02  0.22935913440E-01  0.10209213279E+01  0.10206620199E+01 0.  0.
     999903    2    3    3    0    0  0.11462001165E+00 -0.50808238418E-01  0.36491631993E-01  0.13206825132E+00  0.19777756178E-01 0.  0.
         14    1    1    2    0    0 -0.15235111771E-02 -0.10108304106E-02 -0.22935913440E-01  0.23008672055E-01  0.00000000000E+00 0.  1.
     999901    1    3    3    0    0 -0.11309650048E+00  0.51819068828E-01 -0.13555718553E-01  0.88885307662E+00  0.88000000000E+00 0. -1.
        -11    1    4    4    0    0  0.66944104045E-01 -0.19320580735E-01  0.22790192082E-01  0.73310653267E-01  0.51100000000E-03 0. -1.
         11    1    4    4    0    0  0.47675907608E-01 -0.31487657683E-01  0.13701439910E-01  0.58757598056E-01  0.51100000000E-03 0.  1.
</event>
<event>
 8    1  0.1161271E+005  0.1043930E+01  0.7957747E-01            NaN
         13   -1    0    0    0    0  0.00000000000E+00  0.00000000000E+00  0.74505805969E-08  0.10566000000E+00  0.10566000000E+00 0. -1.
     999900   -1    0    0    0    0 -0.00000000000E+00 -0.00000000000E+00 -0.74505805969E-08  0.93827000000E+00  0.93827000000E+00 0. -1.
     999902    2    1    2    0    0 -0.10987566064E-01  0.13952500801E-01 -0.15104776595E-01  0.10206157734E+01  0.10203494518E+01 0.  0.
     999903    2    3    3    0    0 -0.45222924520E-02 -0.85874156468E-01 -0.97042881682E-01  0.13116593538E+00  0.19808075143E-01 0.  0.
         14    1    1    2    0    0  0.10987566064E-01 -0.13952500801E-01  0.15104776595E-01  0.23314226614E-01  0.00000000000E+00 0. -1.
     999901    1    3    3    0    0 -0.64652736122E-02  0.99826657268E-01  0.81938105087E-01  0.88944983801E+00  0.88000000000E+00 0.  1.
        -11    1    4    4    0    0 -0.75539514663E-02 -0.56090986450E-01 -0.50670037631E-01  0.75966932136E-01  0.51100000000E-03 0.  1.
         11    1    4    4    0    0  0.30316590142E-02 -0.29783170017E-01 -0.46372844052E-01  0.55199003244E-01  0.51100000000E-03 0. -1.
</event>
<event>
 8    1  0.1161271E+005  0.1043930E+01  0.7957747E-01            NaN
         13   -1    0    0    0    0  0.00000000000E+00  0.00000000000E+00  0.74505805969E-08  0.10566000000E+00  0.10566000000E+00 0. -1.
     999900   -1    0    0    0    0 -0.00000000000E+00 -0.00000000000E+00 -0.74505805969E-08  0.93827000000E+00  0.93827000000E+00 0. -1.
     999902    2    1    2    0    0  0.59772623946E-02  0.12500139776E-01 -0.18673772462E-01  0.10206772381E+01  0.10204123350E+01 0.  0.
     999903    2    3    3    0    0 -0.46162822556E-01 -0.11219368102E+00  0.37874671140E-01  0.12856465330E+00  0.19389458885E-01 0.  0.
         14    1    1    2    0    0 -0.59772623946E-02 -0.12500139776E-01  0.18673772462E-01  0.23252761946E-01  0.00000000000E+00 0. -1.
     999901    1    3    3    0    0  0.52140084951E-01  0.12469382080E+00 -0.56548443602E-01  0.89211258475E+00  0.88000000000E+00 0. -1.
        -11    1    4    4    0    0 -0.24296390973E-01 -0.40835620284E-01  0.80770350394E-02  0.48201266730E-01  0.51100000000E-03 0.  1.
         11    1    4    4    0    0 -0.21866431584E-01 -0.71358060740E-01  0.29797636100E-01  0.80363386569E-01  0.51100000000E-03 0. -1.
</event>
<event>
 8    1  0.1161271E+005  0.1043930E+01  0.7957747E-01            NaN
         13   -1    0    0    0    0  0.00000000000E+00  0.00000000000E+00  0.74505805969E-08  0.10566000000E+00  0.10566000000E+00 0. -1.
     999900   -1    0    0    0    0 -0.00000000000E+00 -0.00000000000E+00 -0.74505805969E-08  0.93827000000E+00  0.93827000000E+00 0. -1.
     999902    2    1    2    0    0 -0.17755897681E-01 -0.57442859927E-02 -0.14853717940E-01  0.10200783405E+01  0.10197994504E+01 0.  0.
     999903    2    3    3    0    0 -0.99126794089E-02  0.11667534749E+00  0.50641958110E-01  0.12915872218E+00  0.20148689018E-01 0.  0.
         14    1    1    2    0    0  0.17755897681E-01  0.57442859927E-02  0.14853717940E-01  0.23851659495E-01  0.00000000000E+00 0. -1.
     999901    1    3    3    0    0 -0.78432182718E-02 -0.12241963348E+00 -0.65495676050E-01  0.89091961832E+00  0.88000000000E+00 0. -1.
        -11    1    4    4    0    0 -0.93873309489E-02  0.95726862280E-01  0.49473484421E-01  0.10816487843E+00  0.51100000000E-03 0.  1.
         11    1    4    4    0    0 -0.52534845999E-03  0.20948485210E-01  0.11684736886E-02  0.20993843749E-01  0.51100000000E-03 0. -1.
</event>
<event>
 8    1  0.1161271E+005  0.1043930E+01  0.7957747E-01            NaN
         13   -1    0    0    0    0  0.00000000000E+00  0.00000000000E+00  0.74505805969E-08  0.10566000000E+00  0.10566000000E+00 0. -1.
     999900   -1    0    0    0    0 -0.00000000000E+00 -0.00000000000E+00 -0.74505805969E-08  0.93827000000E+00  0.93827000000E+00 0.  1.
     999902    2    1    2    0    0  0.12881580392E-01 -0.13619589225E-01 -0.14320344800E-01  0.10203397351E+01  0.10200669950E+01 0.  0.
     999903    2    3    3    0    0 -0.91522777330E-01  0.70589780048E-01 -0.54186610211E-01  0.12928372847E+00  0.20463575054E-01 0.  0.
         14    1    1    2    0    0 -0.12881580392E-01  0.13619589225E-01  0.14320344800E-01  0.23590264925E-01  0.00000000000E+00 0.  1.
     999901    1    3    3    0    0  0.10440435772E+00 -0.84209369273E-01  0.39866265411E-01  0.89105600660E+00  0.88000000000E+00 0. -1.
        -11    1    4    4    0    0 -0.62741835815E-01  0.55950357018E-01 -0.46567380282E-01  0.96102874251E-01  0.51100000000E-03 0.  1.
         11    1    4    4    0    0 -0.28780941515E-01  0.14639423030E-01 -0.76192299287E-02  0.33180854221E-01  0.51100000000E-03 0. -1.
</event>
<event>
 8    1  0.1161271E+005  0.1043930E+01  0.7957747E-01            NaN
         13   -1    0    0    0    0  0.00000000000E+00  0.00000000000E+00  0.74505805969E-08  0.10566000000E+00  0.10566000000E+00 0. -1.
     999900   -1    0    0    0    0 -0.00000000000E+00 -0.00000000000E+00 -0.74505805969E-08  0.93827000000E+00  0.93827000000E+00 0.  1.
     999902    2    1    2    0    0  0.41396429184E-02 -0.75645097817E-02 -0.18407754178E-01  0.10236025834E+01  0.10234007255E+01 0.  0.
     999903    2    3    3    0    0  0.27810734311E-01 -0.93888901220E-01  0.87284838264E-01  0.13276974542E+00  0.20508524894E-01 0.  0.
         14    1    1    2    0    0 -0.41396429184E-02  0.75645097817E-02  0.18407754178E-01  0.20327416600E-01  0.00000000000E+00 0. -1.
     999901    1    3    3    0    0 -0.23671091393E-01  0.86324391438E-01 -0.10569259244E+00  0.89083283798E+00  0.88000000000E+00 0.  1.
        -11    1    4    4    0    0  0.11554089662E-01 -0.16601106987E-01  0.25146438176E-01  0.32275349960E-01  0.51100000000E-03 0.  1.
         11    1    4    4    0    0  0.16256644649E-01 -0.77287794233E-01  0.62138400087E-01  0.10049439546E+00  0.51100000000E-03 0. -1.
</event>
<event>
 8    1  0.1161271E+005  0.1043930E+01  0.7957747E-01            NaN
         13   -1    0    0    0    0  0.00000000000E+00  0.00000000000E+00  0.74505805969E-08  0.10566000000E+00  0.10566000000E+00 0.  1.
     999900   -1    0    0    0    0 -0.00000000000E+00 -0.00000000000E+00 -0.74505805969E-08  0.93827000000E+00  0.93827000000E+00 0. -1.
     999902    2    1    2    0    0 -0.33213031540E-02  0.21422759344E-01 -0.14834644590E-01  0.10176615331E+01  0.10173224482E+01 0.  0.
     999903    2    3    3    0    0 -0.19608693282E-01 -0.12253040401E+00 -0.22071234828E-02  0.12572698024E+00  0.20104760808E-01 0.  0.
         14    1    1    2    0    0  0.33213031540E-02 -0.21422759344E-01  0.14834644590E-01  0.26268466888E-01  0.00000000000E+00 0. -1.
     999901    1    3    3    0    0  0.16287390128E-01  0.14395316335E+00 -0.12627521107E-01  0.89193455287E+00  0.88000000000E+00 0.  1.
        -11    1    4    4    0    0 -0.11408499191E-01 -0.82582729882E-01  0.78020647225E-02  0.83732875643E-01  0.51100000000E-03 0.  1.
         11    1    4    4    0    0 -0.82001940908E-02 -0.39947674128E-01 -0.10009188205E-01  0.41994104597E-01  0.51100000000E-03 0. -1.
</event>
<event>
 8    1  0.1161271E+005  0.1043930E+01  0.7957747E-01            NaN
         13   -1    0    0    0    0  0.00000000000E+00  0.00000000000E+00  0.74505805969E-08  0.10566000000E+00  0.10566000000E+00 0.  1.
     999900   -1    0    0    0    0 -0.00000000000E+00 -0.00000000000E+00 -0.74505805969E-08  0.93827000000E+00  0.93827000000E+00 0.  1.
     999902    2    1    2    0    0 -0.73418069228E-02 -0.21981951012E-01 -0.45846364241E-02  0.10203052843E+01  0.10200317378E+01 0.  0.
     999903    2    3    3    0    0 -0.56078077908E-01  0.59633510895E-01 -0.99177799257E-01  0.13014565023E+00  0.20018690389E-01 0.  0.
         14    1    1    2    0    0  0.73418069228E-02  0.21981951012E-01  0.45846364241E-02  0.23624715667E-01  0.00000000000E+00 0.  1.
     999901    1    3    3    0    0  0.48736270985E-01 -0.81615461907E-01  0.94593162833E-01  0.89015963410E+00  0.88000000000E+00 0. -1.
        -11    1    4    4    0    0 -0.27372200515E-01  0.27568595423E-01 -0.62526943875E-01  0.73614839849E-01  0.51100000000E-03 0.  1.
         11    1    4    4    0    0 -0.28705877393E-01  0.32064915472E-01 -0.36650855382E-01  0.56530810381E-01  0.51100000000E-03 0. -1.
</event>
<event>
 8    1  0.1161271E+005  0.1043930E+01  0.7957747E-01            NaN
         13   -1    0    0    0    0  0.00000000000E+00  0.00000000000E+00  0.74505805969E-08  0.10566000000E+00  0.10566000000E+00 0. -1.
     999900   -1    0    0    0    0 -0.00000000000E+00 -0.00000000000E+00 -0.74505805969E-08  0.93827000000E+00  0.93827000000E+00 0. -1.
     999902    2    1    2    0    0 -0.53174779711E-02 -0.65390943369E-03  0.22774999036E-01  0.10205333389E+01  0.10202651087E+01 0.  0.
     999903    2    3    3    0    0 -0.38789152774E-01 -0.63198247614E-01 -0.10326765472E+00  0.12872680281E+00  0.20193176461E-01 0.  0.
         14    1    1    2    0    0  0.53174779711E-02  0.65390943369E-03 -0.22774999036E-01  0.23396661099E-01  0.00000000000E+00 0.  1.
     999901    1    3    3    0    0  0.33471674803E-01  0.62544338180E-01  0.12604265375E+00  0.89180653609E+00  0.88000000000E+00 0.  1.
        -11    1    4    4    0    0 -0.31355286907E-01 -0.49496123652E-01 -0.93439066541E-01  0.11029116261E+00  0.51100000000E-03 0.  1.
         11    1    4    4    0    0 -0.74338658673E-02 -0.13702123962E-01 -0.98285881778E-02  0.18435640194E-01  0.51100000000E-03 0. -1.
</event>
<event>
 8    1  0.1161271E+005  0.1043930E+01  0.7957747E-01            NaN
         13   -1    0    0    0    0  0.00000000000E+00  0.00000000000E+00  0.74505805969E-08  0.10566000000E+00  0.10566000000E+00 0.  1.
     999900   -1    0    0    0    0 -0.00000000000E+00 -0.00000000000E+00 -0.74505805969E-08  0.93827000000E+00  0.93827000000E+00 0.  1.
     999902    2    1    2    0    0 -0.54110448337E-02  0.23894913518E-01 -0.11359284772E-01  0.10169248218E+01  0.10165661875E+01 0.  0.
     999903    2    3    3    0    0  0.28846917794E-01 -0.91386895493E-01 -0.79351601434E-01  0.12614625303E+00  0.20796422000E-01 0.  0.
         14    1    1    2    0    0  0.54110448337E-02 -0.23894913518E-01  0.11359284772E-01  0.27005178184E-01  0.00000000000E+00 0.  1.
     999901    1    3    3    0    0 -0.34257962628E-01  0.11528180901E+00  0.67992316662E-01  0.89077856879E+00  0.88000000000E+00 0. -1.
        -11    1    4    4    0    0  0.13870757625E-01 -0.23385434957E-01 -0.31716722401E-01  0.41779038836E-01  0.51100000000E-03 0. -1.
         11    1    4    4    0    0  0.14976160169E-01 -0.68001460537E-01 -0.47634879032E-01  0.84367214189E-01  0.51100000000E-03 0.  1.
</event>
<event>
 8    1  0.1161271E+005  0.1043930E+01  0.7957747E-01            NaN
         13   -1    0    0    0    0  0.00000000000E+00  0.00000000000E+00  0.74505805969E-08  0.10566000000E+00  0.10566000000E+00 0.  1.
     999900   -1    0    0    0    0 -0.00000000000E+00 -0.00000000000E+00 -0.74505805969E-08  0.93827000000E+00  0.93827000000E+00 0. -1.
     999902    2    1    2    0    0 -0.16197842857E-01 -0.15102952059E-01  0.12432924338E-01  0.10185322268E+01  0.10182155225E+01 0.  0.
     999903    2    3    3    0    0  0.64374817523E-01  0.10532981035E+00 -0.16871836979E-01  0.12620113756E+00  0.20089354360E-01 0.  0.
         14    1    1    2    0    0  0.16197842857E-01  0.15102952059E-01 -0.12432924338E-01  0.25397773164E-01  0.00000000000E+00 0.  1.
     999901    1    3    3    0    0 -0.80572660379E-01 -0.12043276240E+00  0.29304761317E-01  0.89233108928E+00  0.88000000000E+00 0.  1.
        -11    1    4    4    0    0  0.27866571768E-01  0.56277698344E-01 -0.12916971701E-03  0.62801297429E-01  0.51100000000E-03 0.  1.
         11    1    4    4    0    0  0.36508245754E-01  0.49052112002E-01 -0.16742667262E-01  0.63399840126E-01  0.51100000000E-03 0. -1.
</event>
<event>
 8    1  0.1161271E+005  0.1043930E+01  0.7957747E-01            NaN
         13   -1    0    0    0    0  0.00000000000E+00  0.00000000000E+00  0.74505805969E-08  0.10566000000E+00  0.10566000000E+00 0.  1.
     999900   -1    0    0    0    0 -0.00000000000E+00 -0.00000000000E+00 -0.74505805969E-08  0.93827000000E+00  0.93827000000E+00 0.  1.
     999902    2    1    2    0    0  0.10533490628E-01 -0.17615221102E-01 -0.18306850277E-03  0.10234047971E+01  0.10231989517E+01 0.  0.
     999903    2    3    3    0    0 -0.98425498514E-03  0.11959454581E+00  0.50148295483E-01  0.13127676550E+00  0.20369424980E-01 0.  0.
         14    1    1    2    0    0 -0.10533490628E-01  0.17615221102E-01  0.18306850277E-03  0.20525202883E-01  0.00000000000E+00 0.  1.
     999901    1    3    3    0    0  0.11517745613E-01 -0.13720976691E+00 -0.50331363985E-01  0.89212803162E+00  0.88000000000E+00 0.  1.
        -11    1    4    4    0    0 -0.97979835018E-02  0.83130923433E-01  0.37023801905E-01  0.91530180487E-01  0.51100000000E-03 0. -1.
         11    1    4    4    0    0  0.88137285167E-02  0.36463622379E-01  0.13124493577E-01  0.39746585011E-01  0.51100000000E-03 0.  1.
</event>
<event>
 8    1  0.1161271E+005  0.1043930E+01  0.7957747E-01            NaN
         13   -1    0    0    0    0  0.00000000000E+00  0.00000000000E+00  0.74505805969E-08  0.10566000000E+00  0.10566000000E+00 0.  1.
     999900   -1    0    0    0    0 -0.00000000000E+00 -0.00000000000E+00 -0.74505805969E-08  0.93827000000E+00  0.93827000000E+00 0. -1.
     999902    2    1    2    0    0  0.12683293591E-01 -0.50253928762E-02 -0.19087044264E-01  0.10204686324E+01  0.10201988992E+01 0.  0.
     999903    2    3    3    0    0 -0.43957865589E-01  0.94921433548E-01  0.71737399587E-01  0.12836624557E+00  0.19729825353E-01 0.  0.
         14    1    1    2    0    0 -0.12683293591E-01  0.50253928762E-02  0.19087044264E-01  0.23461367578E-01  0.00000000000E+00 0.  1.
     999901    1    3    3    0    0  0.56641159180E-01 -0.99946826424E-01 -0.90824443851E-01  0.89210238685E+00  0.88000000000E+00 0. -1.
        -11    1    4    4    0    0 -0.19957246540E-01  0.24246340895E-01  0.16265654337E-01  0.35369610802E-01  0.51100000000E-03 0.  1.
         11    1    4    4    0    0 -0.24000619049E-01  0.70675092653E-01  0.55471745250E-01  0.92996634769E-01  0.51100000000E-03 0. -1.
</event>
<event>
 8    1  0.1161271E+005  0.1043930E+01  0.7957747E-01            NaN
         13   -1    0    0    0    0  0.00000000000E+00  0.00000000000E+00  0.74505805969E-08  0.10566000000E+00  0.10566000000E+00 0. -1.
     999900   -1    0    0    0    0 -0.00000000000E+00 -0.00000000000E+00 -0.74505805969E-08  0.93827000000E+00  0.93827000000E+00 0.  1.
     999902    2    1    2    0    0  0.10246688087E-01 -0.15655973612E-01 -0.12874241254E-01  0.10212176638E+01  0.10209650663E+01 0.  0.
     999903    2    3    3    0    0 -0.12076286364E+00 -0.40278661051E-01 -0.26917294487E-01  0.13106768392E+00  0.15753007827E-01 0.  0.
         14    1    1    2    0    0 -0.10246688087E-01  0.15655973612E-01  0.12874241254E-01  0.22712336171E-01  0.00000000000E+00 0. -1.
     999901    1    3    3    0    0  0.13100955173E+00  0.24622687439E-01  0.14043053233E-01  0.89014997991E+00  0.88000000000E+00 0.  1.
        -11    1    4    4    0    0 -0.64085414494E-01 -0.25976974119E-01 -0.21219324794E-01  0.72334392933E-01  0.51100000000E-03 0.  1.
         11    1    4    4    0    0 -0.56677449147E-01 -0.14301686932E-01 -0.56979696929E-02  0.58733290990E-01  0.51100000000E-03 0. -1.
</event>
<event>
 8    1  0.1161271E+005  0.1043930E+01  0.7957747E-01            NaN
         13   -1    0    0    0    0  0.00000000000E+00  0.00000000000E+00  0.74505805969E-08  0.10566000000E+00  0.10566000000E+00 0.  1.
     999900   -1    0    0    0    0 -0.00000000000E+00 -0.00000000000E+00 -0.74505805969E-08  0.93827000000E+00  0.93827000000E+00 0. -1.
     999902    2    1    2    0    0 -0.12658758106E-01 -0.17226459192E-01  0.60893132185E-02  0.10217022068E+01  0.10214603882E+01 0.  0.
     999903    2    3    3    0    0  0.27225389580E-02 -0.71300901970E-01  0.11132055767E+00  0.13365139497E+00  0.19473006359E-01 0.  0.
         14    1    1    2    0    0  0.12658758106E-01  0.17226459192E-01 -0.60893132185E-02  0.22227793155E-01  0.00000000000E+00 0. -1.
     999901    1    3    3    0    0 -0.15381297064E-01  0.54074442779E-01 -0.10523124446E+00  0.88805081187E+00  0.88000000000E+00 0. -1.
        -11    1    4    4    0    0  0.81409321671E-02 -0.41814235229E-01  0.52340670919E-01  0.67487124680E-01  0.51100000000E-03 0.  1.
         11    1    4    4    0    0 -0.54183932091E-02 -0.29486666741E-01  0.58979886755E-01  0.66164270290E-01  0.51100000000E-03 0. -1.
</event>
<event>
 8    1  0.1161271E+005  0.1043930E+01  0.7957747E-01            NaN
         13   -1    0    0    0    0  0.00000000000E+00  0.00000000000E+00  0.74505805969E-08  0.10566000000E+00  0.10566000000E+00 0. -1.
     999900   -1    0    0    0    0 -0.00000000000E+00 -0.00000000000E+00 -0.74505805969E-08  0.93827000000E+00  0.93827000000E+00 0. -1.
     999902    2    1    2    0    0 -0.16691865958E-01  0.60995808733E-02  0.15239999833E-01  0.10205188729E+01  0.10202503071E+01 0.  0.
     999903    2    3    3    0    0 -0.65708289706E-01 -0.71495686340E-01 -0.84335533760E-01  0.13016000023E+00  0.19998272546E-01 0.  0.
         14    1    1    2    0    0  0.16691865958E-01 -0.60995808733E-02 -0.15239999833E-01  0.23411127074E-01  0.00000000000E+00 0.  1.
     999901    1    3    3    0    0  0.49016423749E-01  0.77595267214E-01  0.99575533593E-01  0.89035887269E+00  0.88000000000E+00 0.  1.
        -11    1    4    4    0    0 -0.16085984175E-01 -0.19614424720E-01 -0.11392071312E-01  0.27812316584E-01  0.51100000000E-03 0.  1.
         11    1    4    4    0    0 -0.49622305532E-01 -0.51881261620E-01 -0.72943462449E-01  0.10234768365E+00  0.51100000000E-03 0. -1.
</event>
<event>
 8    1  0.1161271E+005  0.1043930E+01  0.7957747E-01            NaN
         13   -1    0    0    0    0  0.00000000000E+00  0.00000000000E+00  0.74505805969E-08  0.10566000000E+00  0.10566000000E+00 0. -1.
     999900   -1    0    0    0    0 -0.00000000000E+00 -0.00000000000E+00 -0.74505805969E-08  0.93827000000E+00  0.93827000000E+00 0. -1.
     999902    2    1    2    0    0  0.11481447776E-01 -0.10363861452E-01 -0.18088748102E-01  0.10201300825E+01  0.10198524153E+01 0.  0.
     999903    2    3    3    0    0 -0.81368464027E-01  0.66159147842E-01 -0.74374422935E-01  0.13016100756E+00  0.20309439230E-01 0.  0.
         14    1    1    2    0    0 -0.11481447776E-01  0.10363861452E-01  0.18088748102E-01  0.23799917544E-01  0.00000000000E+00 0. -1.
     999901    1    3    3    0    0  0.92849911803E-01 -0.76523009294E-01  0.56285674833E-01  0.88996907489E+00  0.88000000000E+00 0.  1.
        -11    1    4    4    0    0 -0.50331577103E-01  0.42800329063E-01 -0.34679785303E-01  0.74619598306E-01  0.51100000000E-03 0.  1.
         11    1    4    4    0    0 -0.31036886924E-01  0.23358818778E-01 -0.39694637632E-01  0.55541409258E-01  0.51100000000E-03 0. -1.
</event>
<event>
 8    1  0.1161271E+005  0.1043930E+01  0.7957747E-01            NaN
         13   -1    0    0    0    0  0.00000000000E+00  0.00000000000E+00  0.74505805969E-08  0.10566000000E+00  0.10566000000E+00 0.  1.
     999900   -1    0    0    0    0 -0.00000000000E+00 -0.00000000000E+00 -0.74505805969E-08  0.93827000000E+00  0.93827000000E+00 0.  1.
     999902    2    1    2    0    0 -0.43103296731E-02  0.23776115380E-01  0.36220574416E-02  0.10194963776E+01  0.10192035430E+01 0.  0.
     999903    2    3    3    0    0  0.23603266306E-01 -0.85361579794E-01 -0.89521888143E-01  0.12743920455E+00  0.19567036450E-01 0.  0.
         14    1    1    2    0    0  0.43103296731E-02 -0.23776115380E-01 -0.36220574416E-02  0.24433622420E-01  0.00000000000E+00 0. -1.
     999901    1    3    3    0    0 -0.27913595979E-01  0.10913769517E+00  0.93143945585E-01  0.89205717303E+00  0.88000000000E+00 0. -1.
        -11    1    4    4    0    0  0.14257477697E-01 -0.21407295962E-01 -0.30604623805E-01  0.39980646692E-01  0.51100000000E-03 0. -1.
         11    1    4    4    0    0  0.93457886092E-02 -0.63954283832E-01 -0.58917264338E-01  0.87458557862E-01  0.51100000000E-03 0.  1.
</event>
<event>
 7    1  0.1161271E+005  0.1043930E+01  0.7957747E-01            NaN
         13   -1    0    0    0    0  0.00000000000E+00  0.00000000000E+00  0.74505805969E-08  0.10566000000E+00  0.10566000000E+00 0. -1.
     999900   -1    0    0    0    0 -0.00000000000E+00 -0.00000000000E+00 -0.74505805969E-08  0.93827000000E+00  0.93827000000E+00 0.  1.
     999902    2    1    2    0    0 -0.16376584622E-01  0.10777279305E-02  0.18778951779E-01  0.10189900110E+01  0.10186847596E+01 0.  0.
         14    1    1    2    0    0  0.16376584622E-01 -0.10777279305E-02 -0.18778951779E-01  0.24939988999E-01  0.00000000000E+00 0.  1.
     999901    1    3    3    0    0  0.51733344347E-01  0.80681631757E-01  0.42369597589E-01  0.88621726874E+00  0.88000000000E+00 0.  1.
        -11    1    3    3    0    0 -0.39753920822E-01 -0.68816403801E-02 -0.35586601749E-01  0.53799614684E-01  0.51100000000E-03 0.  1.
         11    1    3    3    0    0 -0.28356008147E-01 -0.72722263446E-01  0.11995955940E-01  0.78973127573E-01  0.51100000000E-03 0. -1.
</event>
<event>
 8    1  0.1161271E+005  0.1043930E+01  0.7957747E-01            NaN
         13   -1    0    0    0    0  0.00000000000E+00  0.00000000000E+00  0.74505805969E-08  0.10566000000E+00  0.10566000000E+00 0.  1.
     999900   -1    0    0    0    0 -0.00000000000E+00 -0.00000000000E+00 -0.74505805969E-08  0.93827000000E+00  0.93827000000E+00 0.  1.
     999902    2    1    2    0    0 -0.21564078069E-02  0.29889505157E-03  0.26094261201E-01  0.10177450826E+01  0.10174081793E+01 0.  0.
     999903    2    3    3    0    0 -0.86766529598E-01 -0.92578185274E-01  0.13781694623E-01  0.12873629519E+00  0.16850743148E-01 0.  0.
         14    1    1    2    0    0  0.21564078069E-02 -0.29889505157E-03 -0.26094261201E-01  0.26184917424E-01  0.00000000000E+00 0. -1.
     999901    1    3    3    0    0  0.84610121791E-01  0.92877080326E-01  0.12312566578E-01  0.88900878739E+00  0.88000000000E+00 0. -1.
        -11    1    4    4    0    0 -0.44712324180E-01 -0.59750459531E-01  0.70795157238E-02  0.74964591720E-01  0.51100000000E-03 0.  1.
         11    1    4    4    0    0 -0.42054205418E-01 -0.32827725743E-01  0.67021788991E-02  0.53771703467E-01  0.51100000000E-03 0. -1.
</event>
<event>
 8    1  0.1161271E+005  0.1043930E+01  0.7957747E-01            NaN
         13   -1    0    0    0    0  0.00000000000E+00  0.00000000000E+00  0.74505805969E-08  0.10566000000E+00  0.10566000000E+00 0.  1.
     999900   -1    0    0    0    0 -0.00000000000E+00 -0.00000000000E+00 -0.74505805969E-08  0.93827000000E+00  0.93827000000E+00 0.  1.
     999902    2    1    2    0    0 -0.24690716715E-02 -0.17183550434E-01 -0.15976567695E-01  0.10203371741E+01  0.10200643741E+01 0.  0.
     999903    2    3    3    0    0 -0.48817297509E-01  0.33238907374E-01  0.11274514442E+00  0.12833949387E+00  0.16480430731E-01 0.  0.
         14    1    1    2    0    0  0.24690716715E-02  0.17183550434E-01  0.15976567695E-01  0.23592825938E-01  0.00000000000E+00 0.  1.
     999901    1    3    3    0    0  0.46348225838E-01 -0.50422457808E-01 -0.12872171212E+00  0.89199768019E+00  0.88000000000E+00 0.  1.
        -11    1    4    4    0    0 -0.32413056303E-01  0.30707099263E-01  0.84593145266E-01  0.95654553007E-01  0.51100000000E-03 0.  1.
         11    1    4    4    0    0 -0.16404241206E-01  0.25318081113E-02  0.28151999159E-01  0.32684940867E-01  0.51100000000E-03 0. -1.
</event>
<event>
 8    1  0.1161271E+005  0.1043930E+01  0.7957747E-01            NaN
         13   -1    0    0    0    0  0.00000000000E+00  0.00000000000E+00  0.74505805969E-08  0.10566000000E+00  0.10566000000E+00 0.  1.
     999900   -1    0    0    0    0 -0.00000000000E+00 -0.00000000000E+00 -0.74505805969E-08  0.93827000000E+00  0.93827000000E+00 0.  1.
     999902    2    1    2    0    0  0.12930934523E-01  0.11641882783E-01 -0.16142105050E-01  0.10201958462E+01  0.10199197294E+01 0.  0.
     999903    2    3    3    0    0  0.58726929348E-01  0.16154985673E-01  0.11257703558E+00  0.12964194079E+00  0.20581741387E-01 0.  0.
         14    1    1    2    0    0 -0.12930934523E-01 -0.11641882783E-01  0.16142105050E-01  0.23734153826E-01  0.00000000000E+00 0.  1.
     999901    1    3    3    0    0 -0.45795994825E-01 -0.45131028905E-02 -0.12871914063E+00  0.89055390539E+00  0.88000000000E+00 0.  1.
        -11    1    4    4    0    0  0.25768245762E-01  0.85505668536E-02  0.71162297828E-01  0.76167239916E-01  0.51100000000E-03 0.  1.
         11    1    4    4    0    0  0.32958683586E-01  0.76044188199E-02  0.41414737749E-01  0.53474700870E-01  0.51100000000E-03 0. -1.
</event>
<event>
 8    1  0.1161271E+005  0.1043930E+01  0.7957747E-01            NaN
         13   -1    0    0    0    0  0.00000000000E+00  0.00000000000E+00  0.74505805969E-08  0.10566000000E+00  0.10566000000E+00 0.  1.
     999900   -1    0    0    0    0 -0.00000000000E+00 -0.00000000000E+00 -0.74505805969E-08  0.93827000000E+00  0.93827000000E+00 0. -1.
     999902    2    1    2    0    0 -0.22408051801E-01  0.10769920583E-02  0.14820756278E-01  0.10170425398E+01  0.10166870671E+01 0.  0.
     999903    2    3    3    0    0 -0.91316615657E-01 -0.87636902442E-01 -0.17357185876E-01  0.12931850321E+00  0.20076165101E-01 0.  0.
         14    1    1    2    0    0  0.22408051801E-01 -0.10769920583E-02 -0.14820756278E-01  0.26887460164E-01  0.00000000000E+00 0. -1.
     999901    1    3    3    0    0  0.68908563856E-01  0.88713894501E-01  0.32177942154E-01  0.88772403663E+00  0.88000000000E+00 0. -1.
        -11    1    4    4    0    0 -0.61158480820E-01 -0.56177502525E-01 -0.20766551170E-01  0.85602466872E-01  0.51100000000E-03 0.  1.
         11    1    4    4    0    0 -0.30158134837E-01 -0.31459399917E-01  0.34093652940E-02  0.43716036333E-01  0.51100000000E-03 0. -1.
</event>
<event>
 8    1  0.1161271E+005  0.1043930E+01  0.7957747E-01            NaN
         13   -1    0    0    0    0  0.00000000000E+00  0.00000000000E+00  0.74505805969E-08  0.10566000000E+00  0.10566000000E+00 0.  1.
     999900   -1    0    0    0    0 -0.00000000000E+00 -0.00000000000E+00 -0.74505805969E-08  0.93827000000E+00  0.93827000000E+00 0. -1.
     999902    2    1    2    0    0  0.11079014121E-01 -0.20349275520E-01  0.54286461827E-02  0.10201327782E+01  0.10198551747E+01 0.  0.
     999903    2    3    3    0    0 -0.70955903429E-03  0.10092214206E+00  0.77495759472E-01  0.12881947970E+00  0.20076936596E-01 0.  0.
         14    1    1    2    0    0 -0.11079014121E-01  0.20349275520E-01 -0.54286461827E-02  0.23797221843E-01  0.00000000000E+00 0.  1.
     999901    1    3    3    0    0  0.11788573155E-01 -0.12127141758E+00 -0.72067113289E-01  0.89131329845E+00  0.88000000000E+00 0. -1.
        -11    1    4    4    0    0 -0.91542281495E-04  0.54746856361E-02  0.11583363374E-01  0.12822479903E-01  0.51100000000E-03 0. -1.
         11    1    4    4    0    0 -0.61801675279E-03  0.95447456425E-01  0.65912396098E-01  0.11599699980E+00  0.51100000000E-03 0.  1.
</event>
<event>
 8    1  0.1161271E+005  0.1043930E+01  0.7957747E-01            NaN
         13   -1    0    0    0    0  0.00000000000E+00  0.00000000000E+00  0.74505805969E-08  0.10566000000E+00  0.10566000000E+00 0. -1.
     999900   -1    0    0    0    0 -0.00000000000E+00 -0.00000000000E+00 -0.74505805969E-08  0.93827000000E+00  0.93827000000E+00 0. -1.
     999902    2    1    2    0    0  0.63000547809E-02 -0.18217141402E-01  0.12824874035E-01  0.10207776281E+01  0.10205150335E+01 0.  0.
     999903    2    3    3    0    0 -0.55307041359E-01  0.80263417472E-01 -0.80928651979E-01  0.12820629850E+00  0.19655107606E-01 0.  0.
         14    1    1    2    0    0 -0.63000547809E-02  0.18217141402E-01 -0.12824874035E-01  0.23152371911E-01  0.00000000000E+00 0.  1.
     999901    1    3    3    0    0  0.61607096139E-01 -0.98480558873E-01  0.93753526013E-01  0.89257132959E+00  0.88000000000E+00 0. -1.
        -11    1    4    4    0    0 -0.20672463856E-01  0.47217181877E-01 -0.43077731824E-01  0.67177117581E-01  0.51100000000E-03 0. -1.
         11    1    4    4    0    0 -0.34634577502E-01  0.33046235595E-01 -0.37850920154E-01  0.61029180916E-01  0.51100000000E-03 0.  1.
</event>
<event>
 8    1  0.1161271E+005  0.1043930E+01  0.7957747E-01            NaN
         13   -1    0    0    0    0  0.00000000000E+00  0.00000000000E+00  0.74505805969E-08  0.10566000000E+00  0.10566000000E+00 0.  1.
     999900   -1    0    0    0    0 -0.00000000000E+00 -0.00000000000E+00 -0.74505805969E-08  0.93827000000E+00  0.93827000000E+00 0.  1.
     999902    2    1    2    0    0  0.11836040352E-01  0.21103737567E-01 -0.28548974572E-02  0.10195658864E+01  0.10192747357E+01 0.  0.
     999903    2    3    3    0    0 -0.15173255863E-01  0.49008343849E-01  0.11837343390E+00  0.13040646458E+00  0.19013960417E-01 0.  0.
         14    1    1    2    0    0 -0.11836040352E-01 -0.21103737567E-01  0.28548974572E-02  0.24364113569E-01  0.00000000000E+00 0. -1.
     999901    1    3    3    0    0  0.27009296214E-01 -0.27904606281E-01 -0.12122833136E+00  0.88915942185E+00  0.88000000000E+00 0.  1.
        -11    1    4    4    0    0  0.28239881961E-02  0.11319355270E-01  0.15736202943E-01  0.19595711702E-01  0.51100000000E-03 0. -1.
         11    1    4    4    0    0 -0.17997244059E-01  0.37688988579E-01  0.10263723096E+00  0.11081075288E+00  0.51100000000E-03 0.  1.
</event>
<event>
 8    1  0.1161271E+005  0.1043930E+01  0.7957747E-01            NaN
         13   -1    0    0    0    0  0.00000000000E+00  0.00000000000E+00  0.74505805969E-08  0.10566000000E+00  0.10566000000E+00 0.  1.
     999900   -1    0    0    0    0 -0.00000000000E+00 -0.00000000000E+00 -0.74505805969E-08  0.93827000000E+00  0.93827000000E+00 0. -1.
     999902    2    1    2    0    0  0.19766864937E-01  0.12732193269E-01  0.10774942822E-01  0.10180661819E+01  0.10177375957E+01 0.  0.
     999903    2    3    3    0    0  0.62369209064E-01  0.10944423549E+00  0.32164242232E-01  0.13148528824E+00  0.19643920786E-01 0.  0.
         14    1    1    2    0    0 -0.19766864937E-01 -0.12732193269E-01 -0.10774942822E-01  0.25863818119E-01  0.00000000000E+00 0. -1.
     999901    1    3    3    0    0 -0.42602344127E-01 -0.96712042224E-01 -0.21389299410E-01  0.88658089364E+00  0.88000000000E+00 0.  1.
        -11    1    4    4    0    0  0.25155181096E-01  0.57711837641E-01  0.86156398020E-02  0.63544706389E-01  0.51100000000E-03 0.  1.
         11    1    4    4    0    0  0.37214027968E-01  0.51732397852E-01  0.23548602430E-01  0.67940581853E-01  0.51100000000E-03 0. -1.
</event>
<event>
 8    1  0.1161271E+005  0.1043930E+01  0.7957747E-01            NaN
         13   -1    0    0    0    0  0.00000000000E+00  0.00000000000E+00  0.74505805969E-08  0.10566000000E+00  0.10566000000E+00 0. -1.
     999900   -1    0    0    0    0 -0.00000000000E+00 -0.00000000000E+00 -0.74505805969E-08  0.93827000000E+00  0.93827000000E+00 0.  1.
     999902    2    1    2    0    0  0.69146996806E-02  0.14096264630E-01  0.18313724764E-01  0.10198071838E+01  0.10195218398E+01 0.  0.
     999903    2    3    3    0    0  0.33727055552E-01 -0.10875951810E+00  0.59219880183E-01  0.12992755184E+00  0.20199689672E-01 0.  0.
         14    1    1    2    0    0 -0.69146996806E-02 -0.14096264630E-01 -0.18313724764E-01  0.24122816231E-01  0.00000000000E+00 0.  1.
     999901    1    3    3    0    0 -0.26812355871E-01  0.12285578273E+00 -0.40906155419E-01  0.88987963193E+00  0.88000000000E+00 0.  1.
        -11    1    4    4    0    0  0.12376008547E-01 -0.70710805600E-01  0.32864281435E-01  0.78952553672E-01  0.51100000000E-03 0.  1.
         11    1    4    4    0    0  0.21351047005E-01 -0.38048712503E-01  0.26355598749E-01  0.50974998163E-01  0.51100000000E-03 0. -1.
</event>
<event>
 8    1  0.1161271E+005  0.1043930E+01  0.7957747E-01            NaN
         13   -1    0    0    0    0  0.00000000000E+00  0.00000000000E+00  0.74505805969E-08  0.10566000000E+00  0.10566000000E+00 0.  1.
     999900   -1    0    0    0    0 -0.00000000000E+00 -0.00000000000E+00 -0.74505805969E-08  0.93827000000E+00  0.93827000000E+00 0.  1.
     999902    2    1    2    0    0 -0.23171267059E-01  0.70118360404E-02  0.20697570439E-02  0.10196327295E+01  0.10193431932E+01 0.  0.
     999903    2    3    3    0    0  0.10915211632E+00  0.29206367279E-01 -0.55864658492E-01  0.12757977614E+00  0.19711489697E-01 0.  0.
         14    1    1    2    0    0  0.23171267059E-01 -0.70118360404E-02 -0.20697570439E-02  0.24297270546E-01  0.00000000000E+00 0. -1.
     999901    1    3    3    0    0 -0.13232338338E+00 -0.22194531239E-01  0.57934415536E-01  0.89205295331E+00  0.88000000000E+00 0. -1.
        -11    1    4    4    0    0  0.14588568409E-01  0.18102761088E-02 -0.70233221283E-03  0.14726093146E-01  0.51100000000E-03 0. -1.
         11    1    4    4    0    0  0.94563547910E-01  0.27396091170E-01 -0.55162326279E-01  0.11285368300E+00  0.51100000000E-03 0.  1.
</event>
<event>
 8    1  0.1161271E+005  0.1043930E+01  0.7957747E-01            NaN
         13   -1    0    0    0    0  0.00000000000E+00  0.00000000000E+00  0.74505805969E-08  0.10566000000E+00  0.10566000000E+00 0.  1.
     999900   -1    0    0    0    0 -0.00000000000E+00 -0.00000000000E+00 -0.74505805969E-08  0.93827000000E+00  0.93827000000E+00 0. -1.
     999902    2    1    2    0    0  0.20989769586E-01  0.32887437061E-02 -0.97405837460E-02  0.10205576823E+01  0.10202900165E+01 0.  0.
     999903    2    3    3    0    0  0.55389559014E-01 -0.11048910564E+00 -0.41516142094E-01  0.13199793158E+00  0.20591701590E-01 0.  0.
         14    1    1    2    0    0 -0.20989769586E-01 -0.32887437061E-02  0.97405837460E-02  0.23372317689E-01  0.00000000000E+00 0.  1.
     999901    1    3    3    0    0 -0.34399789427E-01  0.11377784934E+00  0.31775558348E-01  0.88855975073E+00  0.88000000000E+00 0. -1.
        -11    1    4    4    0    0  0.15797300273E-01 -0.17106711656E-01 -0.29216204857E-02  0.23473203166E-01  0.51100000000E-03 0.  1.
         11    1    4    4    0    0  0.39592258740E-01 -0.93382393981E-01 -0.38594521608E-01  0.10852472841E+00  0.51100000000E-03 0. -1.
</event>
<event>
 8    1  0.1161271E+005  0.1043930E+01  0.7957747E-01            NaN
         13   -1    0    0    0    0  0.00000000000E+00  0.00000000000E+00  0.74505805969E-08  0.10566000000E+00  0.10566000000E+00 0.  1.
     999900   -1    0    0    0    0 -0.00000000000E+00 -0.00000000000E+00 -0.74505805969E-08  0.93827000000E+00  0.93827000000E+00 0.  1.
     999902    2    1    2    0    0 -0.17406789713E-01 -0.15265319233E-01  0.96685065210E-02  0.10188400355E+01  0.10185310558E+01 0.  0.
     999903    2    3    3    0    0  0.20886600277E-01  0.11983049513E-03  0.12690430925E+00  0.13010648715E+00  0.19665448426E-01 0.  0.
         14    1    1    2    0    0  0.17406789713E-01  0.15265319233E-01 -0.96685065210E-02  0.25089964483E-01  0.00000000000E+00 0. -1.
     999901    1    3    3    0    0 -0.38293389990E-01 -0.15385149728E-01 -0.11723580273E+00  0.88873354837E+00  0.88000000000E+00 0.  1.
        -11    1    4    4    0    0  0.11875259017E-01 -0.85184293345E-02  0.46732042303E-01  0.48966624489E-01  0.51100000000E-03 0. -1.
         11    1    4    4    0    0  0.90113412604E-02  0.86382598296E-02  0.80172266948E-01  0.81139862662E-01  0.51100000000E-03 0.  1.
</event>
<event>
 8    1  0.1161271E+005  0.1043930E+01  0.7957747E-01            NaN
         13   -1    0    0    0    0  0.00000000000E+00  0.00000000000E+00  0.74505805969E-08  0.10566000000E+00  0.10566000000E+00 0. -1.
     999900   -1    0    0    0    0 -0.00000000000E+00 -0.00000000000E+00 -0.74505805969E-08  0.93827000000E+00  0.93827000000E+00 0. -1.
     999902    2    1    2    0    0  0.22959422758E-01  0.12089612466E-03  0.36050032421E-02  0.10206889639E+01  0.10204243310E+01 0.  0.
     999903    2    3    3    0    0  0.12544969454E+00  0.35965587001E-01 -0.19348086483E-01  0.13371887311E+00  0.21799983213E-01 0.  0.
         14    1    1    2    0    0 -0.22959422758E-01 -0.12089612466E-03 -0.36050032421E-02  0.23241036071E-01  0.00000000000E+00 0. -1.
     999901    1    3    3    0    0 -0.10249027178E+00 -0.35844690877E-01  0.22953089725E-01  0.88697009082E+00  0.88000000000E+00 0.  1.
        -11    1    4    4    0    0  0.64828053974E-01  0.16518536825E-01 -0.20723069604E-01  0.70037456948E-01  0.51100000000E-03 0. -1.
         11    1    4    4    0    0  0.60621640564E-01  0.19447050177E-01  0.13749831215E-02  0.63681416165E-01  0.51100000000E-03 0.  1.
</event>
<event>
 8    1  0.1164458E+005  0.1043930E+01  0.7957747E-01            NaN
         13   -1    0    0    0    0  0.00000000000E+00  0.00000000000E+00  0.74505805969E-08  0.10566000000E+00  0.10566000000E+00 0.  1.
     999900   -1    0    0    0    0 -0.00000000000E+00 -0.00000000000E+00 -0.74505805969E-08  0.93827000000E+00  0.93827000000E+00 0.  1.
     999902    2    1    2    0    0 -0.16697063204E-01 -0.13485043756E-03 -0.16825783483E-01  0.10202252095E+01  0.10199497835E+01 0.  0.
     999903    2    3    3    0    0  0.16767043953E-01  0.88035286920E-03  0.12563408665E+00  0.12814018454E+00  0.18816864289E-01 0.  0.
         14    1    1    2    0    0  0.16697063204E-01  0.13485043756E-03  0.16825783483E-01  0.23704790531E-01  0.00000000000E+00 0. -1.
     999901    1    3    3    0    0 -0.33464107157E-01 -0.10152033068E-02 -0.14245987013E+00  0.89208502493E+00  0.88000000000E+00 0.  1.
        -11    1    4    4    0    0  0.20352208783E-01  0.32510479945E-02  0.95760845161E-01  0.97955001415E-01  0.51100000000E-03 0.  1.
         11    1    4    4    0    0 -0.35851648298E-02 -0.23706951253E-02  0.29873241488E-01  0.30185183124E-01  0.51100000000E-03 0. -1.
</event>
<event>
 8    1  0.1161271E+005  0.1043930E+01  0.7957747E-01            NaN
         13   -1    0    0    0    0  0.00000000000E+00  0.00000000000E+00  0.74505805969E-08  0.10566000000E+00  0.10566000000E+00 0.  1.
     999900   -1    0    0    0    0 -0.00000000000E+00 -0.00000000000E+00 -0.74505805969E-08  0.93827000000E+00  0.93827000000E+00 0. -1.
     999902    2    1    2    0    0 -0.22423697095E-01 -0.16527592230E-02  0.10371951588E-01  0.10191685141E+01  0.10188676700E+01 0.  0.
     999903    2    3    3    0    0 -0.60851539834E-01 -0.24637959909E-01 -0.11079567980E+00  0.12973801459E+00  0.15694929125E-01 0.  0.
         14    1    1    2    0    0  0.22423697095E-01  0.16527592230E-02 -0.10371951588E-01  0.24761485905E-01  0.00000000000E+00 0. -1.
     999901    1    3    3    0    0  0.38427842739E-01  0.22985200686E-01  0.12116763139E+00  0.88943049950E+00  0.88000000000E+00 0.  1.
        -11    1    4    4    0    0 -0.31065003583E-01 -0.43325272261E-02 -0.54657848182E-01  0.63020208891E-01  0.51100000000E-03 0.  1.
         11    1    4    4    0    0 -0.29786536251E-01 -0.20305432683E-01 -0.56137831616E-01  0.66717805703E-01  0.51100000000E-03 0. -1.
</event>
<event>
 8    1  0.1161271E+005  0.1043930E+01  0.7957747E-01            NaN
         13   -1    0    0    0    0  0.00000000000E+00  0.00000000000E+00  0.74505805969E-08  0.10566000000E+00  0.10566000000E+00 0. -1.
     999900   -1    0    0    0    0 -0.00000000000E+00 -0.00000000000E+00 -0.74505805969E-08  0.93827000000E+00  0.93827000000E+00 0. -1.
     999902    2    1    2    0    0  0.16995386104E-01 -0.11054566124E-02 -0.16648904154E-01  0.10201129642E+01  0.10198348928E+01 0.  0.
     999903    2    3    3    0    0 -0.87167990327E-01  0.89459269880E-01 -0.26849926386E-01  0.12929534007E+00  0.19878302506E-01 0.  0.
         14    1    1    2    0    0 -0.16995386104E-01  0.11054566124E-02  0.16648904154E-01  0.23817035766E-01  0.00000000000E+00 0. -1.
     999901    1    3    3    0    0  0.10416337643E+00 -0.90564726493E-01  0.10201022232E-01  0.89081762417E+00  0.88000000000E+00 0.  1.
        -11    1    4    4    0    0 -0.70997262724E-01  0.78749210348E-01 -0.16503253221E-01  0.10730642074E+00  0.51100000000E-03 0.  1.
         11    1    4    4    0    0 -0.16170727603E-01  0.10710059533E-01 -0.10346673165E-01  0.21988919323E-01  0.51100000000E-03 0. -1.
</event>
<event>
 8    1  0.1161271E+005  0.1043930E+01  0.7957747E-01            NaN
         13   -1    0    0    0    0  0.00000000000E+00  0.00000000000E+00  0.74505805969E-08  0.10566000000E+00  0.10566000000E+00 0.  1.
     999900   -1    0    0    0    0 -0.00000000000E+00 -0.00000000000E+00 -0.74505805969E-08  0.93827000000E+00  0.93827000000E+00 0. -1.
     999902    2    1    2    0    0 -0.28902270492E-01  0.11993212186E-01 -0.71993283923E-03  0.10126298933E+01  0.10121460389E+01 0.  0.
     999903    2    3    3    0    0 -0.85493577896E-01  0.34684041214E-01 -0.84268768534E-01  0.12657241334E+00  0.20179590959E-01 0.  0.
         14    1    1    2    0    0  0.28902270492E-01 -0.11993212186E-01  0.71993283923E-03  0.31300106732E-01  0.00000000000E+00 0. -1.
     999901    1    3    3    0    0  0.56591307404E-01 -0.22690829028E-01  0.83548835695E-01  0.88605747993E+00  0.88000000000E+00 0.  1.
        -11    1    4    4    0    0 -0.24540946056E-01  0.20760427783E-02 -0.29112127032E-01  0.38135876130E-01  0.51100000000E-03 0.  1.
         11    1    4    4    0    0 -0.60952631841E-01  0.32607998435E-01 -0.55156641503E-01  0.88436537207E-01  0.51100000000E-03 0. -1.
</event>
<event>
 8    1  0.1161271E+005  0.1043930E+01  0.7957747E-01            NaN
         13   -1    0    0    0    0  0.00000000000E+00  0.00000000000E+00  0.74505805969E-08  0.10566000000E+00  0.10566000000E+00 0. -1.
     999900   -1    0    0    0    0 -0.00000000000E+00 -0.00000000000E+00 -0.74505805969E-08  0.93827000000E+00  0.93827000000E+00 0. -1.
     999902    2    1    2    0    0  0.12819234921E-01  0.16996751873E-01 -0.11237299544E-01  0.10198572092E+01  0.10195730615E+01 0.  0.
     999903    2    3    3    0    0  0.67250245770E-01 -0.94097709762E-01 -0.56070487423E-01  0.13007367981E+00  0.19957156144E-01 0.  0.
         14    1    1    2    0    0 -0.12819234921E-01 -0.16996751873E-01  0.11237299544E-01  0.24072790849E-01  0.00000000000E+00 0. -1.
     999901    1    3    3    0    0 -0.54431010849E-01  0.11109446164E+00  0.44833187879E-01  0.88978352934E+00  0.88000000000E+00 0. -1.
        -11    1    4    4    0    0  0.59447087622E-01 -0.69545340978E-01 -0.46036858293E-01  0.10242150224E+00  0.51100000000E-03 0.  1.
         11    1    4    4    0    0  0.78031581488E-02 -0.24552368784E-01 -0.10033629130E-01  0.27652177573E-01  0.51100000000E-03 0. -1.
</event>
<event>
 8    1  0.1161271E+005  0.1043930E+01  0.7957747E-01            NaN
         13   -1    0    0    0    0  0.00000000000E+00  0.00000000000E+00  0.74505805969E-08  0.10566000000E+00  0.10566000000E+00 0. -1.
     999900   -1    0    0    0    0 -0.00000000000E+00 -0.00000000000E+00 -0.74505805969E-08  0.93827000000E+00  0.93827000000E+00 0. -1.
     999902    2    1    2    0    0 -0.50563492281E-02  0.14968116258E-01  0.16280662200E-01  0.10212436355E+01  0.10209916219E+01 0.  0.
     999903    2    3    3    0    0  0.84603946379E-01  0.88302125210E-01 -0.44464117633E-01  0.13157697111E+00  0.19502525739E-01 0.  0.
         14    1    1    2    0    0  0.50563492281E-02 -0.14968116258E-01 -0.16280662200E-01  0.22686364484E-01  0.00000000000E+00 0.  1.
     999901    1    3    3    0    0 -0.89660295607E-01 -0.73334008952E-01  0.60744779833E-01  0.88966666441E+00  0.88000000000E+00 0. -1.
        -11    1    4    4    0    0  0.41862011911E-01  0.34908342522E-01 -0.11757674977E-01  0.55763110214E-01  0.51100000000E-03 0. -1.
         11    1    4    4    0    0  0.42741934468E-01  0.53393782688E-01 -0.32706442656E-01  0.75813860897E-01  0.51100000000E-03 0.  1.
</event>
<event>
 8    1  0.1161271E+005  0.1043930E+01  0.7957747E-01            NaN
         13   -1    0    0    0    0  0.00000000000E+00  0.00000000000E+00  0.74505805969E-08  0.10566000000E+00  0.10566000000E+00 0.  1.
     999900   -1    0    0    0    0 -0.00000000000E+00 -0.00000000000E+00 -0.74505805969E-08  0.93827000000E+00  0.93827000000E+00 0.  1.
     999902    2    1    2    0    0 -0.23369344217E-01  0.57654996094E-02  0.32240579715E-02  0.10196449885E+01  0.10193557479E+01 0.  0.
     999903    2    3    3    0    0 -0.93578171927E-01  0.50809985241E-01 -0.75957522116E-01  0.13216089972E+00  0.18932231431E-01 0.  0.
         14    1    1    2    0    0  0.23369344217E-01 -0.57654996094E-02 -0.32240579715E-02  0.24285011523E-01  0.00000000000E+00 0. -1.
     999901    1    3    3    0    0  0.70208827710E-01 -0.45044485632E-01  0.79181580088E-01  0.88748408876E+00  0.88000000000E+00 0. -1.
        -11    1    4    4    0    0 -0.77366300069E-02  0.44601687410E-02 -0.13930958528E-01  0.16555400194E-01  0.51100000000E-03 0. -1.
         11    1    4    4    0    0 -0.85841541920E-01  0.46349816500E-01 -0.62026563588E-01  0.11560549952E+00  0.51100000000E-03 0.  1.
</event>
<event>
 8    1  0.1161271E+005  0.1043930E+01  0.7957747E-01            NaN
         13   -1    0    0    0    0  0.00000000000E+00  0.00000000000E+00  0.74505805969E-08  0.10566000000E+00  0.10566000000E+00 0. -1.
     999900   -1    0    0    0    0 -0.00000000000E+00 -0.00000000000E+00 -0.74505805969E-08  0.93827000000E+00  0.93827000000E+00 0.  1.
     999902    2    1    2    0    0  0.22309138957E-01 -0.48399881933E-02 -0.34819645952E-02  0.10208378532E+01  0.10205766386E+01 0.  0.
     999903    2    3    3    0    0  0.58826151757E-01  0.61995380686E-01 -0.99032380609E-01  0.13239520408E+00  0.20423865897E-01 0.  0.
         14    1    1    2    0    0 -0.22309138957E-01  0.48399881933E-02  0.34819645952E-02  0.23092146807E-01  0.00000000000E+00 0. -1.
     999901    1    3    3    0    0 -0.36517012800E-01 -0.66835368880E-01  0.95550416014E-01  0.88844264911E+00  0.88000000000E+00 0. -1.
        -11    1    4    4    0    0  0.50088238449E-01  0.42113561018E-01 -0.81211807605E-01  0.10429766281E+00  0.51100000000E-03 0. -1.
         11    1    4    4    0    0  0.87379133079E-02  0.19881819669E-01 -0.17820573004E-01  0.28097541272E-01  0.51100000000E-03 0.  1.
</event>
<event>
 8    1  0.1161271E+005  0.1043930E+01  0.7957747E-01            NaN
         13   -1    0    0    0    0  0.00000000000E+00  0.00000000000E+00  0.74505805969E-08  0.10566000000E+00  0.10566000000E+00 0. -1.
     999900   -1    0    0    0    0 -0.00000000000E+00 -0.00000000000E+00 -0.74505805969E-08  0.93827000000E+00  0.93827000000E+00 0.  1.
     999902    2    1    2    0    0 -0.11825542465E-01  0.90020417951E-02  0.18763773054E-01  0.10199934299E+01  0.10197125269E+01 0.  0.
     999903    2    3    3    0    0  0.88921069227E-01 -0.16311339208E-01 -0.87646019221E-01  0.12751727280E+00  0.20144821599E-01 0.  0.
         14    1    1    2    0    0  0.11825542465E-01 -0.90020417951E-02 -0.18763773054E-01  0.23936570144E-01  0.00000000000E+00 0.  1.
     999901    1    3    3    0    0 -0.10074661169E+00  0.25313381003E-01  0.10640979227E+00  0.89247615706E+00  0.88000000000E+00 0. -1.
        -11    1    4    4    0    0  0.44226973145E-01  0.14135888595E-02 -0.47020601512E-01  0.64569508861E-01  0.51100000000E-03 0.  1.
         11    1    4    4    0    0  0.44694096082E-01 -0.17724928067E-01 -0.40625417709E-01  0.62947763937E-01  0.51100000000E-03 0. -1.
</event>
<event>
 8    1  0.1161271E+005  0.1043930E+01  0.7957747E-01            NaN
         13   -1    0    0    0    0  0.00000000000E+00  0.00000000000E+00  0.74505805969E-08  0.10566000000E+00  0.10566000000E+00 0.  1.
     999900   -1    0    0    0    0 -0.00000000000E+00 -0.00000000000E+00 -0.74505805969E-08  0.93827000000E+00  0.93827000000E+00 0. -1.
     999902    2    1    2    0    0 -0.10640385913E-01  0.20618186092E-01 -0.75069560118E-02  0.10195439015E+01  0.10192522187E+01 0.  0.
     999903    2    3    3    0    0  0.19340516609E-01  0.99691032432E-01 -0.82446575917E-01  0.13231939996E+00  0.19965675457E-01 0.  0.
         14    1    1    2    0    0  0.10640385913E-01 -0.20618186092E-01  0.75069560118E-02  0.24386098471E-01  0.00000000000E+00 0. -1.
     999901    1    3    3    0    0 -0.29980902522E-01 -0.79072846341E-01  0.74939619905E-01  0.88722450156E+00  0.88000000000E+00 0.  1.
        -11    1    4    4    0    0  0.59407999586E-02  0.63871325802E-01 -0.42127593179E-01  0.76745257781E-01  0.51100000000E-03 0. -1.
         11    1    4    4    0    0  0.13399716650E-01  0.35819706630E-01 -0.40318982738E-01  0.55574142184E-01  0.51100000000E-03 0.  1.
</event>
<event>
 8    1  0.1161271E+005  0.1043930E+01  0.7957747E-01            NaN
         13   -1    0    0    0    0  0.00000000000E+00  0.00000000000E+00  0.74505805969E-08  0.10566000000E+00  0.10566000000E+00 0. -1.
     999900   -1    0    0    0    0 -0.00000000000E+00 -0.00000000000E+00 -0.74505805969E-08  0.93827000000E+00  0.93827000000E+00 0.  1.
     999902    2    1    2    0    0 -0.12677411544E-01  0.89031151440E-02  0.17978581581E-01  0.10201979201E+01  0.10199218521E+01 0.  0.
     999903    2    3    3    0    0 -0.10155294283E+00 -0.73969346399E-01 -0.29081979101E-01  0.13060171879E+00  0.20653886766E-01 0.  0.
         14    1    1    2    0    0  0.12677411544E-01 -0.89031151440E-02 -0.17978581581E-01  0.23732079942E-01  0.00000000000E+00 0. -1.
     999901    1    3    3    0    0  0.88875531282E-01  0.82872461543E-01  0.47060560681E-01  0.88959620127E+00  0.88000000000E+00 0. -1.
        -11    1    4    4    0    0 -0.40931830207E-01 -0.37346292676E-01 -0.21237708658E-01  0.59341905014E-01  0.51100000000E-03 0.  1.
         11    1    4    4    0    0 -0.60621112620E-01 -0.36623053723E-01 -0.78442704430E-02  0.71259813773E-01  0.51100000000E-03 0. -1.
</event>
<event>
 8    1  0.1161271E+005  0.1043930E+01  0.7957747E-01            NaN
         13   -1    0    0    0    0  0.00000000000E+00  0.00000000000E+00  0.74505805969E-08  0.10566000000E+00  0.10566000000E+00 0. -1.
     999900   -1    0    0    0    0 -0.00000000000E+00 -0.00000000000E+00 -0.74505805969E-08  0.93827000000E+00  0.93827000000E+00 0.  1.
     999902    2    1    2    0    0 -0.11570551939E-01 -0.19992906601E-01 -0.51568480493E-02  0.10202617287E+01  0.10199871607E+01 0.  0.
     999903    2    3    3    0    0  0.70673001905E-02  0.48853371447E-02  0.12776700065E+00  0.12973657680E+00  0.20817292125E-01 0.  0.
         14    1    1    2    0    0  0.11570551939E-01  0.19992906601E-01  0.51568480493E-02  0.23668271342E-01  0.00000000000E+00 0. -1.
     999901    1    3    3    0    0 -0.18637852129E-01 -0.24878243746E-01 -0.13292384870E+00  0.89052515186E+00  0.88000000000E+00 0.  1.
        -11    1    4    4    0    0 -0.51049388142E-02  0.31538510157E-02  0.13179674464E-01  0.14490414642E-01  0.51100000000E-03 0. -1.
         11    1    4    4    0    0  0.12172239005E-01  0.17314861290E-02  0.11458732619E+00  0.11524616215E+00  0.51100000000E-03 0.  1.
</event>
<event>
 8    1  0.1161271E+005  0.1043930E+01  0.7957747E-01            NaN
         13   -1    0    0    0    0  0.00000000000E+00  0.00000000000E+00  0.74505805969E-08  0.10566000000E+00  0.10566000000E+00 0.  1.
     999900   -1    0    0    0    0 -0.00000000000E+00 -0.00000000000E+00 -0.74505805969E-08  0.93827000000E+00  0.93827000000E+00 0. -1.
     999902    2    1    2    0    0 -0.16671266922E-01 -0.16638545346E-01 -0.20290973421E-02  0.10202891547E+01  0.10200152301E+01 0.  0.
     999903    2    3    3    0    0  0.91577828082E-01 -0.77760812958E-01 -0.46519544724E-01  0.13043905601E+00  0.20421475559E-01 0.  0.
         14    1    1    2    0    0  0.16671266922E-01  0.16638545346E-01  0.20290973421E-02  0.23640845332E-01  0.00000000000E+00 0.  1.
     999901    1    3    3    0    0 -0.10824909500E+00  0.61122267612E-01  0.44490447382E-01  0.88985009865E+00  0.88000000000E+00 0.  1.
        -11    1    4    4    0    0  0.48879746974E-01 -0.52721077193E-01 -0.33111109307E-01  0.79153953314E-01  0.51100000000E-03 0. -1.
         11    1    4    4    0    0  0.42698081109E-01 -0.25039735765E-01 -0.13408435417E-01  0.51285102699E-01  0.51100000000E-03 0.  1.
</event>
<event>
 8    1  0.1670998E+005  0.1043930E+01  0.7957747E-01            NaN
         13   -1    0    0    0    0  0.00000000000E+00  0.00000000000E+00  0.74505805969E-08  0.10566000000E+00  0.10566000000E+00 0. -1.
     999900   -1    0    0    0    0 -0.00000000000E+00 -0.00000000000E+00 -0.74505805969E-08  0.93827000000E+00  0.93827000000E+00 0. -1.
     999902    2    1    2    0    0  0.19422473375E-01  0.24977558484E-01  0.10713955630E-01  0.10105249144E+01  0.10099726248E+01 0.  0.
     999903    2    3    3    0    0 -0.58893447500E-01 -0.11555022748E-01  0.10366384192E+00  0.12141991816E+00  0.19865741705E-01 0.  0.
         14    1    1    2    0    0 -0.19422473375E-01 -0.24977558484E-01 -0.10713955630E-01  0.33405085617E-01  0.00000000000E+00 0. -1.
     999901    1    3    3    0    0  0.78315920875E-01  0.36532581232E-01 -0.92949886293E-01  0.88910499623E+00  0.88000000000E+00 0. -1.
        -11    1    4    4    0    0 -0.28636558691E-01  0.11453975247E-03  0.64476928723E-01  0.70552115997E-01  0.51100000000E-03 0. -1.
         11    1    4    4    0    0 -0.30256888809E-01 -0.11669562500E-01  0.39186913200E-01  0.50867802159E-01  0.51100000000E-03 0.  1.
</event>
<event>
 8    1  0.1161271E+005  0.1043930E+01  0.7957747E-01            NaN
         13   -1    0    0    0    0  0.00000000000E+00  0.00000000000E+00  0.74505805969E-08  0.10566000000E+00  0.10566000000E+00 0.  1.
     999900   -1    0    0    0    0 -0.00000000000E+00 -0.00000000000E+00 -0.74505805969E-08  0.93827000000E+00  0.93827000000E+00 0.  1.
     999902    2    1    2    0    0  0.14360214321E-01  0.16946006858E-01 -0.76198068491E-02  0.10204471475E+01  0.10201769143E+01 0.  0.
     999903    2    3    3    0    0 -0.11412898980E+00  0.12941941542E-01 -0.56680460349E-01  0.12975502573E+00  0.20755046465E-01 0.  0.
         14    1    1    2    0    0 -0.14360214321E-01 -0.16946006858E-01  0.76198068491E-02  0.23482852471E-01  0.00000000000E+00 0. -1.
     999901    1    3    3    0    0  0.12848920412E+00  0.40040653160E-02  0.49060653500E-01  0.89069212180E+00  0.88000000000E+00 0. -1.
        -11    1    4    4    0    0 -0.79057098966E-01  0.18454446609E-01 -0.38066467697E-01  0.89665537306E-01  0.51100000000E-03 0.  1.
         11    1    4    4    0    0 -0.35071890831E-01 -0.55125050670E-02 -0.18613992652E-01  0.40089488423E-01  0.51100000000E-03 0. -1.
</event>
<event>
 8    1  0.1161271E+005  0.1043930E+01  0.7957747E-01            NaN
         13   -1    0    0    0    0  0.00000000000E+00  0.00000000000E+00  0.74505805969E-08  0.10566000000E+00  0.10566000000E+00 0.  1.
     999900   -1    0    0    0    0 -0.00000000000E+00 -0.00000000000E+00 -0.74505805969E-08  0.93827000000E+00  0.93827000000E+00 0.  1.
     999902    2    1    2    0    0  0.23029130864E-01 -0.23830898212E-02  0.39153970357E-02  0.10204491499E+01  0.10201789634E+01 0.  0.
     999903    2    3    3    0    0 -0.85565019581E-01  0.65307349011E-01  0.68093970849E-01  0.12888110747E+00  0.19675583505E-01 0.  0.
         14    1    1    2    0    0 -0.23029130864E-01  0.23830898212E-02 -0.39153970357E-02  0.23480850057E-01  0.00000000000E+00 0. -1.
     999901    1    3    3    0    0  0.10859415045E+00 -0.67690438832E-01 -0.64178573814E-01  0.89156804247E+00  0.88000000000E+00 0.  1.
        -11    1    4    4    0    0 -0.16216202233E-01  0.49497005443E-02  0.15415449481E-01  0.22920775599E-01  0.51100000000E-03 0.  1.
         11    1    4    4    0    0 -0.69348817348E-01  0.60357648466E-01  0.52678521368E-01  0.10596033187E+00  0.51100000000E-03 0. -1.
</event>
<event>
 8    1  0.1161271E+005  0.1043930E+01  0.7957747E-01            NaN
         13   -1    0    0    0    0  0.00000000000E+00  0.00000000000E+00  0.74505805969E-08  0.10566000000E+00  0.10566000000E+00 0. -1.
     999900   -1    0    0    0    0 -0.00000000000E+00 -0.00000000000E+00 -0.74505805969E-08  0.93827000000E+00  0.93827000000E+00 0.  1.
     999902    2    1    2    0    0  0.20717894012E-01 -0.68516507875E-02  0.10967675382E-01  0.10195073434E+01  0.10192147748E+01 0.  0.
     999903    2    3    3    0    0  0.11034782422E+00  0.23631735324E-02 -0.68318281862E-01  0.13136056480E+00  0.20149030917E-01 0.  0.
         14    1    1    2    0    0 -0.20717894012E-01  0.68516507875E-02 -0.10967675382E-01  0.24422656573E-01  0.00000000000E+00 0.  1.
     999901    1    3    3    0    0 -0.89629930212E-01 -0.92148243199E-02  0.79285957243E-01  0.88814677863E+00  0.88000000000E+00 0.  1.
        -11    1    4    4    0    0  0.67205875787E-01 -0.79280395110E-02 -0.37733215622E-01  0.77482515660E-01  0.51100000000E-03 0.  1.
         11    1    4    4    0    0  0.43141948436E-01  0.10291213043E-01 -0.30585066239E-01  0.53878049136E-01  0.51100000000E-03 0. -1.
</event>
<event>
 8    1  0.1161271E+005  0.1043930E+01  0.7957747E-01            NaN
         13   -1    0    0    0    0  0.00000000000E+00  0.00000000000E+00  0.74505805969E-08  0.10566000000E+00  0.10566000000E+00 0.  1.
     999900   -1    0    0    0    0 -0.00000000000E+00 -0.00000000000E+00 -0.74505805969E-08  0.93827000000E+00  0.93827000000E+00 0.  1.
     999902    2    1    2    0    0 -0.61771453893E-02  0.22306465867E-01  0.72786293817E-02  0.10196665709E+01  0.10193778504E+01 0.  0.
     999903    2    3    3    0    0 -0.93608222653E-01  0.23740656488E-02  0.89118143952E-01  0.13133149901E+00  0.23190159888E-01 0.  0.
         14    1    1    2    0    0  0.61771453893E-02 -0.22306465867E-01 -0.72786293817E-02  0.24263429072E-01  0.00000000000E+00 0.  1.
     999901    1    3    3    0    0  0.87431077264E-01  0.19932400218E-01 -0.81839514570E-01  0.88833507192E+00  0.88000000000E+00 0.  1.
        -11    1    4    4    0    0 -0.87545237281E-01 -0.39148407532E-02  0.82527674657E-01  0.12037679491E+00  0.51100000000E-03 0.  1.
         11    1    4    4    0    0 -0.60629853725E-02  0.62889064019E-02  0.65904692951E-02  0.10954704099E-01  0.51100000000E-03 0. -1.
</event>
<event>
 8    1  0.1161271E+005  0.1043930E+01  0.7957747E-01            NaN
         13   -1    0    0    0    0  0.00000000000E+00  0.00000000000E+00  0.74505805969E-08  0.10566000000E+00  0.10566000000E+00 0. -1.
     999900   -1    0    0    0    0 -0.00000000000E+00 -0.00000000000E+00 -0.74505805969E-08  0.93827000000E+00  0.93827000000E+00 0. -1.
     999902    2    1    2    0    0  0.15425538658E-01 -0.17426433401E-01 -0.82865006784E-02  0.10192258725E+01  0.10189264376E+01 0.  0.
     999903    2    3    3    0    0  0.12364828418E+00 -0.12059436366E-02  0.38943342857E-01  0.13119100543E+00  0.20103319918E-01 0.  0.
         14    1    1    2    0    0 -0.15425538658E-01  0.17426433401E-01  0.82865006784E-02  0.24704127539E-01  0.00000000000E+00 0. -1.
     999901    1    3    3    0    0 -0.10822274553E+00 -0.16220489765E-01 -0.47229843535E-01  0.88803486703E+00  0.88000000000E+00 0. -1.
        -11    1    4    4    0    0  0.18342462443E-01  0.18497374003E-02  0.13373153973E-01  0.22780909225E-01  0.51100000000E-03 0. -1.
         11    1    4    4    0    0  0.10530582174E+00 -0.30556810368E-02  0.25570188884E-01  0.10841009621E+00  0.51100000000E-03 0.  1.
</event>
<event>
 8    1  0.1161271E+005  0.1043930E+01  0.7957747E-01            NaN
         13   -1    0    0    0    0  0.00000000000E+00  0.00000000000E+00  0.74505805969E-08  0.10566000000E+00  0.10566000000E+00 0.  1.
     999900   -1    0    0    0    0 -0.00000000000E+00 -0.00000000000E+00 -0.74505805969E-08  0.93827000000E+00  0.93827000000E+00 0. -1.
     999902    2    1    2    0    0 -0.10348246691E-02 -0.11838481822E-01 -0.20322599676E-01  0.10203879404E+01  0.10201163268E+01 0.  0.
     999903    2    3    3    0    0  0.99135928385E-01  0.20035282033E-01 -0.82467181439E-01  0.13195557624E+00  0.19547206045E-01 0.  0.
         14    1    1    2    0    0  0.10348246691E-02  0.11838481822E-01  0.20322599676E-01  0.23542059628E-01  0.00000000000E+00 0.  1.
     999901    1    3    3    0    0 -0.10017075305E+00 -0.31873763854E-01  0.62144581763E-01  0.88843236413E+00  0.88000000000E+00 0. -1.
        -11    1    4    4    0    0  0.51121686431E-01  0.95798369411E-02 -0.54824511539E-01  0.75572404261E-01  0.51100000000E-03 0.  1.
         11    1    4    4    0    0  0.48014241954E-01  0.10455445092E-01 -0.27642669901E-01  0.56383171982E-01  0.51100000000E-03 0. -1.
</event>
<event>
 8    1  0.1161271E+005  0.1043930E+01  0.7957747E-01            NaN
         13   -1    0    0    0    0  0.00000000000E+00  0.00000000000E+00  0.74505805969E-08  0.10566000000E+00  0.10566000000E+00 0. -1.
     999900   -1    0    0    0    0 -0.00000000000E+00 -0.00000000000E+00 -0.74505805969E-08  0.93827000000E+00  0.93827000000E+00 0. -1.
     999902    2    1    2    0    0 -0.20971997184E-01  0.31516312829E-02  0.92438876820E-02  0.10207954608E+01  0.10205332752E+01 0.  0.
     999903    2    3    3    0    0 -0.95625916380E-02 -0.11018172060E+00  0.67963674619E-01  0.13151337023E+00  0.21100966069E-01 0.  0.
         14    1    1    2    0    0  0.20971997184E-01 -0.31516312829E-02 -0.92438876820E-02  0.23134539224E-01  0.00000000000E+00 0.  1.
     999901    1    3    3    0    0 -0.11409405545E-01  0.11333335188E+00 -0.58719786937E-01  0.88928209054E+00  0.88000000000E+00 0. -1.
        -11    1    4    4    0    0 -0.88197733898E-02 -0.79860946136E-01  0.38019588837E-01  0.88889309687E-01  0.51100000000E-03 0.  1.
         11    1    4    4    0    0 -0.74281824827E-03 -0.30320774464E-01  0.29944085782E-01  0.42624060545E-01  0.51100000000E-03 0. -1.
</event>
<event>
 8    1  0.1161271E+005  0.1043930E+01  0.7957747E-01            NaN
         13   -1    0    0    0    0  0.00000000000E+00  0.00000000000E+00  0.74505805969E-08  0.10566000000E+00  0.10566000000E+00 0.  1.
     999900   -1    0    0    0    0 -0.00000000000E+00 -0.00000000000E+00 -0.74505805969E-08  0.93827000000E+00  0.93827000000E+00 0. -1.
     999902    2    1    2    0    0 -0.14019783187E-02  0.58378162385E-02 -0.22834592951E-01  0.10203193186E+01  0.10200461007E+01 0.  0.
     999903    2    3    3    0    0  0.19080789305E-01 -0.10465063670E+00  0.69009534926E-01  0.12843222605E+00  0.20412949217E-01 0.  0.
         14    1    1    2    0    0  0.14019783187E-02 -0.58378162385E-02  0.22834592951E-01  0.23610681415E-01  0.00000000000E+00 0.  1.
     999901    1    3    3    0    0 -0.20482767623E-01  0.11048845294E+00 -0.91844127877E-01  0.89188709253E+00  0.88000000000E+00 0. -1.
        -11    1    4    4    0    0  0.19381658028E-01 -0.49711115678E-01  0.32904417157E-01  0.62688160600E-01  0.51100000000E-03 0.  1.
         11    1    4    4    0    0 -0.30086872370E-03 -0.54939521021E-01  0.36105117769E-01  0.65744065452E-01  0.51100000000E-03 0. -1.
</event>
<event>
 8    1  0.1161271E+005  0.1043930E+01  0.7957747E-01            NaN
         13   -1    0    0    0    0  0.00000000000E+00  0.00000000000E+00  0.74505805969E-08  0.10566000000E+00  0.10566000000E+00 0.  1.
     999900   -1    0    0    0    0 -0.00000000000E+00 -0.00000000000E+00 -0.74505805969E-08  0.93827000000E+00  0.93827000000E+00 0.  1.
     999902    2    1    2    0    0 -0.21598393711E-02 -0.21821075488E-01  0.10953090267E-01  0.10194188917E+01  0.10191241742E+01 0.  0.
     999903    2    3    3    0    0  0.98603238964E-01  0.42326341052E-01 -0.66600671037E-01  0.12796913158E+00  0.20647793431E-01 0.  0.
         14    1    1    2    0    0  0.21598393711E-02  0.21821075488E-01 -0.10953090267E-01  0.24511108256E-01  0.00000000000E+00 0. -1.
     999901    1    3    3    0    0 -0.10076307834E+00 -0.64147416540E-01  0.77553761304E-01  0.89144976016E+00  0.88000000000E+00 0. -1.
        -11    1    4    4    0    0  0.77330286363E-01  0.23474851960E-01 -0.48003773358E-01  0.93998219351E-01  0.51100000000E-03 0. -1.
         11    1    4    4    0    0  0.21272952601E-01  0.18851489093E-01 -0.18596897679E-01  0.33970912229E-01  0.51100000000E-03 0.  1.
</event>
<event>
 8    1  0.1161271E+005  0.1043930E+01  0.7957747E-01            NaN
         13   -1    0    0    0    0  0.00000000000E+00  0.00000000000E+00  0.74505805969E-08  0.10566000000E+00  0.10566000000E+00 0.  1.
     999900   -1    0    0    0    0 -0.00000000000E+00 -0.00000000000E+00 -0.74505805969E-08  0.93827000000E+00  0.93827000000E+00 0.  1.
     999902    2    1    2    0    0  0.16258669596E-01 -0.11336907542E-01 -0.12090544831E-01  0.10207125263E+01  0.10204484359E+01 0.  0.
     999903    2    3    3    0    0  0.71221922952E-01  0.10822820627E+00  0.16249441918E-02  0.13082214526E+00  0.18052321390E-01 0.  0.
         14    1    1    2    0    0 -0.16258669596E-01  0.11336907542E-01  0.12090544831E-01  0.23217473678E-01  0.00000000000E+00 0.  1.
     999901    1    3    3    0    0 -0.54963253356E-01 -0.11956511381E+00 -0.13715489023E-01  0.88989038106E+00  0.88000000000E+00 0. -1.
        -11    1    4    4    0    0  0.50188931346E-01  0.64169177323E-01  0.66588178433E-02  0.81738688049E-01  0.51100000000E-03 0. -1.
         11    1    4    4    0    0  0.21032991607E-01  0.44059028943E-01 -0.50338736516E-02  0.49083457216E-01  0.51100000000E-03 0.  1.
</event>
<event>
 8    1  0.1161271E+005  0.1043930E+01  0.7957747E-01            NaN
         13   -1    0    0    0    0  0.00000000000E+00  0.00000000000E+00  0.74505805969E-08  0.10566000000E+00  0.10566000000E+00 0. -1.
     999900   -1    0    0    0    0 -0.00000000000E+00 -0.00000000000E+00 -0.74505805969E-08  0.93827000000E+00  0.93827000000E+00 0. -1.
     999902    2    1    2    0    0  0.10482750859E-01  0.20784168725E-01 -0.74171125619E-03  0.10206400908E+01  0.10203743309E+01 0.  0.
     999903    2    3    3    0    0 -0.10346933082E+00 -0.43151495585E-01 -0.60504753275E-01  0.12898743012E+00  0.20223203720E-01 0.  0.
         14    1    1    2    0    0 -0.10482750859E-01 -0.20784168725E-01  0.74171125619E-03  0.23289909205E-01  0.00000000000E+00 0.  1.
     999901    1    3    3    0    0  0.11395208168E+00  0.63935664310E-01  0.59763042018E-01  0.89165266067E+00  0.88000000000E+00 0.  1.
        -11    1    4    4    0    0 -0.34095398440E-01 -0.22956507829E-01 -0.28132789503E-01  0.49811769821E-01  0.51100000000E-03 0.  1.
         11    1    4    4    0    0 -0.69373932385E-01 -0.20194987755E-01 -0.32371963772E-01  0.79175660303E-01  0.51100000000E-03 0. -1.
</event>
<event>
 8    1  0.1161271E+005  0.1043930E+01  0.7957747E-01            NaN
         13   -1    0    0    0    0  0.00000000000E+00  0.00000000000E+00  0.74505805969E-08  0.10566000000E+00  0.10566000000E+00 0.  1.
     999900   -1    0    0    0    0 -0.00000000000E+00 -0.00000000000E+00 -0.74505805969E-08  0.93827000000E+00  0.93827000000E+00 0. -1.
     999902    2    1    2    0    0 -0.85761143790E-02  0.16524760133E-01 -0.14447084664E-01  0.10203644385E+01  0.10200922760E+01 0.  0.
     999903    2    3    3    0    0  0.10555934972E+00  0.62368913532E-01  0.38849011155E-01  0.13021329152E+00  0.20337107307E-01 0.  0.
         14    1    1    2    0    0  0.85761143790E-02 -0.16524760133E-01  0.14447084664E-01  0.23565561538E-01  0.00000000000E+00 0.  1.
     999901    1    3    3    0    0 -0.11413546410E+00 -0.45844153398E-01 -0.53296095819E-01  0.89015114694E+00  0.88000000000E+00 0. -1.
        -11    1    4    4    0    0  0.29039474310E-01  0.25593464701E-01  0.18519992689E-01  0.42913491513E-01  0.51100000000E-03 0. -1.
         11    1    4    4    0    0  0.76519875408E-01  0.36775448831E-01  0.20329018466E-01  0.87299800011E-01  0.51100000000E-03 0.  1.
</event>
<event>
 8    1  0.1161271E+005  0.1043930E+01  0.7957747E-01            NaN
         13   -1    0    0    0    0  0.00000000000E+00  0.00000000000E+00  0.74505805969E-08  0.10566000000E+00  0.10566000000E+00 0. -1.
     999900   -1    0    0    0    0 -0.00000000000E+00 -0.00000000000E+00 -0.74505805969E-08  0.93827000000E+00  0.93827000000E+00 0.  1.
     999902    2    1    2    0    0  0.17398390628E-01 -0.11520171112E-01 -0.10990405557E-01  0.10203459513E+01  0.10200733567E+01 0.  0.
     999903    2    3    3    0    0 -0.95824978375E-01 -0.26430120606E-01  0.78814564023E-01  0.12843408881E+00  0.20064942335E-01 0.  0.
         14    1    1    2    0    0 -0.17398390628E-01  0.11520171112E-01  0.10990405557E-01  0.23584048703E-01  0.00000000000E+00 0. -1.
     999901    1    3    3    0    0  0.11322336900E+00  0.14909949494E-01 -0.89804969580E-01  0.89191186249E+00  0.88000000000E+00 0.  1.
        -11    1    4    4    0    0 -0.66032299530E-01 -0.23952227892E-01  0.45616609191E-01  0.83756253243E-01  0.51100000000E-03 0. -1.
         11    1    4    4    0    0 -0.29792678845E-01 -0.24778927134E-02  0.33197954832E-01  0.44677835568E-01  0.51100000000E-03 0.  1.
</event>
<event>
 8    1  0.1161271E+005  0.1043930E+01  0.7957747E-01            NaN
         13   -1    0    0    0    0  0.00000000000E+00  0.00000000000E+00  0.74505805969E-08  0.10566000000E+00  0.10566000000E+00 0. -1.
     999900   -1    0    0    0    0 -0.00000000000E+00 -0.00000000000E+00 -0.74505805969E-08  0.93827000000E+00  0.93827000000E+00 0. -1.
     999902    2    1    2    0    0  0.21404729029E-01  0.24254247106E-02 -0.10108308191E-01  0.10201345592E+01  0.10198569977E+01 0.  0.
     999903    2    3    3    0    0  0.89074279693E-01  0.18708139158E-01 -0.95301106978E-01  0.13328501847E+00  0.19959293157E-01 0.  0.
         14    1    1    2    0    0 -0.21404729029E-01 -0.24254247106E-02  0.10108308191E-01  0.23795440831E-01  0.00000000000E+00 0. -1.
     999901    1    3    3    0    0 -0.67669550664E-01 -0.16282714448E-01  0.85192798787E-01  0.88684954070E+00  0.88000000000E+00 0.  1.
        -11    1    4    4    0    0  0.21688239808E-01  0.58537508209E-02 -0.12348321888E-01  0.25639585002E-01  0.51100000000E-03 0.  1.
         11    1    4    4    0    0  0.67386039884E-01  0.12854388338E-01 -0.82952785090E-01  0.10764543347E+00  0.51100000000E-03 0. -1.
</event>
<event>
 8    1  0.1161271E+005  0.1043930E+01  0.7957747E-01            NaN
         13   -1    0    0    0    0  0.00000000000E+00  0.00000000000E+00  0.74505805969E-08  0.10566000000E+00  0.10566000000E+00 0.  1.
     999900   -1    0    0    0    0 -0.00000000000E+00 -0.00000000000E+00 -0.74505805969E-08  0.93827000000E+00  0.93827000000E+00 0.  1.
     999902    2    1    2    0    0  0.16816696468E-02  0.23637801794E-01  0.20973347828E-02  0.10201398235E+01  0.10198623863E+01 0.  0.
     999903    2    3    3    0    0  0.11201024246E+00 -0.52576600730E-01  0.33177831121E-01  0.12943952236E+00  0.18526416578E-01 0.  0.
         14    1    1    2    0    0 -0.16816696468E-02 -0.23637801794E-01 -0.20973347828E-02  0.23790176536E-01  0.00000000000E+00 0.  1.
     999901    1    3    3    0    0 -0.11032857281E+00  0.76214402523E-01 -0.31080496338E-01  0.89070030110E+00  0.88000000000E+00 0. -1.
        -11    1    4    4    0    0  0.68898880226E-01 -0.38863403484E-01  0.27939567997E-01  0.83894579131E-01  0.51100000000E-03 0. -1.
         11    1    4    4    0    0  0.43111362233E-01 -0.13713197246E-01  0.52382631244E-02  0.45544943231E-01  0.51100000000E-03 0.  1.
</event>
<event>
 8    1  0.1161271E+005  0.1043930E+01  0.7957747E-01            NaN
         13   -1    0    0    0    0  0.00000000000E+00  0.00000000000E+00  0.74505805969E-08  0.10566000000E+00  0.10566000000E+00 0.  1.
     999900   -1    0    0    0    0 -0.00000000000E+00 -0.00000000000E+00 -0.74505805969E-08  0.93827000000E+00  0.93827000000E+00 0. -1.
     999902    2    1    2    0    0  0.24412088924E-01 -0.26321692696E-02 -0.27562634216E-02  0.10192221998E+01  0.10189226748E+01 0.  0.
     999903    2    3    3    0    0  0.48602185323E-01 -0.98651489519E-01 -0.68456832376E-01  0.13123490523E+00  0.21023169355E-01 0.  0.
         14    1    1    2    0    0 -0.24412088924E-01  0.26321692696E-02  0.27562634216E-02  0.24707800160E-01  0.00000000000E+00 0.  1.
     999901    1    3    3    0    0 -0.24190096399E-01  0.96019320250E-01  0.65700568954E-01  0.88798729461E+00  0.88000000000E+00 0. -1.
        -11    1    4    4    0    0  0.31218605723E-01 -0.71916933133E-01 -0.58504610603E-01  0.97824829145E-01  0.51100000000E-03 0.  1.
         11    1    4    4    0    0  0.17383579600E-01 -0.26734556386E-01 -0.99522217733E-02  0.33410076087E-01  0.51100000000E-03 0. -1.
</event>
<event>
 8    1  0.1161271E+005  0.1043930E+01  0.7957747E-01            NaN
         13   -1    0    0    0    0  0.00000000000E+00  0.00000000000E+00  0.74505805969E-08  0.10566000000E+00  0.10566000000E+00 0.  1.
     999900   -1    0    0    0    0 -0.00000000000E+00 -0.00000000000E+00 -0.74505805969E-08  0.93827000000E+00  0.93827000000E+00 0. -1.
     999902    2    1    2    0    0  0.56111031317E-02 -0.96484755039E-02 -0.20480302502E-01  0.10206057562E+01  0.10203392030E+01 0.  0.
     999903    2    3    3    0    0 -0.69925749353E-01  0.99606782234E-01  0.37044122158E-01  0.12878089287E+00  0.20028227421E-01 0.  0.
         14    1    1    2    0    0 -0.56111031317E-02  0.96484755039E-02  0.20480302502E-01  0.23324243792E-01  0.00000000000E+00 0.  1.
     999901    1    3    3    0    0  0.75536852485E-01 -0.10925525774E+00 -0.57524424660E-01  0.89182486333E+00  0.88000000000E+00 0.  1.
        -11    1    4    4    0    0 -0.44462182726E-01  0.47022178028E-01  0.23067739812E-01  0.68704822686E-01  0.51100000000E-03 0.  1.
         11    1    4    4    0    0 -0.25463566627E-01  0.52584604206E-01  0.13976382346E-01  0.60076070189E-01  0.51100000000E-03 0. -1.
</event>
<event>
 8    1  0.1161271E+005  0.1043930E+01  0.7957747E-01            NaN
         13   -1    0    0    0    0  0.00000000000E+00  0.00000000000E+00  0.74505805969E-08  0.10566000000E+00  0.10566000000E+00 0. -1.
     999900   -1    0    0    0    0 -0.00000000000E+00 -0.00000000000E+00 -0.74505805969E-08  0.93827000000E+00  0.93827000000E+00 0.  1.
     999902    2    1    2    0    0  0.27918159134E-02 -0.14103555933E-01  0.19178954889E-01  0.10199605020E+01  0.10196788164E+01 0.  0.
     999903    2    3    3    0    0  0.86169725727E-01  0.30390678195E-01  0.92881054055E-01  0.13183685508E+00  0.20130851972E-01 0.  0.
         14    1    1    2    0    0 -0.27918159134E-02  0.14103555933E-01 -0.19178954889E-01  0.23969498049E-01  0.00000000000E+00 0.  1.
     999901    1    3    3    0    0 -0.83377909814E-01 -0.44494234128E-01 -0.73702099166E-01  0.88812364687E+00  0.88000000000E+00 0.  1.
        -11    1    4    4    0    0  0.42488246224E-01  0.18132668698E-01  0.60374493994E-01  0.76022269022E-01  0.51100000000E-03 0.  1.
         11    1    4    4    0    0  0.43681479504E-01  0.12258009497E-01  0.32506560062E-01  0.55814586055E-01  0.51100000000E-03 0. -1.
</event>
<event>
 8    1  0.1161271E+005  0.1043930E+01  0.7957747E-01            NaN
         13   -1    0    0    0    0  0.00000000000E+00  0.00000000000E+00  0.74505805969E-08  0.10566000000E+00  0.10566000000E+00 0. -1.
     999900   -1    0    0    0    0 -0.00000000000E+00 -0.00000000000E+00 -0.74505805969E-08  0.93827000000E+00  0.93827000000E+00 0.  1.
     999902    2    1    2    0    0  0.43503195579E-03  0.22973628680E-01  0.14593975908E-02  0.10209059537E+01  0.10206462950E+01 0.  0.
     999903    2    3    3    0    0  0.12417915353E+00 -0.51762000788E-02  0.36987079151E-01  0.13109291903E+00  0.19236792296E-01 0.  0.
         14    1    1    2    0    0 -0.43503195579E-03 -0.22973628680E-01 -0.14593975908E-02  0.23024046318E-01  0.00000000000E+00 0. -1.
     999901    1    3    3    0    0 -0.12374412157E+00  0.28149828759E-01 -0.35527681560E-01  0.88981303465E+00  0.88000000000E+00 0.  1.
        -11    1    4    4    0    0  0.55650254024E-01 -0.11176972073E-01  0.20496470825E-01  0.60350989345E-01  0.51100000000E-03 0.  1.
         11    1    4    4    0    0  0.68528899501E-01  0.60007719944E-02  0.16490608326E-01  0.70741929683E-01  0.51100000000E-03 0. -1.
</event>
<event>
 8    1  0.1161271E+005  0.1043930E+01  0.7957747E-01            NaN
         13   -1    0    0    0    0  0.00000000000E+00  0.00000000000E+00  0.74505805969E-08  0.10566000000E+00  0.10566000000E+00 0. -1.
     999900   -1    0    0    0    0 -0.00000000000E+00 -0.00000000000E+00 -0.74505805969E-08  0.93827000000E+00  0.93827000000E+00 0.  1.
     999902    2    1    2    0    0 -0.21247335831E-01 -0.80443473594E-02 -0.77628544632E-02  0.10199211951E+01  0.10196385739E+01 0.  0.
     999903    2    3    3    0    0  0.10344999891E+00 -0.37457037998E-01  0.60889490787E-01  0.12799761305E+00  0.23894076432E-01 0.  0.
         14    1    1    2    0    0  0.21247335831E-01  0.80443473594E-02  0.77628544632E-02  0.24008804921E-01  0.00000000000E+00 0. -1.
     999901    1    3    3    0    0 -0.12469733474E+00  0.29412690639E-01 -0.68652345250E-01  0.89192358202E+00  0.88000000000E+00 0.  1.
        -11    1    4    4    0    0  0.35575932521E-01 -0.25223275833E-01  0.23054337773E-01  0.49331777078E-01  0.51100000000E-03 0. -1.
         11    1    4    4    0    0  0.67874066392E-01 -0.12233762166E-01  0.37835153014E-01  0.78665835977E-01  0.51100000000E-03 0.  1.
</event>
<event>
 8    1  0.1161271E+005  0.1043930E+01  0.7957747E-01            NaN
         13   -1    0    0    0    0  0.00000000000E+00  0.00000000000E+00  0.74505805969E-08  0.10566000000E+00  0.10566000000E+00 0.  1.
     999900   -1    0    0    0    0 -0.00000000000E+00 -0.00000000000E+00 -0.74505805969E-08  0.93827000000E+00  0.93827000000E+00 0. -1.
     999902    2    1    2    0    0  0.23449956813E-02 -0.12210149975E-02 -0.24721213449E-01  0.10190678143E+01  0.10187644879E+01 0.  0.
     999903    2    3    3    0    0 -0.95323922528E-01  0.83928903485E-01 -0.16586645791E-01  0.12954215567E+00  0.19373751095E-01 0.  0.
         14    1    1    2    0    0 -0.23449956813E-02  0.12210149975E-02  0.24721213449E-01  0.24862185679E-01  0.00000000000E+00 0.  1.
     999901    1    3    3    0    0  0.97668918209E-01 -0.85149918482E-01 -0.81345676581E-02  0.88952565865E+00  0.88000000000E+00 0. -1.
        -11    1    4    4    0    0 -0.22588627224E-01  0.27804295442E-01  0.16975291380E-02  0.35867361919E-01  0.51100000000E-03 0. -1.
         11    1    4    4    0    0 -0.72735295304E-01  0.56124608043E-01 -0.18284174929E-01  0.93674793754E-01  0.51100000000E-03 0.  1.
</event>
<event>
 8    1  0.1161271E+005  0.1043930E+01  0.7957747E-01            NaN
         13   -1    0    0    0    0  0.00000000000E+00  0.00000000000E+00  0.74505805969E-08  0.10566000000E+00  0.10566000000E+00 0.  1.
     999900   -1    0    0    0    0 -0.00000000000E+00 -0.00000000000E+00 -0.74505805969E-08  0.93827000000E+00  0.93827000000E+00 0.  1.
     999902    2    1    2    0    0  0.12491215982E-01  0.76562097344E-02  0.17300930425E-01  0.10212590887E+01  0.10210074222E+01 0.  0.
     999903    2    3    3    0    0 -0.99501912429E-01  0.62729412037E-01  0.55526596776E-01  0.13163179599E+00  0.20201907187E-01 0.  0.
         14    1    1    2    0    0 -0.12491215982E-01 -0.76562097344E-02 -0.17300930425E-01  0.22670911270E-01  0.00000000000E+00 0. -1.
     999901    1    3    3    0    0  0.11199312841E+00 -0.55073202303E-01 -0.38225666351E-01  0.88962729274E+00  0.88000000000E+00 0. -1.
        -11    1    4    4    0    0 -0.73872063174E-01  0.38519020874E-01  0.32020308563E-01  0.89254456293E-01  0.51100000000E-03 0.  1.
         11    1    4    4    0    0 -0.25629849256E-01  0.24210391163E-01  0.23506288213E-01  0.42377339696E-01  0.51100000000E-03 0. -1.
</event>
<event>
 8    1  0.1161271E+005  0.1043930E+01  0.7957747E-01            NaN
         13   -1    0    0    0    0  0.00000000000E+00  0.00000000000E+00  0.74505805969E-08  0.10566000000E+00  0.10566000000E+00 0.  1.
     999900   -1    0    0    0    0 -0.00000000000E+00 -0.00000000000E+00 -0.74505805969E-08  0.93827000000E+00  0.93827000000E+00 0.  1.
     999902    2    1    2    0    0 -0.11069935981E-02 -0.35607073232E-02 -0.25286894244E-01  0.10183696578E+01  0.10180488342E+01 0.  0.
     999903    2    3    3    0    0 -0.11233307038E+00 -0.31490482134E-01  0.48492815697E-01  0.12786712663E+00  0.19699739385E-01 0.  0.
         14    1    1    2    0    0  0.11069935981E-02  0.35607073232E-02  0.25286894244E-01  0.25560342172E-01  0.00000000000E+00 0.  1.
     999901    1    3    3    0    0  0.11122607678E+00  0.27929774811E-01 -0.73779709940E-01  0.89050253120E+00  0.88000000000E+00 0.  1.
        -11    1    4    4    0    0 -0.72537750414E-01 -0.19082177767E-01  0.20865651369E-01  0.77855579578E-01  0.51100000000E-03 0. -1.
         11    1    4    4    0    0 -0.39795319965E-01 -0.12408304367E-01  0.27627164328E-01  0.50011547049E-01  0.51100000000E-03 0.  1.
</event>
<event>
 8    1  0.1161271E+005  0.1043930E+01  0.7957747E-01            NaN
         13   -1    0    0    0    0  0.00000000000E+00  0.00000000000E+00  0.74505805969E-08  0.10566000000E+00  0.10566000000E+00 0.  1.
     999900   -1    0    0    0    0 -0.00000000000E+00 -0.00000000000E+00 -0.74505805969E-08  0.93827000000E+00  0.93827000000E+00 0.  1.
     999902    2    1    2    0    0 -0.62650983488E-02 -0.25260105792E-01 -0.20141654506E-01  0.10110208729E+01  0.10104851284E+01 0.  0.
     999903    2    3    3    0    0 -0.43230996853E-01 -0.78394541635E-01  0.81634404155E-01  0.12279336146E+00  0.19985255284E-01 0.  0.
         14    1    1    2    0    0  0.62650983488E-02  0.25260105792E-01  0.20141654506E-01  0.32909127126E-01  0.00000000000E+00 0.  1.
     999901    1    3    3    0    0  0.36965898504E-01  0.53134435843E-01 -0.10177605866E+00  0.88822751142E+00  0.88000000000E+00 0.  1.
        -11    1    4    4    0    0 -0.19503664424E-01 -0.44880550995E-01  0.56057639254E-01  0.74413552685E-01  0.51100000000E-03 0.  1.
         11    1    4    4    0    0 -0.23727332429E-01 -0.33513990640E-01  0.25576764901E-01  0.48379808770E-01  0.51100000000E-03 0. -1.
</event>
<event>
 8    1  0.1161271E+005  0.1043930E+01  0.7957747E-01            NaN
         13   -1    0    0    0    0  0.00000000000E+00  0.00000000000E+00  0.74505805969E-08  0.10566000000E+00  0.10566000000E+00 0.  1.
     999900   -1    0    0    0    0 -0.00000000000E+00 -0.00000000000E+00 -0.74505805969E-08  0.93827000000E+00  0.93827000000E+00 0. -1.
     999902    2    1    2    0    0  0.15771957008E-02 -0.10715616534E-01 -0.20063606834E-01  0.10211295548E+01  0.10208749714E+01 0.  0.
     999903    2    3    3    0    0  0.51691720648E-01 -0.12094652985E+00  0.74986828218E-02  0.13241025168E+00  0.13272054780E-01 0.  0.
         14    1    1    2    0    0 -0.15771957008E-02  0.10715616534E-01  0.20063606834E-01  0.22800445240E-01  0.00000000000E+00 0.  1.
     999901    1    3    3    0    0 -0.50114524947E-01  0.11023091332E+00 -0.27562289655E-01  0.88871930308E+00  0.88000000000E+00 0. -1.
        -11    1    4    4    0    0  0.32743500932E-01 -0.71865913405E-01  0.10711901121E-01  0.79698508828E-01  0.51100000000E-03 0. -1.
         11    1    4    4    0    0  0.18948219715E-01 -0.49080616448E-01 -0.32132182990E-02  0.52711742848E-01  0.51100000000E-03 0.  1.
</event>
<event>
 8    1  0.1161271E+005  0.1043930E+01  0.7957747E-01            NaN
         13   -1    0    0    0    0  0.00000000000E+00  0.00000000000E+00  0.74505805969E-08  0.10566000000E+00  0.10566000000E+00 0.  1.
     999900   -1    0    0    0    0 -0.00000000000E+00 -0.00000000000E+00 -0.74505805969E-08  0.93827000000E+00  0.93827000000E+00 0. -1.
     999902    2    1    2    0    0  0.38827415570E-02 -0.22008821797E-01  0.19362780367E-02  0.10214975884E+01  0.10212512472E+01 0.  0.
     999903    2    3    3    0    0  0.51065332261E-01 -0.11683158003E+00 -0.37368325949E-01  0.13427585496E+00  0.19399154317E-01 0.  0.
         14    1    1    2    0    0 -0.38827415570E-02  0.22008821797E-01 -0.19362780367E-02  0.22432411630E-01  0.00000000000E+00 0.  1.
     999901    1    3    3    0    0 -0.47182590704E-01  0.94822758238E-01  0.39304603985E-01  0.88722173341E+00  0.88000000000E+00 0.  1.
        -11    1    4    4    0    0  0.23293416671E-01 -0.47013868232E-01 -0.25009936095E-01  0.58126113674E-01  0.51100000000E-03 0. -1.
         11    1    4    4    0    0  0.27771915589E-01 -0.69817711802E-01 -0.12358389854E-01  0.76149741284E-01  0.51100000000E-03 0.  1.
</event>
<event>
 8    1  0.1161271E+005  0.1043930E+01  0.7957747E-01            NaN
         13   -1    0    0    0    0  0.00000000000E+00  0.00000000000E+00  0.74505805969E-08  0.10566000000E+00  0.10566000000E+00 0.  1.
     999900   -1    0    0    0    0 -0.00000000000E+00 -0.00000000000E+00 -0.74505805969E-08  0.93827000000E+00  0.93827000000E+00 0. -1.
     999902    2    1    2    0    0 -0.14021026086E-01  0.94361705563E-03  0.18584604602E-01  0.10206304911E+01  0.10203645095E+01 0.  0.
     999903    2    3    3    0    0 -0.34177444541E-01  0.32988906788E-01  0.12280456321E+00  0.13367221614E+00  0.23042025437E-01 0.  0.
         14    1    1    2    0    0  0.14021026086E-01 -0.94361705563E-03 -0.18584604602E-01  0.23299508876E-01  0.00000000000E+00 0. -1.
     999901    1    3    3    0    0  0.20156418455E-01 -0.32045289732E-01 -0.10421995860E+00  0.88695827499E+00  0.88000000000E+00 0. -1.
        -11    1    4    4    0    0 -0.27611153216E-01  0.11091717515E-01  0.74685589437E-01  0.80396519638E-01  0.51100000000E-03 0. -1.
         11    1    4    4    0    0 -0.65662913249E-02  0.21897189273E-01  0.48118973768E-01  0.53275696498E-01  0.51100000000E-03 0.  1.
</event>
<event>
 8    1  0.1161271E+005  0.1043930E+01  0.7957747E-01            NaN
         13   -1    0    0    0    0  0.00000000000E+00  0.00000000000E+00  0.74505805969E-08  0.10566000000E+00  0.10566000000E+00 0.  1.
     999900   -1    0    0    0    0 -0.00000000000E+00 -0.00000000000E+00 -0.74505805969E-08  0.93827000000E+00  0.93827000000E+00 0.  1.
     999902    2    1    2    0    0 -0.22248341926E-02 -0.64051970803E-02  0.22574951889E-01  0.10203587275E+01  0.10200864315E+01 0.  0.
     999903    2    3    3    0    0 -0.30699688506E-01 -0.72655123682E-01 -0.99368965101E-01  0.12902815522E+00  0.23512459298E-01 0.  0.
         14    1    1    2    0    0  0.22248341926E-02  0.64051970803E-02 -0.22574951889E-01  0.23571272550E-01  0.00000000000E+00 0. -1.
     999901    1    3    3    0    0  0.28474854314E-01  0.66249926602E-01  0.12194391699E+00  0.89133057223E+00  0.88000000000E+00 0. -1.
        -11    1    4    4    0    0 -0.21460060811E-01 -0.63023850334E-01 -0.69166525144E-01  0.96004214712E-01  0.51100000000E-03 0. -1.
         11    1    4    4    0    0 -0.92396276953E-02 -0.96312733487E-02 -0.30202439957E-01  0.33023940507E-01  0.51100000000E-03 0.  1.
</event>
<event>
 8    1  0.1161271E+005  0.1043930E+01  0.7957747E-01            NaN
         13   -1    0    0    0    0  0.00000000000E+00  0.00000000000E+00  0.74505805969E-08  0.10566000000E+00  0.10566000000E+00 0.  1.
     999900   -1    0    0    0    0 -0.00000000000E+00 -0.00000000000E+00 -0.74505805969E-08  0.93827000000E+00  0.93827000000E+00 0. -1.
     999902    2    1    2    0    0  0.18904964882E-01 -0.12262226552E-01 -0.90145806155E-02  0.10196602130E+01  0.10193713393E+01 0.  0.
     999903    2    3    3    0    0  0.11832021938E+00 -0.25975214418E-01  0.48645882167E-01  0.13208138956E+00  0.20116797395E-01 0.  0.
         14    1    1    2    0    0 -0.18904964882E-01  0.12262226552E-01  0.90145806155E-02  0.24269786997E-01  0.00000000000E+00 0. -1.
     999901    1    3    3    0    0 -0.99415254497E-01  0.13712987866E-01 -0.57660462783E-01  0.88757882345E+00  0.88000000000E+00 0. -1.
        -11    1    4    4    0    0  0.80107659484E-01 -0.26910902457E-01  0.35411672272E-01  0.91627951156E-01  0.51100000000E-03 0. -1.
         11    1    4    4    0    0  0.38212559895E-01  0.93568803895E-03  0.13234209895E-01  0.40453438400E-01  0.51100000000E-03 0.  1.
</event>
<event>
 8    1  0.1161271E+005  0.1043930E+01  0.7957747E-01            NaN
         13   -1    0    0    0    0  0.00000000000E+00  0.00000000000E+00  0.74505805969E-08  0.10566000000E+00  0.10566000000E+00 0.  1.
     999900   -1    0    0    0    0 -0.00000000000E+00 -0.00000000000E+00 -0.74505805969E-08  0.93827000000E+00  0.93827000000E+00 0. -1.
     999902    2    1    2    0    0 -0.22297054267E-01 -0.20443278933E-02  0.90590751696E-02  0.10197762270E+01  0.10194901414E+01 0.  0.
     999903    2    3    3    0    0 -0.23776963664E-01  0.12577044857E+00 -0.14204205751E-01  0.13023702753E+00  0.19400364527E-01 0.  0.
         14    1    1    2    0    0  0.22297054267E-01  0.20443278933E-02 -0.90590751696E-02  0.24153772965E-01  0.00000000000E+00 0.  1.
     999901    1    3    3    0    0  0.14799093972E-02 -0.12781477647E+00  0.23263280921E-01  0.88953919950E+00  0.88000000000E+00 0.  1.
        -11    1    4    4    0    0 -0.70800204141E-02  0.48423730485E-01  0.37868260340E-02  0.49087529328E-01  0.51100000000E-03 0. -1.
         11    1    4    4    0    0 -0.16696943250E-01  0.77346718088E-01 -0.17991031785E-01  0.81149498203E-01  0.51100000000E-03 0.  1.
</event>
<event>
 8    1  0.1161271E+005  0.1043930E+01  0.7957747E-01            NaN
         13   -1    0    0    0    0  0.00000000000E+00  0.00000000000E+00  0.74505805969E-08  0.10566000000E+00  0.10566000000E+00 0.  1.
     999900   -1    0    0    0    0 -0.00000000000E+00 -0.00000000000E+00 -0.74505805969E-08  0.93827000000E+00  0.93827000000E+00 0.  1.
     999902    2    1    2    0    0  0.17501122014E-01  0.17496320641E-01 -0.26241086645E-02  0.10190443324E+01  0.10187404257E+01 0.  0.
     999903    2    3    3    0    0 -0.74606650146E-01  0.10345505952E+00  0.13851608241E-01  0.12991880931E+00  0.20443296610E-01 0.  0.
         14    1    1    2    0    0 -0.17501122014E-01 -0.17496320641E-01  0.26241086645E-02  0.24885667642E-01  0.00000000000E+00 0. -1.
     999901    1    3    3    0    0  0.92107772160E-01 -0.85958738879E-01 -0.16475716905E-01  0.88912552304E+00  0.88000000000E+00 0. -1.
        -11    1    4    4    0    0 -0.58441194490E-01  0.84716110936E-01  0.18939855342E-01  0.10464784712E+00  0.51100000000E-03 0.  1.
         11    1    4    4    0    0 -0.16165455656E-01  0.18738948584E-01 -0.50882471014E-02  0.25270962193E-01  0.51100000000E-03 0. -1.
</event>
<event>
 8    1  0.1161271E+005  0.1043930E+01  0.7957747E-01            NaN
         13   -1    0    0    0    0  0.00000000000E+00  0.00000000000E+00  0.74505805969E-08  0.10566000000E+00  0.10566000000E+00 0. -1.
     999900   -1    0    0    0    0 -0.00000000000E+00 -0.00000000000E+00 -0.74505805969E-08  0.93827000000E+00  0.93827000000E+00 0. -1.
     999902    2    1    2    0    0  0.19988461070E-01 -0.68464732051E-02 -0.11531696976E-01  0.10198594203E+01  0.10195753255E+01 0.  0.
     999903    2    3    3    0    0  0.12927017123E+00 -0.22254293806E-01 -0.97747411015E-02  0.13296428559E+00  0.19440291019E-01 0.  0.
         14    1    1    2    0    0 -0.19988461070E-01  0.68464732051E-02  0.11531696976E-01  0.24070579686E-01  0.00000000000E+00 0.  1.
     999901    1    3    3    0    0 -0.10928171016E+00  0.15407820600E-01 -0.17569558740E-02  0.88689513473E+00  0.88000000000E+00 0.  1.
        -11    1    4    4    0    0  0.95603519013E-01 -0.21805337129E-01 -0.13895179950E-01  0.99039601785E-01  0.51100000000E-03 0.  1.
         11    1    4    4    0    0  0.33666652217E-01 -0.44895667632E-03  0.41204388481E-02  0.33924683800E-01  0.51100000000E-03 0. -1.
</event>
<event>
 8    1  0.1161271E+005  0.1043930E+01  0.7957747E-01            NaN
         13   -1    0    0    0    0  0.00000000000E+00  0.00000000000E+00  0.74505805969E-08  0.10566000000E+00  0.10566000000E+00 0.  1.
     999900   -1    0    0    0    0 -0.00000000000E+00 -0.00000000000E+00 -0.74505805969E-08  0.93827000000E+00  0.93827000000E+00 0.  1.
     999902    2    1    2    0    0  0.14611771605E-01 -0.18266236388E-01  0.22766983052E-02  0.10204280295E+01  0.10201573510E+01 0.  0.
     999903    2    3    3    0    0  0.12782280347E-01  0.95979863105E-01  0.83414388117E-01  0.12933945761E+00  0.19879998405E-01 0.  0.
         14    1    1    2    0    0 -0.14611771605E-01  0.18266236388E-01 -0.22766983052E-02  0.23501970479E-01  0.00000000000E+00 0. -1.
     999901    1    3    3    0    0  0.18294912587E-02 -0.11424609949E+00 -0.81137689812E-01  0.89108857191E+00  0.88000000000E+00 0. -1.
        -11    1    4    4    0    0  0.11339365939E-01  0.80419569342E-01  0.78491974132E-01  0.11294750762E+00  0.51100000000E-03 0.  1.
         11    1    4    4    0    0  0.14429144082E-02  0.15560293763E-01  0.49224139845E-02  0.16391949988E-01  0.51100000000E-03 0. -1.
</event>
<event>
 8    1  0.1161271E+005  0.1043930E+01  0.7957747E-01            NaN
         13   -1    0    0    0    0  0.00000000000E+00  0.00000000000E+00  0.74505805969E-08  0.10566000000E+00  0.10566000000E+00 0.  1.
     999900   -1    0    0    0    0 -0.00000000000E+00 -0.00000000000E+00 -0.74505805969E-08  0.93827000000E+00  0.93827000000E+00 0. -1.
     999902    2    1    2    0    0  0.94314280032E-05  0.76691277061E-02  0.22090530710E-01  0.10205460919E+01  0.10202781575E+01 0.  0.
     999903    2    3    3    0    0 -0.71354299116E-01 -0.36077649709E-01  0.10437678932E+00  0.13275242733E+00  0.18321026260E-01 0.  0.
         14    1    1    2    0    0 -0.94314280032E-05 -0.76691277061E-02 -0.22090530710E-01  0.23383908052E-01  0.00000000000E+00 0. -1.
     999901    1    3    3    0    0  0.71363730544E-01  0.43746777415E-01 -0.82286258612E-01  0.88779366461E+00  0.88000000000E+00 0. -1.
        -11    1    4    4    0    0 -0.33240661060E-01 -0.24868399614E-01  0.44179366494E-01  0.60625542404E-01  0.51100000000E-03 0. -1.
         11    1    4    4    0    0 -0.38113638057E-01 -0.11209250095E-01  0.60197422828E-01  0.72126884931E-01  0.51100000000E-03 0.  1.
</event>
<event>
 8    1  0.1161271E+005  0.1043930E+01  0.7957747E-01            NaN
         13   -1    0    0    0    0  0.00000000000E+00  0.00000000000E+00  0.74505805969E-08  0.10566000000E+00  0.10566000000E+00 0.  1.
     999900   -1    0    0    0    0 -0.00000000000E+00 -0.00000000000E+00 -0.74505805969E-08  0.93827000000E+00  0.93827000000E+00 0.  1.
     999902    2    1    2    0    0  0.18016217888E-01  0.22399532136E-03  0.71019452345E-02  0.10245632267E+01  0.10243801705E+01 0.  0.
     999903    2    3    3    0    0  0.25109803093E-01  0.12590564919E+00 -0.35018733087E-01  0.13460797582E+00  0.20254895210E-01 0.  0.
         14    1    1    2    0    0 -0.18016217888E-01 -0.22399532136E-03 -0.71019452345E-02  0.19366773273E-01  0.00000000000E+00 0. -1.
     999901    1    3    3    0    0 -0.70935852050E-02 -0.12568165386E+00  0.42120678322E-01  0.88995525090E+00  0.88000000000E+00 0. -1.
        -11    1    4    4    0    0  0.21106496169E-01  0.64576741278E-01 -0.12083842298E-01  0.69006666782E-01  0.51100000000E-03 0.  1.
         11    1    4    4    0    0  0.40033069234E-02  0.61328907908E-01 -0.22934890789E-01  0.65601309041E-01  0.51100000000E-03 0. -1.
</event>
<event>
 8    1  0.1161271E+005  0.1043930E+01  0.7957747E-01            NaN
         13   -1    0    0    0    0  0.00000000000E+00  0.00000000000E+00  0.74505805969E-08  0.10566000000E+00  0.10566000000E+00 0.  1.
     999900   -1    0    0    0    0 -0.00000000000E+00 -0.00000000000E+00 -0.74505805969E-08  0.93827000000E+00  0.93827000000E+00 0.  1.
     999902    2    1    2    0    0 -0.96903719429E-02 -0.17935241039E-01  0.13676583479E-01  0.10193815761E+01  0.10190859496E+01 0.  0.
     999903    2    3    3    0    0  0.12797755940E-02  0.10750549052E+00 -0.66496550541E-01  0.12681031695E+00  0.99998467226E-02 0.  0.
         14    1    1    2    0    0  0.96903719429E-02  0.17935241039E-01 -0.13676583479E-01  0.24548423884E-01  0.00000000000E+00 0. -1.
     999901    1    3    3    0    0 -0.10970147537E-01 -0.12544073156E+00  0.80173134021E-01  0.89257125917E+00  0.88000000000E+00 0. -1.
        -11    1    4    4    0    0  0.34392434748E-02  0.83542618481E-01 -0.47615409995E-01  0.96222065496E-01  0.51100000000E-03 0.  1.
         11    1    4    4    0    0 -0.21594678808E-02  0.23962872035E-01 -0.18881140546E-01  0.30588251454E-01  0.51100000000E-03 0. -1.
</event>
<event>
 8    1  0.1161271E+005  0.1043930E+01  0.7957747E-01            NaN
         13   -1    0    0    0    0  0.00000000000E+00  0.00000000000E+00  0.74505805969E-08  0.10566000000E+00  0.10566000000E+00 0. -1.
     999900   -1    0    0    0    0 -0.00000000000E+00 -0.00000000000E+00 -0.74505805969E-08  0.93827000000E+00  0.93827000000E+00 0.  1.
     999902    2    1    2    0    0  0.20282779579E-01 -0.15801687555E-01 -0.35369110533E-02  0.10179763063E+01  0.10176454029E+01 0.  0.
     999903    2    3    3    0    0  0.38662952291E-01  0.64946820893E-01  0.10126752523E+00  0.12789646593E+00  0.19735270648E-01 0.  0.
         14    1    1    2    0    0 -0.20282779579E-01  0.15801687555E-01  0.35369110533E-02  0.25953693703E-01  0.00000000000E+00 0. -1.
     999901    1    3    3    0    0 -0.18380172712E-01 -0.80748508448E-01 -0.10480443628E+00  0.89007984037E+00  0.88000000000E+00 0.  1.
        -11    1    4    4    0    0  0.32947529504E-01  0.40311746481E-01  0.59471459259E-01  0.79042344298E-01  0.51100000000E-03 0.  1.
         11    1    4    4    0    0  0.57154227876E-02  0.24635074413E-01  0.41796065968E-01  0.48854121631E-01  0.51100000000E-03 0. -1.
</event>
<event>
 8    1  0.1161271E+005  0.1043930E+01  0.7957747E-01            NaN
         13   -1    0    0    0    0  0.00000000000E+00  0.00000000000E+00  0.74505805969E-08  0.10566000000E+00  0.10566000000E+00 0.  1.
     999900   -1    0    0    0    0 -0.00000000000E+00 -0.00000000000E+00 -0.74505805969E-08  0.93827000000E+00  0.93827000000E+00 0. -1.
     999902    2    1    2    0    0  0.14863773604E-01 -0.14683043644E-02 -0.18373436208E-01  0.10202515110E+01  0.10199767031E+01 0.  0.
     999903    2    3    3    0    0  0.10092679249E+00 -0.54137927521E-01  0.60233594010E-01  0.13100463997E+00  0.20420509504E-01 0.  0.
         14    1    1    2    0    0 -0.14863773604E-01  0.14683043644E-02  0.18373436208E-01  0.23678489005E-01  0.00000000000E+00 0. -1.
     999901    1    3    3    0    0 -0.86063018886E-01  0.52669623157E-01 -0.78607030218E-01  0.88924687102E+00  0.88000000000E+00 0. -1.
        -11    1    4    4    0    0  0.64250991817E-01 -0.43669055126E-01  0.46037942048E-01  0.90304648574E-01  0.51100000000E-03 0.  1.
         11    1    4    4    0    0  0.36675800673E-01 -0.10468872395E-01  0.14195651962E-01  0.40699991399E-01  0.51100000000E-03 0. -1.
</event>
<event>
 8    1  0.1161271E+005  0.1043930E+01  0.7957747E-01            NaN
         13   -1    0    0    0    0  0.00000000000E+00  0.00000000000E+00  0.74505805969E-08  0.10566000000E+00  0.10566000000E+00 0.  1.
     999900   -1    0    0    0    0 -0.00000000000E+00 -0.00000000000E+00 -0.74505805969E-08  0.93827000000E+00  0.93827000000E+00 0.  1.
     999902    2    1    2    0    0  0.71344222412E-02  0.26808777512E-02  0.21681976130E-01  0.10209475029E+01  0.10206887912E+01 0.  0.
     999903    2    3    3    0    0 -0.16637557093E-01  0.12860866640E+00 -0.57065676437E-03  0.13138688399E+00  0.21099532170E-01 0.  0.
         14    1    1    2    0    0 -0.71344222412E-02 -0.26808777512E-02 -0.21681976130E-01  0.22982497148E-01  0.00000000000E+00 0. -1.
     999901    1    3    3    0    0  0.23771979334E-01 -0.12592778865E+00  0.22252632894E-01  0.88956061886E+00  0.88000000000E+00 0. -1.
        -11    1    4    4    0    0 -0.18337819991E-02  0.89146685310E-01 -0.23633691452E-02  0.89198323375E-01  0.51100000000E-03 0.  1.
         11    1    4    4    0    0 -0.14803775094E-01  0.39461981087E-01  0.17927123808E-02  0.42188560618E-01  0.51100000000E-03 0. -1.
</event>
<event>
 8    1  0.1161271E+005  0.1043930E+01  0.7957747E-01            NaN
         13   -1    0    0    0    0  0.00000000000E+00  0.00000000000E+00  0.74505805969E-08  0.10566000000E+00  0.10566000000E+00 0. -1.
     999900   -1    0    0    0    0 -0.00000000000E+00 -0.00000000000E+00 -0.74505805969E-08  0.93827000000E+00  0.93827000000E+00 0.  1.
     999902    2    1    2    0    0 -0.50604809920E-02 -0.21510994559E-01 -0.97553233148E-02  0.10197743032E+01  0.10194881715E+01 0.  0.
     999903    2    3    3    0    0  0.52382471253E-01  0.11405818056E+00  0.93653070182E-02  0.12733702669E+00  0.19334361731E-01 0.  0.
         14    1    1    2    0    0  0.50604809920E-02  0.21510994559E-01  0.97553233148E-02  0.24155696797E-01  0.00000000000E+00 0.  1.
     999901    1    3    3    0    0 -0.57442952245E-01 -0.13556917512E+00 -0.19120630333E-01  0.89243727651E+00  0.88000000000E+00 0. -1.
        -11    1    4    4    0    0  0.39634142181E-01  0.99627495136E-01  0.38130247971E-02  0.10729074188E+00  0.51100000000E-03 0.  1.
         11    1    4    4    0    0  0.12748329072E-01  0.14430685424E-01  0.55522822211E-02  0.20046284813E-01  0.51100000000E-03 0. -1.
</event>
<event>
 8    1  0.1161271E+005  0.1043930E+01  0.7957747E-01            NaN
         13   -1    0    0    0    0  0.00000000000E+00  0.00000000000E+00  0.74505805969E-08  0.10566000000E+00  0.10566000000E+00 0.  1.
     999900   -1    0    0    0    0 -0.00000000000E+00 -0.00000000000E+00 -0.74505805969E-08  0.93827000000E+00  0.93827000000E+00 0.  1.
     999902    2    1    2    0    0 -0.17781098321E-01 -0.68768585370E-02 -0.15317186571E-01  0.10194744312E+01  0.10191810639E+01 0.  0.
     999903    2    3    3    0    0 -0.12262308836E+00 -0.35967803641E-01 -0.29697923271E-01  0.13265712671E+00  0.19642859292E-01 0.  0.
         14    1    1    2    0    0  0.17781098321E-01  0.68768585370E-02  0.15317186571E-01  0.24455568799E-01  0.00000000000E+00 0.  1.
     999901    1    3    3    0    0  0.10484199004E+00  0.29090945104E-01  0.14380736700E-01  0.88681730449E+00  0.88000000000E+00 0.  1.
        -11    1    4    4    0    0 -0.91618042745E-01 -0.35497280301E-01 -0.23606797231E-01  0.10105179198E+00  0.51100000000E-03 0. -1.
         11    1    4    4    0    0 -0.31005045617E-01 -0.47052333970E-03 -0.60911260392E-02  0.31605334730E-01  0.51100000000E-03 0.  1.
</event>
<event>
 8    1  0.1161271E+005  0.1043930E+01  0.7957747E-01            NaN
         13   -1    0    0    0    0  0.00000000000E+00  0.00000000000E+00  0.74505805969E-08  0.10566000000E+00  0.10566000000E+00 0. -1.
     999900   -1    0    0    0    0 -0.00000000000E+00 -0.00000000000E+00 -0.74505805969E-08  0.93827000000E+00  0.93827000000E+00 0.  1.
     999902    2    1    2    0    0 -0.32214426978E-02  0.22661241437E-01  0.66231672875E-02  0.10201019514E+01  0.10198236197E+01 0.  0.
     999903    2    3    3    0    0  0.54496518928E-01 -0.11281794466E+00  0.17466455043E-01  0.12779956437E+00  0.18162939947E-01 0.  0.
         14    1    1    2    0    0  0.32214426978E-02 -0.22661241437E-01 -0.66231672875E-02  0.23828048629E-01  0.00000000000E+00 0.  1.
     999901    1    3    3    0    0 -0.57717961625E-01  0.13547918610E+00 -0.10843287756E-01  0.89230238700E+00  0.88000000000E+00 0.  1.
        -11    1    4    4    0    0  0.30926179762E-01 -0.54100741733E-01  0.16717191466E-01  0.64521658862E-01  0.51100000000E-03 0.  1.
         11    1    4    4    0    0  0.23570339165E-01 -0.58717202931E-01  0.74926357747E-03  0.63277905507E-01  0.51100000000E-03 0. -1.
</event>
<event>
 8    1  0.1161271E+005  0.1043930E+01  0.7957747E-01            NaN
         13   -1    0    0    0    0  0.00000000000E+00  0.00000000000E+00  0.74505805969E-08  0.10566000000E+00  0.10566000000E+00 0.  1.
     999900   -1    0    0    0    0 -0.00000000000E+00 -0.00000000000E+00 -0.74505805969E-08  0.93827000000E+00  0.93827000000E+00 0. -1.
     999902    2    1    2    0    0  0.12798483571E-01  0.19799736753E-01 -0.58869504057E-02  0.10196300629E+01  0.10193404624E+01 0.  0.
     999903    2    3    3    0    0 -0.12651047870E+00  0.88670203657E-02 -0.73571640036E-02  0.12860331091E+00  0.20028940177E-01 0.  0.
         14    1    1    2    0    0 -0.12798483571E-01 -0.19799736753E-01  0.58869504057E-02  0.24299937084E-01  0.00000000000E+00 0. -1.
     999901    1    3    3    0    0  0.13930896227E+00  0.10932716387E-01  0.14702135979E-02  0.89102675200E+00  0.88000000000E+00 0.  1.
        -11    1    4    4    0    0 -0.66817234528E-01  0.10027648961E-02  0.54379347091E-02  0.67047599676E-01  0.51100000000E-03 0. -1.
         11    1    4    4    0    0 -0.59693244172E-01  0.78642554696E-02 -0.12795098713E-01  0.61555711237E-01  0.51100000000E-03 0.  1.
</event>
<event>
 8    1  0.1161271E+005  0.1043930E+01  0.7957747E-01            NaN
         13   -1    0    0    0    0  0.00000000000E+00  0.00000000000E+00  0.74505805969E-08  0.10566000000E+00  0.10566000000E+00 0. -1.
     999900   -1    0    0    0    0 -0.00000000000E+00 -0.00000000000E+00 -0.74505805969E-08  0.93827000000E+00  0.93827000000E+00 0. -1.
     999902    2    1    2    0    0 -0.86587009531E-02  0.87621652905E-02  0.17577169149E-01  0.10224659482E+01  0.10222406320E+01 0.  0.
     999903    2    3    3    0    0 -0.89407742777E-01 -0.95377389024E-01  0.11857929448E-01  0.13263553505E+00  0.18999575310E-01 0.  0.
         14    1    1    2    0    0  0.86587009531E-02 -0.87621652905E-02 -0.17577169149E-01  0.21464051763E-01  0.00000000000E+00 0.  1.
     999901    1    3    3    0    0  0.80749041824E-01  0.10413955431E+00  0.57192397018E-02  0.88983041319E+00  0.88000000000E+00 0. -1.
        -11    1    4    4    0    0 -0.24553935889E-01 -0.15810974076E-01 -0.71981158347E-03  0.29217493366E-01  0.51100000000E-03 0. -1.
         11    1    4    4    0    0 -0.64853806888E-01 -0.79566414948E-01  0.12577741031E-01  0.10341804169E+00  0.51100000000E-03 0.  1.
</event>
<event>
 8    1  0.1161271E+005  0.1043930E+01  0.7957747E-01            NaN
         13   -1    0    0    0    0  0.00000000000E+00  0.00000000000E+00  0.74505805969E-08  0.10566000000E+00  0.10566000000E+00 0.  1.
     999900   -1    0    0    0    0 -0.00000000000E+00 -0.00000000000E+00 -0.74505805969E-08  0.93827000000E+00  0.93827000000E+00 0. -1.
     999902    2    1    2    0    0  0.18101294867E-01 -0.55954438809E-02 -0.14455881805E-01  0.10200985421E+01  0.10198201298E+01 0.  0.
     999903    2    3    3    0    0  0.65957115635E-01  0.10789017093E+00  0.25368629703E-01  0.13062951166E+00  0.20733351349E-01 0.  0.
         14    1    1    2    0    0 -0.18101294867E-01  0.55954438809E-02  0.14455881805E-01  0.23831457925E-01  0.00000000000E+00 0.  1.
     999901    1    3    3    0    0 -0.47855820768E-01 -0.11348561481E+00 -0.39824511508E-01  0.88946903041E+00  0.88000000000E+00 0. -1.
        -11    1    4    4    0    0  0.23483697118E-01  0.53412077984E-01  0.47711468399E-02  0.58543650963E-01  0.51100000000E-03 0. -1.
         11    1    4    4    0    0  0.42473418517E-01  0.54478092942E-01  0.20597482863E-01  0.72085860697E-01  0.51100000000E-03 0.  1.
</event>
<event>
 8    1  0.1161271E+005  0.1043930E+01  0.7957747E-01            NaN
         13   -1    0    0    0    0  0.00000000000E+00  0.00000000000E+00  0.74505805969E-08  0.10566000000E+00  0.10566000000E+00 0. -1.
     999900   -1    0    0    0    0 -0.00000000000E+00 -0.00000000000E+00 -0.74505805969E-08  0.93827000000E+00  0.93827000000E+00 0.  1.
     999902    2    1    2    0    0  0.21646313300E-01 -0.41510528187E-02  0.85109822641E-02  0.10203030887E+01  0.10200294907E+01 0.  0.
     999903    2    3    3    0    0  0.73027448555E-01  0.10133113915E+00  0.37922993492E-01  0.13202859267E+00  0.19808781942E-01 0.  0.
         14    1    1    2    0    0 -0.21646313300E-01  0.41510528187E-02 -0.85109822641E-02  0.23626911310E-01  0.00000000000E+00 0. -1.
     999901    1    3    3    0    0 -0.51381135255E-01 -0.10548219197E+00 -0.29412011228E-01  0.88827449602E+00  0.88000000000E+00 0.  1.
        -11    1    4    4    0    0  0.24455238032E-01  0.22061716212E-01  0.15445369569E-01  0.36381293978E-01  0.51100000000E-03 0.  1.
         11    1    4    4    0    0  0.48572210523E-01  0.79269422937E-01  0.22477623923E-01  0.95647298687E-01  0.51100000000E-03 0. -1.
</event>
<event>
 8    1  0.1161271E+005  0.1043930E+01  0.7957747E-01            NaN
         13   -1    0    0    0    0  0.00000000000E+00  0.00000000000E+00  0.74505805969E-08  0.10566000000E+00  0.10566000000E+00 0.  1.
     999900   -1    0    0    0    0 -0.00000000000E+00 -0.00000000000E+00 -0.74505805969E-08  0.93827000000E+00  0.93827000000E+00 0. -1.
     999902    2    1    2    0    0  0.23072265311E-01 -0.28486228406E-02 -0.13861363074E-02  0.10206412591E+01  0.10203755261E+01 0.  0.
     999903    2    3    3    0    0  0.87463493674E-01 -0.85112875467E-01 -0.49282783127E-01  0.13316859681E+00  0.20273582970E-01 0.  0.
         14    1    1    2    0    0 -0.23072265311E-01  0.28486228406E-02  0.13861363074E-02  0.23288740896E-01  0.00000000000E+00 0.  1.
     999901    1    3    3    0    0 -0.64391228363E-01  0.82264252626E-01  0.47896646819E-01  0.88747266230E+00  0.88000000000E+00 0. -1.
        -11    1    4    4    0    0  0.31104144283E-01 -0.18471803809E-01 -0.10591179814E-01  0.37697606534E-01  0.51100000000E-03 0. -1.
         11    1    4    4    0    0  0.56359349392E-01 -0.66641071658E-01 -0.38691603313E-01  0.95470990272E-01  0.51100000000E-03 0.  1.
</event>
<event>
 8    1  0.1161271E+005  0.1043930E+01  0.7957747E-01            NaN
         13   -1    0    0    0    0  0.00000000000E+00  0.00000000000E+00  0.74505805969E-08  0.10566000000E+00  0.10566000000E+00 0. -1.
     999900   -1    0    0    0    0 -0.00000000000E+00 -0.00000000000E+00 -0.74505805969E-08  0.93827000000E+00  0.93827000000E+00 0. -1.
     999902    2    1    2    0    0  0.21838159024E-01 -0.51114853869E-02 -0.12445691904E-01  0.10182798983E+01  0.10179567886E+01 0.  0.
     999903    2    3    3    0    0 -0.84576969623E-01 -0.81524039193E-01 -0.46658492127E-01  0.12792402913E+00  0.19700497078E-01 0.  0.
         14    1    1    2    0    0 -0.21838159024E-01  0.51114853869E-02  0.12445691904E-01  0.25650101743E-01  0.00000000000E+00 0.  1.
     999901    1    3    3    0    0  0.10641512865E+00  0.76412553806E-01  0.34212800223E-01  0.89035586912E+00  0.88000000000E+00 0.  1.
        -11    1    4    4    0    0 -0.51218137312E-01 -0.39176166444E-01 -0.18416837999E-01  0.67063482237E-01  0.51100000000E-03 0.  1.
         11    1    4    4    0    0 -0.33358832312E-01 -0.42347872749E-01 -0.28241654129E-01  0.60860546896E-01  0.51100000000E-03 0. -1.
</event>
<event>
 8    1  0.1161271E+005  0.1043930E+01  0.7957747E-01            NaN
         13   -1    0    0    0    0  0.00000000000E+00  0.00000000000E+00  0.74505805969E-08  0.10566000000E+00  0.10566000000E+00 0. -1.
     999900   -1    0    0    0    0 -0.00000000000E+00 -0.00000000000E+00 -0.74505805969E-08  0.93827000000E+00  0.93827000000E+00 0.  1.
     999902    2    1    2    0    0 -0.70533338807E-02  0.11752412659E-01  0.18650322583E-01  0.10207847358E+01  0.10205223043E+01 0.  0.
     999903    2    3    3    0    0 -0.13004163255E+00  0.67416808092E-02 -0.39929728856E-02  0.13192932131E+00  0.20811668197E-01 0.  0.
         14    1    1    2    0    0  0.70533338807E-02 -0.11752412659E-01 -0.18650322583E-01  0.23145264194E-01  0.00000000000E+00 0.  1.
     999901    1    3    3    0    0  0.12298829867E+00  0.50107318497E-02  0.22643295469E-01  0.88885541449E+00  0.88000000000E+00 0.  1.
        -11    1    4    4    0    0 -0.90319487899E-01  0.91859259663E-02  0.56994970502E-02  0.90965578753E-01  0.51100000000E-03 0. -1.
         11    1    4    4    0    0 -0.39722144652E-01 -0.24442451571E-02 -0.96924699357E-02  0.40963742560E-01  0.51100000000E-03 0.  1.
</event>
<event>
 8    1  0.1161271E+005  0.1043930E+01  0.7957747E-01            NaN
         13   -1    0    0    0    0  0.00000000000E+00  0.00000000000E+00  0.74505805969E-08  0.10566000000E+00  0.10566000000E+00 0. -1.
     999900   -1    0    0    0    0 -0.00000000000E+00 -0.00000000000E+00 -0.74505805969E-08  0.93827000000E+00  0.93827000000E+00 0. -1.
     999902    2    1    2    0    0 -0.23166627620E-01  0.11825368013E-02  0.96060415963E-02  0.10188228882E+01  0.10185134807E+01 0.  0.
     999903    2    3    3    0    0  0.10906569709E+00 -0.58672245487E-01  0.18539897432E-01  0.12688802709E+00  0.20471564379E-01 0.  0.
         14    1    1    2    0    0  0.23166627620E-01 -0.11825368013E-02 -0.96060415963E-02  0.25107111816E-01  0.00000000000E+00 0. -1.
     999901    1    3    3    0    0 -0.13223232471E+00  0.59854782288E-01 -0.89338558362E-02  0.89193486110E+00  0.88000000000E+00 0.  1.
        -11    1    4    4    0    0  0.39737842561E-02 -0.76546246557E-02  0.25304891872E-03  0.86434596481E-02  0.51100000000E-03 0. -1.
         11    1    4    4    0    0  0.10509191284E+00 -0.51017620831E-01  0.18286848514E-01  0.11824456744E+00  0.51100000000E-03 0.  1.
</event>
<event>
 8    1  0.1161271E+005  0.1043930E+01  0.7957747E-01            NaN
         13   -1    0    0    0    0  0.00000000000E+00  0.00000000000E+00  0.74505805969E-08  0.10566000000E+00  0.10566000000E+00 0. -1.
     999900   -1    0    0    0    0 -0.00000000000E+00 -0.00000000000E+00 -0.74505805969E-08  0.93827000000E+00  0.93827000000E+00 0. -1.
     999902    2    1    2    0    0  0.69530820915E-02 -0.15660215265E-01  0.15566028230E-01  0.10207807251E+01  0.10205182016E+01 0.  0.
     999903    2    3    3    0    0 -0.76534812780E-01  0.84930891910E-01 -0.54861607080E-01  0.12834089451E+00  0.19767531594E-01 0.  0.
         14    1    1    2    0    0 -0.69530820915E-02  0.15660215265E-01 -0.15566028230E-01  0.23149274882E-01  0.00000000000E+00 0.  1.
     999901    1    3    3    0    0  0.83487894871E-01 -0.10059110718E+00  0.70427635310E-01  0.89243983060E+00  0.88000000000E+00 0.  1.
        -11    1    4    4    0    0 -0.15223429309E-01  0.26520809903E-01 -0.82455740535E-02  0.31675807335E-01  0.51100000000E-03 0.  1.
         11    1    4    4    0    0 -0.61311383471E-01  0.58410082007E-01 -0.46616033027E-01  0.96665087179E-01  0.51100000000E-03 0. -1.
</event>
<event>
 8    1  0.1161271E+005  0.1043930E+01  0.7957747E-01            NaN
         13   -1    0    0    0    0  0.00000000000E+00  0.00000000000E+00  0.74505805969E-08  0.10566000000E+00  0.10566000000E+00 0. -1.
     999900   -1    0    0    0    0 -0.00000000000E+00 -0.00000000000E+00 -0.74505805969E-08  0.93827000000E+00  0.93827000000E+00 0.  1.
     999902    2    1    2    0    0 -0.34696245728E-02  0.23235095971E-01 -0.37736891592E-02  0.10201361203E+01  0.10198585957E+01 0.  0.
     999903    2    3    3    0    0 -0.23579107560E-01  0.26624316678E-01  0.12393588261E+00  0.13068369730E+00  0.21290777108E-01 0.  0.
         14    1    1    2    0    0  0.34696245728E-02 -0.23235095971E-01  0.37736891592E-02  0.23793879662E-01  0.00000000000E+00 0.  1.
     999901    1    3    3    0    0  0.20109482987E-01 -0.33892207062E-02 -0.12770957177E+00  0.88945242304E+00  0.88000000000E+00 0.  1.
        -11    1    4    4    0    0  0.38439609364E-02  0.59180125045E-02  0.22187431796E-01  0.23288240775E-01  0.51100000000E-03 0.  1.
         11    1    4    4    0    0 -0.27423068497E-01  0.20706304173E-01  0.10174845082E+00  0.10739545653E+00  0.51100000000E-03 0. -1.
</event>
<event>
 8    1  0.1161271E+005  0.1043930E+01  0.7957747E-01            NaN
         13   -1    0    0    0    0  0.00000000000E+00  0.00000000000E+00  0.74505805969E-08  0.10566000000E+00  0.10566000000E+00 0. -1.
     999900   -1    0    0    0    0 -0.00000000000E+00 -0.00000000000E+00 -0.74505805969E-08  0.93827000000E+00  0.93827000000E+00 0.  1.
     999902    2    1    2    0    0 -0.77007658206E-02  0.54669394780E-02  0.21161393312E-01  0.10207568736E+01  0.10204938026E+01 0.  0.
     999903    2    3    3    0    0 -0.11034500161E+00  0.32554305435E-01 -0.57575619945E-01  0.13088661236E+00  0.24094628035E-01 0.  0.
         14    1    1    2    0    0  0.77007658206E-02 -0.54669394780E-02 -0.21161393312E-01  0.23173126427E-01  0.00000000000E+00 0.  1.
     999901    1    3    3    0    0  0.10264423579E+00 -0.27087365957E-01  0.78737013257E-01  0.88987026121E+00  0.88000000000E+00 0. -1.
        -11    1    4    4    0    0 -0.53074227702E-01  0.61709986023E-02 -0.17749337363E-01  0.56305017252E-01  0.51100000000E-03 0.  1.
         11    1    4    4    0    0 -0.57270773908E-01  0.26383306833E-01 -0.39826282582E-01  0.74581595107E-01  0.51100000000E-03 0. -1.
</event>
<event>
 8    1  0.1161271E+005  0.1043930E+01  0.7957747E-01            NaN
         13   -1    0    0    0    0  0.00000000000E+00  0.00000000000E+00  0.74505805969E-08  0.10566000000E+00  0.10566000000E+00 0.  1.
     999900   -1    0    0    0    0 -0.00000000000E+00 -0.00000000000E+00 -0.74505805969E-08  0.93827000000E+00  0.93827000000E+00 0.  1.
     999902    2    1    2    0    0 -0.16326489883E-01 -0.17754053782E-01 -0.13905103802E-02  0.10197702356E+01  0.10194840063E+01 0.  0.
     999903    2    3    3    0    0  0.32323873650E-01  0.60901996298E-01 -0.10690908096E+00  0.12865419329E+00  0.19195413504E-01 0.  0.
         14    1    1    2    0    0  0.16326489883E-01  0.17754053782E-01  0.13905103802E-02  0.24159764418E-01  0.00000000000E+00 0. -1.
     999901    1    3    3    0    0 -0.48650363533E-01 -0.78656050081E-01  0.10551857058E+00  0.89111604229E+00  0.88000000000E+00 0. -1.
        -11    1    4    4    0    0  0.23295726681E-01  0.50797771192E-01 -0.96672681698E-01  0.11166455547E+00  0.51100000000E-03 0.  1.
         11    1    4    4    0    0  0.90281469690E-02  0.10104225106E-01 -0.10236399262E-01  0.16989637829E-01  0.51100000000E-03 0. -1.
</event>
<event>
 8    1  0.1161271E+005  0.1043930E+01  0.7957747E-01            NaN
         13   -1    0    0    0    0  0.00000000000E+00  0.00000000000E+00  0.74505805969E-08  0.10566000000E+00  0.10566000000E+00 0.  1.
     999900   -1    0    0    0    0 -0.00000000000E+00 -0.00000000000E+00 -0.74505805969E-08  0.93827000000E+00  0.93827000000E+00 0.  1.
     999902    2    1    2    0    0 -0.22726058243E-01  0.68333767038E-02 -0.12842934127E-01  0.10169464918E+01  0.10165884405E+01 0.  0.
     999903    2    3    3    0    0  0.22469532849E-01 -0.12218578146E+00  0.81721210347E-02  0.12614336133E+00  0.20276068327E-01 0.  0.
         14    1    1    2    0    0  0.22726058243E-01 -0.68333767038E-02  0.12842934127E-01  0.26983508249E-01  0.00000000000E+00 0.  1.
     999901    1    3    3    0    0 -0.45195591092E-01  0.12901915817E+00 -0.21015055161E-01  0.89080313042E+00  0.88000000000E+00 0.  1.
        -11    1    4    4    0    0  0.14158447090E-01 -0.29666797658E-01  0.44492245742E-02  0.33175853080E-01  0.51100000000E-03 0.  1.
         11    1    4    4    0    0  0.83110857588E-02 -0.92518983805E-01  0.37228964605E-02  0.92967508248E-01  0.51100000000E-03 0. -1.
</event>
<event>
 8    1  0.1161271E+005  0.1043930E+01  0.7957747E-01            NaN
         13   -1    0    0    0    0  0.00000000000E+00  0.00000000000E+00  0.74505805969E-08  0.10566000000E+00  0.10566000000E+00 0.  1.
     999900   -1    0    0    0    0 -0.00000000000E+00 -0.00000000000E+00 -0.74505805969E-08  0.93827000000E+00  0.93827000000E+00 0.  1.
     999902    2    1    2    0    0 -0.59983513191E-02  0.22888613981E-01  0.10554154720E-01  0.10180213325E+01  0.10176915910E+01 0.  0.
     999903    2    3    3    0    0  0.35085426145E-01  0.10391453537E+00  0.69585427247E-01  0.13137722814E+00  0.19713614565E-01 0.  0.
         14    1    1    2    0    0  0.59983513191E-02 -0.22888613981E-01 -0.10554154720E-01  0.25908667476E-01  0.00000000000E+00 0. -1.
     999901    1    3    3    0    0 -0.41083777464E-01 -0.81025921387E-01 -0.59031272527E-01  0.88664410439E+00  0.88000000000E+00 0. -1.
        -11    1    4    4    0    0  0.15619327312E-01  0.20933800977E-01  0.14283279026E-01  0.29773488034E-01  0.51100000000E-03 0. -1.
         11    1    4    4    0    0  0.19466098834E-01  0.82980734392E-01  0.55302148222E-01  0.10160374010E+00  0.51100000000E-03 0.  1.
</event>
<event>
 8    1  0.1161271E+005  0.1043930E+01  0.7957747E-01            NaN
         13   -1    0    0    0    0  0.00000000000E+00  0.00000000000E+00  0.74505805969E-08  0.10566000000E+00  0.10566000000E+00 0.  1.
     999900   -1    0    0    0    0 -0.00000000000E+00 -0.00000000000E+00 -0.74505805969E-08  0.93827000000E+00  0.93827000000E+00 0. -1.
     999902    2    1    2    0    0 -0.19780352613E-01 -0.55938229327E-02 -0.11123143817E-01  0.10205574192E+01  0.10202897473E+01 0.  0.
     999903    2    3    3    0    0  0.81415348304E-01 -0.58649648747E-01  0.78096345954E-01  0.12869666332E+00  0.19888480607E-01 0.  0.
         14    1    1    2    0    0  0.19780352613E-01  0.55938229327E-02  0.11123143817E-01  0.23372580792E-01  0.00000000000E+00 0.  1.
     999901    1    3    3    0    0 -0.10119570092E+00  0.53055825814E-01 -0.89219489771E-01  0.89186075589E+00  0.88000000000E+00 0. -1.
        -11    1    4    4    0    0  0.22891674963E-01 -0.27590384045E-01  0.23802055244E-01  0.43035532171E-01  0.51100000000E-03 0. -1.
         11    1    4    4    0    0  0.58523673342E-01 -0.31059264702E-01  0.54294290710E-01  0.85661131150E-01  0.51100000000E-03 0.  1.
</event>
<event>
 8    1  0.1161271E+005  0.1043930E+01  0.7957747E-01            NaN
         13   -1    0    0    0    0  0.00000000000E+00  0.00000000000E+00  0.74505805969E-08  0.10566000000E+00  0.10566000000E+00 0.  1.
     999900   -1    0    0    0    0 -0.00000000000E+00 -0.00000000000E+00 -0.74505805969E-08  0.93827000000E+00  0.93827000000E+00 0.  1.
     999902    2    1    2    0    0  0.56867531670E-02 -0.22119407305E-01 -0.21188053630E-02  0.10209932025E+01  0.10207355304E+01 0.  0.
     999903    2    3    3    0    0 -0.51307371350E-01  0.55868266978E-01 -0.10356080266E+00  0.12991470635E+00  0.19982028649E-01 0.  0.
         14    1    1    2    0    0 -0.56867531670E-02  0.22119407305E-01  0.21188053630E-02  0.22936797450E-01  0.00000000000E+00 0. -1.
     999901    1    3    3    0    0  0.56994124517E-01 -0.77987674283E-01  0.10144199730E+00  0.89107849620E+00  0.88000000000E+00 0. -1.
        -11    1    4    4    0    0 -0.84374532045E-02  0.15223090159E-01 -0.37160204333E-01  0.41037482837E-01  0.51100000000E-03 0.  1.
         11    1    4    4    0    0 -0.42869918145E-01  0.40645176818E-01 -0.66400598328E-01  0.88877223515E-01  0.51100000000E-03 0. -1.
</event>
<event>
 7    1  0.1161271E+005  0.1043930E+01  0.7957747E-01            NaN
         13   -1    0    0    0    0  0.00000000000E+00  0.00000000000E+00  0.74505805969E-08  0.10566000000E+00  0.10566000000E+00 0. -1.
     999900   -1    0    0    0    0 -0.00000000000E+00 -0.00000000000E+00 -0.74505805969E-08  0.93827000000E+00  0.93827000000E+00 0.  1.
     999903    2    1    2    0    0 -0.53457765935E-01  0.40588363901E-01  0.66320613760E-01  0.98966650661E-01  0.29846710217E-01 0.  0.
         14    1    1    2    0    0 -0.18238638630E-01 -0.26280527991E-01  0.44713357599E-01  0.54978163287E-01  0.00000000000E+00 0. -1.
     999901    1    1    2    0    0  0.71696404564E-01 -0.14307835910E-01 -0.11103397136E+00  0.88998518605E+00  0.88000000000E+00 0.  1.
        -11    1    3    3    0    0 -0.35022013104E-01  0.37148463866E-01  0.33201081109E-01  0.60902567083E-01  0.51100000000E-03 0. -1.
         11    1    3    3    0    0 -0.18435752830E-01  0.34399000353E-02  0.33119532651E-01  0.38064083579E-01  0.51100000000E-03 0.  1.
</event>
<event>
 8    1  0.1161271E+005  0.1043930E+01  0.7957747E-01            NaN
         13   -1    0    0    0    0  0.00000000000E+00  0.00000000000E+00  0.74505805969E-08  0.10566000000E+00  0.10566000000E+00 0. -1.
     999900   -1    0    0    0    0 -0.00000000000E+00 -0.00000000000E+00 -0.74505805969E-08  0.93827000000E+00  0.93827000000E+00 0.  1.
     999902    2    1    2    0    0 -0.59652014326E-02 -0.11545839770E-01 -0.19978362800E-01  0.10200967244E+01  0.10198182692E+01 0.  0.
     999903    2    3    3    0    0 -0.63882107836E-01 -0.72204194072E-01 -0.89739434151E-01  0.13336090635E+00  0.20918794360E-01 0.  0.
         14    1    1    2    0    0  0.59652014326E-02  0.11545839770E-01  0.19978362800E-01  0.23833275568E-01  0.00000000000E+00 0. -1.
     999901    1    3    3    0    0  0.57916906404E-01  0.60658354302E-01  0.69761071351E-01  0.88673581808E+00  0.88000000000E+00 0.  1.
        -11    1    4    4    0    0 -0.27802682972E-01 -0.36060046092E-01 -0.55878945546E-01  0.72083519483E-01  0.51100000000E-03 0.  1.
         11    1    4    4    0    0 -0.36079424865E-01 -0.36144147979E-01 -0.33860488605E-01  0.61277386867E-01  0.51100000000E-03 0. -1.
</event>
<event>
 8    1  0.1161271E+005  0.1043930E+01  0.7957747E-01            NaN
         13   -1    0    0    0    0  0.00000000000E+00  0.00000000000E+00  0.74505805969E-08  0.10566000000E+00  0.10566000000E+00 0. -1.
     999900   -1    0    0    0    0 -0.00000000000E+00 -0.00000000000E+00 -0.74505805969E-08  0.93827000000E+00  0.93827000000E+00 0.  1.
     999902    2    1    2    0    0 -0.83981892442E-02  0.22263213207E-01  0.23608967828E-03  0.10201342865E+01  0.10198567186E+01 0.  0.
     999903    2    3    3    0    0  0.42569576783E-01  0.70382637776E-01 -0.99825176261E-01  0.13169439027E+00  0.24747970508E-01 0.  0.
         14    1    1    2    0    0  0.83981892442E-02 -0.22263213207E-01 -0.23608967828E-03  0.23795713547E-01  0.00000000000E+00 0. -1.
     999901    1    3    3    0    0 -0.50967766027E-01 -0.48119424569E-01  0.10006126594E+00  0.88843989619E+00  0.88000000000E+00 0. -1.
        -11    1    4    4    0    0  0.10071769878E-01  0.25608034468E-01 -0.50777032190E-01  0.57756212625E-01  0.51100000000E-03 0. -1.
         11    1    4    4    0    0  0.32497806906E-01  0.44774603308E-01 -0.49048144071E-01  0.73938177641E-01  0.51100000000E-03 0.  1.
</event>
<event>
 8    1  0.1161271E+005  0.1043930E+01  0.7957747E-01            NaN
         13   -1    0    0    0    0  0.00000000000E+00  0.00000000000E+00  0.74505805969E-08  0.10566000000E+00  0.10566000000E+00 0.  1.
     999900   -1    0    0    0    0 -0.00000000000E+00 -0.00000000000E+00 -0.74505805969E-08  0.93827000000E+00  0.93827000000E+00 0.  1.
     999902    2    1    2    0    0  0.40253024993E-02  0.21197230271E-01  0.91323080867E-02  0.10205008583E+01  0.10202318742E+01 0.  0.
     999903    2    3    3    0    0 -0.57251251078E-01  0.11460587855E+00  0.30331187765E-01  0.13318502718E+00  0.20150865173E-01 0.  0.
         14    1    1    2    0    0 -0.40253024993E-02 -0.21197230271E-01 -0.91323080867E-02  0.23429141734E-01  0.00000000000E+00 0. -1.
     999901    1    3    3    0    0  0.61276553578E-01 -0.93408648275E-01 -0.21198879678E-01  0.88731583108E+00  0.88000000000E+00 0.  1.
        -11    1    4    4    0    0 -0.24904206477E-01  0.53483827818E-01  0.38254452219E-02  0.59123891030E-01  0.51100000000E-03 0. -1.
         11    1    4    4    0    0 -0.32347044601E-01  0.61122050728E-01  0.26505742543E-01  0.74061136154E-01  0.51100000000E-03 0.  1.
</event>
<event>
 8    1  0.1161271E+005  0.1043930E+01  0.7957747E-01            NaN
         13   -1    0    0    0    0  0.00000000000E+00  0.00000000000E+00  0.74505805969E-08  0.10566000000E+00  0.10566000000E+00 0. -1.
     999900   -1    0    0    0    0 -0.00000000000E+00 -0.00000000000E+00 -0.74505805969E-08  0.93827000000E+00  0.93827000000E+00 0.  1.
     999902    2    1    2    0    0  0.12958500363E-01  0.35018537301E-02  0.10728916708E-01  0.10267458397E+01  0.10266020280E+01 0.  0.
     999903    2    3    3    0    0  0.91802248017E-01  0.99157015898E-01  0.76925794317E-02  0.13805271723E+00  0.27195779336E-01 0.  0.
         14    1    1    2    0    0 -0.12958500363E-01 -0.35018537301E-02 -0.10728916708E-01  0.17184160292E-01  0.00000000000E+00 0. -1.
     999901    1    3    3    0    0 -0.78843747654E-01 -0.95655162168E-01  0.30363372764E-02  0.88869312248E+00  0.88000000000E+00 0. -1.
        -11    1    4    4    0    0  0.57394773846E-01  0.50885553889E-01  0.15510556060E-01  0.78258150564E-01  0.51100000000E-03 0. -1.
         11    1    4    4    0    0  0.34407474171E-01  0.48271462009E-01 -0.78179766279E-02  0.59794566667E-01  0.51100000000E-03 0.  1.
</event>
<event>
 8    1  0.1161271E+005  0.1043930E+01  0.7957747E-01            NaN
         13   -1    0    0    0    0  0.00000000000E+00  0.00000000000E+00  0.74505805969E-08  0.10566000000E+00  0.10566000000E+00 0.  1.
     999900   -1    0    0    0    0 -0.00000000000E+00 -0.00000000000E+00 -0.74505805969E-08  0.93827000000E+00  0.93827000000E+00 0. -1.
     999902    2    1    2    0    0 -0.16797137691E-01 -0.19066535106E-01  0.10918385088E-01  0.10162733963E+01  0.10158970067E+01 0.  0.
     999903    2    3    3    0    0  0.90626996122E-01  0.55501626611E-01 -0.60307009379E-01  0.12376378173E+00  0.19668637625E-01 0.  0.
         14    1    1    2    0    0  0.16797137691E-01  0.19066535106E-01 -0.10918385088E-01  0.27656603705E-01  0.00000000000E+00 0. -1.
     999901    1    3    3    0    0 -0.10742413381E+00 -0.74568161718E-01  0.71225394467E-01  0.89250961456E+00  0.88000000000E+00 0.  1.
        -11    1    4    4    0    0  0.65813544035E-01  0.49788589327E-01 -0.44007845982E-01  0.93526882952E-01  0.51100000000E-03 0.  1.
         11    1    4    4    0    0  0.24813452087E-01  0.57130372841E-02 -0.16299163396E-01  0.30236898781E-01  0.51100000000E-03 0. -1.
</event>
<event>
 8    1  0.1161271E+005  0.1043930E+01  0.7957747E-01            NaN
         13   -1    0    0    0    0  0.00000000000E+00  0.00000000000E+00  0.74505805969E-08  0.10566000000E+00  0.10566000000E+00 0. -1.
     999900   -1    0    0    0    0 -0.00000000000E+00 -0.00000000000E+00 -0.74505805969E-08  0.93827000000E+00  0.93827000000E+00 0. -1.
     999902    2    1    2    0    0 -0.19884723031E-01 -0.71700122129E-02 -0.98489840345E-02  0.10206101850E+01  0.10203437342E+01 0.  0.
     999903    2    3    3    0    0 -0.62327492718E-01 -0.10772773281E+00  0.40430948466E-01  0.13244279341E+00  0.20407135198E-01 0.  0.
         14    1    1    2    0    0  0.19884723031E-01  0.71700122129E-02  0.98489840345E-02  0.23319815000E-01  0.00000000000E+00 0.  1.
     999901    1    3    3    0    0  0.42442769687E-01  0.10055772060E+00 -0.50279932501E-01  0.88816739159E+00  0.88000000000E+00 0. -1.
        -11    1    4    4    0    0 -0.57916058875E-01 -0.90773178335E-01  0.28984791006E-01  0.11150972608E+00  0.51100000000E-03 0.  1.
         11    1    4    4    0    0 -0.44114338426E-02 -0.16954554477E-01  0.11446157460E-01  0.20933067326E-01  0.51100000000E-03 0. -1.
</event>
<event>
 8    1  0.1161271E+005  0.1043930E+01  0.7957747E-01            NaN
         13   -1    0    0    0    0  0.00000000000E+00  0.00000000000E+00  0.74505805969E-08  0.10566000000E+00  0.10566000000E+00 0. -1.
     999900   -1    0    0    0    0 -0.00000000000E+00 -0.00000000000E+00 -0.74505805969E-08  0.93827000000E+00  0.93827000000E+00 0. -1.
     999902    2    1    2    0    0 -0.20634490917E-01 -0.29327092208E-02  0.13650380422E-01  0.10190158296E+01  0.10187112178E+01 0.  0.
     999903    2    3    3    0    0 -0.95604673679E-01 -0.88848066361E-01  0.64486613107E-03  0.13156379134E+00  0.16564504626E-01 0.  0.
         14    1    1    2    0    0  0.20634490917E-01  0.29327092208E-02 -0.13650380422E-01  0.24914170354E-01  0.00000000000E+00 0.  1.
     999901    1    3    3    0    0  0.74970182762E-01  0.85915357140E-01  0.13005514291E-01  0.88745203831E+00  0.88000000000E+00 0.  1.
        -11    1    4    4    0    0 -0.68536927830E-01 -0.66037128405E-01 -0.66885881175E-02  0.95410749585E-01  0.51100000000E-03 0. -1.
         11    1    4    4    0    0 -0.27067745848E-01 -0.22810937956E-01  0.73334542485E-02  0.36153041753E-01  0.51100000000E-03 0.  1.
</event>
<event>
 8    1  0.1161271E+005  0.1043930E+01  0.7957747E-01            NaN
         13   -1    0    0    0    0  0.00000000000E+00  0.00000000000E+00  0.74505805969E-08  0.10566000000E+00  0.10566000000E+00 0.  1.
     999900   -1    0    0    0    0 -0.00000000000E+00 -0.00000000000E+00 -0.74505805969E-08  0.93827000000E+00  0.93827000000E+00 0.  1.
     999902    2    1    2    0    0  0.22234220777E-01 -0.68950816678E-02 -0.44884166381E-02  0.10202224356E+01  0.10199469445E+01 0.  0.
     999903    2    3    3    0    0 -0.10803141877E+00 -0.11571984959E-01  0.64467481998E-01  0.12795233850E+00  0.20274279612E-01 0.  0.
         14    1    1    2    0    0 -0.22234220777E-01  0.68950816678E-02  0.44884166381E-02  0.23707564377E-01  0.00000000000E+00 0.  1.
     999901    1    3    3    0    0  0.13026563955E+00  0.46769032908E-02 -0.68955898636E-01  0.89227009713E+00  0.88000000000E+00 0. -1.
        -11    1    4    4    0    0 -0.64471592969E-01 -0.14896936731E-01  0.45602403483E-01  0.80363831096E-01  0.51100000000E-03 0.  1.
         11    1    4    4    0    0 -0.43559825802E-01  0.33249517723E-02  0.18865078515E-01  0.47588507400E-01  0.51100000000E-03 0. -1.
</event>
<event>
 8    1  0.1161271E+005  0.1043930E+01  0.7957747E-01            NaN
         13   -1    0    0    0    0  0.00000000000E+00  0.00000000000E+00  0.74505805969E-08  0.10566000000E+00  0.10566000000E+00 0.  1.
     999900   -1    0    0    0    0 -0.00000000000E+00 -0.00000000000E+00 -0.74505805969E-08  0.93827000000E+00  0.93827000000E+00 0. -1.
     999902    2    1    2    0    0  0.15433023053E-01  0.13573460179E-01 -0.78416882707E-02  0.10219320661E+01  0.10216952768E+01 0.  0.
     999903    2    3    3    0    0 -0.91172528772E-01 -0.29563329811E-02 -0.92446741387E-01  0.13131655265E+00  0.19402760131E-01 0.  0.
         14    1    1    2    0    0 -0.15433023053E-01 -0.13573460179E-01  0.78416882707E-02  0.21997933920E-01  0.00000000000E+00 0.  1.
     999901    1    3    3    0    0  0.10660555183E+00  0.16529793160E-01  0.84605053116E-01  0.89061551343E+00  0.88000000000E+00 0.  1.
        -11    1    4    4    0    0 -0.29246845057E-01 -0.14045564176E-02 -0.43145333499E-01  0.52145293635E-01  0.51100000000E-03 0. -1.
         11    1    4    4    0    0 -0.61925683715E-01 -0.15517765635E-02 -0.49301407887E-01  0.79171259019E-01  0.51100000000E-03 0.  1.
</event>
<event>
 8    1  0.1161271E+005  0.1043930E+01  0.7957747E-01            NaN
         13   -1    0    0    0    0  0.00000000000E+00  0.00000000000E+00  0.74505805969E-08  0.10566000000E+00  0.10566000000E+00 0.  1.
     999900   -1    0    0    0    0 -0.00000000000E+00 -0.00000000000E+00 -0.74505805969E-08  0.93827000000E+00  0.93827000000E+00 0. -1.
     999902    2    1    2    0    0 -0.23234012697E-02 -0.24052014686E-01  0.26204922243E-02  0.10196243508E+01  0.10193346125E+01 0.  0.
     999903    2    3    3    0    0  0.10168789987E+00 -0.80624779478E-01 -0.14782825823E-01  0.13152429789E+00  0.15470130967E-01 0.  0.
         14    1    1    2    0    0  0.23234012697E-02  0.24052014686E-01 -0.26204922243E-02  0.24305649208E-01  0.00000000000E+00 0. -1.
     999901    1    3    3    0    0 -0.10401130114E+00  0.56572764791E-01  0.17403318047E-01  0.88810005290E+00  0.88000000000E+00 0. -1.
        -11    1    4    4    0    0  0.62492929383E-01 -0.58306638248E-01 -0.70686165149E-02  0.85762793489E-01  0.51100000000E-03 0.  1.
         11    1    4    4    0    0  0.39194970483E-01 -0.22318141230E-01 -0.77142093077E-02  0.45761504404E-01  0.51100000000E-03 0. -1.
</event>
<event>
 8    1  0.1161271E+005  0.1043930E+01  0.7957747E-01            NaN
         13   -1    0    0    0    0  0.00000000000E+00  0.00000000000E+00  0.74505805969E-08  0.10566000000E+00  0.10566000000E+00 0. -1.
     999900   -1    0    0    0    0 -0.00000000000E+00 -0.00000000000E+00 -0.74505805969E-08  0.93827000000E+00  0.93827000000E+00 0. -1.
     999902    2    1    2    0    0  0.24848181622E-01 -0.73888359615E-02  0.53363110860E-02  0.10174629782E+01  0.10171186798E+01 0.  0.
     999903    2    3    3    0    0 -0.53185387395E-01  0.96177420808E-01 -0.57593000953E-01  0.12573695203E+00  0.20348111516E-01 0.  0.
         14    1    1    2    0    0 -0.24848181622E-01  0.73888359615E-02 -0.53363110860E-02  0.26467021797E-01  0.00000000000E+00 0.  1.
     999901    1    3    3    0    0  0.78033569017E-01 -0.10356625677E+00  0.62929312039E-01  0.89172602617E+00  0.88000000000E+00 0.  1.
        -11    1    4    4    0    0 -0.49141561470E-01  0.71645409798E-01 -0.45819713493E-01  0.98222528344E-01  0.51100000000E-03 0. -1.
         11    1    4    4    0    0 -0.40438259246E-02  0.24532011011E-01 -0.11773287460E-01  0.27514423689E-01  0.51100000000E-03 0.  1.
</event>
<event>
 8    1  0.1161271E+005  0.1043930E+01  0.7957747E-01            NaN
         13   -1    0    0    0    0  0.00000000000E+00  0.00000000000E+00  0.74505805969E-08  0.10566000000E+00  0.10566000000E+00 0.  1.
     999900   -1    0    0    0    0 -0.00000000000E+00 -0.00000000000E+00 -0.74505805969E-08  0.93827000000E+00  0.93827000000E+00 0. -1.
     999902    2    1    2    0    0  0.20084645202E-01 -0.11498403494E-01  0.47829493708E-02  0.10202977580E+01  0.10200240351E+01 0.  0.
     999903    2    3    3    0    0 -0.93720785492E-01  0.81751728163E-01 -0.21300524737E-01  0.12770176278E+00  0.19674785214E-01 0.  0.
         14    1    1    2    0    0 -0.20084645202E-01  0.11498403494E-01 -0.47829493708E-02  0.23632241969E-01  0.00000000000E+00 0. -1.
     999901    1    3    3    0    0  0.11380543069E+00 -0.93250131657E-01  0.26083474107E-01  0.89259599525E+00  0.88000000000E+00 0.  1.
        -11    1    4    4    0    0 -0.40354540113E-01  0.46047591773E-01 -0.15921137705E-01  0.63266210276E-01  0.51100000000E-03 0. -1.
         11    1    4    4    0    0 -0.53366245379E-01  0.35704136390E-01 -0.53793870313E-02  0.64435552508E-01  0.51100000000E-03 0.  1.
</event>
<event>
 8    1  0.1161271E+005  0.1043930E+01  0.7957747E-01            NaN
         13   -1    0    0    0    0  0.00000000000E+00  0.00000000000E+00  0.74505805969E-08  0.10566000000E+00  0.10566000000E+00 0. -1.
     999900   -1    0    0    0    0 -0.00000000000E+00 -0.00000000000E+00 -0.74505805969E-08  0.93827000000E+00  0.93827000000E+00 0. -1.
     999902    2    1    2    0    0  0.19799243085E-01 -0.60094967482E-02  0.99321194739E-02  0.10209785060E+01  0.10207204998E+01 0.  0.
     999903    2    3    3    0    0  0.12372000229E+00 -0.42484209745E-01 -0.17724132994E-01  0.13368216479E+00  0.21100456173E-01 0.  0.
         14    1    1    2    0    0 -0.19799243085E-01  0.60094967482E-02 -0.99321194739E-02  0.22951493963E-01  0.00000000000E+00 0.  1.
     999901    1    3    3    0    0 -0.10392075920E+00  0.36474712997E-01  0.27656252468E-01  0.88729634124E+00  0.88000000000E+00 0.  1.
        -11    1    4    4    0    0  0.52499323092E-01 -0.24449805891E-01  0.76631870144E-03  0.57920810583E-01  0.51100000000E-03 0.  1.
         11    1    4    4    0    0  0.71220679193E-01 -0.18034403853E-01 -0.18490451695E-01  0.75761354211E-01  0.51100000000E-03 0. -1.
</event>
<event>
 8    1  0.1161271E+005  0.1043930E+01  0.7957747E-01            NaN
         13   -1    0    0    0    0  0.00000000000E+00  0.00000000000E+00  0.74505805969E-08  0.10566000000E+00  0.10566000000E+00 0. -1.
     999900   -1    0    0    0    0 -0.00000000000E+00 -0.00000000000E+00 -0.74505805969E-08  0.93827000000E+00  0.93827000000E+00 0.  1.
     999902    2    1    2    0    0  0.21324049946E-01 -0.10060491491E-01  0.46636663587E-02  0.10198950592E+01  0.10196118151E+01 0.  0.
     999903    2    3    3    0    0 -0.95874889919E-02 -0.39702750227E-01  0.12271363452E+00  0.13098000042E+00  0.20709806694E-01 0.  0.
         14    1    1    2    0    0 -0.21324049946E-01  0.10060491491E-01 -0.46636663587E-02  0.24034940796E-01  0.00000000000E+00 0.  1.
     999901    1    3    3    0    0  0.30911538938E-01  0.29642258736E-01 -0.11804996816E+00  0.88891505878E+00  0.88000000000E+00 0.  1.
        -11    1    4    4    0    0  0.65657354237E-02 -0.10267309081E-01  0.31174528904E-01  0.33475944958E-01  0.51100000000E-03 0.  1.
         11    1    4    4    0    0 -0.16153224416E-01 -0.29435441146E-01  0.91539105615E-01  0.97504055466E-01  0.51100000000E-03 0. -1.
</event>
<event>
 8    1  0.1161271E+005  0.1043930E+01  0.7957747E-01            NaN
         13   -1    0    0    0    0  0.00000000000E+00  0.00000000000E+00  0.74505805969E-08  0.10566000000E+00  0.10566000000E+00 0.  1.
     999900   -1    0    0    0    0 -0.00000000000E+00 -0.00000000000E+00 -0.74505805969E-08  0.93827000000E+00  0.93827000000E+00 0.  1.
     999902    2    1    2    0    0 -0.36344077894E-02  0.41699996226E-02  0.93835212256E-02  0.10330374205E+01  0.10329799920E+01 0.  0.
     999903    2    3    3    0    0 -0.27466115960E-01  0.59876361121E-01 -0.12339063981E+00  0.14101717028E+00  0.17917203265E-01 0.  0.
         14    1    1    2    0    0  0.36344077894E-02 -0.41699996226E-02 -0.93835212256E-02  0.10892579466E-01  0.00000000000E+00 0. -1.
     999901    1    3    3    0    0  0.23831708171E-01 -0.55706361498E-01  0.13277416104E+00  0.89202025026E+00  0.88000000000E+00 0. -1.
        -11    1    4    4    0    0 -0.14576710296E-01  0.45362085666E-01 -0.74770234796E-01  0.88662553716E-01  0.51100000000E-03 0. -1.
         11    1    4    4    0    0 -0.12889405665E-01  0.14514275455E-01 -0.48620405018E-01  0.52354616563E-01  0.51100000000E-03 0.  1.
</event>
<event>
 8    1  0.1161271E+005  0.1043930E+01  0.7957747E-01            NaN
         13   -1    0    0    0    0  0.00000000000E+00  0.00000000000E+00  0.74505805969E-08  0.10566000000E+00  0.10566000000E+00 0.  1.
     999900   -1    0    0    0    0 -0.00000000000E+00 -0.00000000000E+00 -0.74505805969E-08  0.93827000000E+00  0.93827000000E+00 0. -1.
     999902    2    1    2    0    0  0.41188126130E-02  0.19793525898E-01  0.11096174185E-01  0.10208676201E+01  0.10206070862E+01 0.  0.
     999903    2    3    3    0    0  0.70938440987E-01  0.11135221580E+00  0.47653678919E-02  0.13357514547E+00  0.19698537606E-01 0.  0.
         14    1    1    2    0    0 -0.41188126130E-02 -0.19793525898E-01 -0.11096174185E-01  0.23062379893E-01  0.00000000000E+00 0. -1.
     999901    1    3    3    0    0 -0.66819628374E-01 -0.91558689903E-01  0.63308062926E-02  0.88729247463E+00  0.88000000000E+00 0. -1.
        -11    1    4    4    0    0  0.66720477536E-01  0.10641463644E+00  0.88043641490E-02  0.12591058303E+00  0.51100000000E-03 0.  1.
         11    1    4    4    0    0  0.42179634509E-02  0.49375793646E-02 -0.40389962570E-02  0.76645624415E-02  0.51100000000E-03 0. -1.
</event>
<event>
 8    1  0.1161271E+005  0.1043930E+01  0.7957747E-01            NaN
         13   -1    0    0    0    0  0.00000000000E+00  0.00000000000E+00  0.74505805969E-08  0.10566000000E+00  0.10566000000E+00 0.  1.
     999900   -1    0    0    0    0 -0.00000000000E+00 -0.00000000000E+00 -0.74505805969E-08  0.93827000000E+00  0.93827000000E+00 0. -1.
     999902    2    1    2    0    0 -0.27612231644E-02  0.17538238781E-01  0.17568389632E-01  0.10189527606E+01  0.10186465854E+01 0.  0.
     999903    2    3    3    0    0 -0.38505740353E-01 -0.81464454002E-01  0.91075801656E-01  0.12963698807E+00  0.19793880907E-01 0.  0.
         14    1    1    2    0    0  0.27612231644E-02 -0.17538238781E-01 -0.17568389632E-01  0.24977239383E-01  0.00000000000E+00 0.  1.
     999901    1    3    3    0    0  0.35744517189E-01  0.99002692783E-01 -0.73507412024E-01  0.88931577255E+00  0.88000000000E+00 0.  1.
        -11    1    4    4    0    0 -0.24699834855E-01 -0.55454630205E-01  0.47694665524E-01  0.77203238879E-01  0.51100000000E-03 0. -1.
         11    1    4    4    0    0 -0.13805905499E-01 -0.26009823798E-01  0.43381136132E-01  0.52433749187E-01  0.51100000000E-03 0.  1.
</event>
<event>
 8    1  0.1161271E+005  0.1043930E+01  0.7957747E-01            NaN
         13   -1    0    0    0    0  0.00000000000E+00  0.00000000000E+00  0.74505805969E-08  0.10566000000E+00  0.10566000000E+00 0. -1.
     999900   -1    0    0    0    0 -0.00000000000E+00 -0.00000000000E+00 -0.74505805969E-08  0.93827000000E+00  0.93827000000E+00 0.  1.
     999902    2    1    2    0    0  0.92554859073E-02  0.12534403795E-01 -0.16822768126E-01  0.10210000889E+01  0.10207425731E+01 0.  0.
     999903    2    3    3    0    0 -0.36252754686E-01 -0.58348605320E-01  0.10679057409E+00  0.12837717893E+00  0.18911673357E-01 0.  0.
         14    1    1    2    0    0 -0.92554859073E-02 -0.12534403795E-01  0.16822768126E-01  0.22929911149E-01  0.00000000000E+00 0. -1.
     999901    1    3    3    0    0  0.45508240593E-01  0.70883009116E-01 -0.12361334222E+00  0.89262290992E+00  0.88000000000E+00 0.  1.
        -11    1    4    4    0    0 -0.15109076684E-01 -0.27903509054E-01  0.32915941922E-01  0.45723192905E-01  0.51100000000E-03 0. -1.
         11    1    4    4    0    0 -0.21143678002E-01 -0.30445096266E-01  0.73874632172E-01  0.82653986024E-01  0.51100000000E-03 0.  1.
</event>
<event>
 8    1  0.1161271E+005  0.1043930E+01  0.7957747E-01            NaN
         13   -1    0    0    0    0  0.00000000000E+00  0.00000000000E+00  0.74505805969E-08  0.10566000000E+00  0.10566000000E+00 0.  1.
     999900   -1    0    0    0    0 -0.00000000000E+00 -0.00000000000E+00 -0.74505805969E-08  0.93827000000E+00  0.93827000000E+00 0. -1.
     999902    2    1    2    0    0  0.66667257422E-02 -0.47983777993E-03 -0.23646676464E-01  0.10193568280E+01  0.10190605978E+01 0.  0.
     999903    2    3    3    0    0 -0.30237139057E-01  0.66502946425E-01  0.10181519152E+00  0.12717452095E+00  0.21681768684E-01 0.  0.
         14    1    1    2    0    0 -0.66667257422E-02  0.47983777993E-03  0.23646676464E-01  0.24573172042E-01  0.00000000000E+00 0.  1.
     999901    1    3    3    0    0  0.36903864800E-01 -0.66982784205E-01 -0.12546186798E+00  0.89218230701E+00  0.88000000000E+00 0. -1.
        -11    1    4    4    0    0 -0.19013637177E-01  0.44060886974E-01  0.82741018423E-01  0.95651541599E-01  0.51100000000E-03 0. -1.
         11    1    4    4    0    0 -0.11223501881E-01  0.22442059451E-01  0.19074173097E-01  0.31522979352E-01  0.51100000000E-03 0.  1.
</event>
<event>
 8    1  0.1161271E+005  0.1043930E+01  0.7957747E-01            NaN
         13   -1    0    0    0    0  0.00000000000E+00  0.00000000000E+00  0.74505805969E-08  0.10566000000E+00  0.10566000000E+00 0. -1.
     999900   -1    0    0    0    0 -0.00000000000E+00 -0.00000000000E+00 -0.74505805969E-08  0.93827000000E+00  0.93827000000E+00 0.  1.
     999902    2    1    2    0    0  0.14188601071E-01  0.15608783430E-02 -0.18111800279E-01  0.10208694265E+01  0.10206089339E+01 0.  0.
     999903    2    3    3    0    0  0.54626057704E-02 -0.12850328860E+00 -0.17318924638E-01  0.13126644809E+00  0.19697715605E-01 0.  0.
         14    1    1    2    0    0 -0.14188601071E-01 -0.15608783430E-02  0.18111800279E-01  0.23060573516E-01  0.00000000000E+00 0. -1.
     999901    1    3    3    0    0  0.87259953004E-02  0.13006416694E+00 -0.79287564062E-03  0.88960297839E+00  0.88000000000E+00 0.  1.
        -11    1    4    4    0    0  0.30864761398E-02 -0.67728850344E-01 -0.19024328968E-01  0.70419526536E-01  0.51100000000E-03 0. -1.
         11    1    4    4    0    0  0.23761296306E-02 -0.60774438257E-01  0.17054043295E-02  0.60846921553E-01  0.51100000000E-03 0.  1.
</event>
<event>
 8    1  0.1161271E+005  0.1043930E+01  0.7957747E-01            NaN
         13   -1    0    0    0    0  0.00000000000E+00  0.00000000000E+00  0.74505805969E-08  0.10566000000E+00  0.10566000000E+00 0. -1.
     999900   -1    0    0    0    0 -0.00000000000E+00 -0.00000000000E+00 -0.74505805969E-08  0.93827000000E+00  0.93827000000E+00 0.  1.
     999902    2    1    2    0    0  0.19545694858E-01 -0.12892743782E-01 -0.29876455429E-02  0.10203252747E+01  0.10200521963E+01 0.  0.
     999903    2    3    3    0    0 -0.69653733511E-01 -0.72713352358E-01 -0.80353245164E-01  0.13042613480E+00  0.20382797313E-01 0.  0.
         14    1    1    2    0    0 -0.19545694858E-01  0.12892743782E-01  0.29876455429E-02  0.23604725281E-01  0.00000000000E+00 0.  1.
     999901    1    3    3    0    0  0.89199428369E-01  0.59820608576E-01  0.77365599621E-01  0.88989913992E+00  0.88000000000E+00 0. -1.
        -11    1    4    4    0    0 -0.81048174454E-02 -0.20369729119E-01 -0.16532194816E-01  0.27462492907E-01  0.51100000000E-03 0.  1.
         11    1    4    4    0    0 -0.61548916065E-01 -0.52343623239E-01 -0.63821050347E-01  0.10296364189E+00  0.51100000000E-03 0. -1.
</event>
<event>
 8    1  0.1161271E+005  0.1043930E+01  0.7957747E-01            NaN
         13   -1    0    0    0    0  0.00000000000E+00  0.00000000000E+00  0.74505805969E-08  0.10566000000E+00  0.10566000000E+00 0.  1.
     999900   -1    0    0    0    0 -0.00000000000E+00 -0.00000000000E+00 -0.74505805969E-08  0.93827000000E+00  0.93827000000E+00 0. -1.
     999902    2    1    2    0    0 -0.52725590203E-02  0.16743126989E-01 -0.10544121001E-01  0.10234529234E+01  0.10232480519E+01 0.  0.
     999903    2    3    3    0    0  0.93780292688E-02  0.12293274121E+00  0.50695930238E-01  0.13483533532E+00  0.20250531205E-01 0.  0.
         14    1    1    2    0    0  0.52725590203E-02 -0.16743126989E-01  0.10544121001E-01  0.20477076639E-01  0.00000000000E+00 0.  1.
     999901    1    3    3    0    0 -0.14650588289E-01 -0.10618961422E+00 -0.61240051239E-01  0.88861758804E+00  0.88000000000E+00 0. -1.
        -11    1    4    4    0    0  0.12289556068E-02  0.11079053881E-01  0.11520699417E-01  0.16038809271E-01  0.51100000000E-03 0.  1.
         11    1    4    4    0    0  0.81490736620E-02  0.11185368733E+00  0.39175230821E-01  0.11879652605E+00  0.51100000000E-03 0. -1.
</event>
<event>
 8    1  0.1161271E+005  0.1043930E+01  0.7957747E-01            NaN
         13   -1    0    0    0    0  0.00000000000E+00  0.00000000000E+00  0.74505805969E-08  0.10566000000E+00  0.10566000000E+00 0. -1.
     999900   -1    0    0    0    0 -0.00000000000E+00 -0.00000000000E+00 -0.74505805969E-08  0.93827000000E+00  0.93827000000E+00 0.  1.
     999902    2    1    2    0    0 -0.10233240593E-01 -0.20929721641E-01  0.16302752046E-02  0.10205755516E+01  0.10203082997E+01 0.  0.
     999903    2    3    3    0    0 -0.77462455106E-01 -0.31600166506E-01 -0.10015132561E+00  0.13209757220E+00  0.20505562350E-01 0.  0.
         14    1    1    2    0    0  0.10233240593E-01  0.20929721641E-01 -0.16302752046E-02  0.23354448361E-01  0.00000000000E+00 0. -1.
     999901    1    3    3    0    0  0.67229214513E-01  0.10670444865E-01  0.10178160081E+00  0.88847797944E+00  0.88000000000E+00 0. -1.
        -11    1    4    4    0    0 -0.55318268594E-01 -0.15387889708E-01 -0.56665341932E-01  0.80672920408E-01  0.51100000000E-03 0.  1.
         11    1    4    4    0    0 -0.22144186513E-01 -0.16212276798E-01 -0.43485983673E-01  0.51424651796E-01  0.51100000000E-03 0. -1.
</event>
<event>
 8    1  0.1161271E+005  0.1043930E+01  0.7957747E-01            NaN
         13   -1    0    0    0    0  0.00000000000E+00  0.00000000000E+00  0.74505805969E-08  0.10566000000E+00  0.10566000000E+00 0. -1.
     999900   -1    0    0    0    0 -0.00000000000E+00 -0.00000000000E+00 -0.74505805969E-08  0.93827000000E+00  0.93827000000E+00 0. -1.
     999902    2    1    2    0    0 -0.77765528310E-02  0.19560955280E-01  0.11461297117E-01  0.10199619572E+01  0.10196803063E+01 0.  0.
     999903    2    3    3    0    0 -0.52593599668E-01  0.10504390433E+00 -0.56882664014E-01  0.13205047550E+00  0.20034521456E-01 0.  0.
         14    1    1    2    0    0  0.77765528310E-02 -0.19560955280E-01 -0.11461297117E-01  0.23968042828E-01  0.00000000000E+00 0.  1.
     999901    1    3    3    0    0  0.44817046837E-01 -0.85482949054E-01  0.68343961131E-01  0.88791148167E+00  0.88000000000E+00 0.  1.
        -11    1    4    4    0    0 -0.20387087218E-01  0.62834190426E-01 -0.32544254846E-01  0.73642097038E-01  0.51100000000E-03 0. -1.
         11    1    4    4    0    0 -0.32206512450E-01  0.42209713908E-01 -0.24338409168E-01  0.58408378459E-01  0.51100000000E-03 0.  1.
</event>
<event>
 8    1  0.1161271E+005  0.1043930E+01  0.7957747E-01            NaN
         13   -1    0    0    0    0  0.00000000000E+00  0.00000000000E+00  0.74505805969E-08  0.10566000000E+00  0.10566000000E+00 0.  1.
     999900   -1    0    0    0    0 -0.00000000000E+00 -0.00000000000E+00 -0.74505805969E-08  0.93827000000E+00  0.93827000000E+00 0.  1.
     999902    2    1    2    0    0  0.16455542256E-01 -0.14984375205E-01  0.90587258951E-02  0.10199013320E+01  0.10196182374E+01 0.  0.
     999903    2    3    3    0    0  0.32465293528E-01 -0.11371038534E+00  0.57484739977E-01  0.13291304794E+00  0.19425137403E-01 0.  0.
         14    1    1    2    0    0 -0.16455542256E-01  0.14984375205E-01 -0.90587258951E-02  0.24028668004E-01  0.00000000000E+00 0. -1.
     999901    1    3    3    0    0 -0.16009751272E-01  0.98726010139E-01 -0.48426014082E-01  0.88698828406E+00  0.88000000000E+00 0.  1.
        -11    1    4    4    0    0  0.30208842711E-01 -0.79689886073E-01  0.35386432418E-01  0.92279536413E-01  0.51100000000E-03 0.  1.
         11    1    4    4    0    0  0.22564508170E-02 -0.34020499271E-01  0.22098307559E-01  0.40633511526E-01  0.51100000000E-03 0. -1.
</event>
<event>
 8    1  0.1161271E+005  0.1043930E+01  0.7957747E-01            NaN
         13   -1    0    0    0    0  0.00000000000E+00  0.00000000000E+00  0.74505805969E-08  0.10566000000E+00  0.10566000000E+00 0.  1.
     999900   -1    0    0    0    0 -0.00000000000E+00 -0.00000000000E+00 -0.74505805969E-08  0.93827000000E+00  0.93827000000E+00 0.  1.
     999902    2    1    2    0    0 -0.21704260370E-01  0.34279213590E-02  0.94680163782E-02  0.10200036777E+01  0.10197230181E+01 0.  0.
     999903    2    3    3    0    0  0.57153567247E-02 -0.10705158033E+00 -0.69370037172E-01  0.12917653716E+00  0.19536364593E-01 0.  0.
         14    1    1    2    0    0  0.21704260370E-01 -0.34279213590E-02 -0.94680163782E-02  0.23926322267E-01  0.00000000000E+00 0. -1.
     999901    1    3    3    0    0 -0.27419617095E-01  0.11047950169E+00  0.78838053550E-01  0.89082714057E+00  0.88000000000E+00 0. -1.
        -11    1    4    4    0    0  0.12857167689E-01 -0.67553091645E-01 -0.45855114442E-01  0.82653975061E-01  0.51100000000E-03 0.  1.
         11    1    4    4    0    0 -0.71418109638E-02 -0.39498488685E-01 -0.23514922729E-01  0.46522562099E-01  0.51100000000E-03 0. -1.
</event>
<event>
 8    1  0.1161271E+005  0.1043930E+01  0.7957747E-01            NaN
         13   -1    0    0    0    0  0.00000000000E+00  0.00000000000E+00  0.74505805969E-08  0.10566000000E+00  0.10566000000E+00 0. -1.
     999900   -1    0    0    0    0 -0.00000000000E+00 -0.00000000000E+00 -0.74505805969E-08  0.93827000000E+00  0.93827000000E+00 0. -1.
     999902    2    1    2    0    0 -0.14387122742E-01  0.10859835496E-01 -0.15061477575E-01  0.10204401419E+01  0.10201697455E+01 0.  0.
     999903    2    3    3    0    0  0.75525332420E-03  0.62118835354E-01  0.11245365215E+00  0.12964449476E+00  0.17393993947E-01 0.  0.
         14    1    1    2    0    0  0.14387122742E-01 -0.10859835496E-01  0.15061477575E-01  0.23489858121E-01  0.00000000000E+00 0.  1.
     999901    1    3    3    0    0 -0.15142376066E-01 -0.51258999858E-01 -0.12751512973E+00  0.89079564712E+00  0.88000000000E+00 0. -1.
        -11    1    4    4    0    0  0.28340202589E-02  0.33764810767E-01  0.77506017814E-01  0.84590413377E-01  0.51100000000E-03 0.  1.
         11    1    4    4    0    0 -0.20787669347E-02  0.28354024587E-01  0.34947634339E-01  0.45054081382E-01  0.51100000000E-03 0. -1.
</event>
<event>
 8    1  0.1161271E+005  0.1043930E+01  0.7957747E-01            NaN
         13   -1    0    0    0    0  0.00000000000E+00  0.00000000000E+00  0.74505805969E-08  0.10566000000E+00  0.10566000000E+00 0.  1.
     999900   -1    0    0    0    0 -0.00000000000E+00 -0.00000000000E+00 -0.74505805969E-08  0.93827000000E+00  0.93827000000E+00 0. -1.
     999902    2    1    2    0    0  0.22311824800E-01 -0.68811402385E-02 -0.40478951657E-02  0.10202328889E+01  0.10199576435E+01 0.  0.
     999903    2    3    3    0    0 -0.61951547097E-01 -0.11141997140E+00 -0.15440072761E-01  0.12997536173E+00  0.20069743240E-01 0.  0.
         14    1    1    2    0    0 -0.22311824800E-01  0.68811402385E-02  0.40478951657E-02  0.23697111051E-01  0.00000000000E+00 0.  1.
     999901    1    3    3    0    0  0.84263371897E-01  0.10453883117E+00  0.11392177595E-01  0.89025752722E+00  0.88000000000E+00 0.  1.
        -11    1    4    4    0    0 -0.94678316674E-02 -0.58316407965E-02 -0.17789224780E-02  0.11272690763E-01  0.51100000000E-03 0.  1.
         11    1    4    4    0    0 -0.52483715430E-01 -0.10558833061E+00 -0.13661150283E-01  0.11870267096E+00  0.51100000000E-03 0. -1.
</event>
<event>
 8    1  0.1161271E+005  0.1043930E+01  0.7957747E-01            NaN
         13   -1    0    0    0    0  0.00000000000E+00  0.00000000000E+00  0.74505805969E-08  0.10566000000E+00  0.10566000000E+00 0. -1.
     999900   -1    0    0    0    0 -0.00000000000E+00 -0.00000000000E+00 -0.74505805969E-08  0.93827000000E+00  0.93827000000E+00 0.  1.
     999902    2    1    2    0    0  0.18117185505E-01 -0.15629045261E-01 -0.28899777708E-02  0.10198291403E+01  0.10195443217E+01 0.  0.
     999903    2    3    3    0    0  0.75454265163E-02 -0.10773756321E+00 -0.73510296048E-01  0.13214509149E+00  0.19855618651E-01 0.  0.
         14    1    1    2    0    0 -0.18117185505E-01  0.15629045261E-01  0.28899777708E-02  0.24100859692E-01  0.00000000000E+00 0.  1.
     999901    1    3    3    0    0  0.10571758989E-01  0.92108517953E-01  0.70620318278E-01  0.88768404882E+00  0.88000000000E+00 0. -1.
        -11    1    4    4    0    0 -0.56531756162E-02 -0.40961268918E-01 -0.22456742919E-01  0.47056884400E-01  0.51100000000E-03 0. -1.
         11    1    4    4    0    0  0.13198602133E-01 -0.66776294296E-01 -0.51053553129E-01  0.85088207093E-01  0.51100000000E-03 0.  1.
</event>
<event>
 8    1  0.1161271E+005  0.1043930E+01  0.7957747E-01            NaN
         13   -1    0    0    0    0  0.00000000000E+00  0.00000000000E+00  0.74505805969E-08  0.10566000000E+00  0.10566000000E+00 0. -1.
     999900   -1    0    0    0    0 -0.00000000000E+00 -0.00000000000E+00 -0.74505805969E-08  0.93827000000E+00  0.93827000000E+00 0. -1.
     999902    2    1    2    0    0  0.19348020058E-01 -0.71157862848E-02  0.11998885133E-01  0.10200772530E+01  0.10197983372E+01 0.  0.
     999903    2    3    3    0    0  0.28636690214E-02 -0.33088043589E-01  0.12636286993E+00  0.13214402748E+00  0.19785092220E-01 0.  0.
         14    1    1    2    0    0 -0.19348020058E-01  0.71157862848E-02 -0.11998885133E-01  0.23852746992E-01  0.00000000000E+00 0. -1.
     999901    1    3    3    0    0  0.16484351037E-01  0.25972257304E-01 -0.11436398479E+00  0.88793322553E+00  0.88000000000E+00 0. -1.
        -11    1    4    4    0    0  0.98312485928E-02 -0.13054421471E-01  0.70915932412E-01  0.72776383255E-01  0.51100000000E-03 0.  1.
         11    1    4    4    0    0 -0.69675795714E-02 -0.20033622118E-01  0.55446937513E-01  0.59367644225E-01  0.51100000000E-03 0. -1.
</event>
<event>
 8    1  0.1161271E+005  0.1043930E+01  0.7957747E-01            NaN
         13   -1    0    0    0    0  0.00000000000E+00  0.00000000000E+00  0.74505805969E-08  0.10566000000E+00  0.10566000000E+00 0.  1.
     999900   -1    0    0    0    0 -0.00000000000E+00 -0.00000000000E+00 -0.74505805969E-08  0.93827000000E+00  0.93827000000E+00 0. -1.
     999902    2    1    2    0    0 -0.21002512623E-01  0.61694138193E-02  0.10110492615E-01  0.10198179851E+01  0.10195328996E+01 0.  0.
     999903    2    3    3    0    0 -0.80288587840E-02  0.12933207789E+00 -0.68406799980E-03  0.13108074603E+00  0.19759683295E-01 0.  0.
         14    1    1    2    0    0  0.21002512623E-01 -0.61694138193E-02 -0.10110492615E-01  0.24112014936E-01  0.00000000000E+00 0.  1.
     999901    1    3    3    0    0 -0.12973653839E-01 -0.12316266407E+00  0.10794560615E-01  0.88873723904E+00  0.88000000000E+00 0.  1.
        -11    1    4    4    0    0  0.19874987693E-02  0.66036184919E-01  0.74258669722E-02  0.66484076976E-01  0.51100000000E-03 0.  1.
         11    1    4    4    0    0 -0.10016357553E-01  0.63295892974E-01 -0.81099349720E-02  0.64596669049E-01  0.51100000000E-03 0. -1.
</event>
<event>
 8    1  0.1161271E+005  0.1043930E+01  0.7957747E-01            NaN
         13   -1    0    0    0    0  0.00000000000E+00  0.00000000000E+00  0.74505805969E-08  0.10566000000E+00  0.10566000000E+00 0.  1.
     999900   -1    0    0    0    0 -0.00000000000E+00 -0.00000000000E+00 -0.74505805969E-08  0.93827000000E+00  0.93827000000E+00 0.  1.
     999902    2    1    2    0    0  0.59871961379E-02  0.21070993199E-02  0.21926516805E-01  0.10211032936E+01  0.10208481169E+01 0.  0.
     999903    2    3    3    0    0  0.94970025136E-01 -0.82854799820E-01 -0.29554764953E-01  0.13105453623E+00  0.20434867418E-01 0.  0.
         14    1    1    2    0    0 -0.59871961379E-02 -0.21070993199E-02 -0.21926516805E-01  0.22826706384E-01  0.00000000000E+00 0. -1.
     999901    1    3    3    0    0 -0.88982828998E-01  0.84961899140E-01  0.51481281757E-01  0.89004875739E+00  0.88000000000E+00 0. -1.
        -11    1    4    4    0    0  0.67738835229E-01 -0.70303793800E-01 -0.20888872915E-01  0.99838766786E-01  0.51100000000E-03 0. -1.
         11    1    4    4    0    0  0.27231189907E-01 -0.12551006020E-01 -0.86658920371E-02  0.31215769439E-01  0.51100000000E-03 0.  1.
</event>
<event>
 8    1  0.1161271E+005  0.1043930E+01  0.7957747E-01            NaN
         13   -1    0    0    0    0  0.00000000000E+00  0.00000000000E+00  0.74505805969E-08  0.10566000000E+00  0.10566000000E+00 0. -1.
     999900   -1    0    0    0    0 -0.00000000000E+00 -0.00000000000E+00 -0.74505805969E-08  0.93827000000E+00  0.93827000000E+00 0.  1.
     999902    2    1    2    0    0  0.92775773919E-02  0.18470633598E-01 -0.91161477752E-02  0.10213392519E+01  0.10210893818E+01 0.  0.
     999903    2    3    3    0    0  0.30286118891E-01  0.14989982757E-01  0.12438464606E+00  0.13101575135E+00  0.23486982438E-01 0.  0.
         14    1    1    2    0    0 -0.92775773919E-02 -0.18470633598E-01  0.91161477752E-02  0.22590748063E-01  0.00000000000E+00 0.  1.
     999901    1    3    3    0    0 -0.21008541499E-01  0.34806508416E-02 -0.13350079384E+00  0.89032350059E+00  0.88000000000E+00 0.  1.
        -11    1    4    4    0    0  0.30813068106E-01  0.52704565392E-02  0.89976001975E-01  0.95253162313E-01  0.51100000000E-03 0.  1.
         11    1    4    4    0    0 -0.52694921527E-03  0.97195262177E-02  0.34408644089E-01  0.35762589034E-01  0.51100000000E-03 0. -1.
</event>
<event>
 8    1  0.1161271E+005  0.1043930E+01  0.7957747E-01            NaN
         13   -1    0    0    0    0  0.00000000000E+00  0.00000000000E+00  0.74505805969E-08  0.10566000000E+00  0.10566000000E+00 0.  1.
     999900   -1    0    0    0    0 -0.00000000000E+00 -0.00000000000E+00 -0.74505805969E-08  0.93827000000E+00  0.93827000000E+00 0. -1.
     999902    2    1    2    0    0 -0.81978498809E-02  0.15690943348E-01 -0.15771615922E-01  0.10202202064E+01  0.10199446628E+01 0.  0.
     999903    2    3    3    0    0  0.16706912374E-01 -0.97592396386E-01 -0.81980584368E-01  0.13014324915E+00  0.20323688963E-01 0.  0.
         14    1    1    2    0    0  0.81978498809E-02 -0.15690943348E-01  0.15771615922E-01  0.23709793643E-01  0.00000000000E+00 0.  1.
     999901    1    3    3    0    0 -0.24904762255E-01  0.11328333973E+00  0.66208968446E-01  0.89007695720E+00  0.88000000000E+00 0. -1.
        -11    1    4    4    0    0  0.30849498632E-02 -0.18961944640E-01 -0.64703217957E-02  0.20278028636E-01  0.51100000000E-03 0. -1.
         11    1    4    4    0    0  0.13621962511E-01 -0.78630451746E-01 -0.75510262573E-01  0.10986522052E+00  0.51100000000E-03 0.  1.
</event>
<event>
 8    1  0.1161271E+005  0.1043930E+01  0.7957747E-01            NaN
         13   -1    0    0    0    0  0.00000000000E+00  0.00000000000E+00  0.74505805969E-08  0.10566000000E+00  0.10566000000E+00 0. -1.
     999900   -1    0    0    0    0 -0.00000000000E+00 -0.00000000000E+00 -0.74505805969E-08  0.93827000000E+00  0.93827000000E+00 0. -1.
     999902    2    1    2    0    0 -0.22315062019E-01 -0.74428882528E-02  0.32061837849E-02  0.10201889345E+01  0.10199126550E+01 0.  0.
     999903    2    3    3    0    0 -0.44406200698E-01 -0.74096541046E-01  0.97995480595E-01  0.13231746931E+00  0.21037832882E-01 0.  0.
         14    1    1    2    0    0  0.22315062019E-01  0.74428882528E-02 -0.32061837849E-02  0.23741065539E-01  0.00000000000E+00 0.  1.
     999901    1    3    3    0    0  0.22091138679E-01  0.66653652793E-01 -0.94789296810E-01  0.88787146515E+00  0.88000000000E+00 0. -1.
        -11    1    4    4    0    0 -0.21674984682E-01 -0.45514836203E-01  0.70169418413E-01  0.86402625406E-01  0.51100000000E-03 0.  1.
         11    1    4    4    0    0 -0.22731216016E-01 -0.28581704842E-01  0.27826062181E-01  0.45914843905E-01  0.51100000000E-03 0. -1.
</event>
<event>
 8    1  0.1161271E+005  0.1043930E+01  0.7957747E-01            NaN
         13   -1    0    0    0    0  0.00000000000E+00  0.00000000000E+00  0.74505805969E-08  0.10566000000E+00  0.10566000000E+00 0. -1.
     999900   -1    0    0    0    0 -0.00000000000E+00 -0.00000000000E+00 -0.74505805969E-08  0.93827000000E+00  0.93827000000E+00 0.  1.
     999902    2    1    2    0    0 -0.15940299303E-01 -0.78029498065E-02  0.26738241864E-01  0.10118377463E+01  0.10113286865E+01 0.  0.
     999903    2    3    3    0    0  0.84450894687E-01  0.19559997427E-01 -0.79549566018E-01  0.11935569003E+00  0.20077354824E-01 0.  0.
         14    1    1    2    0    0  0.15940299303E-01  0.78029498065E-02 -0.26738241864E-01  0.32092253668E-01  0.00000000000E+00 0.  1.
     999901    1    3    3    0    0 -0.10039119399E+00 -0.27362947234E-01  0.10628780788E+00  0.89248205630E+00  0.88000000000E+00 0. -1.
        -11    1    4    4    0    0  0.55699574155E-01  0.96242107541E-02 -0.63293591249E-01  0.84861108924E-01  0.51100000000E-03 0.  1.
         11    1    4    4    0    0  0.28751320532E-01  0.99357866732E-02 -0.16255974769E-01  0.34494581108E-01  0.51100000000E-03 0. -1.
</event>
<event>
 8    1  0.1161271E+005  0.1043930E+01  0.7957747E-01            NaN
         13   -1    0    0    0    0  0.00000000000E+00  0.00000000000E+00  0.74505805969E-08  0.10566000000E+00  0.10566000000E+00 0. -1.
     999900   -1    0    0    0    0 -0.00000000000E+00 -0.00000000000E+00 -0.74505805969E-08  0.93827000000E+00  0.93827000000E+00 0.  1.
     999902    2    1    2    0    0  0.78767751064E-03 -0.23064656426E-01  0.68104554341E-02  0.10198679736E+01  0.10195840831E+01 0.  0.
     999903    2    3    3    0    0 -0.71369043636E-01  0.97900751039E-01  0.36913487221E-01  0.12815870778E+00  0.19594677760E-01 0.  0.
         14    1    1    2    0    0 -0.78767751064E-03  0.23064656426E-01 -0.68104554341E-02  0.24062026414E-01  0.00000000000E+00 0.  1.
     999901    1    3    3    0    0  0.72156721147E-01 -0.12096540746E+00 -0.30103031787E-01  0.89170926581E+00  0.88000000000E+00 0.  1.
        -11    1    4    4    0    0 -0.88733995429E-02  0.86966603930E-02 -0.17992525992E-02  0.12564535501E-01  0.51100000000E-03 0.  1.
         11    1    4    4    0    0 -0.62495644093E-01  0.89204090645E-01  0.38712739820E-01  0.11559417227E+00  0.51100000000E-03 0. -1.
</event>
<event>
 8    1  0.1376804E+005  0.1043930E+01  0.7957747E-01            NaN
         13   -1    0    0    0    0  0.00000000000E+00  0.00000000000E+00  0.74505805969E-08  0.10566000000E+00  0.10566000000E+00 0. -1.
     999900   -1    0    0    0    0 -0.00000000000E+00 -0.00000000000E+00 -0.74505805969E-08  0.93827000000E+00  0.93827000000E+00 0.  1.
     999902    2    1    2    0    0  0.15413182929E-01  0.26133085275E-03  0.18021972176E-01  0.10202144780E+01  0.10199387997E+01 0.  0.
     999903    2    3    3    0    0  0.10806755306E-01  0.65833883748E-01  0.11349963288E+00  0.13261267396E+00  0.15908124381E-01 0.  0.
         14    1    1    2    0    0 -0.15413182929E-01 -0.26133085275E-03 -0.18021972176E-01  0.23715521983E-01  0.00000000000E+00 0.  1.
     999901    1    3    3    0    0  0.46064276226E-02 -0.65572552895E-01 -0.95477660705E-01  0.88760180406E+00  0.88000000000E+00 0.  1.
        -11    1    4    4    0    0  0.14087747978E-01  0.39306321757E-01  0.72532007011E-01  0.83693516685E-01  0.51100000000E-03 0.  1.
         11    1    4    4    0    0 -0.32809926717E-02  0.26527561991E-01  0.40967625871E-01  0.48919157276E-01  0.51100000000E-03 0. -1.
</event>
<event>
 8    1  0.1161271E+005  0.1043930E+01  0.7957747E-01            NaN
         13   -1    0    0    0    0  0.00000000000E+00  0.00000000000E+00  0.74505805969E-08  0.10566000000E+00  0.10566000000E+00 0. -1.
     999900   -1    0    0    0    0 -0.00000000000E+00 -0.00000000000E+00 -0.74505805969E-08  0.93827000000E+00  0.93827000000E+00 0.  1.
     999902    2    1    2    0    0 -0.81657725139E-02  0.18169379195E-01 -0.11966200692E-01  0.10206921830E+01  0.10204276242E+01 0.  0.
     999903    2    3    3    0    0 -0.88576903983E-01 -0.90334873551E-01  0.20271386730E-01  0.12980589114E+00  0.20793820171E-01 0.  0.
         14    1    1    2    0    0  0.81657725139E-02 -0.18169379195E-01  0.11966200692E-01  0.23237817025E-01  0.00000000000E+00 0. -1.
     999901    1    3    3    0    0  0.80411131469E-01  0.10850425275E+00 -0.32237587422E-01  0.89088629183E+00  0.88000000000E+00 0.  1.
        -11    1    4    4    0    0 -0.56222911744E-01 -0.65073828701E-01  0.54875485488E-02  0.86174203198E-01  0.51100000000E-03 0. -1.
         11    1    4    4    0    0 -0.32353992239E-01 -0.25261044850E-01  0.14783838181E-01  0.43631687946E-01  0.51100000000E-03 0.  1.
</event>
<event>
 8    1  0.1161271E+005  0.1043930E+01  0.7957747E-01            NaN
         13   -1    0    0    0    0  0.00000000000E+00  0.00000000000E+00  0.74505805969E-08  0.10566000000E+00  0.10566000000E+00 0.  1.
     999900   -1    0    0    0    0 -0.00000000000E+00 -0.00000000000E+00 -0.74505805969E-08  0.93827000000E+00  0.93827000000E+00 0.  1.
     999902    2    1    2    0    0 -0.13837065816E-01 -0.10136614690E-01 -0.15544169103E-01  0.10207818566E+01  0.10205193591E+01 0.  0.
     999903    2    3    3    0    0  0.79308055378E-01 -0.68890524032E-01  0.73312166366E-01  0.12947748449E+00  0.18816835636E-01 0.  0.
         14    1    1    2    0    0  0.13837065816E-01  0.10136614690E-01  0.15544169103E-01  0.23148143357E-01  0.00000000000E+00 0.  1.
     999901    1    3    3    0    0 -0.93145121194E-01  0.58753909342E-01 -0.88856335469E-01  0.89130437215E+00  0.88000000000E+00 0.  1.
        -11    1    4    4    0    0  0.42671270753E-01 -0.44316480447E-01  0.33501441957E-01  0.70052805233E-01  0.51100000000E-03 0. -1.
         11    1    4    4    0    0  0.36636784625E-01 -0.24574043585E-01  0.39810724409E-01  0.59424679257E-01  0.51100000000E-03 0.  1.
</event>
<event>
 7    1  0.1161271E+005  0.1043930E+01  0.7957747E-01            NaN
         13   -1    0    0    0    0  0.00000000000E+00  0.00000000000E+00  0.74505805969E-08  0.10566000000E+00  0.10566000000E+00 0. -1.
     999900   -1    0    0    0    0 -0.00000000000E+00 -0.00000000000E+00 -0.74505805969E-08  0.93827000000E+00  0.93827000000E+00 0. -1.
     999902    2    1    2    0    0  0.10986480603E-01 -0.81136050708E-02 -0.18151245745E-01  0.10212143432E+01  0.10209616710E+01 0.  0.
         14    1    1    2    0    0 -0.10986480603E-01  0.81136050708E-02  0.18151245745E-01  0.22715656834E-01  0.00000000000E+00 0. -1.
     999901    1    3    3    0    0 -0.63829340213E-01 -0.10150757110E+00  0.26575235718E-01  0.88852924252E+00  0.88000000000E+00 0.  1.
        -11    1    3    3    0    0  0.19699568729E-01  0.52854199489E-01 -0.17716225664E-01  0.59124996274E-01  0.51100000000E-03 0. -1.
         11    1    3    3    0    0  0.55116252088E-01  0.40539766543E-01 -0.27010255800E-01  0.73560104370E-01  0.51100000000E-03 0.  1.
</event>
<event>
 8    1  0.1161271E+005  0.1043930E+01  0.7957747E-01            NaN
         13   -1    0    0    0    0  0.00000000000E+00  0.00000000000E+00  0.74505805969E-08  0.10566000000E+00  0.10566000000E+00 0.  1.
     999900   -1    0    0    0    0 -0.00000000000E+00 -0.00000000000E+00 -0.74505805969E-08  0.93827000000E+00  0.93827000000E+00 0.  1.
     999902    2    1    2    0    0 -0.16836032408E-01  0.86014101182E-02 -0.15972222194E-01  0.10191802904E+01  0.10188797359E+01 0.  0.
     999903    2    3    3    0    0 -0.44606701560E-01 -0.11839549049E+00 -0.19655030496E-01  0.12962254303E+00  0.20209736392E-01 0.  0.
         14    1    1    2    0    0  0.16836032408E-01 -0.86014101182E-02  0.15972222194E-01  0.24749709596E-01  0.00000000000E+00 0.  1.
     999901    1    3    3    0    0  0.27770669152E-01  0.12699690061E+00  0.36828083024E-02  0.88955774737E+00  0.88000000000E+00 0. -1.
        -11    1    4    4    0    0 -0.49178925215E-02 -0.24506194857E-01 -0.11025598379E-01  0.27323326917E-01  0.51100000000E-03 0. -1.
         11    1    4    4    0    0 -0.39688809039E-01 -0.93889295638E-01 -0.86294321175E-02  0.10229921612E+00  0.51100000000E-03 0.  1.
</event>
<event>
 8    1  0.1161271E+005  0.1043930E+01  0.7957747E-01            NaN
         13   -1    0    0    0    0  0.00000000000E+00  0.00000000000E+00  0.74505805969E-08  0.10566000000E+00  0.10566000000E+00 0. -1.
     999900   -1    0    0    0    0 -0.00000000000E+00 -0.00000000000E+00 -0.74505805969E-08  0.93827000000E+00  0.93827000000E+00 0. -1.
     999902    2    1    2    0    0  0.13283647492E-01  0.79831411431E-02  0.18264248862E-01  0.10199765322E+01  0.10196952278E+01 0.  0.
     999903    2    3    3    0    0 -0.94092400428E-01  0.68235199466E-01  0.56138017880E-01  0.13059790159E+00  0.19872407614E-01 0.  0.
         14    1    1    2    0    0 -0.13283647492E-01 -0.79831411431E-02 -0.18264248862E-01  0.23953467801E-01  0.00000000000E+00 0.  1.
     999901    1    3    3    0    0  0.10737604792E+00 -0.60252058323E-01 -0.37873769019E-01  0.88937863061E+00  0.88000000000E+00 0. -1.
        -11    1    4    4    0    0 -0.80414589296E-01  0.49051595652E-01  0.47539903983E-01  0.10551241064E+00  0.51100000000E-03 0. -1.
         11    1    4    4    0    0 -0.13677811132E-01  0.19183603815E-01  0.85981138972E-02  0.25085490951E-01  0.51100000000E-03 0.  1.
</event>
<event>
 8    1  0.1161271E+005  0.1043930E+01  0.7957747E-01            NaN
         13   -1    0    0    0    0  0.00000000000E+00  0.00000000000E+00  0.74505805969E-08  0.10566000000E+00  0.10566000000E+00 0.  1.
     999900   -1    0    0    0    0 -0.00000000000E+00 -0.00000000000E+00 -0.74505805969E-08  0.93827000000E+00  0.93827000000E+00 0.  1.
     999902    2    1    2    0    0  0.10068179761E-01 -0.44155203173E-02  0.22158720521E-01  0.10191939138E+01  0.10188936942E+01 0.  0.
     999903    2    3    3    0    0 -0.88570052860E-01 -0.88092704399E-01  0.30066210766E-01  0.12970310418E+00  0.17718334339E-01 0.  0.
         14    1    1    2    0    0 -0.10068179761E-01  0.44155203173E-02 -0.22158720521E-01  0.24736086160E-01  0.00000000000E+00 0. -1.
     999901    1    3    3    0    0  0.98638232621E-01  0.83677184082E-01 -0.79074902449E-02  0.88949080966E+00  0.88000000000E+00 0. -1.
        -11    1    4    4    0    0 -0.61677436922E-01 -0.71226310909E-01  0.25645537311E-01  0.97648595976E-01  0.51100000000E-03 0.  1.
         11    1    4    4    0    0 -0.26892615938E-01 -0.16866393490E-01  0.44206734549E-02  0.32054508203E-01  0.51100000000E-03 0. -1.
</event>
<event>
 8    1  0.1161271E+005  0.1043930E+01  0.7957747E-01            NaN
         13   -1    0    0    0    0  0.00000000000E+00  0.00000000000E+00  0.74505805969E-08  0.10566000000E+00  0.10566000000E+00 0.  1.
     999900   -1    0    0    0    0 -0.00000000000E+00 -0.00000000000E+00 -0.74505805969E-08  0.93827000000E+00  0.93827000000E+00 0. -1.
     999902    2    1    2    0    0 -0.14061252192E-01 -0.18729239491E-01  0.36856913706E-02  0.10202216144E+01  0.10199461040E+01 0.  0.
     999903    2    3    3    0    0 -0.11409447102E+00 -0.21152295461E-01 -0.59934350353E-01  0.13226889848E+00  0.20927666633E-01 0.  0.
         14    1    1    2    0    0  0.14061252192E-01  0.18729239491E-01 -0.36856913706E-02  0.23708385563E-01  0.00000000000E+00 0. -1.
     999901    1    3    3    0    0  0.10003321883E+00  0.24230559694E-02  0.63620041724E-01  0.88795271596E+00  0.88000000000E+00 0.  1.
        -11    1    4    4    0    0 -0.69440465696E-01 -0.18604064148E-01 -0.46288021505E-01  0.85503985490E-01  0.51100000000E-03 0.  1.
         11    1    4    4    0    0 -0.44654005328E-01 -0.25482313123E-02 -0.13646328849E-01  0.46764912987E-01  0.51100000000E-03 0. -1.
</event>
<event>
 8    1  0.1161271E+005  0.1043930E+01  0.7957747E-01            NaN
         13   -1    0    0    0    0  0.00000000000E+00  0.00000000000E+00  0.74505805969E-08  0.10566000000E+00  0.10566000000E+00 0.  1.
     999900   -1    0    0    0    0 -0.00000000000E+00 -0.00000000000E+00 -0.74505805969E-08  0.93827000000E+00  0.93827000000E+00 0. -1.
     999902    2    1    2    0    0 -0.15188203419E-01 -0.17568083310E-02 -0.16328005913E-01  0.10215610108E+01  0.10213160761E+01 0.  0.
     999903    2    3    3    0    0 -0.13518263603E-01  0.11855829642E+00  0.50330621397E-01  0.13087482272E+00  0.18874179968E-01 0.  0.
         14    1    1    2    0    0  0.15188203419E-01  0.17568083310E-02  0.16328005913E-01  0.22368989152E-01  0.00000000000E+00 0.  1.
     999901    1    3    3    0    0 -0.16699398163E-02 -0.12031510475E+00 -0.66658627310E-01  0.89068618813E+00  0.88000000000E+00 0. -1.
        -11    1    4    4    0    0 -0.13914603292E-02  0.80403336037E-01  0.28833899378E-01  0.85430015112E-01  0.51100000000E-03 0.  1.
         11    1    4    4    0    0 -0.12126803273E-01  0.38154960387E-01  0.21496722019E-01  0.45444807606E-01  0.51100000000E-03 0. -1.
</event>
<event>
 8    1  0.1161271E+005  0.1043930E+01  0.7957747E-01            NaN
         13   -1    0    0    0    0  0.00000000000E+00  0.00000000000E+00  0.74505805969E-08  0.10566000000E+00  0.10566000000E+00 0. -1.
     999900   -1    0    0    0    0 -0.00000000000E+00 -0.00000000000E+00 -0.74505805969E-08  0.93827000000E+00  0.93827000000E+00 0. -1.
     999902    2    1    2    0    0 -0.90797514164E-02  0.17139811185E-01 -0.76689853997E-02  0.10230726667E+01  0.10228600359E+01 0.  0.
     999903    2    3    3    0    0  0.10819656590E+00 -0.13760358977E-01  0.69502469529E-01  0.13140905945E+00  0.23278816204E-01 0.  0.
         14    1    1    2    0    0  0.90797514164E-02 -0.17139811185E-01  0.76689853997E-02  0.20857333250E-01  0.00000000000E+00 0.  1.
     999901    1    3    3    0    0 -0.11727631732E+00  0.30900170162E-01 -0.77171454929E-01  0.89166360730E+00  0.88000000000E+00 0.  1.
        -11    1    4    4    0    0  0.52676414632E-01 -0.10045925262E-01  0.21006167890E-01  0.57595533536E-01  0.51100000000E-03 0. -1.
         11    1    4    4    0    0  0.55520151269E-01 -0.37144337149E-02  0.48496301639E-01  0.73813525918E-01  0.51100000000E-03 0.  1.
</event>
<event>
 8    1  0.1161271E+005  0.1043930E+01  0.7957747E-01            NaN
         13   -1    0    0    0    0  0.00000000000E+00  0.00000000000E+00  0.74505805969E-08  0.10566000000E+00  0.10566000000E+00 0. -1.
     999900   -1    0    0    0    0 -0.00000000000E+00 -0.00000000000E+00 -0.74505805969E-08  0.93827000000E+00  0.93827000000E+00 0. -1.
     999902    2    1    2    0    0 -0.15027372519E-01  0.92803754215E-02  0.15452950339E-01  0.10204621290E+01  0.10201922446E+01 0.  0.
     999903    2    3    3    0    0  0.87945350821E-01 -0.82679407249E-01  0.42411544643E-01  0.12929056914E+00  0.18629091118E-01 0.  0.
         14    1    1    2    0    0  0.15027372519E-01 -0.92803754215E-02 -0.15452950339E-01  0.23467870951E-01  0.00000000000E+00 0.  1.
     999901    1    3    3    0    0 -0.10297272334E+00  0.91959782671E-01 -0.26958594304E-01  0.89117155991E+00  0.88000000000E+00 0. -1.
        -11    1    4    4    0    0  0.25795272763E-01 -0.33715255377E-01  0.89730807202E-02  0.43392301629E-01  0.51100000000E-03 0.  1.
         11    1    4    4    0    0  0.62150078058E-01 -0.48964151872E-01  0.33438463922E-01  0.85898267513E-01  0.51100000000E-03 0. -1.
</event>
<event>
 8    1  0.1161271E+005  0.1043930E+01  0.7957747E-01            NaN
         13   -1    0    0    0    0  0.00000000000E+00  0.00000000000E+00  0.74505805969E-08  0.10566000000E+00  0.10566000000E+00 0.  1.
     999900   -1    0    0    0    0 -0.00000000000E+00 -0.00000000000E+00 -0.74505805969E-08  0.93827000000E+00  0.93827000000E+00 0. -1.
     999902    2    1    2    0    0  0.13555587868E-01  0.52707115889E-02 -0.18269436291E-01  0.10205781978E+01  0.10203110071E+01 0.  0.
     999903    2    3    3    0    0  0.31844977915E-01  0.10242332114E+00 -0.76360562028E-01  0.13313934909E+00  0.19761364102E-01 0.  0.
         14    1    1    2    0    0 -0.13555587868E-01 -0.52707115889E-02  0.18269436291E-01  0.23351802189E-01  0.00000000000E+00 0.  1.
     999901    1    3    3    0    0 -0.18289390046E-01 -0.97152609550E-01  0.58091125737E-01  0.88743884872E+00  0.88000000000E+00 0. -1.
        -11    1    4    4    0    0  0.29003859780E-01  0.72970797998E-01 -0.47342494014E-01  0.91692606589E-01  0.51100000000E-03 0. -1.
         11    1    4    4    0    0  0.28411181346E-02  0.29452523141E-01 -0.29018068014E-01  0.41446742500E-01  0.51100000000E-03 0.  1.
</event>
<event>
 8    1  0.1161271E+005  0.1043930E+01  0.7957747E-01            NaN
         13   -1    0    0    0    0  0.00000000000E+00  0.00000000000E+00  0.74505805969E-08  0.10566000000E+00  0.10566000000E+00 0. -1.
     999900   -1    0    0    0    0 -0.00000000000E+00 -0.00000000000E+00 -0.74505805969E-08  0.93827000000E+00  0.93827000000E+00 0. -1.
     999902    2    1    2    0    0 -0.22762123548E-01  0.14002608877E-02  0.72113590119E-02  0.10200118333E+01  0.10197313673E+01 0.  0.
     999903    2    3    3    0    0  0.67833998857E-01 -0.29588817688E-01  0.10440130650E+00  0.12949857329E+00  0.19831746026E-01 0.  0.
         14    1    1    2    0    0  0.22762123548E-01 -0.14002608877E-02 -0.72113590119E-02  0.23918166689E-01  0.00000000000E+00 0.  1.
     999901    1    3    3    0    0 -0.90596122405E-01  0.30989078575E-01 -0.97189947492E-01  0.89051326002E+00  0.88000000000E+00 0.  1.
        -11    1    4    4    0    0  0.28356167368E-01 -0.10624795323E-01  0.59548529080E-01  0.66807536551E-01  0.51100000000E-03 0. -1.
         11    1    4    4    0    0  0.39477831489E-01 -0.18964022364E-01  0.44852777424E-01  0.62691036735E-01  0.51100000000E-03 0.  1.
</event>
<event>
 8    1  0.1161271E+005  0.1043930E+01  0.7957747E-01            NaN
         13   -1    0    0    0    0  0.00000000000E+00  0.00000000000E+00  0.74505805969E-08  0.10566000000E+00  0.10566000000E+00 0. -1.
     999900   -1    0    0    0    0 -0.00000000000E+00 -0.00000000000E+00 -0.74505805969E-08  0.93827000000E+00  0.93827000000E+00 0. -1.
     999902    2    1    2    0    0 -0.13376571875E-02 -0.17927307581E-01  0.15424903022E-01  0.10202423383E+01  0.10199673149E+01 0.  0.
     999903    2    3    3    0    0  0.12284317541E-01  0.38315541352E-01 -0.11993648565E+00  0.12801393604E+00  0.19591377241E-01 0.  0.
         14    1    1    2    0    0  0.13376571875E-02  0.17927307581E-01 -0.15424903022E-01  0.23687661706E-01  0.00000000000E+00 0.  1.
     999901    1    3    3    0    0 -0.13621974729E-01 -0.56242848933E-01  0.13536138867E+00  0.89222840226E+00  0.88000000000E+00 0.  1.
        -11    1    4    4    0    0  0.26105289872E-02  0.16615166672E-01 -0.78164200866E-01  0.79954875043E-01  0.51100000000E-03 0. -1.
         11    1    4    4    0    0  0.96737885542E-02  0.21700374680E-01 -0.41772284787E-01  0.48059060994E-01  0.51100000000E-03 0.  1.
</event>
<event>
 8    1  0.1161271E+005  0.1043930E+01  0.7957747E-01            NaN
         13   -1    0    0    0    0  0.00000000000E+00  0.00000000000E+00  0.74505805969E-08  0.10566000000E+00  0.10566000000E+00 0. -1.
     999900   -1    0    0    0    0 -0.00000000000E+00 -0.00000000000E+00 -0.74505805969E-08  0.93827000000E+00  0.93827000000E+00 0.  1.
     999902    2    1    2    0    0 -0.13363704168E-01 -0.21622795425E-01  0.86784242581E-02  0.10170701988E+01  0.10167154668E+01 0.  0.
     999903    2    3    3    0    0  0.50737407245E-01 -0.62340126963E-02 -0.11365027204E+00  0.12616612035E+00  0.19706805444E-01 0.  0.
         14    1    1    2    0    0  0.13363704168E-01  0.21622795425E-01 -0.86784242581E-02  0.26859801166E-01  0.00000000000E+00 0.  1.
     999901    1    3    3    0    0 -0.64101111413E-01 -0.15388782728E-01  0.12232869630E+00  0.89090407848E+00  0.88000000000E+00 0. -1.
        -11    1    4    4    0    0  0.41343418593E-01  0.29922453083E-02 -0.90125547315E-01  0.99202354774E-01  0.51100000000E-03 0.  1.
         11    1    4    4    0    0  0.93939886527E-02 -0.92262580046E-02 -0.23524724728E-01  0.26963765577E-01  0.51100000000E-03 0. -1.
</event>
<event>
 8    1  0.1161271E+005  0.1043930E+01  0.7957747E-01            NaN
         13   -1    0    0    0    0  0.00000000000E+00  0.00000000000E+00  0.74505805969E-08  0.10566000000E+00  0.10566000000E+00 0.  1.
     999900   -1    0    0    0    0 -0.00000000000E+00 -0.00000000000E+00 -0.74505805969E-08  0.93827000000E+00  0.93827000000E+00 0.  1.
     999902    2    1    2    0    0 -0.55388381726E-02 -0.17082212107E-01 -0.12893901501E-01  0.10218226846E+01  0.10215835087E+01 0.  0.
     999903    2    3    3    0    0  0.93688415420E-02  0.87749019016E-01  0.92328764722E-01  0.12925132306E+00  0.19840317232E-01 0.  0.
         14    1    1    2    0    0  0.55388381726E-02  0.17082212107E-01  0.12893901501E-01  0.22107315411E-01  0.00000000000E+00 0.  1.
     999901    1    3    3    0    0 -0.14907679715E-01 -0.10483123112E+00 -0.10522266622E+00  0.89257136153E+00  0.88000000000E+00 0.  1.
        -11    1    4    4    0    0  0.14932183391E-01  0.68210569436E-01  0.75758541884E-01  0.10303043081E+00  0.51100000000E-03 0. -1.
         11    1    4    4    0    0 -0.55633418488E-02  0.19538449580E-01  0.16570222837E-01  0.26220892250E-01  0.51100000000E-03 0.  1.
</event>
<event>
 8    1  0.1161271E+005  0.1043930E+01  0.7957747E-01            NaN
         13   -1    0    0    0    0  0.00000000000E+00  0.00000000000E+00  0.74505805969E-08  0.10566000000E+00  0.10566000000E+00 0.  1.
     999900   -1    0    0    0    0 -0.00000000000E+00 -0.00000000000E+00 -0.74505805969E-08  0.93827000000E+00  0.93827000000E+00 0.  1.
     999902    2    1    2    0    0 -0.50194989297E-02  0.14663834544E-01 -0.22916302925E-01  0.10162644916E+01  0.10158878563E+01 0.  0.
     999903    2    3    3    0    0  0.18059954278E-01 -0.11678062021E+00 -0.39166387853E-01  0.12605419564E+00  0.19793410426E-01 0.  0.
         14    1    1    2    0    0  0.50194989297E-02 -0.14663834544E-01  0.22916302925E-01  0.27665508360E-01  0.00000000000E+00 0.  1.
     999901    1    3    3    0    0 -0.23079453207E-01  0.13144445475E+00  0.16250084927E-01  0.89021029600E+00  0.88000000000E+00 0. -1.
        -11    1    4    4    0    0  0.19056626087E-01 -0.66178657222E-01 -0.17931255610E-01  0.71165727132E-01  0.51100000000E-03 0. -1.
         11    1    4    4    0    0 -0.99667180903E-03 -0.50601962986E-01 -0.21235132242E-01  0.54888468507E-01  0.51100000000E-03 0.  1.
</event>
<event>
 8    1  0.1161271E+005  0.1043930E+01  0.7957747E-01            NaN
         13   -1    0    0    0    0  0.00000000000E+00  0.00000000000E+00  0.74505805969E-08  0.10566000000E+00  0.10566000000E+00 0. -1.
     999900   -1    0    0    0    0 -0.00000000000E+00 -0.00000000000E+00 -0.74505805969E-08  0.93827000000E+00  0.93827000000E+00 0. -1.
     999902    2    1    2    0    0 -0.20766748017E-01 -0.15175299450E-02 -0.12277242672E-01  0.10197578795E+01  0.10194713539E+01 0.  0.
     999903    2    3    3    0    0  0.86272933115E-01  0.32601059259E-02  0.91491984692E-01  0.12720627223E+00  0.18894580011E-01 0.  0.
         14    1    1    2    0    0  0.20766748017E-01  0.15175299450E-02  0.12277242672E-01  0.24172120469E-01  0.00000000000E+00 0. -1.
     999901    1    3    3    0    0 -0.10703968113E+00 -0.47776358709E-02 -0.10376922736E+00  0.89255160730E+00  0.88000000000E+00 0. -1.
        -11    1    4    4    0    0  0.29906967319E-01  0.99025092565E-02  0.35755941211E-01  0.47657474091E-01  0.51100000000E-03 0. -1.
         11    1    4    4    0    0  0.56365965796E-01 -0.66424033306E-02  0.55736043480E-01  0.79548798143E-01  0.51100000000E-03 0.  1.
</event>
<event>
 8    1  0.1161271E+005  0.1043930E+01  0.7957747E-01            NaN
         13   -1    0    0    0    0  0.00000000000E+00  0.00000000000E+00  0.74505805969E-08  0.10566000000E+00  0.10566000000E+00 0. -1.
     999900   -1    0    0    0    0 -0.00000000000E+00 -0.00000000000E+00 -0.74505805969E-08  0.93827000000E+00  0.93827000000E+00 0. -1.
     999902    2    1    2    0    0  0.23060025648E-01  0.11662281202E-02  0.43614022838E-02  0.10204321980E+01  0.10201616166E+01 0.  0.
     999903    2    3    3    0    0 -0.98897672542E-01  0.19761268649E-01 -0.76394035644E-01  0.12816491937E+00  0.20468036132E-01 0.  0.
         14    1    1    2    0    0 -0.23060025648E-01 -0.11662281202E-02 -0.43614022838E-02  0.23497802041E-01  0.00000000000E+00 0.  1.
     999901    1    3    3    0    0  0.12195769819E+00 -0.18595040529E-01  0.80755437927E-01  0.89226727859E+00  0.88000000000E+00 0.  1.
        -11    1    4    4    0    0 -0.94287123151E-01  0.22836940390E-01 -0.69686911103E-01  0.11944921154E+00  0.51100000000E-03 0.  1.
         11    1    4    4    0    0 -0.46105493910E-02 -0.30756717414E-02 -0.67071245411E-02  0.87157078289E-02  0.51100000000E-03 0. -1.
</event>
<event>
 8    1  0.1161271E+005  0.1043930E+01  0.7957747E-01            NaN
         13   -1    0    0    0    0  0.00000000000E+00  0.00000000000E+00  0.74505805969E-08  0.10566000000E+00  0.10566000000E+00 0.  1.
     999900   -1    0    0    0    0 -0.00000000000E+00 -0.00000000000E+00 -0.74505805969E-08  0.93827000000E+00  0.93827000000E+00 0.  1.
     999902    2    1    2    0    0  0.78945870400E-03  0.54080005155E-02  0.22988810861E-01  0.10203004604E+01  0.10200268008E+01 0.  0.
     999903    2    3    3    0    0  0.11077862716E+00 -0.53973674626E-01  0.40736890144E-01  0.13129045216E+00  0.19814813158E-01 0.  0.
         14    1    1    2    0    0 -0.78945870400E-03 -0.54080005155E-02 -0.22988810861E-01  0.23629539551E-01  0.00000000000E+00 0. -1.
     999901    1    3    3    0    0 -0.10998916846E+00  0.59381675141E-01 -0.17748079283E-01  0.88901000829E+00  0.88000000000E+00 0. -1.
        -11    1    4    4    0    0  0.76593455678E-01 -0.29277454042E-01  0.33102099448E-01  0.88429276129E-01  0.51100000000E-03 0.  1.
         11    1    4    4    0    0  0.34185171486E-01 -0.24696220584E-01  0.76347906957E-02  0.42861176030E-01  0.51100000000E-03 0. -1.
</event>
<event>
 8    1  0.1161271E+005  0.1043930E+01  0.7957747E-01            NaN
         13   -1    0    0    0    0  0.00000000000E+00  0.00000000000E+00  0.74505805969E-08  0.10566000000E+00  0.10566000000E+00 0.  1.
     999900   -1    0    0    0    0 -0.00000000000E+00 -0.00000000000E+00 -0.74505805969E-08  0.93827000000E+00  0.93827000000E+00 0.  1.
     999902    2    1    2    0    0  0.15562434000E-02  0.19179044263E-01  0.14433776107E-01  0.10198760705E+01  0.10195923733E+01 0.  0.
     999903    2    3    3    0    0 -0.76024721676E-01 -0.10324285624E-01  0.10369179189E+00  0.13147512159E+00  0.25443480750E-01 0.  0.
         14    1    1    2    0    0 -0.15562434000E-02 -0.19179044263E-01 -0.14433776107E-01  0.24053929514E-01  0.00000000000E+00 0.  1.
     999901    1    3    3    0    0  0.77580965076E-01  0.29503329886E-01 -0.89258015781E-01  0.88840094890E+00  0.88000000000E+00 0.  1.
        -11    1    4    4    0    0 -0.52521968921E-01 -0.17813521086E-01  0.79384384496E-01  0.96840179552E-01  0.51100000000E-03 0. -1.
         11    1    4    4    0    0 -0.23502752755E-01  0.74892354626E-02  0.24307407392E-01  0.34634942039E-01  0.51100000000E-03 0.  1.
</event>
<event>
 8    1  0.1161271E+005  0.1043930E+01  0.7957747E-01            NaN
         13   -1    0    0    0    0  0.00000000000E+00  0.00000000000E+00  0.74505805969E-08  0.10566000000E+00  0.10566000000E+00 0.  1.
     999900   -1    0    0    0    0 -0.00000000000E+00 -0.00000000000E+00 -0.74505805969E-08  0.93827000000E+00  0.93827000000E+00 0. -1.
     999902    2    1    2    0    0 -0.22571410928E-01  0.87441910500E-02  0.38061133453E-03  0.10197210278E+01  0.10194336174E+01 0.  0.
     999903    2    3    3    0    0  0.66145872246E-01 -0.45686710476E-01  0.98830730934E-01  0.12813485397E+00  0.13728637796E-01 0.  0.
         14    1    1    2    0    0  0.22571410928E-01 -0.87441910500E-02 -0.38061133453E-03  0.24208972167E-01  0.00000000000E+00 0. -1.
     999901    1    3    3    0    0 -0.88717283174E-01  0.54430901526E-01 -0.98450119599E-01  0.89158617386E+00  0.88000000000E+00 0. -1.
        -11    1    4    4    0    0  0.17145500081E-01 -0.80599730620E-02  0.31431739047E-01  0.36703496826E-01  0.51100000000E-03 0. -1.
         11    1    4    4    0    0  0.49000372165E-01 -0.37626737414E-01  0.67398991887E-01  0.91431357144E-01  0.51100000000E-03 0.  1.
</event>
<event>
 8    1  0.1161271E+005  0.1043930E+01  0.7957747E-01            NaN
         13   -1    0    0    0    0  0.00000000000E+00  0.00000000000E+00  0.74505805969E-08  0.10566000000E+00  0.10566000000E+00 0.  1.
     999900   -1    0    0    0    0 -0.00000000000E+00 -0.00000000000E+00 -0.74505805969E-08  0.93827000000E+00  0.93827000000E+00 0.  1.
     999902    2    1    2    0    0  0.73328650763E-02 -0.46051608997E-02  0.19018437419E-01  0.10230331251E+01  0.10228196790E+01 0.  0.
     999903    2    3    3    0    0  0.45305154223E-01  0.11700964296E+00  0.44162109515E-01  0.13350276618E+00  0.11352669987E-01 0.  0.
         14    1    1    2    0    0 -0.73328650763E-02  0.46051608997E-02 -0.19018437419E-01  0.20896874862E-01  0.00000000000E+00 0. -1.
     999901    1    3    3    0    0 -0.37972289147E-01 -0.12161480386E+00 -0.25143672096E-01  0.88953035896E+00  0.88000000000E+00 0. -1.
        -11    1    4    4    0    0  0.18352737020E-01  0.56862655221E-01  0.25767916363E-01  0.65072506864E-01  0.51100000000E-03 0. -1.
         11    1    4    4    0    0  0.26952417204E-01  0.60146987740E-01  0.18394193152E-01  0.68430259316E-01  0.51100000000E-03 0.  1.
</event>
<event>
 8    1  0.1161271E+005  0.1043930E+01  0.7957747E-01            NaN
         13   -1    0    0    0    0  0.00000000000E+00  0.00000000000E+00  0.74505805969E-08  0.10566000000E+00  0.10566000000E+00 0.  1.
     999900   -1    0    0    0    0 -0.00000000000E+00 -0.00000000000E+00 -0.74505805969E-08  0.93827000000E+00  0.93827000000E+00 0. -1.
     999902    2    1    2    0    0 -0.97243078271E-02 -0.15254755321E-02  0.21393212951E-01  0.10203809279E+01  0.10201091506E+01 0.  0.
     999903    2    3    3    0    0  0.69762192364E-01 -0.36430183583E-01  0.10450149500E+00  0.13221234651E+00  0.19121201671E-01 0.  0.
         14    1    1    2    0    0  0.97243078271E-02  0.15254755321E-02 -0.21393212951E-01  0.23549072141E-01  0.00000000000E+00 0. -1.
     999901    1    3    3    0    0 -0.79486500191E-01  0.34904708051E-01 -0.83108282044E-01  0.88816858135E+00  0.88000000000E+00 0. -1.
        -11    1    4    4    0    0  0.62305484319E-01 -0.31975396363E-01  0.10083681411E+00  0.12277102080E+00  0.51100000000E-03 0.  1.
         11    1    4    4    0    0  0.74567080452E-02 -0.44547872199E-02  0.36646808896E-02  0.94413257050E-02  0.51100000000E-03 0. -1.
</event>
<event>
 8    1  0.1161271E+005  0.1043930E+01  0.7957747E-01            NaN
         13   -1    0    0    0    0  0.00000000000E+00  0.00000000000E+00  0.74505805969E-08  0.10566000000E+00  0.10566000000E+00 0. -1.
     999900   -1    0    0    0    0 -0.00000000000E+00 -0.00000000000E+00 -0.74505805969E-08  0.93827000000E+00  0.93827000000E+00 0.  1.
     999902    2    1    2    0    0 -0.21821157623E-01 -0.36667504036E-03  0.78822561682E-02  0.10207259630E+01  0.10204621817E+01 0.  0.
     999903    2    3    3    0    0  0.21536138067E-01 -0.12505157974E+00 -0.22005057530E-01  0.13037803547E+00  0.20310261897E-01 0.  0.
         14    1    1    2    0    0  0.21821157623E-01  0.36667504036E-03 -0.78822561682E-02  0.23204036995E-01  0.00000000000E+00 0.  1.
     999901    1    3    3    0    0 -0.43357295690E-01  0.12468490470E+00  0.29887313698E-01  0.89034792754E+00  0.88000000000E+00 0. -1.
        -11    1    4    4    0    0  0.19076459739E-01 -0.65987143586E-01 -0.18587082537E-01  0.71161472674E-01  0.51100000000E-03 0. -1.
         11    1    4    4    0    0  0.24596783286E-02 -0.59064436150E-01 -0.34179749929E-02  0.59216562795E-01  0.51100000000E-03 0.  1.
</event>
<event>
 8    1  0.1161271E+005  0.1043930E+01  0.7957747E-01            NaN
         13   -1    0    0    0    0  0.00000000000E+00  0.00000000000E+00  0.74505805969E-08  0.10566000000E+00  0.10566000000E+00 0. -1.
     999900   -1    0    0    0    0 -0.00000000000E+00 -0.00000000000E+00 -0.74505805969E-08  0.93827000000E+00  0.93827000000E+00 0.  1.
     999902    2    1    2    0    0 -0.55669381815E-02 -0.17903711111E-01 -0.14842074695E-01  0.10200172241E+01  0.10197368859E+01 0.  0.
     999903    2    3    3    0    0  0.24040483725E-01 -0.79920578505E-01 -0.10164098741E+00  0.13308050561E+00  0.20354039560E-01 0.  0.
         14    1    1    2    0    0  0.55669381815E-02  0.17903711111E-01  0.14842074695E-01  0.23912775947E-01  0.00000000000E+00 0. -1.
     999901    1    3    3    0    0 -0.29607421907E-01  0.62016867394E-01  0.86798912711E-01  0.88693671844E+00  0.88000000000E+00 0. -1.
        -11    1    4    4    0    0  0.13526403212E-01 -0.69531398260E-01 -0.79820019210E-01  0.10671961167E+00  0.51100000000E-03 0. -1.
         11    1    4    4    0    0  0.10514080513E-01 -0.10389180244E-01 -0.21820968196E-01  0.26360893938E-01  0.51100000000E-03 0.  1.
</event>
<event>
 8    1  0.1161271E+005  0.1043930E+01  0.7957747E-01            NaN
         13   -1    0    0    0    0  0.00000000000E+00  0.00000000000E+00  0.74505805969E-08  0.10566000000E+00  0.10566000000E+00 0. -1.
     999900   -1    0    0    0    0 -0.00000000000E+00 -0.00000000000E+00 -0.74505805969E-08  0.93827000000E+00  0.93827000000E+00 0. -1.
     999902    2    1    2    0    0 -0.22481429338E-01  0.63284762657E-02  0.22147130719E-01  0.10117436725E+01  0.10112315755E+01 0.  0.
     999903    2    3    3    0    0 -0.12203219857E+00 -0.20106085927E-02 -0.18779064399E-01  0.12514632907E+00  0.20323641005E-01 0.  0.
         14    1    1    2    0    0  0.22481429338E-01 -0.63284762657E-02 -0.22147130719E-01  0.32186327470E-01  0.00000000000E+00 0.  1.
     999901    1    3    3    0    0  0.99550769234E-01  0.83390848585E-02  0.40926195119E-01  0.88659734346E+00  0.88000000000E+00 0.  1.
        -11    1    4    4    0    0 -0.56836495753E-01 -0.66940661528E-02 -0.17204576625E-01  0.59761662870E-01  0.51100000000E-03 0.  1.
         11    1    4    4    0    0 -0.65195702818E-01  0.46834575600E-02 -0.15744877741E-02  0.65384666195E-01  0.51100000000E-03 0. -1.
</event>
<event>
 8    1  0.1161271E+005  0.1043930E+01  0.7957747E-01            NaN
         13   -1    0    0    0    0  0.00000000000E+00  0.00000000000E+00  0.74505805969E-08  0.10566000000E+00  0.10566000000E+00 0.  1.
     999900   -1    0    0    0    0 -0.00000000000E+00 -0.00000000000E+00 -0.74505805969E-08  0.93827000000E+00  0.93827000000E+00 0. -1.
     999902    2    1    2    0    0  0.31310160977E-02  0.15025597885E-01 -0.19473911481E-01  0.10191347367E+01  0.10188330611E+01 0.  0.
     999903    2    3    3    0    0  0.42478841849E-01  0.80577742972E-01 -0.94366190113E-01  0.13265056396E+00  0.19848667874E-01 0.  0.
         14    1    1    2    0    0 -0.31310160977E-02 -0.15025597885E-01  0.19473911481E-01  0.24795263297E-01  0.00000000000E+00 0.  1.
     999901    1    3    3    0    0 -0.39347825751E-01 -0.65552145087E-01  0.74892278632E-01  0.88648417274E+00  0.88000000000E+00 0.  1.
        -11    1    4    4    0    0  0.70392674395E-02  0.30313714614E-01 -0.39000104237E-01  0.49897312866E-01  0.51100000000E-03 0. -1.
         11    1    4    4    0    0  0.35439574409E-01  0.50264028358E-01 -0.55366085876E-01  0.82753251098E-01  0.51100000000E-03 0.  1.
</event>
<event>
 8    1  0.1161271E+005  0.1043930E+01  0.7957747E-01            NaN
         13   -1    0    0    0    0  0.00000000000E+00  0.00000000000E+00  0.74505805969E-08  0.10566000000E+00  0.10566000000E+00 0.  1.
     999900   -1    0    0    0    0 -0.00000000000E+00 -0.00000000000E+00 -0.74505805969E-08  0.93827000000E+00  0.93827000000E+00 0.  1.
     999902    2    1    2    0    0 -0.23269429114E-02 -0.50452291153E-02 -0.23968920303E-01  0.10193255666E+01  0.10190285730E+01 0.  0.
     999903    2    3    3    0    0 -0.28549788212E-01  0.10457265308E+00  0.64691131567E-01  0.12771784881E+00  0.19400418101E-01 0.  0.
         14    1    1    2    0    0  0.23269429114E-02  0.50452291153E-02  0.23968920303E-01  0.24604433353E-01  0.00000000000E+00 0.  1.
     999901    1    3    3    0    0  0.26222845301E-01 -0.10961788219E+00 -0.88660051870E-01  0.89160771784E+00  0.88000000000E+00 0.  1.
        -11    1    4    4    0    0 -0.64942972097E-02  0.58789570613E-01  0.31448096798E-01  0.66989800883E-01  0.51100000000E-03 0.  1.
         11    1    4    4    0    0 -0.22055491003E-01  0.45783082463E-01  0.33243034769E-01  0.60728047926E-01  0.51100000000E-03 0. -1.
</event>
<event>
 8    1  0.1161271E+005  0.1043930E+01  0.7957747E-01            NaN
         13   -1    0    0    0    0  0.00000000000E+00  0.00000000000E+00  0.74505805969E-08  0.10566000000E+00  0.10566000000E+00 0.  1.
     999900   -1    0    0    0    0 -0.00000000000E+00 -0.00000000000E+00 -0.74505805969E-08  0.93827000000E+00  0.93827000000E+00 0. -1.
     999902    2    1    2    0    0  0.10679764513E-01 -0.63064995339E-02 -0.22222708267E-01  0.10184804800E+01  0.10181624674E+01 0.  0.
     999903    2    3    3    0    0  0.11826064385E+00  0.49931239066E-01 -0.15154968824E-02  0.12990571248E+00  0.19861744238E-01 0.  0.
         14    1    1    2    0    0 -0.10679764513E-01  0.63064995339E-02  0.22222708267E-01  0.25449520018E-01  0.00000000000E+00 0.  1.
     999901    1    3    3    0    0 -0.10758087934E+00 -0.56237738599E-01 -0.20707211385E-01  0.88857476750E+00  0.88000000000E+00 0. -1.
        -11    1    4    4    0    0  0.42603106351E-01  0.13735484869E-01  0.80734075118E-02  0.45487682345E-01  0.51100000000E-03 0.  1.
         11    1    4    4    0    0  0.75657537503E-01  0.36195754197E-01 -0.95889043942E-02  0.84418030132E-01  0.51100000000E-03 0. -1.
</event>
<event>
 8    1  0.1161271E+005  0.1043930E+01  0.7957747E-01            NaN
         13   -1    0    0    0    0  0.00000000000E+00  0.00000000000E+00  0.74505805969E-08  0.10566000000E+00  0.10566000000E+00 0. -1.
     999900   -1    0    0    0    0 -0.00000000000E+00 -0.00000000000E+00 -0.74505805969E-08  0.93827000000E+00  0.93827000000E+00 0.  1.
     999902    2    1    2    0    0  0.11395727916E-01 -0.20343772220E-01  0.31214690126E-02  0.10204039453E+01  0.10201327052E+01 0.  0.
     999903    2    3    3    0    0 -0.83014700901E-01 -0.98164206685E-01 -0.20378236850E-01  0.13162861636E+00  0.19574679239E-01 0.  0.
         14    1    1    2    0    0 -0.11395727916E-01  0.20343772220E-01 -0.31214690126E-02  0.23526054741E-01  0.00000000000E+00 0.  1.
     999901    1    3    3    0    0  0.94410428817E-01  0.77820434465E-01  0.23499705862E-01  0.88877532890E+00  0.88000000000E+00 0. -1.
        -11    1    4    4    0    0 -0.15522480609E-01 -0.26679982889E-01 -0.11390785868E-01  0.32905622846E-01  0.51100000000E-03 0. -1.
         11    1    4    4    0    0 -0.67492220292E-01 -0.71484223796E-01 -0.89874509817E-02  0.98722993511E-01  0.51100000000E-03 0.  1.
</event>
<event>
 8    1  0.1161271E+005  0.1043930E+01  0.7957747E-01            NaN
         13   -1    0    0    0    0  0.00000000000E+00  0.00000000000E+00  0.74505805969E-08  0.10566000000E+00  0.10566000000E+00 0.  1.
     999900   -1    0    0    0    0 -0.00000000000E+00 -0.00000000000E+00 -0.74505805969E-08  0.93827000000E+00  0.93827000000E+00 0. -1.
     999902    2    1    2    0    0 -0.21403192846E-01  0.81006465958E-02 -0.77799720550E-03  0.10210319123E+01  0.10207751190E+01 0.  0.
     999903    2    3    3    0    0  0.90333715254E-01  0.67684955354E-01  0.60672382696E-01  0.12984642340E+00  0.20917035065E-01 0.  0.
         14    1    1    2    0    0  0.21403192846E-01 -0.81006465958E-02  0.77799720550E-03  0.22898087670E-01  0.00000000000E+00 0.  1.
     999901    1    3    3    0    0 -0.11173690810E+00 -0.59584308758E-01 -0.61450379901E-01  0.89118548893E+00  0.88000000000E+00 0. -1.
        -11    1    4    4    0    0  0.46361510175E-01  0.29543108986E-01  0.40327477264E-01  0.68181753114E-01  0.51100000000E-03 0.  1.
         11    1    4    4    0    0  0.43972205079E-01  0.38141846369E-01  0.20344905432E-01  0.61664670290E-01  0.51100000000E-03 0. -1.
</event>
<event>
 8    1  0.1161271E+005  0.1043930E+01  0.7957747E-01            NaN
         13   -1    0    0    0    0  0.00000000000E+00  0.00000000000E+00  0.74505805969E-08  0.10566000000E+00  0.10566000000E+00 0.  1.
     999900   -1    0    0    0    0 -0.00000000000E+00 -0.00000000000E+00 -0.74505805969E-08  0.93827000000E+00  0.93827000000E+00 0.  1.
     999902    2    1    2    0    0 -0.14045605628E-01 -0.19415784005E-01  0.77634155497E-02  0.10187402734E+01  0.10184288008E+01 0.  0.
     999903    2    3    3    0    0 -0.12613625445E+00  0.55985887600E-02  0.28916529251E-01  0.13102551817E+00  0.19743907070E-01 0.  0.
         14    1    1    2    0    0  0.14045605628E-01  0.19415784005E-01 -0.77634155497E-02  0.25189726616E-01  0.00000000000E+00 0.  1.
     999901    1    3    3    0    0  0.11209064882E+00 -0.25014372765E-01 -0.21153113702E-01  0.88771475521E+00  0.88000000000E+00 0.  1.
        -11    1    4    4    0    0 -0.80341217364E-01 -0.23732018906E-02  0.25873222168E-01  0.84439493373E-01  0.51100000000E-03 0.  1.
         11    1    4    4    0    0 -0.45795037085E-01  0.79717906506E-02  0.30433070836E-02  0.46586024801E-01  0.51100000000E-03 0. -1.
</event>
<event>
 8    1  0.1161271E+005  0.1043930E+01  0.7957747E-01            NaN
         13   -1    0    0    0    0  0.00000000000E+00  0.00000000000E+00  0.74505805969E-08  0.10566000000E+00  0.10566000000E+00 0. -1.
     999900   -1    0    0    0    0 -0.00000000000E+00 -0.00000000000E+00 -0.74505805969E-08  0.93827000000E+00  0.93827000000E+00 0. -1.
     999902    2    1    2    0    0 -0.22534397049E-01  0.23632446095E-02  0.58335661696E-02  0.10205331098E+01  0.10202648743E+01 0.  0.
     999903    2    3    3    0    0 -0.50211154712E-01 -0.80791839354E-01  0.89594096216E-01  0.13222201719E+00  0.20176183739E-01 0.  0.
         14    1    1    2    0    0  0.22534397049E-01 -0.23632446095E-02 -0.58335661696E-02  0.23396890172E-01  0.00000000000E+00 0. -1.
     999901    1    3    3    0    0  0.27676757663E-01  0.83155083964E-01 -0.83760530046E-01  0.88831109263E+00  0.88000000000E+00 0. -1.
        -11    1    4    4    0    0 -0.46991187616E-01 -0.60200169962E-01  0.71491864140E-01  0.10461156693E+00  0.51100000000E-03 0. -1.
         11    1    4    4    0    0 -0.32199670966E-02 -0.20591669392E-01  0.18102232076E-01  0.27610450261E-01  0.51100000000E-03 0.  1.
</event>
<event>
 8    1  0.1161271E+005  0.1043930E+01  0.7957747E-01            NaN
         13   -1    0    0    0    0  0.00000000000E+00  0.00000000000E+00  0.74505805969E-08  0.10566000000E+00  0.10566000000E+00 0. -1.
     999900   -1    0    0    0    0 -0.00000000000E+00 -0.00000000000E+00 -0.74505805969E-08  0.93827000000E+00  0.93827000000E+00 0.  1.
     999902    2    1    2    0    0 -0.23136625716E-02  0.17440102041E-01 -0.16275790218E-01  0.10199631157E+01  0.10196814924E+01 0.  0.
     999903    2    3    3    0    0  0.71655162068E-01 -0.88105908909E-01 -0.59312879563E-01  0.12953426485E+00  0.19078643880E-01 0.  0.
         14    1    1    2    0    0  0.23136625716E-02 -0.17440102041E-01  0.16275790218E-01  0.23966884256E-01  0.00000000000E+00 0. -1.
     999901    1    3    3    0    0 -0.73968824640E-01  0.10554601095E+00  0.43037089345E-01  0.89042885089E+00  0.88000000000E+00 0. -1.
        -11    1    4    4    0    0  0.10367966730E-01 -0.82652050182E-02 -0.12319042379E-02  0.13326179391E-01  0.51100000000E-03 0.  1.
         11    1    4    4    0    0  0.61287195338E-01 -0.79840703891E-01 -0.58080975325E-01  0.11620808546E+00  0.51100000000E-03 0. -1.
</event>
<event>
 8    1  0.1161271E+005  0.1043930E+01  0.7957747E-01            NaN
         13   -1    0    0    0    0  0.00000000000E+00  0.00000000000E+00  0.74505805969E-08  0.10566000000E+00  0.10566000000E+00 0. -1.
     999900   -1    0    0    0    0 -0.00000000000E+00 -0.00000000000E+00 -0.74505805969E-08  0.93827000000E+00  0.93827000000E+00 0. -1.
     999902    2    1    2    0    0 -0.13628595047E-01 -0.18167401561E-01 -0.10764907317E-02  0.10211934234E+01  0.10209402804E+01 0.  0.
     999903    2    3    3    0    0 -0.40693287808E-01  0.11439227383E+00  0.40723743670E-01  0.12987315285E+00  0.21611953827E-01 0.  0.
         14    1    1    2    0    0  0.13628595047E-01  0.18167401561E-01  0.10764907317E-02  0.22736576583E-01  0.00000000000E+00 0. -1.
     999901    1    3    3    0    0  0.27064692761E-01 -0.13255967539E+00 -0.41800234402E-01  0.89132027057E+00  0.88000000000E+00 0.  1.
        -11    1    4    4    0    0 -0.40613890956E-01  0.88248920869E-01  0.33199367368E-01  0.10266362203E+00  0.51100000000E-03 0. -1.
         11    1    4    4    0    0 -0.79396851872E-04  0.26143352956E-01  0.75243763020E-02  0.27209530819E-01  0.51100000000E-03 0.  1.
</event>
<event>
 8    1  0.1161271E+005  0.1043930E+01  0.7957747E-01            NaN
         13   -1    0    0    0    0  0.00000000000E+00  0.00000000000E+00  0.74505805969E-08  0.10566000000E+00  0.10566000000E+00 0. -1.
     999900   -1    0    0    0    0 -0.00000000000E+00 -0.00000000000E+00 -0.74505805969E-08  0.93827000000E+00  0.93827000000E+00 0.  1.
     999902    2    1    2    0    0 -0.16483724828E-01 -0.51784746901E-03 -0.16389214918E-01  0.10206794577E+01  0.10204146058E+01 0.  0.
     999903    2    3    3    0    0  0.30624321983E-01 -0.12394380945E+00  0.15301533547E-01  0.13025403149E+00  0.20786023939E-01 0.  0.
         14    1    1    2    0    0  0.16483724828E-01  0.51784746901E-03  0.16389214918E-01  0.23250542270E-01  0.00000000000E+00 0. -1.
     999901    1    3    3    0    0 -0.47108046812E-01  0.12342596198E+00 -0.31690748465E-01  0.89042542625E+00  0.88000000000E+00 0. -1.
        -11    1    4    4    0    0  0.22557179511E-01 -0.11541299033E+00  0.14124431802E-01  0.11844300477E+00  0.51100000000E-03 0. -1.
         11    1    4    4    0    0  0.80671424722E-02 -0.85308191217E-02  0.11771017451E-02  0.11811026715E-01  0.51100000000E-03 0.  1.
</event>
<event>
 8    1  0.1161271E+005  0.1043930E+01  0.7957747E-01            NaN
         13   -1    0    0    0    0  0.00000000000E+00  0.00000000000E+00  0.74505805969E-08  0.10566000000E+00  0.10566000000E+00 0.  1.
     999900   -1    0    0    0    0 -0.00000000000E+00 -0.00000000000E+00 -0.74505805969E-08  0.93827000000E+00  0.93827000000E+00 0.  1.
     999902    2    1    2    0    0 -0.14921481955E-01 -0.13738693685E-01 -0.12501554099E-01  0.10201037291E+01  0.10198254395E+01 0.  0.
     999903    2    3    3    0    0  0.74848066074E-01  0.77397839820E-01 -0.68294243229E-01  0.12910582586E+00  0.20286744690E-01 0.  0.
         14    1    1    2    0    0  0.14921481955E-01  0.13738693685E-01  0.12501554099E-01  0.23826270854E-01  0.00000000000E+00 0.  1.
     999901    1    3    3    0    0 -0.89769548029E-01 -0.91136533505E-01  0.55792689130E-01  0.89099790328E+00  0.88000000000E+00 0.  1.
        -11    1    4    4    0    0  0.49288867961E-01  0.36542624442E-01 -0.37393775192E-01  0.71856185886E-01  0.51100000000E-03 0.  1.
         11    1    4    4    0    0  0.25559198113E-01  0.40855215377E-01 -0.30900468037E-01  0.57249639978E-01  0.51100000000E-03 0. -1.
</event>
<event>
 8    1  0.1161271E+005  0.1043930E+01  0.7957747E-01            NaN
         13   -1    0    0    0    0  0.00000000000E+00  0.00000000000E+00  0.74505805969E-08  0.10566000000E+00  0.10566000000E+00 0. -1.
     999900   -1    0    0    0    0 -0.00000000000E+00 -0.00000000000E+00 -0.74505805969E-08  0.93827000000E+00  0.93827000000E+00 0.  1.
     999902    2    1    2    0    0 -0.20357934434E-01 -0.73365988683E-02 -0.10640311220E-01  0.10198159501E+01  0.10195308160E+01 0.  0.
     999903    2    3    3    0    0 -0.99846315624E-01 -0.85362158269E-01  0.96948723464E-02  0.13256180936E+00  0.14921727176E-01 0.  0.
         14    1    1    2    0    0  0.20357934434E-01  0.73365988683E-02  0.10640311220E-01  0.24114049851E-01  0.00000000000E+00 0. -1.
     999901    1    3    3    0    0  0.79488381190E-01  0.78025559400E-01 -0.20335183567E-01  0.88725414079E+00  0.88000000000E+00 0. -1.
        -11    1    4    4    0    0 -0.63494700932E-01 -0.63108935129E-01  0.83931831755E-02  0.89916746963E-01  0.51100000000E-03 0. -1.
         11    1    4    4    0    0 -0.36351614691E-01 -0.22253223140E-01  0.13016891710E-02  0.42645062393E-01  0.51100000000E-03 0.  1.
</event>
<event>
 8    1  0.1161271E+005  0.1043930E+01  0.7957747E-01            NaN
         13   -1    0    0    0    0  0.00000000000E+00  0.00000000000E+00  0.74505805969E-08  0.10566000000E+00  0.10566000000E+00 0. -1.
     999900   -1    0    0    0    0 -0.00000000000E+00 -0.00000000000E+00 -0.74505805969E-08  0.93827000000E+00  0.93827000000E+00 0.  1.
     999902    2    1    2    0    0  0.24136362582E-01  0.27127411335E-02 -0.21800440545E-02  0.10195440295E+01  0.10192523498E+01 0.  0.
     999903    2    3    3    0    0  0.61592455724E-01 -0.11141516006E+00 -0.23037515907E-01  0.13113918327E+00  0.21442708716E-01 0.  0.
         14    1    1    2    0    0 -0.24136362582E-01 -0.27127411335E-02  0.21800440545E-02  0.24385970459E-01  0.00000000000E+00 0. -1.
     999901    1    3    3    0    0 -0.37456093142E-01  0.11412790119E+00  0.20857471852E-01  0.88840484627E+00  0.88000000000E+00 0.  1.
        -11    1    4    4    0    0  0.60605627114E-02 -0.20089220752E-02 -0.12374392892E-02  0.65236926106E-02  0.51100000000E-03 0.  1.
         11    1    4    4    0    0  0.55531893012E-01 -0.10940623798E+00 -0.21800076618E-01  0.12461549066E+00  0.51100000000E-03 0. -1.
</event>
<event>
 8    1  0.1161271E+005  0.1043930E+01  0.7957747E-01            NaN
         13   -1    0    0    0    0  0.00000000000E+00  0.00000000000E+00  0.74505805969E-08  0.10566000000E+00  0.10566000000E+00 0.  1.
     999900   -1    0    0    0    0 -0.00000000000E+00 -0.00000000000E+00 -0.74505805969E-08  0.93827000000E+00  0.93827000000E+00 0.  1.
     999902    2    1    2    0    0 -0.16597755232E-01 -0.15077121709E-01  0.76633058864E-02  0.10202333476E+01  0.10199581130E+01 0.  0.
     999903    2    3    3    0    0  0.27825919457E-01 -0.12430433731E+00 -0.24288722869E-01  0.13179371564E+00  0.23532771943E-01 0.  0.
         14    1    1    2    0    0  0.16597755232E-01  0.15077121709E-01 -0.76633058864E-02  0.23696652398E-01  0.00000000000E+00 0.  1.
     999901    1    3    3    0    0 -0.44423674689E-01  0.10922721560E+00  0.31952028755E-01  0.88843963196E+00  0.88000000000E+00 0. -1.
        -11    1    4    4    0    0  0.23597344695E-01 -0.54229516653E-01 -0.14651998433E-01  0.60931250866E-01  0.51100000000E-03 0.  1.
         11    1    4    4    0    0  0.42285747623E-02 -0.70074820658E-01 -0.96367244358E-02  0.70862464772E-01  0.51100000000E-03 0. -1.
</event>
<event>
 8    1  0.1161271E+005  0.1043930E+01  0.7957747E-01            NaN
         13   -1    0    0    0    0  0.00000000000E+00  0.00000000000E+00  0.74505805969E-08  0.10566000000E+00  0.10566000000E+00 0.  1.
     999900   -1    0    0    0    0 -0.00000000000E+00 -0.00000000000E+00 -0.74505805969E-08  0.93827000000E+00  0.93827000000E+00 0. -1.
     999902    2    1    2    0    0  0.22096704465E-01  0.67298262451E-02 -0.52981095076E-03  0.10208251172E+01  0.10205636111E+01 0.  0.
     999903    2    3    3    0    0  0.54809674190E-01 -0.42261397997E-01 -0.11059609687E+00  0.13201418920E+00  0.20152502614E-01 0.  0.
         14    1    1    2    0    0 -0.22096704465E-01 -0.67298262451E-02  0.52981095076E-03  0.23104882799E-01  0.00000000000E+00 0. -1.
     999901    1    3    3    0    0 -0.32712969725E-01  0.48991224242E-01  0.11006628592E+00  0.88881092800E+00  0.88000000000E+00 0.  1.
        -11    1    4    4    0    0  0.16794916432E-01 -0.20661489001E-01 -0.56454991046E-01  0.62421098041E-01  0.51100000000E-03 0.  1.
         11    1    4    4    0    0  0.38014757758E-01 -0.21599908997E-01 -0.54141105823E-01  0.69593091157E-01  0.51100000000E-03 0. -1.
</event>
<event>
 8    1  0.1161271E+005  0.1043930E+01  0.7957747E-01            NaN
         13   -1    0    0    0    0  0.00000000000E+00  0.00000000000E+00  0.74505805969E-08  0.10566000000E+00  0.10566000000E+00 0.  1.
     999900   -1    0    0    0    0 -0.00000000000E+00 -0.00000000000E+00 -0.74505805969E-08  0.93827000000E+00  0.93827000000E+00 0. -1.
     999902    2    1    2    0    0  0.45100873177E-03  0.13363113565E-01 -0.58877532043E-02  0.10293203508E+01  0.10292166646E+01 0.  0.
     999903    2    3    3    0    0  0.26655984338E-01  0.12721382735E+00  0.48853799134E-01  0.13991306311E+00  0.17177664865E-01 0.  0.
         14    1    1    2    0    0 -0.45100873177E-03 -0.13363113565E-01  0.58877532043E-02  0.14609649237E-01  0.00000000000E+00 0. -1.
     999901    1    3    3    0    0 -0.26204975606E-01 -0.11385071378E+00 -0.54741552338E-01  0.88940728765E+00  0.88000000000E+00 0.  1.
        -11    1    4    4    0    0  0.22703455260E-01  0.74137625059E-01  0.23972556467E-01  0.81158973100E-01  0.51100000000E-03 0.  1.
         11    1    4    4    0    0  0.39525290780E-02  0.53076202288E-01  0.24881242667E-01  0.58754090012E-01  0.51100000000E-03 0. -1.
</event>
<event>
 8    1  0.1161271E+005  0.1043930E+01  0.7957747E-01            NaN
         13   -1    0    0    0    0  0.00000000000E+00  0.00000000000E+00  0.74505805969E-08  0.10566000000E+00  0.10566000000E+00 0. -1.
     999900   -1    0    0    0    0 -0.00000000000E+00 -0.00000000000E+00 -0.74505805969E-08  0.93827000000E+00  0.93827000000E+00 0.  1.
     999902    2    1    2    0    0  0.13911727779E-01  0.14743542852E-01  0.10080413645E-01  0.10212910300E+01  0.10210400800E+01 0.  0.
     999903    2    3    3    0    0 -0.44173413627E-02  0.86724442461E-01 -0.97039210358E-01  0.13168897368E+00  0.19614678581E-01 0.  0.
         14    1    1    2    0    0 -0.13911727779E-01 -0.14743542852E-01 -0.10080413645E-01  0.22638970049E-01  0.00000000000E+00 0.  1.
     999901    1    3    3    0    0  0.18329069141E-01 -0.71980899609E-01  0.10711962400E+00  0.88960205628E+00  0.88000000000E+00 0. -1.
        -11    1    4    4    0    0 -0.23517920779E-02  0.66881261373E-01 -0.85700728223E-01  0.10873596456E+00  0.51100000000E-03 0. -1.
         11    1    4    4    0    0 -0.20655492848E-02  0.19843181087E-01 -0.11338482135E-01  0.22953009120E-01  0.51100000000E-03 0.  1.
</event>
<event>
 8    1  0.1161271E+005  0.1043930E+01  0.7957747E-01            NaN
         13   -1    0    0    0    0  0.00000000000E+00  0.00000000000E+00  0.74505805969E-08  0.10566000000E+00  0.10566000000E+00 0. -1.
     999900   -1    0    0    0    0 -0.00000000000E+00 -0.00000000000E+00 -0.74505805969E-08  0.93827000000E+00  0.93827000000E+00 0. -1.
     999902    2    1    2    0    0  0.20689712844E-01 -0.12206998334E-01 -0.27868783664E-05  0.10199076139E+01  0.10196246691E+01 0.  0.
     999903    2    3    3    0    0  0.23467936127E-01 -0.80515196477E-01 -0.99546699914E-01  0.13166062175E+00  0.19787191951E-01 0.  0.
         14    1    1    2    0    0 -0.20689712844E-01  0.12206998334E-01  0.27868783664E-05  0.24022386094E-01  0.00000000000E+00 0. -1.
     999901    1    3    3    0    0 -0.27782232832E-02  0.68308198142E-01  0.99543913035E-01  0.88824699216E+00  0.88000000000E+00 0.  1.
        -11    1    4    4    0    0  0.15392291772E-01 -0.61828430895E-01 -0.86654992406E-01  0.10755940843E+00  0.51100000000E-03 0. -1.
         11    1    4    4    0    0  0.80756443543E-02 -0.18686765582E-01 -0.12891707507E-01  0.24101213312E-01  0.51100000000E-03 0.  1.
</event>
<event>
 8    1  0.1161271E+005  0.1043930E+01  0.7957747E-01            NaN
         13   -1    0    0    0    0  0.00000000000E+00  0.00000000000E+00  0.74505805969E-08  0.10566000000E+00  0.10566000000E+00 0.  1.
     999900   -1    0    0    0    0 -0.00000000000E+00 -0.00000000000E+00 -0.74505805969E-08  0.93827000000E+00  0.93827000000E+00 0. -1.
     999902    2    1    2    0    0  0.23529199292E-01  0.51784803062E-02 -0.69805849852E-02  0.10188467697E+01  0.10185379579E+01 0.  0.
     999903    2    3    3    0    0 -0.97772466195E-01 -0.17430131158E-01 -0.76915265253E-01  0.12749044199E+00  0.21785090156E-01 0.  0.
         14    1    1    2    0    0 -0.23529199292E-01 -0.51784803062E-02  0.69805849852E-02  0.25083230341E-01  0.00000000000E+00 0.  1.
     999901    1    3    3    0    0  0.12130166549E+00  0.22608611465E-01  0.69934680268E-01  0.89135632766E+00  0.88000000000E+00 0. -1.
        -11    1    4    4    0    0 -0.10859389211E-01  0.49149226780E-02 -0.93658961677E-02  0.15167858484E-01  0.51100000000E-03 0. -1.
         11    1    4    4    0    0 -0.86913076984E-01 -0.22345053836E-01 -0.67549369085E-01  0.11232258351E+00  0.51100000000E-03 0.  1.
</event>
<event>
 8    1  0.1161271E+005  0.1043930E+01  0.7957747E-01            NaN
         13   -1    0    0    0    0  0.00000000000E+00  0.00000000000E+00  0.74505805969E-08  0.10566000000E+00  0.10566000000E+00 0.  1.
     999900   -1    0    0    0    0 -0.00000000000E+00 -0.00000000000E+00 -0.74505805969E-08  0.93827000000E+00  0.93827000000E+00 0.  1.
     999902    2    1    2    0    0 -0.15495238478E-01  0.20560685742E-01  0.53778329295E-02  0.10176285685E+01  0.10172886208E+01 0.  0.
     999903    2    3    3    0    0  0.11976684261E+00 -0.18062760032E-01 -0.27283051108E-01  0.12585823117E+00  0.20629338013E-01 0.  0.
         14    1    1    2    0    0  0.15495238478E-01 -0.20560685742E-01 -0.53778329295E-02  0.26301431533E-01  0.00000000000E+00 0. -1.
     999901    1    3    3    0    0 -0.13526208108E+00  0.38623445775E-01  0.32660884037E-01  0.89177033730E+00  0.88000000000E+00 0.  1.
        -11    1    4    4    0    0  0.11104950171E+00 -0.14727713131E-01 -0.30277874353E-01  0.11604269973E+00  0.51100000000E-03 0. -1.
         11    1    4    4    0    0  0.87173408977E-02 -0.33350469018E-02  0.29948232452E-02  0.98155314392E-02  0.51100000000E-03 0.  1.
</event>
<event>
 8    1  0.1161271E+005  0.1043930E+01  0.7957747E-01            NaN
         13   -1    0    0    0    0  0.00000000000E+00  0.00000000000E+00  0.74505805969E-08  0.10566000000E+00  0.10566000000E+00 0.  1.
     999900   -1    0    0    0    0 -0.00000000000E+00 -0.00000000000E+00 -0.74505805969E-08  0.93827000000E+00  0.93827000000E+00 0. -1.
     999902    2    1    2    0    0  0.30010380913E-02 -0.20627496201E-01  0.82220698204E-02  0.10215223615E+01  0.10212765702E+01 0.  0.
     999903    2    3    3    0    0  0.11154699075E+00 -0.66959304145E-01 -0.19910528476E-01  0.13319792568E+00  0.20468969281E-01 0.  0.
         14    1    1    2    0    0 -0.30010380913E-02  0.20627496201E-01 -0.82220698204E-02  0.22407638459E-01  0.00000000000E+00 0.  1.
     999901    1    3    3    0    0 -0.10854595266E+00  0.46331807943E-01  0.28132598296E-01  0.88832443586E+00  0.88000000000E+00 0. -1.
        -11    1    4    4    0    0  0.74200405462E-01 -0.33433398674E-01 -0.15131402121E-01  0.82781113599E-01  0.51100000000E-03 0. -1.
         11    1    4    4    0    0  0.37346585289E-01 -0.33525905471E-01 -0.47791263548E-02  0.50416812078E-01  0.51100000000E-03 0.  1.
</event>
<event>
 8    1  0.1161271E+005  0.1043930E+01  0.7957747E-01            NaN
         13   -1    0    0    0    0  0.00000000000E+00  0.00000000000E+00  0.74505805969E-08  0.10566000000E+00  0.10566000000E+00 0. -1.
     999900   -1    0    0    0    0 -0.00000000000E+00 -0.00000000000E+00 -0.74505805969E-08  0.93827000000E+00  0.93827000000E+00 0.  1.
     999902    2    1    2    0    0  0.43878941340E-02 -0.24726496446E-01  0.27652549596E-02  0.10186654027E+01  0.10183520525E+01 0.  0.
     999903    2    3    3    0    0  0.18830056170E-01 -0.10191839137E+00 -0.78302316910E-01  0.13145679370E+00  0.20191737438E-01 0.  0.
         14    1    1    2    0    0 -0.43878941340E-02  0.24726496446E-01 -0.27652549596E-02  0.25264597293E-01  0.00000000000E+00 0.  1.
     999901    1    3    3    0    0 -0.14442162036E-01  0.77191894928E-01  0.81067571870E-01  0.88720860901E+00  0.88000000000E+00 0. -1.
        -11    1    4    4    0    0 -0.11639645382E-02 -0.37968050880E-01 -0.35167439274E-01  0.51768113807E-01  0.51100000000E-03 0.  1.
         11    1    4    4    0    0  0.19994020708E-01 -0.63950340493E-01 -0.43134877636E-01  0.79688679893E-01  0.51100000000E-03 0. -1.
</event>
<event>
 8    1  0.1161271E+005  0.1043930E+01  0.7957747E-01            NaN
         13   -1    0    0    0    0  0.00000000000E+00  0.00000000000E+00  0.74505805969E-08  0.10566000000E+00  0.10566000000E+00 0. -1.
     999900   -1    0    0    0    0 -0.00000000000E+00 -0.00000000000E+00 -0.74505805969E-08  0.93827000000E+00  0.93827000000E+00 0. -1.
     999902    2    1    2    0    0  0.30352536049E-02 -0.19710530697E-01  0.13451528776E-01  0.10198746178E+01  0.10195908859E+01 0.  0.
     999903    2    3    3    0    0  0.24134241615E-01 -0.41838201875E-01 -0.11843919148E+00  0.12952077625E+00  0.20368913743E-01 0.  0.
         14    1    1    2    0    0 -0.30352536049E-02  0.19710530697E-01 -0.13451528776E-01  0.24055382167E-01  0.00000000000E+00 0.  1.
     999901    1    3    3    0    0 -0.21098988010E-01  0.22127671178E-01  0.13189072026E+00  0.89035384158E+00  0.88000000000E+00 0.  1.
        -11    1    4    4    0    0  0.61731277951E-02 -0.66391772142E-02 -0.47092158838E-01  0.47959553020E-01  0.51100000000E-03 0. -1.
         11    1    4    4    0    0  0.17961113820E-01 -0.35199024660E-01 -0.71347032647E-01  0.81561223233E-01  0.51100000000E-03 0.  1.
</event>
<event>
 8    1  0.1161271E+005  0.1043930E+01  0.7957747E-01            NaN
         13   -1    0    0    0    0  0.00000000000E+00  0.00000000000E+00  0.74505805969E-08  0.10566000000E+00  0.10566000000E+00 0. -1.
     999900   -1    0    0    0    0 -0.00000000000E+00 -0.00000000000E+00 -0.74505805969E-08  0.93827000000E+00  0.93827000000E+00 0.  1.
     999902    2    1    2    0    0 -0.22174870720E-01  0.54440665225E-02 -0.56250197253E-02  0.10204139715E+01  0.10201429652E+01 0.  0.
     999903    2    3    3    0    0  0.52637118607E-01 -0.11413971652E+00  0.19945273173E-01  0.12881375006E+00  0.19915499971E-01 0.  0.
         14    1    1    2    0    0  0.22174870720E-01 -0.54440665225E-02  0.56250197253E-02  0.23516028548E-01  0.00000000000E+00 0.  1.
     999901    1    3    3    0    0 -0.74811989327E-01  0.11958378304E+00 -0.25570292898E-01  0.89160022140E+00  0.88000000000E+00 0.  1.
        -11    1    4    4    0    0  0.30128143740E-01 -0.43548364375E-01  0.11953068566E-01  0.54289060170E-01  0.51100000000E-03 0. -1.
         11    1    4    4    0    0  0.22508974867E-01 -0.70591352145E-01  0.79922046066E-02  0.74524689887E-01  0.51100000000E-03 0.  1.
</event>
<event>
 8    1  0.1161271E+005  0.1043930E+01  0.7957747E-01            NaN
         13   -1    0    0    0    0  0.00000000000E+00  0.00000000000E+00  0.74505805969E-08  0.10566000000E+00  0.10566000000E+00 0. -1.
     999900   -1    0    0    0    0 -0.00000000000E+00 -0.00000000000E+00 -0.74505805969E-08  0.93827000000E+00  0.93827000000E+00 0.  1.
     999902    2    1    2    0    0 -0.77395609828E-02 -0.15362268262E-01  0.16304516343E-01  0.10202290012E+01  0.10199536644E+01 0.  0.
     999903    2    3    3    0    0 -0.87865452565E-01 -0.68623018492E-01  0.70507012939E-01  0.13332721598E+00  0.19376563813E-01 0.  0.
         14    1    1    2    0    0  0.77395609828E-02  0.15362268262E-01 -0.16304516343E-01  0.23700998788E-01  0.00000000000E+00 0.  1.
     999901    1    3    3    0    0  0.80125891582E-01  0.53260750230E-01 -0.54202496596E-01  0.88690178524E+00  0.88000000000E+00 0. -1.
        -11    1    4    4    0    0 -0.65985124644E-01 -0.55897976829E-01  0.45404997625E-01  0.97675459652E-01  0.51100000000E-03 0. -1.
         11    1    4    4    0    0 -0.21880327920E-01 -0.12725041663E-01  0.25102015314E-01  0.35651756325E-01  0.51100000000E-03 0.  1.
</event>
<event>
 8    1  0.1161271E+005  0.1043930E+01  0.7957747E-01            NaN
         13   -1    0    0    0    0  0.00000000000E+00  0.00000000000E+00  0.74505805969E-08  0.10566000000E+00  0.10566000000E+00 0. -1.
     999900   -1    0    0    0    0 -0.00000000000E+00 -0.00000000000E+00 -0.74505805969E-08  0.93827000000E+00  0.93827000000E+00 0.  1.
     999902    2    1    2    0    0  0.67317064171E-02 -0.20630326551E-01  0.10046649492E-01  0.10200163760E+01  0.10197360178E+01 0.  0.
     999903    2    3    3    0    0  0.12646552051E+00 -0.31033225125E-01  0.80256704229E-02  0.13184494501E+00  0.19028641598E-01 0.  0.
         14    1    1    2    0    0 -0.67317064171E-02  0.20630326551E-01 -0.10046649492E-01  0.23913623960E-01  0.00000000000E+00 0. -1.
     999901    1    3    3    0    0 -0.11973381409E+00  0.10402898573E-01  0.20209790692E-02  0.88817143103E+00  0.88000000000E+00 0. -1.
        -11    1    4    4    0    0  0.12359841177E+00 -0.27909744905E-01  0.53888690539E-02  0.12682595272E+00  0.51100000000E-03 0.  1.
         11    1    4    4    0    0  0.28671087404E-02 -0.31234802192E-02  0.26368013690E-02  0.50189922962E-02  0.51100000000E-03 0. -1.
</event>
<event>
 8    1  0.1161271E+005  0.1043930E+01  0.7957747E-01            NaN
         13   -1    0    0    0    0  0.00000000000E+00  0.00000000000E+00  0.74505805969E-08  0.10566000000E+00  0.10566000000E+00 0. -1.
     999900   -1    0    0    0    0 -0.00000000000E+00 -0.00000000000E+00 -0.74505805969E-08  0.93827000000E+00  0.93827000000E+00 0.  1.
     999902    2    1    2    0    0 -0.19205227184E-02  0.22804517591E-01 -0.44813714129E-02  0.10206101132E+01  0.10203436608E+01 0.  0.
     999903    2    3    3    0    0 -0.48674589583E-02  0.60338066809E-01 -0.11643568830E+00  0.13271866668E+00  0.19814149342E-01 0.  0.
         14    1    1    2    0    0  0.19205227184E-02 -0.22804517591E-01  0.44813714129E-02  0.23319886788E-01  0.00000000000E+00 0. -1.
     999901    1    3    3    0    0  0.29469362400E-02 -0.37533549218E-01  0.11195431688E+00  0.88789144653E+00  0.88000000000E+00 0. -1.
        -11    1    4    4    0    0  0.29796809301E-02  0.98415892553E-02 -0.35810322854E-01  0.37260914125E-01  0.51100000000E-03 0.  1.
         11    1    4    4    0    0 -0.78471398884E-02  0.50496477553E-01 -0.80625365443E-01  0.95457752558E-01  0.51100000000E-03 0. -1.
</event>
<event>
 8    1  0.1161271E+005  0.1043930E+01  0.7957747E-01            NaN
         13   -1    0    0    0    0  0.00000000000E+00  0.00000000000E+00  0.74505805969E-08  0.10566000000E+00  0.10566000000E+00 0.  1.
     999900   -1    0    0    0    0 -0.00000000000E+00 -0.00000000000E+00 -0.74505805969E-08  0.93827000000E+00  0.93827000000E+00 0.  1.
     999902    2    1    2    0    0 -0.13881304771E-01 -0.92854724654E-02  0.15604049371E-01  0.10210739947E+01  0.10208181551E+01 0.  0.
     999903    2    3    3    0    0  0.12136605962E+00 -0.18366036336E-01  0.40183853977E-01  0.13035604103E+00  0.17633025694E-01 0.  0.
         14    1    1    2    0    0  0.13881304771E-01  0.92854724654E-02 -0.15604049371E-01  0.22856005290E-01  0.00000000000E+00 0. -1.
     999901    1    3    3    0    0 -0.13524736439E+00  0.90805638707E-02 -0.24579804606E-01  0.89071795368E+00  0.88000000000E+00 0. -1.
        -11    1    4    4    0    0  0.10311659790E+00 -0.11424378300E-01  0.38830822871E-01  0.11077744856E+00  0.51100000000E-03 0. -1.
         11    1    4    4    0    0  0.18249461713E-01 -0.69416580359E-02  0.13530311059E-02  0.19578592474E-01  0.51100000000E-03 0.  1.
</event>
<event>
 8    1  0.1161271E+005  0.1043930E+01  0.7957747E-01            NaN
         13   -1    0    0    0    0  0.00000000000E+00  0.00000000000E+00  0.74505805969E-08  0.10566000000E+00  0.10566000000E+00 0. -1.
     999900   -1    0    0    0    0 -0.00000000000E+00 -0.00000000000E+00 -0.74505805969E-08  0.93827000000E+00  0.93827000000E+00 0. -1.
     999902    2    1    2    0    0  0.18573688188E-01  0.13471140313E-01 -0.54435254695E-02  0.10203485352E+01  0.10200760010E+01 0.  0.
     999903    2    3    3    0    0 -0.27751766121E-01 -0.12334478953E+00 -0.14726810386E-01  0.12852409854E+00  0.17817613071E-01 0.  0.
         14    1    1    2    0    0 -0.18573688188E-01 -0.13471140313E-01  0.54435254695E-02  0.23581464835E-01  0.00000000000E+00 0.  1.
     999901    1    3    3    0    0  0.46325454309E-01  0.13681592984E+00  0.92832849167E-02  0.89182443662E+00  0.88000000000E+00 0.  1.
        -11    1    4    4    0    0 -0.18669647402E-01 -0.56315900299E-01 -0.13602771898E-01  0.60871445563E-01  0.51100000000E-03 0. -1.
         11    1    4    4    0    0 -0.90821187190E-02 -0.67028889230E-01 -0.11240384885E-02  0.67652652981E-01  0.51100000000E-03 0.  1.
</event>
<event>
 8    1  0.1161271E+005  0.1043930E+01  0.7957747E-01            NaN
         13   -1    0    0    0    0  0.00000000000E+00  0.00000000000E+00  0.74505805969E-08  0.10566000000E+00  0.10566000000E+00 0.  1.
     999900   -1    0    0    0    0 -0.00000000000E+00 -0.00000000000E+00 -0.74505805969E-08  0.93827000000E+00  0.93827000000E+00 0.  1.
     999902    2    1    2    0    0 -0.18018904800E-01 -0.15538580113E-01  0.49272846782E-03  0.10201314458E+01  0.10198538108E+01 0.  0.
     999903    2    3    3    0    0 -0.11745069815E+00 -0.45037808572E-01 -0.38733875327E-01  0.13317281514E+00  0.20288294549E-01 0.  0.
         14    1    1    2    0    0  0.18018904800E-01  0.15538580113E-01 -0.49272846782E-03  0.23798554231E-01  0.00000000000E+00 0.  1.
     999901    1    3    3    0    0  0.99431793353E-01  0.29499228459E-01  0.39226603795E-01  0.88695863063E+00  0.88000000000E+00 0. -1.
        -11    1    4    4    0    0 -0.95934032936E-01 -0.43631201643E-01 -0.27824862196E-01  0.10900231424E+00  0.51100000000E-03 0. -1.
         11    1    4    4    0    0 -0.21516665218E-01 -0.14066069291E-02 -0.10909013131E-01  0.24170500897E-01  0.51100000000E-03 0.  1.
</event>
<event>
 8    1  0.1161271E+005  0.1043930E+01  0.7957747E-01            NaN
         13   -1    0    0    0    0  0.00000000000E+00  0.00000000000E+00  0.74505805969E-08  0.10566000000E+00  0.10566000000E+00 0. -1.
     999900   -1    0    0    0    0 -0.00000000000E+00 -0.00000000000E+00 -0.74505805969E-08  0.93827000000E+00  0.93827000000E+00 0.  1.
     999902    2    1    2    0    0  0.20920229319E-01  0.59145021163E-02 -0.94728118866E-02  0.10202156268E+01  0.10199399755E+01 0.  0.
     999903    2    3    3    0    0 -0.20588255697E-01 -0.10207456492E+00  0.73158195627E-01  0.12880524079E+00  0.19889077187E-01 0.  0.
         14    1    1    2    0    0 -0.20920229319E-01 -0.59145021163E-02  0.94728118866E-02  0.23714373175E-01  0.00000000000E+00 0. -1.
     999901    1    3    3    0    0  0.41508485015E-01  0.10798906704E+00 -0.82631007514E-01  0.89141038603E+00  0.88000000000E+00 0.  1.
        -11    1    4    4    0    0 -0.45597447860E-02 -0.73871630893E-02  0.11503540521E-02  0.87718804408E-02  0.51100000000E-03 0.  1.
         11    1    4    4    0    0 -0.16028510911E-01 -0.94687401831E-01  0.72007841575E-01  0.12003336035E+00  0.51100000000E-03 0. -1.
</event>
<event>
 8    1  0.1161271E+005  0.1043930E+01  0.7957747E-01            NaN
         13   -1    0    0    0    0  0.00000000000E+00  0.00000000000E+00  0.74505805969E-08  0.10566000000E+00  0.10566000000E+00 0.  1.
     999900   -1    0    0    0    0 -0.00000000000E+00 -0.00000000000E+00 -0.74505805969E-08  0.93827000000E+00  0.93827000000E+00 0.  1.
     999902    2    1    2    0    0  0.16927792421E-01 -0.89937957618E-02  0.13181083785E-01  0.10206667352E+01  0.10204015900E+01 0.  0.
     999903    2    3    3    0    0 -0.88629888077E-01  0.68271280233E-01  0.62645765322E-01  0.12962292564E+00  0.19010159717E-01 0.  0.
         14    1    1    2    0    0 -0.16927792421E-01  0.89937957618E-02 -0.13181083785E-01  0.23263264779E-01  0.00000000000E+00 0. -1.
     999901    1    3    3    0    0  0.10555768050E+00 -0.77265075995E-01 -0.49464681537E-01  0.89104380959E+00  0.88000000000E+00 0. -1.
        -11    1    4    4    0    0 -0.29143965016E-01  0.15873506859E-01  0.10811943656E-01  0.34906993046E-01  0.51100000000E-03 0.  1.
         11    1    4    4    0    0 -0.59485923061E-01  0.52397773373E-01  0.51833821666E-01  0.94715932590E-01  0.51100000000E-03 0. -1.
</event>
<event>
 8    1  0.1161271E+005  0.1043930E+01  0.7957747E-01            NaN
         13   -1    0    0    0    0  0.00000000000E+00  0.00000000000E+00  0.74505805969E-08  0.10566000000E+00  0.10566000000E+00 0. -1.
     999900   -1    0    0    0    0 -0.00000000000E+00 -0.00000000000E+00 -0.74505805969E-08  0.93827000000E+00  0.93827000000E+00 0.  1.
     999902    2    1    2    0    0  0.14143886264E-01 -0.23316692840E-01  0.70430227871E-04  0.10166587213E+01  0.10162928873E+01 0.  0.
     999903    2    3    3    0    0 -0.20989666816E-01 -0.12434330144E+00 -0.23780312425E-01  0.12986133734E+00  0.19915846779E-01 0.  0.
         14    1    1    2    0    0 -0.14143886264E-01  0.23316692840E-01 -0.70430227871E-04  0.27271278739E-01  0.00000000000E+00 0. -1.
     999901    1    3    3    0    0  0.35133553080E-01  0.10102660860E+00  0.23850742652E-01  0.88679738392E+00  0.88000000000E+00 0. -1.
        -11    1    4    4    0    0 -0.18252061147E-01 -0.53132947210E-01 -0.67230174596E-02  0.56583636328E-01  0.51100000000E-03 0. -1.
         11    1    4    4    0    0 -0.27376056687E-02 -0.71210354226E-01 -0.17057294965E-01  0.73277701017E-01  0.51100000000E-03 0.  1.
</event>
<event>
 8    1  0.1161271E+005  0.1043930E+01  0.7957747E-01            NaN
         13   -1    0    0    0    0  0.00000000000E+00  0.00000000000E+00  0.74505805969E-08  0.10566000000E+00  0.10566000000E+00 0. -1.
     999900   -1    0    0    0    0 -0.00000000000E+00 -0.00000000000E+00 -0.74505805969E-08  0.93827000000E+00  0.93827000000E+00 0. -1.
     999902    2    1    2    0    0 -0.15193919651E-01 -0.32355872609E-02 -0.19166751985E-01  0.10192583847E+01  0.10189597471E+01 0.  0.
     999903    2    3    3    0    0  0.12007919522E+00 -0.28144298983E-01  0.26670474869E-01  0.12739499221E+00  0.17522988314E-01 0.  0.
         14    1    1    2    0    0  0.15193919651E-01  0.32355872609E-02  0.19166751985E-01  0.24671615288E-01  0.00000000000E+00 0. -1.
     999901    1    3    3    0    0 -0.13527311487E+00  0.24908711722E-01 -0.45837226854E-01  0.89186339251E+00  0.88000000000E+00 0. -1.
        -11    1    4    4    0    0  0.77726245914E-01 -0.24106910934E-01  0.11326833352E-01  0.82164899644E-01  0.51100000000E-03 0.  1.
         11    1    4    4    0    0  0.42352949306E-01 -0.40373880486E-02  0.15343641517E-01  0.45230092562E-01  0.51100000000E-03 0. -1.
</event>
<event>
 8    1  0.1161271E+005  0.1043930E+01  0.7957747E-01            NaN
         13   -1    0    0    0    0  0.00000000000E+00  0.00000000000E+00  0.74505805969E-08  0.10566000000E+00  0.10566000000E+00 0.  1.
     999900   -1    0    0    0    0 -0.00000000000E+00 -0.00000000000E+00 -0.74505805969E-08  0.93827000000E+00  0.93827000000E+00 0.  1.
     999902    2    1    2    0    0 -0.17192498014E-02 -0.24000083842E-01  0.30442682734E-03  0.10198664899E+01  0.10195825639E+01 0.  0.
     999903    2    3    3    0    0  0.74466307691E-01 -0.95937907398E-01 -0.48390072602E-01  0.13231342446E+00  0.20394364661E-01 0.  0.
         14    1    1    2    0    0  0.17192498014E-02  0.24000083842E-01 -0.30442682734E-03  0.24063510135E-01  0.00000000000E+00 0.  1.
     999901    1    3    3    0    0 -0.76185557493E-01  0.71937823556E-01  0.48694499429E-01  0.88755306540E+00  0.88000000000E+00 0. -1.
        -11    1    4    4    0    0  0.28648841716E-01 -0.44067490341E-01 -0.30722813162E-01  0.60883924038E-01  0.51100000000E-03 0. -1.
         11    1    4    4    0    0  0.45817465976E-01 -0.51870417057E-01 -0.17667259440E-01  0.71429500427E-01  0.51100000000E-03 0.  1.
</event>
<event>
 8    1  0.1161271E+005  0.1043930E+01  0.7957747E-01            NaN
         13   -1    0    0    0    0  0.00000000000E+00  0.00000000000E+00  0.74505805969E-08  0.10566000000E+00  0.10566000000E+00 0.  1.
     999900   -1    0    0    0    0 -0.00000000000E+00 -0.00000000000E+00 -0.74505805969E-08  0.93827000000E+00  0.93827000000E+00 0. -1.
     999902    2    1    2    0    0  0.11792958862E-01 -0.10384841635E-02 -0.21138756411E-01  0.10197019305E+01  0.10194140610E+01 0.  0.
     999903    2    3    3    0    0  0.38168972851E-01 -0.63885452362E-01  0.10278143756E+00  0.12840980669E+00  0.19668071493E-01 0.  0.
         14    1    1    2    0    0 -0.11792958862E-01  0.10384841635E-02  0.21138756411E-01  0.24228069479E-01  0.00000000000E+00 0.  1.
     999901    1    3    3    0    0 -0.26376013989E-01  0.62846968198E-01 -0.12392019397E+00  0.89129212383E+00  0.88000000000E+00 0. -1.
        -11    1    4    4    0    0  0.11986826933E-01 -0.22578124104E-01  0.51772606366E-01  0.57741835777E-01  0.51100000000E-03 0. -1.
         11    1    4    4    0    0  0.26182145919E-01 -0.41307328258E-01  0.51008831191E-01  0.70667970915E-01  0.51100000000E-03 0.  1.
</event>
<event>
 8    1  0.1161271E+005  0.1043930E+01  0.7957747E-01            NaN
         13   -1    0    0    0    0  0.00000000000E+00  0.00000000000E+00  0.74505805969E-08  0.10566000000E+00  0.10566000000E+00 0. -1.
     999900   -1    0    0    0    0 -0.00000000000E+00 -0.00000000000E+00 -0.74505805969E-08  0.93827000000E+00  0.93827000000E+00 0. -1.
     999902    2    1    2    0    0  0.13786188778E-01 -0.20863617231E-01  0.19916855504E-02  0.10188438218E+01  0.10185349365E+01 0.  0.
     999903    2    3    3    0    0 -0.10069642991E+00  0.35413398441E-01 -0.66031735088E-01  0.12704756804E+00  0.19672689709E-01 0.  0.
         14    1    1    2    0    0 -0.13786188778E-01  0.20863617231E-01 -0.19916855504E-02  0.25086178193E-01  0.00000000000E+00 0.  1.
     999901    1    3    3    0    0  0.11448261869E+00 -0.56277015672E-01  0.68023420638E-01  0.89179625377E+00  0.88000000000E+00 0.  1.
        -11    1    4    4    0    0 -0.96204674042E-01  0.29939849106E-01 -0.57727886987E-01  0.11612279677E+00  0.51100000000E-03 0.  1.
         11    1    4    4    0    0 -0.44917558698E-02  0.54735493347E-02 -0.83038481007E-02  0.10924771274E-01  0.51100000000E-03 0. -1.
</event>
<event>
 8    1  0.1161271E+005  0.1043930E+01  0.7957747E-01            NaN
         13   -1    0    0    0    0  0.00000000000E+00  0.00000000000E+00  0.74505805969E-08  0.10566000000E+00  0.10566000000E+00 0. -1.
     999900   -1    0    0    0    0 -0.00000000000E+00 -0.00000000000E+00 -0.74505805969E-08  0.93827000000E+00  0.93827000000E+00 0. -1.
     999902    2    1    2    0    0  0.52910421507E-02  0.18108354268E-01  0.15777950133E-01  0.10193362745E+01  0.10190395425E+01 0.  0.
     999903    2    3    3    0    0  0.28048178446E-01 -0.59703295486E-01  0.11114547840E+00  0.13047885879E+00  0.17895010941E-01 0.  0.
         14    1    1    2    0    0 -0.52910421507E-02 -0.18108354268E-01 -0.15777950133E-01  0.24593725455E-01  0.00000000000E+00 0.  1.
     999901    1    3    3    0    0 -0.22757136295E-01  0.77811649754E-01 -0.95367528269E-01  0.88885741575E+00  0.88000000000E+00 0. -1.
        -11    1    4    4    0    0  0.13470609016E-01 -0.20740429803E-01  0.27049923695E-01  0.36654907292E-01  0.51100000000E-03 0.  1.
         11    1    4    4    0    0  0.14577569430E-01 -0.38962865683E-01  0.84095554708E-01  0.93823951501E-01  0.51100000000E-03 0. -1.
</event>
<event>
 8    1  0.1161271E+005  0.1043930E+01  0.7957747E-01            NaN
         13   -1    0    0    0    0  0.00000000000E+00  0.00000000000E+00  0.74505805969E-08  0.10566000000E+00  0.10566000000E+00 0.  1.
     999900   -1    0    0    0    0 -0.00000000000E+00 -0.00000000000E+00 -0.74505805969E-08  0.93827000000E+00  0.93827000000E+00 0.  1.
     999902    2    1    2    0    0 -0.84964875107E-02  0.10421816502E-01  0.18694802520E-01  0.10209017521E+01  0.10206419976E+01 0.  0.
     999903    2    3    3    0    0 -0.32814130658E-01  0.11094769715E+00 -0.58820191048E-01  0.13146070591E+00  0.20879263636E-01 0.  0.
         14    1    1    2    0    0  0.84964875107E-02 -0.10421816502E-01 -0.18694802520E-01  0.23028247881E-01  0.00000000000E+00 0. -1.
     999901    1    3    3    0    0  0.24317643147E-01 -0.10052588065E+00  0.77514993567E-01  0.88944104621E+00  0.88000000000E+00 0. -1.
        -11    1    4    4    0    0 -0.20742922501E-01  0.85682347794E-01 -0.35579634757E-01  0.95067897251E-01  0.51100000000E-03 0.  1.
         11    1    4    4    0    0 -0.12071208157E-01  0.25265349359E-01 -0.23240556290E-01  0.36392808662E-01  0.51100000000E-03 0. -1.
</event>
<event>
 8    1  0.1161271E+005  0.1043930E+01  0.7957747E-01            NaN
         13   -1    0    0    0    0  0.00000000000E+00  0.00000000000E+00  0.74505805969E-08  0.10566000000E+00  0.10566000000E+00 0. -1.
     999900   -1    0    0    0    0 -0.00000000000E+00 -0.00000000000E+00 -0.74505805969E-08  0.93827000000E+00  0.93827000000E+00 0.  1.
     999902    2    1    2    0    0  0.93563343149E-02 -0.31992247493E-02 -0.21985277693E-01  0.10198233937E+01  0.10195384377E+01 0.  0.
     999903    2    3    3    0    0  0.11949705611E+00 -0.45712866956E-01 -0.26686552858E-01  0.13192672724E+00  0.17979895240E-01 0.  0.
         14    1    1    2    0    0 -0.93563343149E-02  0.31992247493E-02  0.21985277693E-01  0.24106606274E-01  0.00000000000E+00 0. -1.
     999901    1    3    3    0    0 -0.11014072179E+00  0.42513642207E-01  0.47012751654E-02  0.88789666649E+00  0.88000000000E+00 0.  1.
        -11    1    4    4    0    0  0.60467525890E-01 -0.24705960013E-01 -0.22654848217E-01  0.69139058542E-01  0.51100000000E-03 0.  1.
         11    1    4    4    0    0  0.59029530218E-01 -0.21006906944E-01 -0.40317046410E-02  0.62787668697E-01  0.51100000000E-03 0. -1.
</event>
<event>
 8    1  0.1161271E+005  0.1043930E+01  0.7957747E-01            NaN
         13   -1    0    0    0    0  0.00000000000E+00  0.00000000000E+00  0.74505805969E-08  0.10566000000E+00  0.10566000000E+00 0.  1.
     999900   -1    0    0    0    0 -0.00000000000E+00 -0.00000000000E+00 -0.74505805969E-08  0.93827000000E+00  0.93827000000E+00 0.  1.
     999902    2    1    2    0    0 -0.59023545120E-02  0.66977886914E-02 -0.23072570749E-01  0.10191905238E+01  0.10188902208E+01 0.  0.
     999903    2    3    3    0    0 -0.30580903265E-01  0.10607762821E+00  0.64028776153E-01  0.12898154388E+00  0.18678855298E-01 0.  0.
         14    1    1    2    0    0  0.59023545120E-02 -0.66977886914E-02  0.23072570749E-01  0.24739476210E-01  0.00000000000E+00 0.  1.
     999901    1    3    3    0    0  0.24678548753E-01 -0.99379839523E-01 -0.87101346902E-01  0.89020897991E+00  0.88000000000E+00 0.  1.
        -11    1    4    4    0    0 -0.18853002111E-01  0.40940855319E-01  0.18922478712E-01  0.48886712351E-01  0.51100000000E-03 0.  1.
         11    1    4    4    0    0 -0.11727901154E-01  0.65136772895E-01  0.45106297441E-01  0.80094831534E-01  0.51100000000E-03 0. -1.
</event>
<event>
 8    1  0.1161271E+005  0.1043930E+01  0.7957747E-01            NaN
         13   -1    0    0    0    0  0.00000000000E+00  0.00000000000E+00  0.74505805969E-08  0.10566000000E+00  0.10566000000E+00 0. -1.
     999900   -1    0    0    0    0 -0.00000000000E+00 -0.00000000000E+00 -0.74505805969E-08  0.93827000000E+00  0.93827000000E+00 0. -1.
     999902    2    1    2    0    0 -0.97786618317E-02 -0.16938368490E-01  0.12493773224E-01  0.10207217057E+01  0.10204578265E+01 0.  0.
     999903    2    3    3    0    0 -0.30620023621E-02 -0.28682062667E-01  0.12827289294E+00  0.13303491837E+00  0.20305611674E-01 0.  0.
         14    1    1    2    0    0  0.97786618317E-02  0.16938368490E-01 -0.12493773224E-01  0.23208294286E-01  0.00000000000E+00 0.  1.
     999901    1    3    3    0    0 -0.67166594696E-02  0.11743694177E-01 -0.11577911971E+00  0.88768678735E+00  0.88000000000E+00 0. -1.
        -11    1    4    4    0    0 -0.79325306266E-02 -0.19328456244E-01  0.10968026884E+00  0.11165364642E+00  0.51100000000E-03 0.  1.
         11    1    4    4    0    0  0.48705282645E-02 -0.93536064229E-02  0.18592624092E-01  0.21381271952E-01  0.51100000000E-03 0. -1.
</event>
<event>
 8    1  0.1161271E+005  0.1043930E+01  0.7957747E-01            NaN
         13   -1    0    0    0    0  0.00000000000E+00  0.00000000000E+00  0.74505805969E-08  0.10566000000E+00  0.10566000000E+00 0.  1.
     999900   -1    0    0    0    0 -0.00000000000E+00 -0.00000000000E+00 -0.74505805969E-08  0.93827000000E+00  0.93827000000E+00 0.  1.
     999902    2    1    2    0    0  0.16657861638E-01 -0.97070195640E-02 -0.12506580244E-01  0.10209490267E+01  0.10206903497E+01 0.  0.
     999903    2    3    3    0    0 -0.31263322916E-01  0.12364270200E+00 -0.63033923416E-02  0.12959215784E+00  0.22124228854E-01 0.  0.
         14    1    1    2    0    0 -0.16657861638E-01  0.97070195640E-02  0.12506580244E-01  0.22980973273E-01  0.00000000000E+00 0.  1.
     999901    1    3    3    0    0  0.47921184555E-01 -0.13334972156E+00 -0.62031879025E-02  0.89135686889E+00  0.88000000000E+00 0.  1.
        -11    1    4    4    0    0 -0.29991759519E-01  0.96537460868E-01 -0.12185844265E-01  0.10182211406E+00  0.51100000000E-03 0.  1.
         11    1    4    4    0    0 -0.12715633976E-02  0.27105241128E-01  0.58824519238E-02  0.27770043783E-01  0.51100000000E-03 0. -1.
</event>
<event>
 8    1  0.1161271E+005  0.1043930E+01  0.7957747E-01            NaN
         13   -1    0    0    0    0  0.00000000000E+00  0.00000000000E+00  0.74505805969E-08  0.10566000000E+00  0.10566000000E+00 0. -1.
     999900   -1    0    0    0    0 -0.00000000000E+00 -0.00000000000E+00 -0.74505805969E-08  0.93827000000E+00  0.93827000000E+00 0. -1.
     999902    2    1    2    0    0  0.22953784320E-01 -0.24204286301E-02  0.43394192632E-02  0.10204445737E+01  0.10201742806E+01 0.  0.
     999903    2    3    3    0    0  0.11899024328E+00 -0.30655314812E-01 -0.47304666168E-01  0.13326515452E+00  0.20577746360E-01 0.  0.
         14    1    1    2    0    0 -0.22953784320E-01  0.24204286301E-02 -0.43394192632E-02  0.23485426308E-01  0.00000000000E+00 0. -1.
     999901    1    3    3    0    0 -0.96036458960E-01  0.28234886182E-01  0.51644085431E-01  0.88717941917E+00  0.88000000000E+00 0.  1.
        -11    1    4    4    0    0  0.71507639181E-01 -0.28535658828E-01 -0.27210387587E-01  0.81659614251E-01  0.51100000000E-03 0.  1.
         11    1    4    4    0    0  0.47482604098E-01 -0.21196559841E-02 -0.20094278581E-01  0.51605540266E-01  0.51100000000E-03 0. -1.
</event>
<event>
 8    1  0.1161271E+005  0.1043930E+01  0.7957747E-01            NaN
         13   -1    0    0    0    0  0.00000000000E+00  0.00000000000E+00  0.74505805969E-08  0.10566000000E+00  0.10566000000E+00 0. -1.
     999900   -1    0    0    0    0 -0.00000000000E+00 -0.00000000000E+00 -0.74505805969E-08  0.93827000000E+00  0.93827000000E+00 0. -1.
     999902    2    1    2    0    0  0.13418168003E-01 -0.10585712779E-01 -0.10708293679E-01  0.10237614081E+01  0.10235627233E+01 0.  0.
     999903    2    3    3    0    0 -0.70128539644E-01  0.60208174090E-01  0.91193656489E-01  0.13113840016E+00  0.18383707792E-01 0.  0.
         14    1    1    2    0    0 -0.13418168003E-01  0.10585712779E-01  0.10708293679E-01  0.20168591946E-01  0.00000000000E+00 0.  1.
     999901    1    3    3    0    0  0.83546707648E-01 -0.70793886869E-01 -0.10190195017E+00  0.89262300790E+00  0.88000000000E+00 0. -1.
        -11    1    4    4    0    0 -0.61195682297E-01  0.49626155806E-01  0.67788690104E-01  0.10393860928E+00  0.51100000000E-03 0.  1.
         11    1    4    4    0    0 -0.89328573473E-02  0.10582018284E-01  0.23404966385E-01  0.27199790879E-01  0.51100000000E-03 0. -1.
</event>
<event>
 8    1  0.1161271E+005  0.1043930E+01  0.7957747E-01            NaN
         13   -1    0    0    0    0  0.00000000000E+00  0.00000000000E+00  0.74505805969E-08  0.10566000000E+00  0.10566000000E+00 0. -1.
     999900   -1    0    0    0    0 -0.00000000000E+00 -0.00000000000E+00 -0.74505805969E-08  0.93827000000E+00  0.93827000000E+00 0.  1.
     999902    2    1    2    0    0  0.33132359702E-02  0.23147367488E-01 -0.52842842664E-03  0.10205407420E+01  0.10202726835E+01 0.  0.
     999903    2    3    3    0    0 -0.57033988570E-01  0.23490359934E-01 -0.11408361216E+00  0.13119452992E+00  0.19805586460E-01 0.  0.
         14    1    1    2    0    0 -0.33132359702E-02 -0.23147367488E-01  0.52842842664E-03  0.23389258022E-01  0.00000000000E+00 0.  1.
     999901    1    3    3    0    0  0.60347224540E-01 -0.34299244687E-03  0.11355518373E+00  0.88934621206E+00  0.88000000000E+00 0. -1.
        -11    1    4    4    0    0 -0.97018533585E-02  0.87706926682E-02 -0.12205039458E-01  0.17896231940E-01  0.51100000000E-03 0. -1.
         11    1    4    4    0    0 -0.47332135212E-01  0.14719667266E-01 -0.10187857270E+00  0.11329829798E+00  0.51100000000E-03 0.  1.
</event>
<event>
 8    1  0.1161271E+005  0.1043930E+01  0.7957747E-01            NaN
         13   -1    0    0    0    0  0.00000000000E+00  0.00000000000E+00  0.74505805969E-08  0.10566000000E+00  0.10566000000E+00 0.  1.
     999900   -1    0    0    0    0 -0.00000000000E+00 -0.00000000000E+00 -0.74505805969E-08  0.93827000000E+00  0.93827000000E+00 0.  1.
     999902    2    1    2    0    0 -0.81995490585E-02 -0.20050294608E-01 -0.49467411673E-02  0.10217102528E+01  0.10214686111E+01 0.  0.
     999903    2    3    3    0    0  0.90851583132E-01 -0.94943981982E-01  0.81166255396E-03  0.13297331171E+00  0.20319275555E-01 0.  0.
         14    1    1    2    0    0  0.81995490585E-02  0.20050294608E-01  0.49467411673E-02  0.22219747226E-01  0.00000000000E+00 0. -1.
     999901    1    3    3    0    0 -0.99051132190E-01  0.74893687375E-01 -0.57584037213E-02  0.88873694106E+00  0.88000000000E+00 0.  1.
        -11    1    4    4    0    0  0.53506945640E-01 -0.69613884737E-01  0.20878326374E-02  0.87827708305E-01  0.51100000000E-03 0.  1.
         11    1    4    4    0    0  0.37344637491E-01 -0.25330097245E-01 -0.12761700834E-02  0.45145603406E-01  0.51100000000E-03 0. -1.
</event>
<event>
 8    1  0.1161271E+005  0.1043930E+01  0.7957747E-01            NaN
         13   -1    0    0    0    0  0.00000000000E+00  0.00000000000E+00  0.74505805969E-08  0.10566000000E+00  0.10566000000E+00 0.  1.
     999900   -1    0    0    0    0 -0.00000000000E+00 -0.00000000000E+00 -0.74505805969E-08  0.93827000000E+00  0.93827000000E+00 0.  1.
     999902    2    1    2    0    0 -0.69874627519E-02 -0.20877288120E-01  0.55528189645E-02  0.10212249434E+01  0.10209725097E+01 0.  0.
     999903    2    3    3    0    0  0.10515084182E+00 -0.67726745814E-01 -0.36859453836E-01  0.13186074812E+00  0.19622077408E-01 0.  0.
         14    1    1    2    0    0  0.69874627519E-02  0.20877288120E-01 -0.55528189645E-02  0.22705056560E-01  0.00000000000E+00 0.  1.
     999901    1    3    3    0    0 -0.11213830458E+00  0.46849457694E-01  0.42412272801E-01  0.88936419532E+00  0.88000000000E+00 0. -1.
        -11    1    4    4    0    0  0.10957570870E-01 -0.14426224913E-01 -0.82592383662E-02  0.19916336611E-01  0.51100000000E-03 0. -1.
         11    1    4    4    0    0  0.94193270954E-01 -0.53300520901E-01 -0.28600215470E-01  0.11194441151E+00  0.51100000000E-03 0.  1.
</event>
<event>
 8    1  0.1161271E+005  0.1043930E+01  0.7957747E-01            NaN
         13   -1    0    0    0    0  0.00000000000E+00  0.00000000000E+00  0.74505805969E-08  0.10566000000E+00  0.10566000000E+00 0.  1.
     999900   -1    0    0    0    0 -0.00000000000E+00 -0.00000000000E+00 -0.74505805969E-08  0.93827000000E+00  0.93827000000E+00 0.  1.
     999902    2    1    2    0    0  0.21498425639E-01  0.38481315894E-02  0.90593932452E-02  0.10202854863E+01  0.10200114757E+01 0.  0.
     999903    2    3    3    0    0 -0.71311029370E-01  0.96391434956E-01 -0.42757541416E-01  0.12907122888E+00  0.21321424267E-01 0.  0.
         14    1    1    2    0    0 -0.21498425639E-01 -0.38481315894E-02 -0.90593932452E-02  0.23644513690E-01  0.00000000000E+00 0. -1.
     999901    1    3    3    0    0  0.92809455008E-01 -0.92543303367E-01  0.51816934661E-01  0.89121425743E+00  0.88000000000E+00 0.  1.
        -11    1    4    4    0    0 -0.31280810820E-01  0.49819522249E-01 -0.10696472022E-01  0.59792554364E-01  0.51100000000E-03 0. -1.
         11    1    4    4    0    0 -0.40030218550E-01  0.46571912707E-01 -0.32061069394E-01  0.69278674511E-01  0.51100000000E-03 0.  1.
</event>
<event>
 8    1  0.1161271E+005  0.1043930E+01  0.7957747E-01            NaN
         13   -1    0    0    0    0  0.00000000000E+00  0.00000000000E+00  0.74505805969E-08  0.10566000000E+00  0.10566000000E+00 0.  1.
     999900   -1    0    0    0    0 -0.00000000000E+00 -0.00000000000E+00 -0.74505805969E-08  0.93827000000E+00  0.93827000000E+00 0.  1.
     999902    2    1    2    0    0  0.10605480625E-01 -0.11492740474E-01  0.16935228100E-01  0.10208787256E+01  0.10206184454E+01 0.  0.
     999903    2    3    3    0    0 -0.97105701829E-01 -0.55199541341E-01 -0.62778643991E-01  0.12966254265E+00  0.19867313163E-01 0.  0.
         14    1    1    2    0    0 -0.10605480625E-01  0.11492740474E-01 -0.16935228100E-01  0.23051274449E-01  0.00000000000E+00 0. -1.
     999901    1    3    3    0    0  0.10771118245E+00  0.43706800867E-01  0.79713872091E-01  0.89121618290E+00  0.88000000000E+00 0.  1.
        -11    1    4    4    0    0 -0.27364668200E-01 -0.20364740222E-01 -0.28697950099E-01  0.44580053509E-01  0.51100000000E-03 0. -1.
         11    1    4    4    0    0 -0.69741033629E-01 -0.34834801119E-01 -0.34080693892E-01  0.85082489137E-01  0.51100000000E-03 0.  1.
</event>
<event>
 8    1  0.1161271E+005  0.1043930E+01  0.7957747E-01            NaN
         13   -1    0    0    0    0  0.00000000000E+00  0.00000000000E+00  0.74505805969E-08  0.10566000000E+00  0.10566000000E+00 0.  1.
     999900   -1    0    0    0    0 -0.00000000000E+00 -0.00000000000E+00 -0.74505805969E-08  0.93827000000E+00  0.93827000000E+00 0. -1.
     999902    2    1    2    0    0 -0.80468595871E-02  0.14535085370E-01  0.20610413018E-01  0.10174571879E+01  0.10171127368E+01 0.  0.
     999903    2    3    3    0    0  0.10025444333E+00 -0.72899303346E-02 -0.72714433999E-01  0.12565282000E+00  0.19928516502E-01 0.  0.
         14    1    1    2    0    0  0.80468595871E-02 -0.14535085370E-01 -0.20610413018E-01  0.26472812104E-01  0.00000000000E+00 0. -1.
     999901    1    3    3    0    0 -0.10830130292E+00  0.21825015705E-01  0.93324847018E-01  0.89180436789E+00  0.88000000000E+00 0.  1.
        -11    1    4    4    0    0  0.58556832020E-01  0.26595149953E-02 -0.50477144337E-01  0.77357474219E-01  0.51100000000E-03 0. -1.
         11    1    4    4    0    0  0.41697611314E-01 -0.99494453299E-02 -0.22237289663E-01  0.48295345782E-01  0.51100000000E-03 0.  1.
</event>
<event>
 8    1  0.1161271E+005  0.1043930E+01  0.7957747E-01            NaN
         13   -1    0    0    0    0  0.00000000000E+00  0.00000000000E+00  0.74505805969E-08  0.10566000000E+00  0.10566000000E+00 0.  1.
     999900   -1    0    0    0    0 -0.00000000000E+00 -0.00000000000E+00 -0.74505805969E-08  0.93827000000E+00  0.93827000000E+00 0.  1.
     999902    2    1    2    0    0 -0.14564754012E-01 -0.19911634175E-02 -0.19543651826E-01  0.10194749163E+01  0.10191815608E+01 0.  0.
     999903    2    3    3    0    0 -0.35114791517E-01  0.21000031028E-01  0.11954528629E+00  0.12801732800E+00  0.20574520829E-01 0.  0.
         14    1    1    2    0    0  0.14564754012E-01  0.19911634175E-02  0.19543651826E-01  0.24455083682E-01  0.00000000000E+00 0. -1.
     999901    1    3    3    0    0  0.20550037505E-01 -0.22991194445E-01 -0.13908893812E+00  0.89145758832E+00  0.88000000000E+00 0.  1.
        -11    1    4    4    0    0 -0.33414398522E-01  0.16459459714E-01  0.80886849295E-01  0.89052677402E-01  0.51100000000E-03 0. -1.
         11    1    4    4    0    0 -0.17003929947E-02  0.45405713142E-02  0.38658436996E-01  0.38964650597E-01  0.51100000000E-03 0.  1.
</event>
<event>
 8    1  0.1161271E+005  0.1043930E+01  0.7957747E-01            NaN
         13   -1    0    0    0    0  0.00000000000E+00  0.00000000000E+00  0.74505805969E-08  0.10566000000E+00  0.10566000000E+00 0. -1.
     999900   -1    0    0    0    0 -0.00000000000E+00 -0.00000000000E+00 -0.74505805969E-08  0.93827000000E+00  0.93827000000E+00 0. -1.
     999902    2    1    2    0    0  0.12632037975E-01  0.20654467793E-02 -0.19839682440E-01  0.10203196749E+01  0.10200464653E+01 0.  0.
     999903    2    3    3    0    0 -0.86676275933E-01  0.40485257196E-01  0.82386285370E-01  0.12802579304E+00  0.21243135517E-01 0.  0.
         14    1    1    2    0    0 -0.12632037975E-01 -0.20654467793E-02  0.19839682440E-01  0.23610325138E-01  0.00000000000E+00 0. -1.
     999901    1    3    3    0    0  0.99308313907E-01 -0.38419810416E-01 -0.10222596781E+00  0.89229388182E+00  0.88000000000E+00 0.  1.
        -11    1    4    4    0    0 -0.20372150806E-01  0.19121662009E-01  0.18579185965E-01  0.33557558888E-01  0.51100000000E-03 0.  1.
         11    1    4    4    0    0 -0.66304125127E-01  0.21363595187E-01  0.63807099406E-01  0.94468234151E-01  0.51100000000E-03 0. -1.
</event>
<event>
 8    1  0.1161271E+005  0.1043930E+01  0.7957747E-01            NaN
         13   -1    0    0    0    0  0.00000000000E+00  0.00000000000E+00  0.74505805969E-08  0.10566000000E+00  0.10566000000E+00 0. -1.
     999900   -1    0    0    0    0 -0.00000000000E+00 -0.00000000000E+00 -0.74505805969E-08  0.93827000000E+00  0.93827000000E+00 0. -1.
     999902    2    1    2    0    0 -0.22302295603E-01 -0.18413556337E-02 -0.31849083997E-02  0.10213263140E+01  0.10210761544E+01 0.  0.
     999903    2    3    3    0    0 -0.82433891653E-01  0.29785551136E-01  0.97928322463E-01  0.13293453356E+00  0.19977695650E-01 0.  0.
         14    1    1    2    0    0  0.22302295603E-01  0.18413556337E-02  0.31849083997E-02  0.22603686010E-01  0.00000000000E+00 0.  1.
     999901    1    3    3    0    0  0.60131596050E-01 -0.31626906770E-01 -0.10111323086E+00  0.88839178043E+00  0.88000000000E+00 0. -1.
        -11    1    4    4    0    0 -0.61620390521E-01  0.27927226536E-01  0.64284102607E-01  0.93325824288E-01  0.51100000000E-03 0. -1.
         11    1    4    4    0    0 -0.20813501132E-01  0.18583245999E-02  0.33644219856E-01  0.39608709274E-01  0.51100000000E-03 0.  1.
</event>
<event>
 8    1  0.1161271E+005  0.1043930E+01  0.7957747E-01            NaN
         13   -1    0    0    0    0  0.00000000000E+00  0.00000000000E+00  0.74505805969E-08  0.10566000000E+00  0.10566000000E+00 0. -1.
     999900   -1    0    0    0    0 -0.00000000000E+00 -0.00000000000E+00 -0.74505805969E-08  0.93827000000E+00  0.93827000000E+00 0.  1.
     999902    2    1    2    0    0  0.19185693475E-01  0.38703412310E-02  0.20300549087E-01  0.10157310165E+01  0.10153395074E+01 0.  0.
     999903    2    3    3    0    0 -0.26158838175E-01 -0.10786824533E+00 -0.52557260549E-01  0.12452402671E+00  0.20594281431E-01 0.  0.
         14    1    1    2    0    0 -0.19185693475E-01 -0.38703412310E-02 -0.20300549087E-01  0.28198983467E-01  0.00000000000E+00 0.  1.
     999901    1    3    3    0    0  0.45344531650E-01  0.11173858656E+00  0.72857809636E-01  0.89120698982E+00  0.88000000000E+00 0.  1.
        -11    1    4    4    0    0 -0.10281515691E-01 -0.12522875435E-01 -0.83481055232E-02  0.18234142725E-01  0.51100000000E-03 0. -1.
         11    1    4    4    0    0 -0.15877322484E-01 -0.95345369893E-01 -0.44209155026E-01  0.10628988399E+00  0.51100000000E-03 0.  1.
</event>
<event>
 8    1  0.1161271E+005  0.1043930E+01  0.7957747E-01            NaN
         13   -1    0    0    0    0  0.00000000000E+00  0.00000000000E+00  0.74505805969E-08  0.10566000000E+00  0.10566000000E+00 0. -1.
     999900   -1    0    0    0    0 -0.00000000000E+00 -0.00000000000E+00 -0.74505805969E-08  0.93827000000E+00  0.93827000000E+00 0.  1.
     999902    2    1    2    0    0  0.17523452703E-01 -0.15388099936E-01  0.11804004363E-01  0.10177919141E+01  0.10174562305E+01 0.  0.
     999903    2    3    3    0    0  0.95548569297E-01  0.75826308518E-01  0.37565398519E-01  0.12926974976E+00  0.20502460340E-01 0.  0.
         14    1    1    2    0    0 -0.17523452703E-01  0.15388099936E-01 -0.11804004363E-01  0.26138085876E-01  0.00000000000E+00 0.  1.
     999901    1    3    3    0    0 -0.78025116594E-01 -0.91214408455E-01 -0.25761394157E-01  0.88852216436E+00  0.88000000000E+00 0. -1.
        -11    1    4    4    0    0  0.65213845199E-01  0.42168535723E-01  0.30371058379E-01  0.83388808115E-01  0.51100000000E-03 0.  1.
         11    1    4    4    0    0  0.30334724098E-01  0.33657772795E-01  0.71943401402E-02  0.45880941650E-01  0.51100000000E-03 0. -1.
</event>
<event>
 8    1  0.1161271E+005  0.1043930E+01  0.7957747E-01            NaN
         13   -1    0    0    0    0  0.00000000000E+00  0.00000000000E+00  0.74505805969E-08  0.10566000000E+00  0.10566000000E+00 0.  1.
     999900   -1    0    0    0    0 -0.00000000000E+00 -0.00000000000E+00 -0.74505805969E-08  0.93827000000E+00  0.93827000000E+00 0. -1.
     999902    2    1    2    0    0 -0.20842140686E-01  0.87195382210E-02 -0.64021302167E-02  0.10204478270E+01  0.10201776097E+01 0.  0.
     999903    2    3    3    0    0 -0.75991016690E-01 -0.63550102966E-01 -0.85183870990E-01  0.13226380206E+00  0.20595418295E-01 0.  0.
         14    1    1    2    0    0  0.20842140686E-01 -0.87195382210E-02  0.64021302167E-02  0.23482172950E-01  0.00000000000E+00 0.  1.
     999901    1    3    3    0    0  0.55148876004E-01  0.72269641188E-01  0.78781740773E-01  0.88818402499E+00  0.88000000000E+00 0.  1.
        -11    1    4    4    0    0 -0.48915422785E-02  0.61377012351E-03 -0.72834663319E-02  0.88098752792E-02  0.51100000000E-03 0.  1.
         11    1    4    4    0    0 -0.71099474411E-01 -0.64163873090E-01 -0.77900404658E-01  0.12345392678E+00  0.51100000000E-03 0. -1.
</event>
<event>
 8    1  0.1161271E+005  0.1043930E+01  0.7957747E-01            NaN
         13   -1    0    0    0    0  0.00000000000E+00  0.00000000000E+00  0.74505805969E-08  0.10566000000E+00  0.10566000000E+00 0.  1.
     999900   -1    0    0    0    0 -0.00000000000E+00 -0.00000000000E+00 -0.74505805969E-08  0.93827000000E+00  0.93827000000E+00 0.  1.
     999902    2    1    2    0    0 -0.90011139029E-02  0.18190656188E-01 -0.80318625168E-02  0.10221027043E+01  0.10218696136E+01 0.  0.
     999903    2    3    3    0    0  0.95956937076E-01  0.59231881546E-02  0.86362201537E-01  0.13076835477E+00  0.19977858371E-01 0.  0.
         14    1    1    2    0    0  0.90011139029E-02 -0.18190656188E-01  0.80318625168E-02  0.21827295745E-01  0.00000000000E+00 0.  1.
     999901    1    3    3    0    0 -0.10495805098E+00  0.12267468034E-01 -0.94394064053E-01  0.89133434948E+00  0.88000000000E+00 0.  1.
        -11    1    4    4    0    0  0.69411080012E-01  0.61624403396E-02  0.73435913808E-01  0.10123718811E+00  0.51100000000E-03 0. -1.
         11    1    4    4    0    0  0.26545857063E-01 -0.23925218502E-03  0.12926287729E-01  0.29531166660E-01  0.51100000000E-03 0.  1.
</event>
<event>
 8    1  0.1161271E+005  0.1043930E+01  0.7957747E-01            NaN
         13   -1    0    0    0    0  0.00000000000E+00  0.00000000000E+00  0.74505805969E-08  0.10566000000E+00  0.10566000000E+00 0.  1.
     999900   -1    0    0    0    0 -0.00000000000E+00 -0.00000000000E+00 -0.74505805969E-08  0.93827000000E+00  0.93827000000E+00 0.  1.
     999902    2    1    2    0    0 -0.23453118086E-01  0.48225625894E-03  0.72086188343E-03  0.10204608509E+01  0.10201909366E+01 0.  0.
     999903    2    3    3    0    0  0.21203138756E-01 -0.69963999104E-01 -0.10635935753E+00  0.13005474714E+00  0.16043380446E-01 0.  0.
         14    1    1    2    0    0  0.23453118086E-01 -0.48225625894E-03 -0.72086188343E-03  0.23469149131E-01  0.00000000000E+00 0. -1.
     999901    1    3    3    0    0 -0.44656256843E-01  0.70446255363E-01  0.10708021941E+00  0.89040610373E+00  0.88000000000E+00 0. -1.
        -11    1    4    4    0    0  0.90485526855E-02 -0.33681496293E-01 -0.64588770790E-01  0.73404972116E-01  0.51100000000E-03 0. -1.
         11    1    4    4    0    0  0.12154586071E-01 -0.36282502812E-01 -0.41770586737E-01  0.56649775023E-01  0.51100000000E-03 0.  1.
</event>
<event>
 8    1  0.1161271E+005  0.1043930E+01  0.7957747E-01            NaN
         13   -1    0    0    0    0  0.00000000000E+00  0.00000000000E+00  0.74505805969E-08  0.10566000000E+00  0.10566000000E+00 0.  1.
     999900   -1    0    0    0    0 -0.00000000000E+00 -0.00000000000E+00 -0.74505805969E-08  0.93827000000E+00  0.93827000000E+00 0. -1.
     999902    2    1    2    0    0  0.21294945594E-01 -0.18414841763E-01 -0.88597314143E-03  0.10157632456E+01  0.10153726434E+01 0.  0.
     999903    2    3    3    0    0  0.76945162595E-01 -0.28581462121E-01  0.96860420323E-01  0.12854587412E+00  0.20115732753E-01 0.  0.
         14    1    1    2    0    0 -0.21294945594E-01  0.18414841763E-01  0.88597314143E-03  0.28166754400E-01  0.00000000000E+00 0. -1.
     999901    1    3    3    0    0 -0.55650217002E-01  0.10166620358E-01 -0.97746393464E-01  0.88721737148E+00  0.88000000000E+00 0. -1.
        -11    1    4    4    0    0  0.55373813709E-01 -0.17075688511E-01  0.80245432339E-01  0.98981962574E-01  0.51100000000E-03 0. -1.
         11    1    4    4    0    0  0.21571348886E-01 -0.11505773610E-01  0.16614987984E-01  0.29563911545E-01  0.51100000000E-03 0.  1.
</event>
<event>
 8    1  0.1161271E+005  0.1043930E+01  0.7957747E-01            NaN
         13   -1    0    0    0    0  0.00000000000E+00  0.00000000000E+00  0.74505805969E-08  0.10566000000E+00  0.10566000000E+00 0.  1.
     999900   -1    0    0    0    0 -0.00000000000E+00 -0.00000000000E+00 -0.74505805969E-08  0.93827000000E+00  0.93827000000E+00 0.  1.
     999902    2    1    2    0    0 -0.14150141629E-01 -0.10099762304E-01  0.12852513758E-01  0.10223101291E+01  0.10220814944E+01 0.  0.
     999903    2    3    3    0    0 -0.34783534652E-01 -0.11899136809E+00 -0.44925236215E-01  0.13347865629E+00  0.20722810451E-01 0.  0.
         14    1    1    2    0    0  0.14150141629E-01  0.10099762304E-01 -0.12852513758E-01  0.21619870874E-01  0.00000000000E+00 0. -1.
     999901    1    3    3    0    0  0.20633393023E-01  0.10889160578E+00  0.57777749973E-01  0.88883147284E+00  0.88000000000E+00 0. -1.
        -11    1    4    4    0    0 -0.10337730911E-01 -0.71788393103E-01 -0.25730643802E-01  0.76959529730E-01  0.51100000000E-03 0. -1.
         11    1    4    4    0    0 -0.24445803741E-01 -0.47202974984E-01 -0.19194592413E-01  0.56519126557E-01  0.51100000000E-03 0.  1.
</event>
<event>
 8    1  0.1161271E+005  0.1043930E+01  0.7957747E-01            NaN
         13   -1    0    0    0    0  0.00000000000E+00  0.00000000000E+00  0.74505805969E-08  0.10566000000E+00  0.10566000000E+00 0.  1.
     999900   -1    0    0    0    0 -0.00000000000E+00 -0.00000000000E+00 -0.74505805969E-08  0.93827000000E+00  0.93827000000E+00 0. -1.
     999902    2    1    2    0    0 -0.17166899915E-01 -0.15751915918E-01 -0.31220179930E-02  0.10204231435E+01  0.10201523511E+01 0.  0.
     999903    2    3    3    0    0 -0.10377749434E+00 -0.74896866770E-01 -0.32750034837E-01  0.13370033466E+00  0.20588970871E-01 0.  0.
         14    1    1    2    0    0  0.17166899915E-01  0.15751915918E-01  0.31220179930E-02  0.23506856535E-01  0.00000000000E+00 0.  1.
     999901    1    3    3    0    0  0.86610594428E-01  0.59144950852E-01  0.29628016844E-01  0.88672280881E+00  0.88000000000E+00 0.  1.
        -11    1    4    4    0    0 -0.72578980493E-02 -0.12686388076E-01 -0.59059014062E-02  0.15772200827E-01  0.51100000000E-03 0.  1.
         11    1    4    4    0    0 -0.96519596293E-01 -0.62210478695E-01 -0.26844133431E-01  0.11792813383E+00  0.51100000000E-03 0. -1.
</event>
<event>
 8    1  0.1161271E+005  0.1043930E+01  0.7957747E-01            NaN
         13   -1    0    0    0    0  0.00000000000E+00  0.00000000000E+00  0.74505805969E-08  0.10566000000E+00  0.10566000000E+00 0. -1.
     999900   -1    0    0    0    0 -0.00000000000E+00 -0.00000000000E+00 -0.74505805969E-08  0.93827000000E+00  0.93827000000E+00 0. -1.
     999902    2    1    2    0    0  0.16815500954E-01 -0.23583790461E-03 -0.16496403079E-01  0.10203726655E+01  0.10201006953E+01 0.  0.
     999903    2    3    3    0    0 -0.11253058651E+00 -0.55645731810E-01 -0.71035400507E-02  0.12914379901E+00  0.29463200278E-01 0.  0.
         14    1    1    2    0    0 -0.16815500954E-01  0.23583790461E-03  0.16496403079E-01  0.23557334450E-01  0.00000000000E+00 0. -1.
     999901    1    3    3    0    0  0.12934608747E+00  0.55409893905E-01 -0.93928630284E-02  0.89122886654E+00  0.88000000000E+00 0.  1.
        -11    1    4    4    0    0 -0.45264473874E-01 -0.34125740422E-01  0.70089324025E-02  0.57121143273E-01  0.51100000000E-03 0.  1.
         11    1    4    4    0    0 -0.67266112639E-01 -0.21519991388E-01 -0.14112472453E-01  0.72022655732E-01  0.51100000000E-03 0. -1.
</event>
<event>
 8    1  0.1161271E+005  0.1043930E+01  0.7957747E-01            NaN
         13   -1    0    0    0    0  0.00000000000E+00  0.00000000000E+00  0.74505805969E-08  0.10566000000E+00  0.10566000000E+00 0. -1.
     999900   -1    0    0    0    0 -0.00000000000E+00 -0.00000000000E+00 -0.74505805969E-08  0.93827000000E+00  0.93827000000E+00 0. -1.
     999902    2    1    2    0    0 -0.77567135067E-03 -0.16956448058E-01 -0.66382691112E-02  0.10257039359E+01  0.10255419907E+01 0.  0.
     999903    2    3    3    0    0 -0.13400995084E+00 -0.58805108151E-03 -0.26909055656E-03  0.13550178800E+00  0.20041192909E-01 0.  0.
         14    1    1    2    0    0  0.77567135067E-03  0.16956448058E-01  0.66382691112E-02  0.18226064128E-01  0.00000000000E+00 0. -1.
     999901    1    3    3    0    0  0.13323427948E+00 -0.16368396977E-01 -0.63691785546E-02  0.89020214788E+00  0.88000000000E+00 0. -1.
        -11    1    4    4    0    0 -0.63132945813E-01 -0.64795532274E-02  0.77061150644E-02  0.63932767713E-01  0.51100000000E-03 0. -1.
         11    1    4    4    0    0 -0.70877005023E-01  0.58915021459E-02 -0.79752056210E-02  0.71569020283E-01  0.51100000000E-03 0.  1.
</event>
<event>
 8    1  0.1161271E+005  0.1043930E+01  0.7957747E-01            NaN
         13   -1    0    0    0    0  0.00000000000E+00  0.00000000000E+00  0.74505805969E-08  0.10566000000E+00  0.10566000000E+00 0.  1.
     999900   -1    0    0    0    0 -0.00000000000E+00 -0.00000000000E+00 -0.74505805969E-08  0.93827000000E+00  0.93827000000E+00 0.  1.
     999902    2    1    2    0    0 -0.12770144462E-01  0.22215355617E-01  0.50480943604E-03  0.10183008477E+01  0.10179782724E+01 0.  0.
     999903    2    3    3    0    0 -0.86989524436E-01 -0.19242086983E-01  0.91837236775E-01  0.12949893041E+00  0.19961453971E-01 0.  0.
         14    1    1    2    0    0  0.12770144462E-01 -0.22215355617E-01 -0.50480943604E-03  0.25629152295E-01  0.00000000000E+00 0. -1.
     999901    1    3    3    0    0  0.74219379974E-01  0.41457442601E-01 -0.91332427339E-01  0.88880191730E+00  0.88000000000E+00 0.  1.
        -11    1    4    4    0    0 -0.28257615648E-01 -0.12559887635E-01  0.21739652254E-01  0.37803666762E-01  0.51100000000E-03 0. -1.
         11    1    4    4    0    0 -0.58731908788E-01 -0.66821993479E-02  0.70097584521E-01  0.91695263644E-01  0.51100000000E-03 0.  1.
</event>
<event>
 8    1  0.1161271E+005  0.1043930E+01  0.7957747E-01            NaN
         13   -1    0    0    0    0  0.00000000000E+00  0.00000000000E+00  0.74505805969E-08  0.10566000000E+00  0.10566000000E+00 0. -1.
     999900   -1    0    0    0    0 -0.00000000000E+00 -0.00000000000E+00 -0.74505805969E-08  0.93827000000E+00  0.93827000000E+00 0. -1.
     999902    2    1    2    0    0 -0.32746453002E-02 -0.22084470983E-01 -0.85371762056E-02  0.10200274784E+01  0.10197473835E+01 0.  0.
     999903    2    3    3    0    0 -0.90685557181E-01  0.65715537707E-01 -0.63071525095E-01  0.12967726404E+00  0.17198062459E-01 0.  0.
         14    1    1    2    0    0  0.32746453002E-02  0.22084470983E-01  0.85371762056E-02  0.23902521582E-01  0.00000000000E+00 0. -1.
     999901    1    3    3    0    0  0.87410911881E-01 -0.87800008690E-01  0.54534348890E-01  0.89035021438E+00  0.88000000000E+00 0.  1.
        -11    1    4    4    0    0 -0.63215964264E-01  0.35733332822E-01 -0.39230499730E-01  0.82537400264E-01  0.51100000000E-03 0. -1.
         11    1    4    4    0    0 -0.27469592917E-01  0.29982204885E-01 -0.23841025366E-01  0.47139863771E-01  0.51100000000E-03 0.  1.
</event>
<event>
 8    1  0.1161271E+005  0.1043930E+01  0.7957747E-01            NaN
         13   -1    0    0    0    0  0.00000000000E+00  0.00000000000E+00  0.74505805969E-08  0.10566000000E+00  0.10566000000E+00 0. -1.
     999900   -1    0    0    0    0 -0.00000000000E+00 -0.00000000000E+00 -0.74505805969E-08  0.93827000000E+00  0.93827000000E+00 0. -1.
     999902    2    1    2    0    0 -0.23211709944E-01 -0.15985017948E-02 -0.12367730507E-01  0.10175804375E+01  0.10172392282E+01 0.  0.
     999903    2    3    3    0    0  0.12040019264E+00 -0.24335081644E-01  0.12436663660E-01  0.12530436553E+00  0.21403523821E-01 0.  0.
         14    1    1    2    0    0  0.23211709944E-01  0.15985017948E-02  0.12367730507E-01  0.26349562509E-01  0.00000000000E+00 0.  1.
     999901    1    3    3    0    0 -0.14361190258E+00  0.22736579850E-01 -0.24804394168E-01  0.89227607196E+00  0.88000000000E+00 0. -1.
        -11    1    4    4    0    0  0.60713681750E-01 -0.28609355990E-02  0.66229508163E-03  0.60786806627E-01  0.51100000000E-03 0.  1.
         11    1    4    4    0    0  0.59686510887E-01 -0.21474146045E-01  0.11774368579E-01  0.64517558902E-01  0.51100000000E-03 0. -1.
</event>
<event>
 8    1  0.1161271E+005  0.1043930E+01  0.7957747E-01            NaN
         13   -1    0    0    0    0  0.00000000000E+00  0.00000000000E+00  0.74505805969E-08  0.10566000000E+00  0.10566000000E+00 0. -1.
     999900   -1    0    0    0    0 -0.00000000000E+00 -0.00000000000E+00 -0.74505805969E-08  0.93827000000E+00  0.93827000000E+00 0. -1.
     999902    2    1    2    0    0 -0.96969561071E-02  0.11392727827E-01 -0.28860808593E-01  0.10114219783E+01  0.10108994246E+01 0.  0.
     999903    2    3    3    0    0 -0.10906749580E+00 -0.53555170111E-01 -0.43252549533E-02  0.12311193835E+00  0.19338217268E-01 0.  0.
         14    1    1    2    0    0  0.96969561071E-02 -0.11392727827E-01  0.28860808593E-01  0.32508021745E-01  0.00000000000E+00 0. -1.
     999901    1    3    3    0    0  0.99370539697E-01  0.64947897938E-01 -0.24535553640E-01  0.88831003991E+00  0.88000000000E+00 0. -1.
        -11    1    4    4    0    0 -0.76289096405E-01 -0.40354024821E-01 -0.11444202796E-01  0.87061498082E-01  0.51100000000E-03 0. -1.
         11    1    4    4    0    0 -0.32778399398E-01 -0.13201145290E-01  0.71189478423E-02  0.36050440267E-01  0.51100000000E-03 0.  1.
</event>
<event>
 8    1  0.1161271E+005  0.1043930E+01  0.7957747E-01            NaN
         13   -1    0    0    0    0  0.00000000000E+00  0.00000000000E+00  0.74505805969E-08  0.10566000000E+00  0.10566000000E+00 0. -1.
     999900   -1    0    0    0    0 -0.00000000000E+00 -0.00000000000E+00 -0.74505805969E-08  0.93827000000E+00  0.93827000000E+00 0. -1.
     999902    2    1    2    0    0 -0.22481836239E-02  0.19510257291E-01  0.13057939490E-01  0.10203458050E+01  0.10200732070E+01 0.  0.
     999903    2    3    3    0    0  0.81921373566E-01 -0.87930167020E-01  0.42772960878E-01  0.12932900292E+00  0.21298804984E-01 0.  0.
         14    1    1    2    0    0  0.22481836239E-02 -0.19510257291E-01 -0.13057939490E-01  0.23584194981E-01  0.00000000000E+00 0. -1.
     999901    1    3    3    0    0 -0.84169557190E-01  0.10744042431E+00 -0.29715021388E-01  0.89101680210E+00  0.88000000000E+00 0. -1.
        -11    1    4    4    0    0  0.29001987149E-01 -0.20397176076E-01  0.19323918475E-01  0.40383598115E-01  0.51100000000E-03 0. -1.
         11    1    4    4    0    0  0.52919386417E-01 -0.67532990944E-01  0.23449042404E-01  0.88945404801E-01  0.51100000000E-03 0.  1.
</event>
<event>
 8    1  0.1161271E+005  0.1043930E+01  0.7957747E-01            NaN
         13   -1    0    0    0    0  0.00000000000E+00  0.00000000000E+00  0.74505805969E-08  0.10566000000E+00  0.10566000000E+00 0.  1.
     999900   -1    0    0    0    0 -0.00000000000E+00 -0.00000000000E+00 -0.74505805969E-08  0.93827000000E+00  0.93827000000E+00 0.  1.
     999902    2    1    2    0    0  0.20578171567E-01 -0.56435128041E-02 -0.95837295449E-02  0.10205385859E+01  0.10202704774E+01 0.  0.
     999903    2    3    3    0    0  0.22610111823E-01 -0.42568775932E-02  0.12649423517E+00  0.13007619813E+00  0.19740507254E-01 0.  0.
         14    1    1    2    0    0 -0.20578171567E-01  0.56435128041E-02  0.95837295449E-02  0.23391414104E-01  0.00000000000E+00 0.  1.
     999901    1    3    3    0    0 -0.20319402557E-02 -0.13866352109E-02 -0.13607796471E+00  0.89046238776E+00  0.88000000000E+00 0.  1.
        -11    1    4    4    0    0  0.96370611339E-02 -0.66030767461E-02  0.23584580518E-01  0.26324268822E-01  0.51100000000E-03 0. -1.
         11    1    4    4    0    0  0.12973050689E-01  0.23461991529E-02  0.10290965465E+00  0.10375192931E+00  0.51100000000E-03 0.  1.
</event>
<event>
 8    1  0.1161271E+005  0.1043930E+01  0.7957747E-01            NaN
         13   -1    0    0    0    0  0.00000000000E+00  0.00000000000E+00  0.74505805969E-08  0.10566000000E+00  0.10566000000E+00 0.  1.
     999900   -1    0    0    0    0 -0.00000000000E+00 -0.00000000000E+00 -0.74505805969E-08  0.93827000000E+00  0.93827000000E+00 0. -1.
     999902    2    1    2    0    0 -0.21020802332E-01 -0.59224386018E-02  0.11791592018E-01  0.10191108330E+01  0.10188085683E+01 0.  0.
     999903    2    3    3    0    0 -0.54607169235E-01 -0.17895481290E-01 -0.11429008360E+00  0.12940976704E+00  0.19556927503E-01 0.  0.
         14    1    1    2    0    0  0.21020802332E-01  0.59224386018E-02 -0.11791592018E-01  0.24819167029E-01  0.00000000000E+00 0. -1.
     999901    1    3    3    0    0  0.33586366903E-01  0.11973042688E-01  0.12608167562E+00  0.88970106593E+00  0.88000000000E+00 0.  1.
        -11    1    4    4    0    0 -0.27702829976E-01 -0.14133889268E-01 -0.42626938478E-01  0.52768651864E-01  0.51100000000E-03 0. -1.
         11    1    4    4    0    0 -0.26904339258E-01 -0.37615920217E-02 -0.71663145123E-01  0.76641115176E-01  0.51100000000E-03 0.  1.
</event>
<event>
 8    1  0.1161271E+005  0.1043930E+01  0.7957747E-01            NaN
         13   -1    0    0    0    0  0.00000000000E+00  0.00000000000E+00  0.74505805969E-08  0.10566000000E+00  0.10566000000E+00 0. -1.
     999900   -1    0    0    0    0 -0.00000000000E+00 -0.00000000000E+00 -0.74505805969E-08  0.93827000000E+00  0.93827000000E+00 0. -1.
     999902    2    1    2    0    0  0.21521546537E-01  0.92944432699E-02  0.39413422533E-03  0.10204839133E+01  0.10202145354E+01 0.  0.
     999903    2    3    3    0    0 -0.56165363185E-03 -0.43368722720E-01  0.12138398714E+00  0.13037177355E+00  0.19533700085E-01 0.  0.
         14    1    1    2    0    0 -0.21521546537E-01 -0.92944432699E-02 -0.39413422533E-03  0.23446086728E-01  0.00000000000E+00 0.  1.
     999901    1    3    3    0    0  0.22083200169E-01  0.52663165990E-01 -0.12098985291E+00  0.89011213973E+00  0.88000000000E+00 0. -1.
        -11    1    4    4    0    0 -0.99818057307E-02 -0.22001526040E-01  0.58869126348E-01  0.63635986295E-01  0.51100000000E-03 0. -1.
         11    1    4    4    0    0  0.94201520988E-02 -0.21367196680E-01  0.62514860788E-01  0.66735787250E-01  0.51100000000E-03 0.  1.
</event>
<event>
 8    1  0.1161271E+005  0.1043930E+01  0.7957747E-01            NaN
         13   -1    0    0    0    0  0.00000000000E+00  0.00000000000E+00  0.74505805969E-08  0.10566000000E+00  0.10566000000E+00 0.  1.
     999900   -1    0    0    0    0 -0.00000000000E+00 -0.00000000000E+00 -0.74505805969E-08  0.93827000000E+00  0.93827000000E+00 0.  1.
     999902    2    1    2    0    0 -0.49794000373E-03 -0.16775091783E-01  0.16851568662E-01  0.10201470857E+01  0.10198698198E+01 0.  0.
     999903    2    3    3    0    0  0.93243380937E-01  0.74255598499E-01  0.47173131695E-01  0.12998225877E+00  0.21490957284E-01 0.  0.
         14    1    1    2    0    0  0.49794000373E-03  0.16775091783E-01 -0.16851568662E-01  0.23782914349E-01  0.00000000000E+00 0. -1.
     999901    1    3    3    0    0 -0.93741320941E-01 -0.91030690282E-01 -0.30321563033E-01  0.89016482688E+00  0.88000000000E+00 0.  1.
        -11    1    4    4    0    0  0.10077744855E-01  0.13378116298E-02  0.13846913717E-02  0.10272739290E-01  0.51100000000E-03 0. -1.
         11    1    4    4    0    0  0.83165636082E-01  0.72917786869E-01  0.45788440323E-01  0.11970951948E+00  0.51100000000E-03 0.  1.
</event>
<event>
 7    1  0.1161271E+005  0.1043930E+01  0.7957747E-01            NaN
         13   -1    0    0    0    0  0.00000000000E+00  0.00000000000E+00  0.74505805969E-08  0.10566000000E+00  0.10566000000E+00 0. -1.
     999900   -1    0    0    0    0 -0.00000000000E+00 -0.00000000000E+00 -0.74505805969E-08  0.93827000000E+00  0.93827000000E+00 0. -1.
     999902    2    1    2    0    0  0.16136000395E-01  0.52809033816E-02 -0.18039574158E-01  0.10191573400E+01  0.10188562209E+01 0.  0.
         14    1    1    2    0    0 -0.16136000395E-01 -0.52809033816E-02  0.18039574158E-01  0.24772660032E-01  0.00000000000E+00 0. -1.
     999901    1    3    3    0    0  0.10255138351E+00  0.17501040643E-01 -0.10310947304E+00  0.89210685241E+00  0.88000000000E+00 0. -1.
        -11    1    3    3    0    0 -0.54481571528E-01  0.10084829150E-01  0.50226056450E-01  0.74785448335E-01  0.51100000000E-03 0. -1.
         11    1    3    3    0    0 -0.31933811584E-01 -0.22304966411E-01  0.34843842430E-01  0.52265039225E-01  0.51100000000E-03 0.  1.
</event>
<event>
 8    1  0.1161271E+005  0.1043930E+01  0.7957747E-01            NaN
         13   -1    0    0    0    0  0.00000000000E+00  0.00000000000E+00  0.74505805969E-08  0.10566000000E+00  0.10566000000E+00 0. -1.
     999900   -1    0    0    0    0 -0.00000000000E+00 -0.00000000000E+00 -0.74505805969E-08  0.93827000000E+00  0.93827000000E+00 0.  1.
     999902    2    1    2    0    0  0.75876591770E-02 -0.22565222012E-01  0.34589288323E-02  0.10198732753E+01  0.10195895113E+01 0.  0.
     999903    2    3    3    0    0 -0.39732817893E-01 -0.99986292909E-01  0.74504317114E-01  0.13235950243E+00  0.19803762996E-01 0.  0.
         14    1    1    2    0    0 -0.75876591770E-02  0.22565222012E-01 -0.34589288323E-02  0.24056724734E-01  0.00000000000E+00 0.  1.
     999901    1    3    3    0    0  0.47320477070E-01  0.77421070897E-01 -0.71045388281E-01  0.88751377283E+00  0.88000000000E+00 0. -1.
        -11    1    4    4    0    0 -0.69673198542E-02 -0.20926589940E-01  0.63566065347E-02  0.22959383269E-01  0.51100000000E-03 0.  1.
         11    1    4    4    0    0 -0.32765498038E-01 -0.79059702969E-01  0.68147710579E-01  0.10940011917E+00  0.51100000000E-03 0. -1.
</event>
<event>
 8    1  0.1161271E+005  0.1043930E+01  0.7957747E-01            NaN
         13   -1    0    0    0    0  0.00000000000E+00  0.00000000000E+00  0.74505805969E-08  0.10566000000E+00  0.10566000000E+00 0.  1.
     999900   -1    0    0    0    0 -0.00000000000E+00 -0.00000000000E+00 -0.74505805969E-08  0.93827000000E+00  0.93827000000E+00 0. -1.
     999902    2    1    2    0    0  0.37523458119E-02 -0.22405695378E-01  0.13512303116E-01  0.10174974893E+01  0.10171541000E+01 0.  0.
     999903    2    3    3    0    0  0.47917272241E-01  0.11723061418E-01 -0.11486844282E+00  0.12643243633E+00  0.18891973190E-01 0.  0.
         14    1    1    2    0    0 -0.37523458119E-02  0.22405695378E-01 -0.13512303116E-01  0.26432510663E-01  0.00000000000E+00 0. -1.
     999901    1    3    3    0    0 -0.44164926429E-01 -0.34128756797E-01  0.12838074594E+00  0.89106505301E+00  0.88000000000E+00 0.  1.
        -11    1    4    4    0    0  0.19631724185E-01 -0.24877496343E-02 -0.58809022660E-01  0.62051234959E-01  0.51100000000E-03 0. -1.
         11    1    4    4    0    0  0.28285548056E-01  0.14210811053E-01 -0.56059420163E-01  0.64381201368E-01  0.51100000000E-03 0.  1.
</event>
<event>
 8    1  0.1161271E+005  0.1043930E+01  0.7957747E-01            NaN
         13   -1    0    0    0    0  0.00000000000E+00  0.00000000000E+00  0.74505805969E-08  0.10566000000E+00  0.10566000000E+00 0.  1.
     999900   -1    0    0    0    0 -0.00000000000E+00 -0.00000000000E+00 -0.74505805969E-08  0.93827000000E+00  0.93827000000E+00 0. -1.
     999902    2    1    2    0    0 -0.19069344171E-01  0.13702335863E-01  0.14545712382E-01  0.10163080587E+01  0.10159326249E+01 0.  0.
     999903    2    3    3    0    0 -0.11417138751E+00 -0.46477958312E-01  0.22419705060E-01  0.12910567688E+00  0.31150060877E-01 0.  0.
         14    1    1    2    0    0  0.19069344171E-01 -0.13702335863E-01 -0.14545712382E-01  0.27621941349E-01  0.00000000000E+00 0. -1.
     999901    1    3    3    0    0  0.95102043343E-01  0.60180294175E-01 -0.78739926783E-02  0.88720238177E+00  0.88000000000E+00 0.  1.
        -11    1    4    4    0    0 -0.16289398020E-01 -0.19311594478E-01  0.10028248808E-02  0.25289305009E-01  0.51100000000E-03 0. -1.
         11    1    4    4    0    0 -0.97881989494E-01 -0.27166363835E-01  0.21416880179E-01  0.10381637187E+00  0.51100000000E-03 0.  1.
</event>
<event>
 8    1  0.1161271E+005  0.1043930E+01  0.7957747E-01            NaN
         13   -1    0    0    0    0  0.00000000000E+00  0.00000000000E+00  0.74505805969E-08  0.10566000000E+00  0.10566000000E+00 0. -1.
     999900   -1    0    0    0    0 -0.00000000000E+00 -0.00000000000E+00 -0.74505805969E-08  0.93827000000E+00  0.93827000000E+00 0. -1.
     999902    2    1    2    0    0 -0.16489205567E-01 -0.11124006580E-02  0.17500680734E-01  0.10198591637E+01  0.10195750627E+01 0.  0.
     999903    2    3    3    0    0 -0.14173860419E-01 -0.12596379695E+00 -0.21873048209E-01  0.13017184640E+00  0.19962537318E-01 0.  0.
         14    1    1    2    0    0  0.16489205567E-01  0.11124006580E-02 -0.17500680734E-01  0.24070836330E-01  0.00000000000E+00 0.  1.
     999901    1    3    3    0    0 -0.23153451488E-02  0.12485139629E+00  0.39373728943E-01  0.88968731727E+00  0.88000000000E+00 0. -1.
        -11    1    4    4    0    0  0.42825227115E-02 -0.39462331229E-01 -0.99184574768E-02  0.40917630754E-01  0.51100000000E-03 0. -1.
         11    1    4    4    0    0 -0.18456383130E-01 -0.86501465721E-01 -0.11954590732E-01  0.89254215647E-01  0.51100000000E-03 0.  1.
</event>
<event>
 8    1  0.1161271E+005  0.1043930E+01  0.7957747E-01            NaN
         13   -1    0    0    0    0  0.00000000000E+00  0.00000000000E+00  0.74505805969E-08  0.10566000000E+00  0.10566000000E+00 0. -1.
     999900   -1    0    0    0    0 -0.00000000000E+00 -0.00000000000E+00 -0.74505805969E-08  0.93827000000E+00  0.93827000000E+00 0.  1.
     999902    2    1    2    0    0  0.40367255756E-02 -0.23288450898E-01  0.47631446811E-02  0.10198191177E+01  0.10195340593E+01 0.  0.
     999903    2    3    3    0    0  0.11105516664E+00  0.69682548793E-02  0.65955531819E-01  0.13071118093E+00  0.18800904991E-01 0.  0.
         14    1    1    2    0    0 -0.40367255756E-02  0.23288450898E-01 -0.47631446811E-02  0.24110882312E-01  0.00000000000E+00 0. -1.
     999901    1    3    3    0    0 -0.10701844106E+00 -0.30256705777E-01 -0.61192387138E-01  0.88910793676E+00  0.88000000000E+00 0.  1.
        -11    1    4    4    0    0  0.47662020340E-01 -0.61172686463E-02  0.30273386555E-01  0.56796375000E-01  0.51100000000E-03 0.  1.
         11    1    4    4    0    0  0.63393146297E-01  0.13085523526E-01  0.35682145263E-01  0.73914805925E-01  0.51100000000E-03 0. -1.
</event>
<event>
 8    1  0.1161271E+005  0.1043930E+01  0.7957747E-01            NaN
         13   -1    0    0    0    0  0.00000000000E+00  0.00000000000E+00  0.74505805969E-08  0.10566000000E+00  0.10566000000E+00 0.  1.
     999900   -1    0    0    0    0 -0.00000000000E+00 -0.00000000000E+00 -0.74505805969E-08  0.93827000000E+00  0.93827000000E+00 0. -1.
     999902    2    1    2    0    0 -0.21500326947E-01  0.10452789826E-01 -0.10595379059E-02  0.10199999458E+01  0.10197191976E+01 0.  0.
     999903    2    3    3    0    0  0.11195934089E+00  0.48308799741E-01  0.34874494153E-01  0.12840821462E+00  0.20094902198E-01 0.  0.
         14    1    1    2    0    0  0.21500326947E-01 -0.10452789826E-01  0.10595379059E-02  0.23930054211E-01  0.00000000000E+00 0.  1.
     999901    1    3    3    0    0 -0.13345966784E+00 -0.37856009914E-01 -0.35934032059E-01  0.89159173117E+00  0.88000000000E+00 0.  1.
        -11    1    4    4    0    0  0.81698445717E-01  0.38197891996E-01  0.34308385623E-01  0.96493737779E-01  0.51100000000E-03 0. -1.
         11    1    4    4    0    0  0.30260895176E-01  0.10110907744E-01  0.56610852973E-03  0.31914476842E-01  0.51100000000E-03 0.  1.
</event>
<event>
 8    1  0.1161271E+005  0.1043930E+01  0.7957747E-01            NaN
         13   -1    0    0    0    0  0.00000000000E+00  0.00000000000E+00  0.74505805969E-08  0.10566000000E+00  0.10566000000E+00 0.  1.
     999900   -1    0    0    0    0 -0.00000000000E+00 -0.00000000000E+00 -0.74505805969E-08  0.93827000000E+00  0.93827000000E+00 0.  1.
     999902    2    1    2    0    0 -0.31380714006E-02 -0.14224014364E-01  0.18979436786E-01  0.10200053454E+01  0.10197247254E+01 0.  0.
     999903    2    3    3    0    0  0.68107186988E-01 -0.29721390723E-01  0.10822760821E+00  0.13249123756E+00  0.17853931374E-01 0.  0.
         14    1    1    2    0    0  0.31380714006E-02  0.14224014364E-01 -0.18979436786E-01  0.23924654595E-01  0.00000000000E+00 0.  1.
     999901    1    3    3    0    0 -0.71245258389E-01  0.15497376359E-01 -0.89248171426E-01  0.88751410784E+00  0.88000000000E+00 0.  1.
        -11    1    4    4    0    0  0.40661029499E-02 -0.73421042006E-02  0.93072863849E-02  0.12542981629E-01  0.51100000000E-03 0. -1.
         11    1    4    4    0    0  0.64041084039E-01 -0.22379286523E-01  0.98920321827E-01  0.11994825593E+00  0.51100000000E-03 0.  1.
</event>
<event>
 8    1  0.1161271E+005  0.1043930E+01  0.7957747E-01            NaN
         13   -1    0    0    0    0  0.00000000000E+00  0.00000000000E+00  0.74505805969E-08  0.10566000000E+00  0.10566000000E+00 0. -1.
     999900   -1    0    0    0    0 -0.00000000000E+00 -0.00000000000E+00 -0.74505805969E-08  0.93827000000E+00  0.93827000000E+00 0. -1.
     999902    2    1    2    0    0 -0.14918790641E-01  0.42794127101E-02 -0.18166002847E-01  0.10200367510E+01  0.10197568760E+01 0.  0.
     999903    2    3    3    0    0  0.69373812886E-01  0.97696842260E-01  0.43725785235E-01  0.12893481937E+00  0.18837315378E-01 0.  0.
         14    1    1    2    0    0  0.14918790641E-01 -0.42794127101E-02  0.18166002847E-01  0.23893248979E-01  0.00000000000E+00 0. -1.
     999901    1    3    3    0    0 -0.84292603528E-01 -0.93417429550E-01 -0.61891788081E-01  0.89110193165E+00  0.88000000000E+00 0. -1.
        -11    1    4    4    0    0  0.17198246049E-01  0.38617113876E-01  0.18769955279E-01  0.46256172490E-01  0.51100000000E-03 0. -1.
         11    1    4    4    0    0  0.52175566838E-01  0.59079728384E-01  0.24955829955E-01  0.82678646884E-01  0.51100000000E-03 0.  1.
</event>
<event>
 8    1  0.1161271E+005  0.1043930E+01  0.7957747E-01            NaN
         13   -1    0    0    0    0  0.00000000000E+00  0.00000000000E+00  0.74505805969E-08  0.10566000000E+00  0.10566000000E+00 0.  1.
     999900   -1    0    0    0    0 -0.00000000000E+00 -0.00000000000E+00 -0.74505805969E-08  0.93827000000E+00  0.93827000000E+00 0.  1.
     999902    2    1    2    0    0 -0.21982486729E-01  0.17907089986E-02  0.16938498327E-02  0.10218097494E+01  0.10215702905E+01 0.  0.
     999903    2    3    3    0    0 -0.10761922268E+00 -0.70992700058E-01  0.31110237478E-01  0.13417446443E+00  0.20324356767E-01 0.  0.
         14    1    1    2    0    0  0.21982486729E-01 -0.17907089986E-02 -0.16938498327E-02  0.22120250649E-01  0.00000000000E+00 0.  1.
     999901    1    3    3    0    0  0.85636735946E-01  0.72783409057E-01 -0.29416387645E-01  0.88763528492E+00  0.88000000000E+00 0.  1.
        -11    1    4    4    0    0 -0.55974559312E-01 -0.25146005929E-01  0.17151382843E-01  0.63717375643E-01  0.51100000000E-03 0. -1.
         11    1    4    4    0    0 -0.51644663363E-01 -0.45846694129E-01  0.13958854635E-01  0.70457088785E-01  0.51100000000E-03 0.  1.
</event>
<event>
 8    1  0.1161271E+005  0.1043930E+01  0.7957747E-01            NaN
         13   -1    0    0    0    0  0.00000000000E+00  0.00000000000E+00  0.74505805969E-08  0.10566000000E+00  0.10566000000E+00 0.  1.
     999900   -1    0    0    0    0 -0.00000000000E+00 -0.00000000000E+00 -0.74505805969E-08  0.93827000000E+00  0.93827000000E+00 0. -1.
     999902    2    1    2    0    0  0.10741671428E-01  0.67568299083E-02 -0.19877403664E-01  0.10203471793E+01  0.10200746134E+01 0.  0.
     999903    2    3    3    0    0 -0.64698266040E-01 -0.10140062661E+00 -0.45649516614E-01  0.13014865012E+00  0.19668249899E-01 0.  0.
         14    1    1    2    0    0 -0.10741671428E-01 -0.67568299083E-02  0.19877403664E-01  0.23582820695E-01  0.00000000000E+00 0.  1.
     999901    1    3    3    0    0  0.75439937468E-01  0.10815745652E+00  0.25772112950E-01  0.89019852919E+00  0.88000000000E+00 0. -1.
        -11    1    4    4    0    0 -0.66504790275E-02 -0.20339895373E-01 -0.13858180671E-01  0.25500009953E-01  0.51100000000E-03 0. -1.
         11    1    4    4    0    0 -0.58047787012E-01 -0.81060731238E-01 -0.31791335943E-01  0.10464864016E+00  0.51100000000E-03 0.  1.
</event>
<event>
 8    1  0.1161271E+005  0.1043930E+01  0.7957747E-01            NaN
         13   -1    0    0    0    0  0.00000000000E+00  0.00000000000E+00  0.74505805969E-08  0.10566000000E+00  0.10566000000E+00 0.  1.
     999900   -1    0    0    0    0 -0.00000000000E+00 -0.00000000000E+00 -0.74505805969E-08  0.93827000000E+00  0.93827000000E+00 0.  1.
     999902    2    1    2    0    0  0.13882997615E-01  0.16069087909E-01 -0.15275000377E-01  0.10177712759E+01  0.10174350550E+01 0.  0.
     999903    2    3    3    0    0  0.79373227445E-01  0.31528551792E-01  0.93884215218E-01  0.12847734275E+00  0.19950511757E-01 0.  0.
         14    1    1    2    0    0 -0.13882997615E-01 -0.16069087909E-01  0.15275000377E-01  0.26158724080E-01  0.00000000000E+00 0.  1.
     999901    1    3    3    0    0 -0.65490229830E-01 -0.15459463884E-01 -0.10915921560E+00  0.88929393317E+00  0.88000000000E+00 0.  1.
        -11    1    4    4    0    0  0.21138472827E-01 -0.53672138188E-03  0.24937382179E-01  0.32699499297E-01  0.51100000000E-03 0. -1.
         11    1    4    4    0    0  0.58234754617E-01  0.32065273174E-01  0.68946833039E-01  0.95777843451E-01  0.51100000000E-03 0.  1.
</event>
<event>
 8    1  0.1161271E+005  0.1043930E+01  0.7957747E-01            NaN
         13   -1    0    0    0    0  0.00000000000E+00  0.00000000000E+00  0.74505805969E-08  0.10566000000E+00  0.10566000000E+00 0.  1.
     999900   -1    0    0    0    0 -0.00000000000E+00 -0.00000000000E+00 -0.74505805969E-08  0.93827000000E+00  0.93827000000E+00 0. -1.
     999902    2    1    2    0    0  0.22228446669E-01 -0.39823666795E-02 -0.55553341982E-02  0.10206743593E+01  0.10204093899E+01 0.  0.
     999903    2    3    3    0    0 -0.28070520992E-01 -0.12629065478E+00 -0.17642074014E-02  0.13078466046E+00  0.19084846084E-01 0.  0.
         14    1    1    2    0    0 -0.22228446669E-01  0.39823666795E-02  0.55553341982E-02  0.23255640686E-01  0.00000000000E+00 0. -1.
     999901    1    3    3    0    0  0.50298967661E-01  0.12230828810E+00 -0.37911267968E-02  0.88988969885E+00  0.88000000000E+00 0. -1.
        -11    1    4    4    0    0 -0.54321155826E-02 -0.68010324704E-01 -0.20368833935E-02  0.68259227662E-01  0.51100000000E-03 0. -1.
         11    1    4    4    0    0 -0.22638405409E-01 -0.58280330076E-01  0.27267599212E-03  0.62525432797E-01  0.51100000000E-03 0.  1.
</event>
<event>
 8    1  0.1177987E+005  0.1043930E+01  0.7957747E-01            NaN
         13   -1    0    0    0    0  0.00000000000E+00  0.00000000000E+00  0.74505805969E-08  0.10566000000E+00  0.10566000000E+00 0. -1.
     999900   -1    0    0    0    0 -0.00000000000E+00 -0.00000000000E+00 -0.74505805969E-08  0.93827000000E+00  0.93827000000E+00 0.  1.
     999902    2    1    2    0    0  0.11855427787E-01  0.18540731131E-01 -0.18061451433E-02  0.10218489665E+01  0.10216103652E+01 0.  0.
     999903    2    3    3    0    0 -0.95342981199E-01  0.70576497813E-01 -0.55101655059E-01  0.13222003755E+00  0.19355098331E-01 0.  0.
         14    1    1    2    0    0 -0.11855427787E-01 -0.18540731131E-01  0.18061451433E-02  0.22081033472E-01  0.00000000000E+00 0. -1.
     999901    1    3    3    0    0  0.10719840899E+00 -0.52035766681E-01  0.53295509916E-01  0.88962892898E+00  0.88000000000E+00 0. -1.
        -11    1    4    4    0    0 -0.57059390705E-01  0.30261257562E-01 -0.29123034137E-01  0.70851464454E-01  0.51100000000E-03 0. -1.
         11    1    4    4    0    0 -0.38283590494E-01  0.40315240250E-01 -0.25978620922E-01  0.61368573093E-01  0.51100000000E-03 0.  1.
</event>
<event>
 8    1  0.1161271E+005  0.1043930E+01  0.7957747E-01            NaN
         13   -1    0    0    0    0  0.00000000000E+00  0.00000000000E+00  0.74505805969E-08  0.10566000000E+00  0.10566000000E+00 0.  1.
     999900   -1    0    0    0    0 -0.00000000000E+00 -0.00000000000E+00 -0.74505805969E-08  0.93827000000E+00  0.93827000000E+00 0.  1.
     999902    2    1    2    0    0 -0.97629330341E-02  0.14570813443E-01  0.16258179639E-01  0.10200144847E+01  0.10197340816E+01 0.  0.
     999903    2    3    3    0    0 -0.29285516622E-02  0.80286183409E-01  0.10439225811E+00  0.13314762075E+00  0.19393238460E-01 0.  0.
         14    1    1    2    0    0  0.97629330341E-02 -0.14570813443E-01 -0.16258179639E-01  0.23915515278E-01  0.00000000000E+00 0. -1.
     999901    1    3    3    0    0 -0.68343813719E-02 -0.65715369965E-01 -0.88134078470E-01  0.88686686397E+00  0.88000000000E+00 0.  1.
        -11    1    4    4    0    0  0.31465789564E-03  0.22159661865E-01  0.16136375054E-01  0.27418850167E-01  0.51100000000E-03 0. -1.
         11    1    4    4    0    0 -0.32432095578E-02  0.58126521544E-01  0.88255883055E-01  0.10572877059E+00  0.51100000000E-03 0.  1.
</event>
<event>
 8    1  0.1161271E+005  0.1043930E+01  0.7957747E-01            NaN
         13   -1    0    0    0    0  0.00000000000E+00  0.00000000000E+00  0.74505805969E-08  0.10566000000E+00  0.10566000000E+00 0.  1.
     999900   -1    0    0    0    0 -0.00000000000E+00 -0.00000000000E+00 -0.74505805969E-08  0.93827000000E+00  0.93827000000E+00 0.  1.
     999902    2    1    2    0    0 -0.14658904869E-01 -0.31744212563E-02 -0.18708648421E-01  0.10199513852E+01  0.10196694828E+01 0.  0.
     999903    2    3    3    0    0 -0.55911949692E-01 -0.19115188261E-01  0.11278878710E+00  0.12908242889E+00  0.21199679532E-01 0.  0.
         14    1    1    2    0    0  0.14658904869E-01  0.31744212563E-02  0.18708648421E-01  0.23978614805E-01  0.00000000000E+00 0.  1.
     999901    1    3    3    0    0  0.41253044823E-01  0.15940767005E-01 -0.13149743552E+00  0.89086895631E+00  0.88000000000E+00 0.  1.
        -11    1    4    4    0    0 -0.32701810535E-01 -0.30352709542E-02  0.45585340995E-01  0.56186348134E-01  0.51100000000E-03 0. -1.
         11    1    4    4    0    0 -0.23210139157E-01 -0.16079917307E-01  0.67203446104E-01  0.72896080755E-01  0.51100000000E-03 0.  1.
</event>
<event>
 8    1  0.1161271E+005  0.1043930E+01  0.7957747E-01            NaN
         13   -1    0    0    0    0  0.00000000000E+00  0.00000000000E+00  0.74505805969E-08  0.10566000000E+00  0.10566000000E+00 0.  1.
     999900   -1    0    0    0    0 -0.00000000000E+00 -0.00000000000E+00 -0.74505805969E-08  0.93827000000E+00  0.93827000000E+00 0.  1.
     999902    2    1    2    0    0 -0.86467223547E-03  0.80744591929E-02  0.22535218193E-01  0.10199762820E+01  0.10196949716E+01 0.  0.
     999903    2    3    3    0    0  0.33396139920E-01 -0.12293574701E+00  0.10775148920E-01  0.12954055906E+00  0.20884265626E-01 0.  0.
         14    1    1    2    0    0  0.86467223547E-03 -0.80744591929E-02 -0.22535218193E-01  0.23953718048E-01  0.00000000000E+00 0. -1.
     999901    1    3    3    0    0 -0.34260812156E-01  0.13101020621E+00  0.11760069272E-01  0.89043572290E+00  0.88000000000E+00 0. -1.
        -11    1    4    4    0    0  0.82773027621E-02 -0.52020916930E-01  0.13057942330E-01  0.54272097050E-01  0.51100000000E-03 0. -1.
         11    1    4    4    0    0  0.25118837158E-01 -0.70914830084E-01 -0.22827934101E-02  0.75268462006E-01  0.51100000000E-03 0.  1.
</event>
<event>
 8    1  0.1161271E+005  0.1043930E+01  0.7957747E-01            NaN
         13   -1    0    0    0    0  0.00000000000E+00  0.00000000000E+00  0.74505805969E-08  0.10566000000E+00  0.10566000000E+00 0.  1.
     999900   -1    0    0    0    0 -0.00000000000E+00 -0.00000000000E+00 -0.74505805969E-08  0.93827000000E+00  0.93827000000E+00 0. -1.
     999902    2    1    2    0    0 -0.65641783106E-02 -0.93089910019E-02 -0.28441690303E-01  0.10132921884E+01  0.10128289015E+01 0.  0.
     999903    2    3    3    0    0  0.11070013623E+00  0.49838734843E-01  0.13352347766E-02  0.12304725685E+00  0.20010620065E-01 0.  0.
         14    1    1    2    0    0  0.65641783106E-02  0.93089910019E-02  0.28441690303E-01  0.30637811568E-01  0.00000000000E+00 0.  1.
     999901    1    3    3    0    0 -0.11726431454E+00 -0.59147725845E-01 -0.29776925080E-01  0.89024493158E+00  0.88000000000E+00 0. -1.
        -11    1    4    4    0    0  0.35322991203E-01  0.23675350270E-01 -0.58815373086E-02  0.42931218479E-01  0.51100000000E-03 0.  1.
         11    1    4    4    0    0  0.75377145024E-01  0.26163384572E-01  0.72167720852E-02  0.80116038373E-01  0.51100000000E-03 0. -1.
</event>
<event>
 8    1  0.1161271E+005  0.1043930E+01  0.7957747E-01            NaN
         13   -1    0    0    0    0  0.00000000000E+00  0.00000000000E+00  0.74505805969E-08  0.10566000000E+00  0.10566000000E+00 0.  1.
     999900   -1    0    0    0    0 -0.00000000000E+00 -0.00000000000E+00 -0.74505805969E-08  0.93827000000E+00  0.93827000000E+00 0. -1.
     999902    2    1    2    0    0  0.16246217257E-01  0.12459536970E-01 -0.11838968482E-01  0.10202796129E+01  0.10200054645E+01 0.  0.
     999903    2    3    3    0    0 -0.10520555882E+00  0.12193332737E-01 -0.72877135361E-01  0.12984361708E+00  0.18204424411E-01 0.  0.
         14    1    1    2    0    0 -0.16246217257E-01 -0.12459536970E-01  0.11838968482E-01  0.23650387130E-01  0.00000000000E+00 0.  1.
     999901    1    3    3    0    0  0.12145177608E+00  0.26620423368E-03  0.61038166878E-01  0.89043599579E+00  0.88000000000E+00 0.  1.
        -11    1    4    4    0    0 -0.91535914631E-01  0.67658290280E-02 -0.68370185704E-01  0.11445236356E+00  0.51100000000E-03 0.  1.
         11    1    4    4    0    0 -0.13669644192E-01  0.54275037088E-02 -0.45069496566E-02  0.15391253525E-01  0.51100000000E-03 0. -1.
</event>
<event>
 8    1  0.1161271E+005  0.1043930E+01  0.7957747E-01            NaN
         13   -1    0    0    0    0  0.00000000000E+00  0.00000000000E+00  0.74505805969E-08  0.10566000000E+00  0.10566000000E+00 0.  1.
     999900   -1    0    0    0    0 -0.00000000000E+00 -0.00000000000E+00 -0.74505805969E-08  0.93827000000E+00  0.93827000000E+00 0.  1.
     999902    2    1    2    0    0 -0.12718271485E-03 -0.62603345404E-02  0.22441980658E-01  0.10206308485E+01  0.10203648752E+01 0.  0.
     999903    2    3    3    0    0 -0.55245062996E-01  0.22328822554E-01  0.11747516064E+00  0.13333911187E+00  0.20695702055E-01 0.  0.
         14    1    1    2    0    0  0.12718271485E-03  0.62603345404E-02 -0.22441980658E-01  0.23299151484E-01  0.00000000000E+00 0. -1.
     999901    1    3    3    0    0  0.55117880281E-01 -0.28589157094E-01 -0.95033179983E-01  0.88729173665E+00  0.88000000000E+00 0. -1.
        -11    1    4    4    0    0 -0.41341578730E-01  0.67196471427E-02  0.72249248399E-01  0.83513440864E-01  0.51100000000E-03 0. -1.
         11    1    4    4    0    0 -0.13903484265E-01  0.15609175411E-01  0.45225912242E-01  0.49825671002E-01  0.51100000000E-03 0.  1.
</event>
<event>
 8    1  0.1161271E+005  0.1043930E+01  0.7957747E-01            NaN
         13   -1    0    0    0    0  0.00000000000E+00  0.00000000000E+00  0.74505805969E-08  0.10566000000E+00  0.10566000000E+00 0.  1.
     999900   -1    0    0    0    0 -0.00000000000E+00 -0.00000000000E+00 -0.74505805969E-08  0.93827000000E+00  0.93827000000E+00 0. -1.
     999902    2    1    2    0    0 -0.18000646111E-01  0.13846089941E-01 -0.17223166953E-02  0.10211549294E+01  0.10209009188E+01 0.  0.
     999903    2    3    3    0    0  0.56872952635E-01  0.27772478217E-01  0.11240410874E+00  0.13052322039E+00  0.19894323567E-01 0.  0.
         14    1    1    2    0    0  0.18000646111E-01 -0.13846089941E-01  0.17223166953E-02  0.22775070622E-01  0.00000000000E+00 0.  1.
     999901    1    3    3    0    0 -0.74873598746E-01 -0.13926388276E-01 -0.11412642544E+00  0.89063170899E+00  0.88000000000E+00 0. -1.
        -11    1    4    4    0    0  0.43548311362E-01  0.11045724900E-01  0.77747244783E-01  0.89796206231E-01  0.51100000000E-03 0. -1.
         11    1    4    4    0    0  0.13324641273E-01  0.16726753316E-01  0.34656863957E-01  0.40727014154E-01  0.51100000000E-03 0.  1.
</event>
<event>
 8    1  0.1161271E+005  0.1043930E+01  0.7957747E-01            NaN
         13   -1    0    0    0    0  0.00000000000E+00  0.00000000000E+00  0.74505805969E-08  0.10566000000E+00  0.10566000000E+00 0.  1.
     999900   -1    0    0    0    0 -0.00000000000E+00 -0.00000000000E+00 -0.74505805969E-08  0.93827000000E+00  0.93827000000E+00 0.  1.
     999902    2    1    2    0    0 -0.22543196556E-01 -0.82195486217E-02 -0.67134325116E-03  0.10199256797E+01  0.10196431654E+01 0.  0.
     999903    2    3    3    0    0  0.11121089813E+00 -0.56940835332E-01  0.19386672981E-01  0.12826080677E+00  0.21560818041E-01 0.  0.
         14    1    1    2    0    0  0.22543196556E-01  0.82195486217E-02  0.67134325116E-03  0.24004320283E-01  0.00000000000E+00 0.  1.
     999901    1    3    3    0    0 -0.13375409468E+00  0.48721286710E-01 -0.20058016232E-01  0.89166487294E+00  0.88000000000E+00 0. -1.
        -11    1    4    4    0    0  0.37704541508E-01 -0.18119815074E-01 -0.36607753575E-02  0.41995506258E-01  0.51100000000E-03 0.  1.
         11    1    4    4    0    0  0.73506356619E-01 -0.38821020258E-01  0.23047448338E-01  0.86265300516E-01  0.51100000000E-03 0. -1.
</event>
<event>
 8    1  0.1161271E+005  0.1043930E+01  0.7957747E-01            NaN
         13   -1    0    0    0    0  0.00000000000E+00  0.00000000000E+00  0.74505805969E-08  0.10566000000E+00  0.10566000000E+00 0. -1.
     999900   -1    0    0    0    0 -0.00000000000E+00 -0.00000000000E+00 -0.74505805969E-08  0.93827000000E+00  0.93827000000E+00 0.  1.
     999902    2    1    2    0    0  0.12842735113E-01  0.97141557578E-02 -0.17928342491E-01  0.10198317401E+01  0.10195469837E+01 0.  0.
     999903    2    3    3    0    0  0.21671245699E-01 -0.57692502127E-01  0.11021702455E+00  0.12795571997E+00  0.20659285627E-01 0.  0.
         14    1    1    2    0    0 -0.12842735113E-01 -0.97141557578E-02  0.17928342491E-01  0.24098259932E-01  0.00000000000E+00 0.  1.
     999901    1    3    3    0    0 -0.88285105858E-02  0.67406657885E-01 -0.12814536704E+00  0.89187602009E+00  0.88000000000E+00 0.  1.
        -11    1    4    4    0    0  0.11489053682E-01 -0.74826745950E-02  0.21398004375E-01  0.25418978851E-01  0.51100000000E-03 0. -1.
         11    1    4    4    0    0  0.10182192017E-01 -0.50209827532E-01  0.88819020170E-01  0.10253674112E+00  0.51100000000E-03 0.  1.
</event>
<event>
 8    1  0.1161271E+005  0.1043930E+01  0.7957747E-01            NaN
         13   -1    0    0    0    0  0.00000000000E+00  0.00000000000E+00  0.74505805969E-08  0.10566000000E+00  0.10566000000E+00 0.  1.
     999900   -1    0    0    0    0 -0.00000000000E+00 -0.00000000000E+00 -0.74505805969E-08  0.93827000000E+00  0.93827000000E+00 0.  1.
     999902    2    1    2    0    0  0.17287477140E-01  0.13393571763E-01 -0.77775569547E-02  0.10207193339E+01  0.10204554001E+01 0.  0.
     999903    2    3    3    0    0 -0.59129261034E-02 -0.12732772514E+00 -0.30128221685E-02  0.12922427229E+00  0.21036234610E-01 0.  0.
         14    1    1    2    0    0 -0.17287477140E-01 -0.13393571763E-01  0.77775569547E-02  0.23210666139E-01  0.00000000000E+00 0.  1.
     999901    1    3    3    0    0  0.23200403244E-01  0.14072129690E+00 -0.47647347862E-02  0.89149506157E+00  0.88000000000E+00 0.  1.
        -11    1    4    4    0    0  0.25211860407E-02 -0.10872720347E+00 -0.27826710714E-02  0.10879322375E+00  0.51100000000E-03 0. -1.
         11    1    4    4    0    0 -0.84341121441E-02 -0.18600521669E-01 -0.23015109716E-03  0.20431048542E-01  0.51100000000E-03 0.  1.
</event>
<event>
 8    1  0.1161271E+005  0.1043930E+01  0.7957747E-01            NaN
         13   -1    0    0    0    0  0.00000000000E+00  0.00000000000E+00  0.74505805969E-08  0.10566000000E+00  0.10566000000E+00 0. -1.
     999900   -1    0    0    0    0 -0.00000000000E+00 -0.00000000000E+00 -0.74505805969E-08  0.93827000000E+00  0.93827000000E+00 0.  1.
     999902    2    1    2    0    0 -0.48781732460E-02  0.20908624939E-01  0.12889725233E-01  0.10188877919E+01  0.10185800019E+01 0.  0.
     999903    2    3    3    0    0  0.47425459962E-01 -0.11493726521E+00  0.11524621592E-01  0.12692835366E+00  0.22764904433E-01 0.  0.
         14    1    1    2    0    0  0.48781732460E-02 -0.20908624939E-01 -0.12889725233E-01  0.25042208122E-01  0.00000000000E+00 0.  1.
     999901    1    3    3    0    0 -0.52303633208E-01  0.13584589015E+00  0.13651036412E-02  0.89195943822E+00  0.88000000000E+00 0.  1.
        -11    1    4    4    0    0  0.12179327362E-01 -0.35928076729E-01  0.13829718017E-01  0.40381740105E-01  0.51100000000E-03 0.  1.
         11    1    4    4    0    0  0.35246132600E-01 -0.79009188480E-01 -0.23050964253E-02  0.86546613556E-01  0.51100000000E-03 0. -1.
</event>
<event>
 8    1  0.1161271E+005  0.1043930E+01  0.7957747E-01            NaN
         13   -1    0    0    0    0  0.00000000000E+00  0.00000000000E+00  0.74505805969E-08  0.10566000000E+00  0.10566000000E+00 0. -1.
     999900   -1    0    0    0    0 -0.00000000000E+00 -0.00000000000E+00 -0.74505805969E-08  0.93827000000E+00  0.93827000000E+00 0.  1.
     999902    2    1    2    0    0 -0.42466857293E-02 -0.21852673795E-01 -0.21938564671E-02  0.10215606751E+01  0.10213157328E+01 0.  0.
     999903    2    3    3    0    0  0.11512464269E+00 -0.25917757661E-01  0.54245713575E-01  0.13170031298E+00  0.21839447782E-01 0.  0.
         14    1    1    2    0    0  0.42466857293E-02  0.21852673795E-01  0.21938564671E-02  0.22369324931E-01  0.00000000000E+00 0. -1.
     999901    1    3    3    0    0 -0.11937132842E+00  0.40650838652E-02 -0.56439570042E-01  0.88986036209E+00  0.88000000000E+00 0.  1.
        -11    1    4    4    0    0  0.68614947051E-01 -0.10789399351E-01  0.42389362193E-01  0.81372853245E-01  0.51100000000E-03 0.  1.
         11    1    4    4    0    0  0.46509695643E-01 -0.15128358309E-01  0.11856351382E-01  0.50327459731E-01  0.51100000000E-03 0. -1.
</event>
<event>
 8    1  0.1161271E+005  0.1043930E+01  0.7957747E-01            NaN
         13   -1    0    0    0    0  0.00000000000E+00  0.00000000000E+00  0.74505805969E-08  0.10566000000E+00  0.10566000000E+00 0.  1.
     999900   -1    0    0    0    0 -0.00000000000E+00 -0.00000000000E+00 -0.74505805969E-08  0.93827000000E+00  0.93827000000E+00 0. -1.
     999902    2    1    2    0    0  0.73375352406E-02 -0.16552066686E-01 -0.15853536304E-01  0.10198645694E+01  0.10195805976E+01 0.  0.
     999903    2    3    3    0    0 -0.40381465988E-01  0.10966407452E+00  0.46904069959E-01  0.12737023639E+00  0.19139313002E-01 0.  0.
         14    1    1    2    0    0 -0.73375352406E-02  0.16552066686E-01  0.15853536304E-01  0.24065430566E-01  0.00000000000E+00 0. -1.
     999901    1    3    3    0    0  0.47719001229E-01 -0.12621614121E+00 -0.62757606263E-01  0.89249433305E+00  0.88000000000E+00 0. -1.
        -11    1    4    4    0    0 -0.27787958460E-01  0.89855871379E-01  0.43567032974E-01  0.10365614183E+00  0.51100000000E-03 0. -1.
         11    1    4    4    0    0 -0.12593507528E-01  0.19808203143E-01  0.33370369856E-02  0.23714094553E-01  0.51100000000E-03 0.  1.
</event>
<event>
 8    1  0.1161271E+005  0.1043930E+01  0.7957747E-01            NaN
         13   -1    0    0    0    0  0.00000000000E+00  0.00000000000E+00  0.74505805969E-08  0.10566000000E+00  0.10566000000E+00 0. -1.
     999900   -1    0    0    0    0 -0.00000000000E+00 -0.00000000000E+00 -0.74505805969E-08  0.93827000000E+00  0.93827000000E+00 0.  1.
     999902    2    1    2    0    0 -0.19803617608E-01  0.11759070570E-01  0.41381279126E-02  0.10205295061E+01  0.10202611870E+01 0.  0.
     999903    2    3    3    0    0  0.11338729297E+00  0.58492735442E-01 -0.43787481459E-02  0.12924033236E+00  0.20144770181E-01 0.  0.
         14    1    1    2    0    0  0.19803617608E-01 -0.11759070570E-01 -0.41381279126E-02  0.23400493877E-01  0.00000000000E+00 0.  1.
     999901    1    3    3    0    0 -0.13319091058E+00 -0.46733664872E-01  0.85168760585E-02  0.89128917377E+00  0.88000000000E+00 0. -1.
        -11    1    4    4    0    0  0.36004190917E-01  0.29341267380E-01 -0.37862339820E-03  0.46450147596E-01  0.51100000000E-03 0.  1.
         11    1    4    4    0    0  0.77383102056E-01  0.29151468062E-01 -0.40001247477E-02  0.82790184762E-01  0.51100000000E-03 0. -1.
</event>
<event>
 8    1  0.1161271E+005  0.1043930E+01  0.7957747E-01            NaN
         13   -1    0    0    0    0  0.00000000000E+00  0.00000000000E+00  0.74505805969E-08  0.10566000000E+00  0.10566000000E+00 0. -1.
     999900   -1    0    0    0    0 -0.00000000000E+00 -0.00000000000E+00 -0.74505805969E-08  0.93827000000E+00  0.93827000000E+00 0. -1.
     999902    2    1    2    0    0  0.13412912596E-01  0.11297050254E-01 -0.16169669563E-01  0.10200765352E+01  0.10197976024E+01 0.  0.
     999903    2    3    3    0    0 -0.91485105481E-02 -0.12670273422E+00 -0.10464759002E-01  0.12901789273E+00  0.19970662496E-01 0.  0.
         14    1    1    2    0    0 -0.13412912596E-01 -0.11297050254E-01  0.16169669563E-01  0.23853464790E-01  0.00000000000E+00 0. -1.
     999901    1    3    3    0    0  0.22561423144E-01  0.13799978447E+00 -0.57049105606E-02  0.89105864248E+00  0.88000000000E+00 0. -1.
        -11    1    4    4    0    0 -0.69531632476E-02 -0.38857487221E-01 -0.11564124346E-01  0.41136855558E-01  0.51100000000E-03 0.  1.
         11    1    4    4    0    0 -0.21953473004E-02 -0.87845246997E-01  0.10993653437E-02  0.87881037175E-01  0.51100000000E-03 0. -1.
</event>
<event>
 8    1  0.1161271E+005  0.1043930E+01  0.7957747E-01            NaN
         13   -1    0    0    0    0  0.00000000000E+00  0.00000000000E+00  0.74505805969E-08  0.10566000000E+00  0.10566000000E+00 0. -1.
     999900   -1    0    0    0    0 -0.00000000000E+00 -0.00000000000E+00 -0.74505805969E-08  0.93827000000E+00  0.93827000000E+00 0.  1.
     999902    2    1    2    0    0  0.44146363273E-02  0.19844456653E-01  0.53448748483E-02  0.10229095537E+01  0.10226935494E+01 0.  0.
     999903    2    3    3    0    0  0.69302813334E-01 -0.10841448630E+00 -0.14809292436E-01  0.13101997402E+00  0.19756965212E-01 0.  0.
         14    1    1    2    0    0 -0.44146363273E-02 -0.19844456653E-01 -0.53448748483E-02  0.21020446258E-01  0.00000000000E+00 0.  1.
     999901    1    3    3    0    0 -0.64888177007E-01  0.12825894295E+00  0.20154167284E-01  0.89188957972E+00  0.88000000000E+00 0.  1.
        -11    1    4    4    0    0  0.65517227646E-01 -0.91141683289E-01 -0.10026906069E-01  0.11269478035E+00  0.51100000000E-03 0. -1.
         11    1    4    4    0    0  0.37855856887E-02 -0.17272803007E-01 -0.47823863670E-02  0.18325193671E-01  0.51100000000E-03 0.  1.
</event>
<event>
 8    1  0.1161271E+005  0.1043930E+01  0.7957747E-01            NaN
         13   -1    0    0    0    0  0.00000000000E+00  0.00000000000E+00  0.74505805969E-08  0.10566000000E+00  0.10566000000E+00 0.  1.
     999900   -1    0    0    0    0 -0.00000000000E+00 -0.00000000000E+00 -0.74505805969E-08  0.93827000000E+00  0.93827000000E+00 0.  1.
     999902    2    1    2    0    0  0.11499947297E-01 -0.17945915682E-01 -0.97516872798E-02  0.10204907150E+01  0.10202214952E+01 0.  0.
     999903    2    3    3    0    0 -0.22957310326E-01  0.42441762652E-01 -0.12014803200E+00  0.13087207352E+00  0.19068526942E-01 0.  0.
         14    1    1    2    0    0 -0.11499947297E-01  0.17945915682E-01  0.97516872798E-02  0.23439285021E-01  0.00000000000E+00 0. -1.
     999901    1    3    3    0    0  0.34457257623E-01 -0.60387678333E-01  0.11039634472E+00  0.88961864146E+00  0.88000000000E+00 0. -1.
        -11    1    4    4    0    0 -0.11262955298E-01  0.16570642577E-01 -0.27901935364E-01  0.34354322516E-01  0.51100000000E-03 0.  1.
         11    1    4    4    0    0 -0.11694355028E-01  0.25871120074E-01 -0.92246096639E-01  0.96517751007E-01  0.51100000000E-03 0. -1.
</event>
<event>
 8    1  0.1161271E+005  0.1043930E+01  0.7957747E-01            NaN
         13   -1    0    0    0    0  0.00000000000E+00  0.00000000000E+00  0.74505805969E-08  0.10566000000E+00  0.10566000000E+00 0.  1.
     999900   -1    0    0    0    0 -0.00000000000E+00 -0.00000000000E+00 -0.74505805969E-08  0.93827000000E+00  0.93827000000E+00 0.  1.
     999902    2    1    2    0    0 -0.11796522444E-01  0.15558737168E-01  0.93973950766E-02  0.10222610527E+01  0.10220313677E+01 0.  0.
     999903    2    3    3    0    0  0.65906919367E-01  0.44632855797E-01 -0.10294678634E+00  0.13124795269E+00  0.17092993625E-01 0.  0.
         14    1    1    2    0    0  0.11796522444E-01 -0.15558737168E-01 -0.93973950766E-02  0.21668947327E-01  0.00000000000E+00 0. -1.
     999901    1    3    3    0    0 -0.77703441811E-01 -0.29074118629E-01  0.11234418141E+00  0.89101309998E+00  0.88000000000E+00 0.  1.
        -11    1    4    4    0    0  0.35899575726E-01  0.16078415890E-01 -0.58426117644E-01  0.70435554507E-01  0.51100000000E-03 0. -1.
         11    1    4    4    0    0  0.30007343641E-01  0.28554439907E-01 -0.44520668694E-01  0.60812398183E-01  0.51100000000E-03 0.  1.
</event>
<event>
 8    1  0.1161271E+005  0.1043930E+01  0.7957747E-01            NaN
         13   -1    0    0    0    0  0.00000000000E+00  0.00000000000E+00  0.74505805969E-08  0.10566000000E+00  0.10566000000E+00 0.  1.
     999900   -1    0    0    0    0 -0.00000000000E+00 -0.00000000000E+00 -0.74505805969E-08  0.93827000000E+00  0.93827000000E+00 0.  1.
     999902    2    1    2    0    0 -0.61845387172E-02 -0.17396754964E-01 -0.15115397043E-01  0.10200685074E+01  0.10197893846E+01 0.  0.
     999903    2    3    3    0    0 -0.88713412100E-01  0.24111294292E-02 -0.95915849476E-01  0.13230047442E+00  0.20680481610E-01 0.  0.
         14    1    1    2    0    0  0.61845387172E-02  0.17396754964E-01  0.15115397043E-01  0.23861492623E-01  0.00000000000E+00 0. -1.
     999901    1    3    3    0    0  0.82528873383E-01 -0.19807884393E-01  0.80800452434E-01  0.88776803296E+00  0.88000000000E+00 0. -1.
        -11    1    4    4    0    0 -0.31202487273E-01  0.10480166768E-01 -0.38104955484E-01  0.50355514702E-01  0.51100000000E-03 0.  1.
         11    1    4    4    0    0 -0.57510924827E-01 -0.80690373387E-02 -0.57810893993E-01  0.81944959719E-01  0.51100000000E-03 0. -1.
</event>
<event>
 8    1  0.1161271E+005  0.1043930E+01  0.7957747E-01            NaN
         13   -1    0    0    0    0  0.00000000000E+00  0.00000000000E+00  0.74505805969E-08  0.10566000000E+00  0.10566000000E+00 0. -1.
     999900   -1    0    0    0    0 -0.00000000000E+00 -0.00000000000E+00 -0.74505805969E-08  0.93827000000E+00  0.93827000000E+00 0.  1.
     999902    2    1    2    0    0  0.16072536415E-01  0.50507349094E-02 -0.17459838792E-01  0.10196672236E+01  0.10193785187E+01 0.  0.
     999903    2    3    3    0    0  0.35042352158E-01  0.92664952562E-01  0.80040796418E-01  0.12975572295E+00  0.24804408279E-01 0.  0.
         14    1    1    2    0    0 -0.16072536415E-01 -0.50507349094E-02  0.17459838792E-01  0.24262776440E-01  0.00000000000E+00 0. -1.
     999901    1    3    3    0    0 -0.18969815743E-01 -0.87614217653E-01 -0.97500635209E-01  0.88991150061E+00  0.88000000000E+00 0.  1.
        -11    1    4    4    0    0  0.18580516753E-01  0.66436899162E-01  0.66945987536E-01  0.96130762721E-01  0.51100000000E-03 0. -1.
         11    1    4    4    0    0  0.16461835405E-01  0.26228053400E-01  0.13094808882E-01  0.33624960234E-01  0.51100000000E-03 0.  1.
</event>
<event>
 8    1  0.1161271E+005  0.1043930E+01  0.7957747E-01            NaN
         13   -1    0    0    0    0  0.00000000000E+00  0.00000000000E+00  0.74505805969E-08  0.10566000000E+00  0.10566000000E+00 0. -1.
     999900   -1    0    0    0    0 -0.00000000000E+00 -0.00000000000E+00 -0.74505805969E-08  0.93827000000E+00  0.93827000000E+00 0.  1.
     999902    2    1    2    0    0 -0.13849889233E-01 -0.49384315637E-02  0.18534722793E-01  0.10202711013E+01  0.10199967533E+01 0.  0.
     999903    2    3    3    0    0  0.12742658797E-01  0.98674294081E-02  0.13026257197E+00  0.13268477345E+00  0.19420863309E-01 0.  0.
         14    1    1    2    0    0  0.13849889233E-01  0.49384315637E-02 -0.18534722793E-01  0.23658898687E-01  0.00000000000E+00 0.  1.
     999901    1    3    3    0    0 -0.26592548030E-01 -0.14805860972E-01 -0.11172784918E+00  0.88758632786E+00  0.88000000000E+00 0.  1.
        -11    1    4    4    0    0  0.79855332506E-02 -0.31820173037E-02  0.23629815372E-01  0.25150015327E-01  0.51100000000E-03 0. -1.
         11    1    4    4    0    0  0.47571255465E-02  0.13049446712E-01  0.10663275660E+00  0.10753475812E+00  0.51100000000E-03 0.  1.
</event>
<event>
 8    1  0.1161271E+005  0.1043930E+01  0.7957747E-01            NaN
         13   -1    0    0    0    0  0.00000000000E+00  0.00000000000E+00  0.74505805969E-08  0.10566000000E+00  0.10566000000E+00 0.  1.
     999900   -1    0    0    0    0 -0.00000000000E+00 -0.00000000000E+00 -0.74505805969E-08  0.93827000000E+00  0.93827000000E+00 0. -1.
     999902    2    1    2    0    0  0.96294261162E-02  0.20995694205E-01  0.12851323530E-01  0.10174970369E+01  0.10171536357E+01 0.  0.
     999903    2    3    3    0    0 -0.24609793614E-01 -0.12118971399E+00 -0.24265801495E-02  0.12529614650E+00  0.20016176411E-01 0.  0.
         14    1    1    2    0    0 -0.96294261162E-02 -0.20995694205E-01 -0.12851323530E-01  0.26432963114E-01  0.00000000000E+00 0. -1.
     999901    1    3    3    0    0  0.34239219730E-01  0.14218540819E+00  0.15277903680E-01  0.89220089039E+00  0.88000000000E+00 0. -1.
        -11    1    4    4    0    0 -0.26312288391E-01 -0.11150965282E+00  0.17946562452E-02  0.11458717688E+00  0.51100000000E-03 0.  1.
         11    1    4    4    0    0  0.17024947774E-02 -0.96800611651E-02 -0.42212363947E-02  0.10708969620E-01  0.51100000000E-03 0. -1.
</event>
<event>
 8    1  0.1161271E+005  0.1043930E+01  0.7957747E-01            NaN
         13   -1    0    0    0    0  0.00000000000E+00  0.00000000000E+00  0.74505805969E-08  0.10566000000E+00  0.10566000000E+00 0.  1.
     999900   -1    0    0    0    0 -0.00000000000E+00 -0.00000000000E+00 -0.74505805969E-08  0.93827000000E+00  0.93827000000E+00 0. -1.
     999902    2    1    2    0    0 -0.12529116794E-01 -0.17879668236E-01  0.11065301115E-01  0.10194534358E+01  0.10191595585E+01 0.  0.
     999903    2    3    3    0    0  0.58151774597E-01 -0.11261339331E+00 -0.25205008828E-01  0.13081076162E+00  0.20316437796E-01 0.  0.
         14    1    1    2    0    0  0.12529116794E-01  0.17879668236E-01 -0.11065301115E-01  0.24476564151E-01  0.00000000000E+00 0. -1.
     999901    1    3    3    0    0 -0.70680891391E-01  0.94733725073E-01  0.36270309943E-01  0.88864267423E+00  0.88000000000E+00 0. -1.
        -11    1    4    4    0    0  0.49241758093E-01 -0.10108051923E+00 -0.28207418510E-01  0.11592213632E+00  0.51100000000E-03 0. -1.
         11    1    4    4    0    0  0.89100165039E-02 -0.11532874078E-01  0.30024096816E-02  0.14888625305E-01  0.51100000000E-03 0.  1.
</event>
<event>
 8    1  0.1161271E+005  0.1043930E+01  0.7957747E-01            NaN
         13   -1    0    0    0    0  0.00000000000E+00  0.00000000000E+00  0.74505805969E-08  0.10566000000E+00  0.10566000000E+00 0. -1.
     999900   -1    0    0    0    0 -0.00000000000E+00 -0.00000000000E+00 -0.74505805969E-08  0.93827000000E+00  0.93827000000E+00 0. -1.
     999902    2    1    2    0    0 -0.46666135588E-02  0.26256207016E-01  0.72388048121E-03  0.10172524871E+01  0.10169026172E+01 0.  0.
     999903    2    3    3    0    0  0.26179259648E-01  0.74302724747E-01  0.10112207645E+00  0.12970545543E+00  0.19788438111E-01 0.  0.
         14    1    1    2    0    0  0.46666135588E-02 -0.26256207016E-01 -0.72388048121E-03  0.26677512851E-01  0.00000000000E+00 0.  1.
     999901    1    3    3    0    0 -0.30845873207E-01 -0.48046517731E-01 -0.10039819597E+00  0.88754703172E+00  0.88000000000E+00 0. -1.
        -11    1    4    4    0    0  0.25253314351E-01  0.59881920555E-01  0.91888357545E-01  0.11254912558E+00  0.51100000000E-03 0. -1.
         11    1    4    4    0    0  0.92594529626E-03  0.14420804192E-01  0.92337189021E-02  0.17156329852E-01  0.51100000000E-03 0.  1.
</event>
<event>
 8    1  0.1161271E+005  0.1043930E+01  0.7957747E-01            NaN
         13   -1    0    0    0    0  0.00000000000E+00  0.00000000000E+00  0.74505805969E-08  0.10566000000E+00  0.10566000000E+00 0. -1.
     999900   -1    0    0    0    0 -0.00000000000E+00 -0.00000000000E+00 -0.74505805969E-08  0.93827000000E+00  0.93827000000E+00 0. -1.
     999902    2    1    2    0    0 -0.16562218606E-01  0.14970888553E-01  0.93853364394E-02  0.10197118430E+01  0.10194242118E+01 0.  0.
     999903    2    3    3    0    0  0.10653921566E-02  0.12672032399E+00 -0.28934886453E-01  0.13164252786E+00  0.20817106329E-01 0.  0.
         14    1    1    2    0    0  0.16562218606E-01 -0.14970888553E-01 -0.93853364394E-02  0.24218157017E-01  0.00000000000E+00 0.  1.
     999901    1    3    3    0    0 -0.17627610763E-01 -0.11174943543E+00  0.38320222892E-01  0.88806931512E+00  0.88000000000E+00 0.  1.
        -11    1    4    4    0    0  0.65768089683E-02  0.10622577568E+00 -0.29372711760E-01  0.11040918056E+00  0.51100000000E-03 0. -1.
         11    1    4    4    0    0 -0.55114168117E-02  0.20494548307E-01  0.43782530743E-03  0.21233347300E-01  0.51100000000E-03 0.  1.
</event>
<event>
 8    1  0.1161271E+005  0.1043930E+01  0.7957747E-01            NaN
         13   -1    0    0    0    0  0.00000000000E+00  0.00000000000E+00  0.74505805969E-08  0.10566000000E+00  0.10566000000E+00 0.  1.
     999900   -1    0    0    0    0 -0.00000000000E+00 -0.00000000000E+00 -0.74505805969E-08  0.93827000000E+00  0.93827000000E+00 0. -1.
     999902    2    1    2    0    0 -0.17569557289E-01 -0.28647226278E-02 -0.15236689724E-01  0.10204981266E+01  0.10202290790E+01 0.  0.
     999903    2    3    3    0    0  0.63241134509E-01  0.19380003164E-01  0.10766406573E+00  0.12801294942E+00  0.20511912441E-01 0.  0.
         14    1    1    2    0    0  0.17569557289E-01  0.28647226278E-02  0.15236689724E-01  0.23431873438E-01  0.00000000000E+00 0.  1.
     999901    1    3    3    0    0 -0.80810691798E-01 -0.22244725792E-01 -0.12290075545E+00  0.89248517715E+00  0.88000000000E+00 0. -1.
        -11    1    4    4    0    0  0.35894822646E-01  0.20465959006E-01  0.56658486068E-01  0.70126592213E-01  0.51100000000E-03 0.  1.
         11    1    4    4    0    0  0.27346311863E-01 -0.10859558419E-02  0.51005579661E-01  0.57886357202E-01  0.51100000000E-03 0. -1.
</event>
<event>
 8    1  0.1161271E+005  0.1043930E+01  0.7957747E-01            NaN
         13   -1    0    0    0    0  0.00000000000E+00  0.00000000000E+00  0.74505805969E-08  0.10566000000E+00  0.10566000000E+00 0.  1.
     999900   -1    0    0    0    0 -0.00000000000E+00 -0.00000000000E+00 -0.74505805969E-08  0.93827000000E+00  0.93827000000E+00 0.  1.
     999902    2    1    2    0    0  0.12770809920E-01  0.20244829544E-01  0.43273821079E-02  0.10196056717E+01  0.10193154825E+01 0.  0.
     999903    2    3    3    0    0 -0.19618501553E-01  0.48591441156E-01  0.11629165948E+00  0.13146795872E+00  0.31844314231E-01 0.  0.
         14    1    1    2    0    0 -0.12770809920E-01 -0.20244829544E-01 -0.43273821079E-02  0.24324328257E-01  0.00000000000E+00 0.  1.
     999901    1    3    3    0    0  0.32389311473E-01 -0.28346611612E-01 -0.11196427737E+00  0.88813771302E+00  0.88000000000E+00 0.  1.
        -11    1    4    4    0    0 -0.24438468773E-01  0.24468545163E-01  0.50343497220E-01  0.61079270556E-01  0.51100000000E-03 0. -1.
         11    1    4    4    0    0  0.48199672197E-02  0.24122895993E-01  0.65948162258E-01  0.70388688163E-01  0.51100000000E-03 0.  1.
</event>
<event>
 8    1  0.1161271E+005  0.1043930E+01  0.7957747E-01            NaN
         13   -1    0    0    0    0  0.00000000000E+00  0.00000000000E+00  0.74505805969E-08  0.10566000000E+00  0.10566000000E+00 0.  1.
     999900   -1    0    0    0    0 -0.00000000000E+00 -0.00000000000E+00 -0.74505805969E-08  0.93827000000E+00  0.93827000000E+00 0.  1.
     999902    2    1    2    0    0  0.16217897473E-01  0.16918019201E-01 -0.29680089378E-02  0.10203069467E+01  0.10200334390E+01 0.  0.
     999903    2    3    3    0    0 -0.16586962798E-01  0.12959776602E+00 -0.83175289179E-02  0.13249981582E+00  0.20403715649E-01 0.  0.
         14    1    1    2    0    0 -0.16217897473E-01 -0.16918019201E-01  0.29680089378E-02  0.23623053342E-01  0.00000000000E+00 0.  1.
     999901    1    3    3    0    0  0.32804860271E-01 -0.11267974682E+00  0.53495199801E-02  0.88780713084E+00  0.88000000000E+00 0. -1.
        -11    1    4    4    0    0 -0.12836176463E-01  0.74994126848E-01  0.47237264183E-02  0.76232940388E-01  0.51100000000E-03 0. -1.
         11    1    4    4    0    0 -0.37507863353E-02  0.54603639175E-01 -0.13041255336E-01  0.56266875433E-01  0.51100000000E-03 0.  1.
</event>
<event>
 8    1  0.1161271E+005  0.1043930E+01  0.7957747E-01            NaN
         13   -1    0    0    0    0  0.00000000000E+00  0.00000000000E+00  0.74505805969E-08  0.10566000000E+00  0.10566000000E+00 0.  1.
     999900   -1    0    0    0    0 -0.00000000000E+00 -0.00000000000E+00 -0.74505805969E-08  0.93827000000E+00  0.93827000000E+00 0. -1.
     999902    2    1    2    0    0  0.56088286902E-02 -0.23155965642E-01 -0.88587154264E-03  0.10200879684E+01  0.10198093061E+01 0.  0.
     999903    2    3    3    0    0  0.62680080144E-01 -0.76392390808E-01 -0.86045884934E-01  0.13253883024E+00  0.19951375568E-01 0.  0.
         14    1    1    2    0    0 -0.56088286902E-02  0.23155965642E-01  0.88587154264E-03  0.23842031635E-01  0.00000000000E+00 0.  1.
     999901    1    3    3    0    0 -0.57071251454E-01  0.53236425165E-01  0.85160013391E-01  0.88754913813E+00  0.88000000000E+00 0.  1.
        -11    1    4    4    0    0  0.83925841893E-02 -0.24391475828E-02 -0.47502650961E-02  0.99604743757E-02  0.51100000000E-03 0.  1.
         11    1    4    4    0    0  0.54287495954E-01 -0.73953243225E-01 -0.81295619838E-01  0.12257835586E+00  0.51100000000E-03 0. -1.
</event>
<event>
 8    1  0.1161271E+005  0.1043930E+01  0.7957747E-01            NaN
         13   -1    0    0    0    0  0.00000000000E+00  0.00000000000E+00  0.74505805969E-08  0.10566000000E+00  0.10566000000E+00 0. -1.
     999900   -1    0    0    0    0 -0.00000000000E+00 -0.00000000000E+00 -0.74505805969E-08  0.93827000000E+00  0.93827000000E+00 0.  1.
     999902    2    1    2    0    0  0.97492070042E-02  0.16222061343E-01 -0.15055187845E-01  0.10197461006E+01  0.10194592923E+01 0.  0.
     999903    2    3    3    0    0  0.12849206413E+00  0.25546221193E-02 -0.20897662838E-01  0.13164655685E+00  0.19425935756E-01 0.  0.
         14    1    1    2    0    0 -0.97492070042E-02 -0.16222061343E-01  0.15055187845E-01  0.24183899448E-01  0.00000000000E+00 0. -1.
     999901    1    3    3    0    0 -0.11874285712E+00  0.13667439224E-01  0.58424749927E-02  0.88809954370E+00  0.88000000000E+00 0.  1.
        -11    1    4    4    0    0  0.28263104960E-01 -0.74609216229E-02 -0.39507454868E-02  0.29501490884E-01  0.51100000000E-03 0. -1.
         11    1    4    4    0    0  0.10022895917E+00  0.10015543742E-01 -0.16946917351E-01  0.10214506596E+00  0.51100000000E-03 0.  1.
</event>
<event>
 8    1  0.1161271E+005  0.1043930E+01  0.7957747E-01            NaN
         13   -1    0    0    0    0  0.00000000000E+00  0.00000000000E+00  0.74505805969E-08  0.10566000000E+00  0.10566000000E+00 0. -1.
     999900   -1    0    0    0    0 -0.00000000000E+00 -0.00000000000E+00 -0.74505805969E-08  0.93827000000E+00  0.93827000000E+00 0. -1.
     999902    2    1    2    0    0  0.98902721149E-02  0.15139474373E-01 -0.18679650489E-01  0.10179309518E+01  0.10175988758E+01 0.  0.
     999903    2    3    3    0    0 -0.26109438630E-01  0.50651585080E-01 -0.11654227562E+00  0.13106332772E+00  0.18660332491E-01 0.  0.
         14    1    1    2    0    0 -0.98902721149E-02 -0.15139474373E-01  0.18679650489E-01  0.25999048236E-01  0.00000000000E+00 0. -1.
     999901    1    3    3    0    0  0.35999710745E-01 -0.35512110706E-01  0.97862625134E-01  0.88686762404E+00  0.88000000000E+00 0.  1.
        -11    1    4    4    0    0 -0.56911481642E-02  0.28023143220E-01 -0.67646001520E-01  0.73443368428E-01  0.51100000000E-03 0. -1.
         11    1    4    4    0    0 -0.20418290466E-01  0.22628441860E-01 -0.48896274103E-01  0.57619959291E-01  0.51100000000E-03 0.  1.
</event>
<event>
 8    1  0.1161271E+005  0.1043930E+01  0.7957747E-01            NaN
         13   -1    0    0    0    0  0.00000000000E+00  0.00000000000E+00  0.74505805969E-08  0.10566000000E+00  0.10566000000E+00 0.  1.
     999900   -1    0    0    0    0 -0.00000000000E+00 -0.00000000000E+00 -0.74505805969E-08  0.93827000000E+00  0.93827000000E+00 0. -1.
     999902    2    1    2    0    0  0.33944835615E-02  0.17212332875E-01  0.14366227844E-01  0.10212545634E+01  0.10210027952E+01 0.  0.
     999903    2    3    3    0    0 -0.45203004813E-01 -0.11837512502E+00 -0.16831061854E-01  0.12899958557E+00  0.17367399496E-01 0.  0.
         14    1    1    2    0    0 -0.33944835615E-02 -0.17212332875E-01 -0.14366227844E-01  0.22675436580E-01  0.00000000000E+00 0. -1.
     999901    1    3    3    0    0  0.48597488374E-01  0.13558745790E+00  0.31197289698E-01  0.89225497785E+00  0.88000000000E+00 0.  1.
        -11    1    4    4    0    0 -0.37028674986E-01 -0.81891355130E-01 -0.60222587990E-02  0.90076886815E-01  0.51100000000E-03 0.  1.
         11    1    4    4    0    0 -0.81743298266E-02 -0.36483769894E-01 -0.10808803055E-01  0.38922698753E-01  0.51100000000E-03 0. -1.
</event>
<event>
 8    1  0.1161271E+005  0.1043930E+01  0.7957747E-01            NaN
         13   -1    0    0    0    0  0.00000000000E+00  0.00000000000E+00  0.74505805969E-08  0.10566000000E+00  0.10566000000E+00 0. -1.
     999900   -1    0    0    0    0 -0.00000000000E+00 -0.00000000000E+00 -0.74505805969E-08  0.93827000000E+00  0.93827000000E+00 0.  1.
     999902    2    1    2    0    0 -0.81576059041E-02 -0.16039194752E-01  0.16842414603E-01  0.10192831091E+01  0.10189850770E+01 0.  0.
     999903    2    3    3    0    0 -0.31307109420E-01  0.18877418136E-01  0.12478276745E+00  0.13169864034E+00  0.20911738315E-01 0.  0.
         14    1    1    2    0    0  0.81576059041E-02  0.16039194752E-01 -0.16842414603E-01  0.24646890920E-01  0.00000000000E+00 0.  1.
     999901    1    3    3    0    0  0.23149503516E-01 -0.34916612888E-01 -0.10794035285E+00  0.88758446874E+00  0.88000000000E+00 0.  1.
        -11    1    4    4    0    0 -0.73610699544E-02  0.36223531924E-02  0.64961508854E-01  0.65479504787E-01  0.51100000000E-03 0.  1.
         11    1    4    4    0    0 -0.23946039465E-01  0.15255064943E-01  0.59821258599E-01  0.66219135556E-01  0.51100000000E-03 0. -1.
</event>
<event>
 8    1  0.1161271E+005  0.1043930E+01  0.7957747E-01            NaN
         13   -1    0    0    0    0  0.00000000000E+00  0.00000000000E+00  0.74505805969E-08  0.10566000000E+00  0.10566000000E+00 0. -1.
     999900   -1    0    0    0    0 -0.00000000000E+00 -0.00000000000E+00 -0.74505805969E-08  0.93827000000E+00  0.93827000000E+00 0. -1.
     999902    2    1    2    0    0  0.19400781791E-01  0.11845354291E-01 -0.12071298900E-01  0.10181924980E+01  0.10178671544E+01 0.  0.
     999903    2    3    3    0    0 -0.12171703722E+00  0.29825407710E-02 -0.28897893023E-01  0.12674652511E+00  0.20141020508E-01 0.  0.
         14    1    1    2    0    0 -0.19400781791E-01 -0.11845354291E-01  0.12071298900E-01  0.25737502006E-01  0.00000000000E+00 0. -1.
     999901    1    3    3    0    0  0.14111781901E+00  0.88628135195E-02  0.16826594123E-01  0.89144597289E+00  0.88000000000E+00 0.  1.
        -11    1    4    4    0    0 -0.27458970617E-01 -0.47593058906E-02 -0.13331555781E-01  0.30897209590E-01  0.51100000000E-03 0. -1.
         11    1    4    4    0    0 -0.94258066601E-01  0.77418466617E-02 -0.15566337242E-01  0.95849315518E-01  0.51100000000E-03 0.  1.
</event>
<event>
 8    1  0.1161271E+005  0.1043930E+01  0.7957747E-01            NaN
         13   -1    0    0    0    0  0.00000000000E+00  0.00000000000E+00  0.74505805969E-08  0.10566000000E+00  0.10566000000E+00 0. -1.
     999900   -1    0    0    0    0 -0.00000000000E+00 -0.00000000000E+00 -0.74505805969E-08  0.93827000000E+00  0.93827000000E+00 0. -1.
     999902    2    1    2    0    0  0.10163936085E-01 -0.56599941522E-02 -0.22085080728E-01  0.10189681907E+01  0.10186623984E+01 0.  0.
     999903    2    3    3    0    0  0.96831201671E-01  0.79942029877E-01  0.24198042428E-01  0.12937218753E+00  0.19611422476E-01 0.  0.
         14    1    1    2    0    0 -0.10163936085E-01  0.56599941522E-02  0.22085080728E-01  0.24961809255E-01  0.00000000000E+00 0. -1.
     999901    1    3    3    0    0 -0.86667265586E-01 -0.85602024029E-01 -0.46283123156E-01  0.88959600321E+00  0.88000000000E+00 0. -1.
        -11    1    4    4    0    0  0.60404724561E-01  0.61348625775E-01  0.14103261412E-01  0.87244184547E-01  0.51100000000E-03 0.  1.
         11    1    4    4    0    0  0.36426477110E-01  0.18593404102E-01  0.10094781016E-01  0.42128002985E-01  0.51100000000E-03 0. -1.
</event>
<event>
 8    1  0.1161271E+005  0.1043930E+01  0.7957747E-01            NaN
         13   -1    0    0    0    0  0.00000000000E+00  0.00000000000E+00  0.74505805969E-08  0.10566000000E+00  0.10566000000E+00 0. -1.
     999900   -1    0    0    0    0 -0.00000000000E+00 -0.00000000000E+00 -0.74505805969E-08  0.93827000000E+00  0.93827000000E+00 0. -1.
     999902    2    1    2    0    0 -0.16451356055E-01 -0.47223975042E-02 -0.16220535351E-01  0.10203492044E+01  0.10200766858E+01 0.  0.
     999903    2    3    3    0    0  0.67054415707E-01  0.69676141147E-01 -0.85391376778E-01  0.13057790694E+00  0.20195129171E-01 0.  0.
         14    1    1    2    0    0  0.16451356055E-01  0.47223975042E-02  0.16220535351E-01  0.23580795604E-01  0.00000000000E+00 0. -1.
     999901    1    3    3    0    0 -0.83505771762E-01 -0.74398538651E-01  0.69170841427E-01  0.88977129745E+00  0.88000000000E+00 0. -1.
        -11    1    4    4    0    0  0.20467195232E-01  0.92022891409E-02 -0.19147136400E-01  0.29503595703E-01  0.51100000000E-03 0. -1.
         11    1    4    4    0    0  0.46587220475E-01  0.60473852006E-01 -0.66244240378E-01  0.10107431124E+00  0.51100000000E-03 0.  1.
</event>
<event>
 8    1  0.1161271E+005  0.1043930E+01  0.7957747E-01            NaN
         13   -1    0    0    0    0  0.00000000000E+00  0.00000000000E+00  0.74505805969E-08  0.10566000000E+00  0.10566000000E+00 0.  1.
     999900   -1    0    0    0    0 -0.00000000000E+00 -0.00000000000E+00 -0.74505805969E-08  0.93827000000E+00  0.93827000000E+00 0.  1.
     999902    2    1    2    0    0  0.17885170644E-01  0.64102996089E-02  0.14419422876E-01  0.10200785634E+01  0.10197996786E+01 0.  0.
     999903    2    3    3    0    0 -0.16350388504E-01 -0.11465093033E+00 -0.51822951420E-01  0.12866623064E+00  0.21382459751E-01 0.  0.
         14    1    1    2    0    0 -0.17885170644E-01 -0.64102996089E-02 -0.14419422876E-01  0.23851436563E-01  0.00000000000E+00 0. -1.
     999901    1    3    3    0    0  0.34235559147E-01  0.12106122994E+00  0.66242374296E-01  0.89141233279E+00  0.88000000000E+00 0. -1.
        -11    1    4    4    0    0 -0.15231910112E-01 -0.93010392108E-01 -0.32703571963E-01  0.99763364347E-01  0.51100000000E-03 0.  1.
         11    1    4    4    0    0 -0.11184783918E-02 -0.21640538219E-01 -0.19119379457E-01  0.28902866296E-01  0.51100000000E-03 0. -1.
</event>
<event>
 8    1  0.1161271E+005  0.1043930E+01  0.7957747E-01            NaN
         13   -1    0    0    0    0  0.00000000000E+00  0.00000000000E+00  0.74505805969E-08  0.10566000000E+00  0.10566000000E+00 0.  1.
     999900   -1    0    0    0    0 -0.00000000000E+00 -0.00000000000E+00 -0.74505805969E-08  0.93827000000E+00  0.93827000000E+00 0. -1.
     999902    2    1    2    0    0  0.22397296672E-01  0.48237099317E-02  0.74137265286E-02  0.10198495013E+01  0.10195651695E+01 0.  0.
     999903    2    3    3    0    0  0.11711986828E+00  0.58071719975E-01  0.14218211532E-01  0.13313984356E+00  0.20848793693E-01 0.  0.
         14    1    1    2    0    0 -0.22397296672E-01 -0.48237099317E-02 -0.74137265286E-02  0.24080498682E-01  0.00000000000E+00 0. -1.
     999901    1    3    3    0    0 -0.94722571603E-01 -0.53248010043E-01 -0.68044850033E-02  0.88670965776E+00  0.88000000000E+00 0. -1.
        -11    1    4    4    0    0  0.10677911833E+00  0.47889456301E-01  0.78710999333E-02  0.11729192415E+00  0.51100000000E-03 0.  1.
         11    1    4    4    0    0  0.10340749949E-01  0.10182263674E-01  0.63471115985E-02  0.15847919412E-01  0.51100000000E-03 0. -1.
</event>
<event>
 8    1  0.1161271E+005  0.1043930E+01  0.7957747E-01            NaN
         13   -1    0    0    0    0  0.00000000000E+00  0.00000000000E+00  0.74505805969E-08  0.10566000000E+00  0.10566000000E+00 0. -1.
     999900   -1    0    0    0    0 -0.00000000000E+00 -0.00000000000E+00 -0.74505805969E-08  0.93827000000E+00  0.93827000000E+00 0. -1.
     999902    2    1    2    0    0 -0.11985023914E-01 -0.20781959019E-01 -0.11356431908E-01  0.10173875969E+01  0.10170413084E+01 0.  0.
     999903    2    3    3    0    0  0.88439611175E-01  0.40987762792E-01  0.74483520481E-01  0.12538473627E+00  0.25922494931E-01 0.  0.
         14    1    1    2    0    0  0.11985023914E-01  0.20781959019E-01  0.11356431908E-01  0.26542403142E-01  0.00000000000E+00 0. -1.
     999901    1    3    3    0    0 -0.10042463509E+00 -0.61769721811E-01 -0.85839952389E-01  0.89200286058E+00  0.88000000000E+00 0. -1.
        -11    1    4    4    0    0  0.36417629853E-01  0.45932046057E-02  0.34338246727E-01  0.50266465978E-01  0.51100000000E-03 0.  1.
         11    1    4    4    0    0  0.52021981323E-01  0.36394558186E-01  0.40145273754E-01  0.75118270295E-01  0.51100000000E-03 0. -1.
</event>
<event>
 8    1  0.1161271E+005  0.1043930E+01  0.7957747E-01            NaN
         13   -1    0    0    0    0  0.00000000000E+00  0.00000000000E+00  0.74505805969E-08  0.10566000000E+00  0.10566000000E+00 0. -1.
     999900   -1    0    0    0    0 -0.00000000000E+00 -0.00000000000E+00 -0.74505805969E-08  0.93827000000E+00  0.93827000000E+00 0. -1.
     999902    2    1    2    0    0  0.20638384991E-01 -0.12068314495E-02  0.78911192406E-02  0.10218015310E+01  0.10215618922E+01 0.  0.
     999903    2    3    3    0    0  0.97522220879E-01  0.65101289515E-01 -0.60140758010E-01  0.13335556897E+00  0.20445917458E-01 0.  0.
         14    1    1    2    0    0 -0.20638384991E-01  0.12068314495E-02 -0.78911192406E-02  0.22128468995E-01  0.00000000000E+00 0. -1.
     999901    1    3    3    0    0 -0.76883835888E-01 -0.66308120964E-01  0.68031877251E-01  0.88844596203E+00  0.88000000000E+00 0.  1.
        -11    1    4    4    0    0  0.21100580671E-01  0.14100959172E-01 -0.23002283214E-01  0.34255477055E-01  0.51100000000E-03 0. -1.
         11    1    4    4    0    0  0.76421640208E-01  0.51000330343E-01 -0.37138474797E-01  0.99100091919E-01  0.51100000000E-03 0.  1.
</event>
<event>
 8    1  0.1161271E+005  0.1043930E+01  0.7957747E-01            NaN
         13   -1    0    0    0    0  0.00000000000E+00  0.00000000000E+00  0.74505805969E-08  0.10566000000E+00  0.10566000000E+00 0.  1.
     999900   -1    0    0    0    0 -0.00000000000E+00 -0.00000000000E+00 -0.74505805969E-08  0.93827000000E+00  0.93827000000E+00 0. -1.
     999902    2    1    2    0    0 -0.72951007221E-02 -0.51791377861E-02 -0.20632364990E-01  0.10214414152E+01  0.10211938250E+01 0.  0.
     999903    2    3    3    0    0  0.37836326474E-01  0.12122611223E+00 -0.26858848354E-01  0.13124261599E+00  0.19387331670E-01 0.  0.
         14    1    1    2    0    0  0.72951007221E-02  0.51791377861E-02  0.20632364990E-01  0.22488584834E-01  0.00000000000E+00 0.  1.
     999901    1    3    3    0    0 -0.45131427196E-01 -0.12640525002E+00  0.62264833632E-02  0.89019879917E+00  0.88000000000E+00 0.  1.
        -11    1    4    4    0    0  0.11207299147E-01  0.36923570225E-01  0.82717790146E-03  0.38599209016E-01  0.51100000000E-03 0.  1.
         11    1    4    4    0    0  0.26629027327E-01  0.84302542009E-01 -0.27686026255E-01  0.92643406977E-01  0.51100000000E-03 0. -1.
</event>
<event>
 8    1  0.1161271E+005  0.1043930E+01  0.7957747E-01            NaN
         13   -1    0    0    0    0  0.00000000000E+00  0.00000000000E+00  0.74505805969E-08  0.10566000000E+00  0.10566000000E+00 0.  1.
     999900   -1    0    0    0    0 -0.00000000000E+00 -0.00000000000E+00 -0.74505805969E-08  0.93827000000E+00  0.93827000000E+00 0.  1.
     999902    2    1    2    0    0  0.15139321833E-01 -0.17473729508E-01 -0.66907257533E-02  0.10198614292E+01  0.10195773824E+01 0.  0.
     999903    2    3    3    0    0  0.24163749389E-01 -0.87877915365E-01 -0.94413567606E-01  0.13265599266E+00  0.19423589930E-01 0.  0.
         14    1    1    2    0    0 -0.15139321833E-01  0.17473729508E-01  0.66907257533E-02  0.24068570784E-01  0.00000000000E+00 0.  1.
     999901    1    3    3    0    0 -0.90244275565E-02  0.70404185857E-01  0.87722841853E-01  0.88720543656E+00  0.88000000000E+00 0. -1.
        -11    1    4    4    0    0  0.16489150036E-01 -0.58740303123E-01 -0.49491093505E-01  0.78561725650E-01  0.51100000000E-03 0.  1.
         11    1    4    4    0    0  0.76745993531E-02 -0.29137612243E-01 -0.44922474102E-01  0.54094267005E-01  0.51100000000E-03 0. -1.
</event>
<event>
 8    1  0.1161271E+005  0.1043930E+01  0.7957747E-01            NaN
         13   -1    0    0    0    0  0.00000000000E+00  0.00000000000E+00  0.74505805969E-08  0.10566000000E+00  0.10566000000E+00 0. -1.
     999900   -1    0    0    0    0 -0.00000000000E+00 -0.00000000000E+00 -0.74505805969E-08  0.93827000000E+00  0.93827000000E+00 0.  1.
     999902    2    1    2    0    0 -0.53188172194E-02 -0.11651226847E-01 -0.19766990344E-01  0.10203763419E+01  0.10201044575E+01 0.  0.
     999903    2    3    3    0    0  0.27066173260E-01  0.51855804125E-01 -0.11681208140E+00  0.13217609402E+00  0.20096151747E-01 0.  0.
         14    1    1    2    0    0  0.53188172194E-02  0.11651226847E-01  0.19766990344E-01  0.23553658122E-01  0.00000000000E+00 0. -1.
     999901    1    3    3    0    0 -0.32384990480E-01 -0.63507030972E-01  0.97045091051E-01  0.88820024785E+00  0.88000000000E+00 0. -1.
        -11    1    4    4    0    0  0.15865973261E-01  0.19786455164E-01 -0.69065430400E-01  0.73576679137E-01  0.51100000000E-03 0.  1.
         11    1    4    4    0    0  0.11200199999E-01  0.32069348961E-01 -0.47746650996E-01  0.58599414887E-01  0.51100000000E-03 0. -1.
</event>
<event>
 8    1  0.1161271E+005  0.1043930E+01  0.7957747E-01            NaN
         13   -1    0    0    0    0  0.00000000000E+00  0.00000000000E+00  0.74505805969E-08  0.10566000000E+00  0.10566000000E+00 0.  1.
     999900   -1    0    0    0    0 -0.00000000000E+00 -0.00000000000E+00 -0.74505805969E-08  0.93827000000E+00  0.93827000000E+00 0.  1.
     999902    2    1    2    0    0 -0.30932745721E-02  0.22840852023E-01 -0.21865232460E-02  0.10207771653E+01  0.10205145602E+01 0.  0.
     999903    2    3    3    0    0  0.10949699071E+00 -0.59103826302E-01 -0.29156378415E-01  0.12941928479E+00  0.20405970075E-01 0.  0.
         14    1    1    2    0    0  0.30932745721E-02 -0.22840852023E-01  0.21865232460E-02  0.23152834656E-01  0.00000000000E+00 0. -1.
     999901    1    3    3    0    0 -0.11259026528E+00  0.81944678325E-01  0.26969855169E-01  0.89135788056E+00  0.88000000000E+00 0. -1.
        -11    1    4    4    0    0  0.10014361270E+00 -0.47257715911E-01 -0.22932810082E-01  0.11308496706E+00  0.51100000000E-03 0. -1.
         11    1    4    4    0    0  0.93533780139E-02 -0.11846110391E-01 -0.62235683326E-02  0.16334317723E-01  0.51100000000E-03 0.  1.
</event>
<event>
 8    1  0.1226060E+005  0.1043930E+01  0.7957747E-01            NaN
         13   -1    0    0    0    0  0.00000000000E+00  0.00000000000E+00  0.74505805969E-08  0.10566000000E+00  0.10566000000E+00 0. -1.
     999900   -1    0    0    0    0 -0.00000000000E+00 -0.00000000000E+00 -0.74505805969E-08  0.93827000000E+00  0.93827000000E+00 0. -1.
     999902    2    1    2    0    0 -0.10535508695E-01 -0.13335596646E-01 -0.24641959106E-01  0.10139957181E+01  0.10135537752E+01 0.  0.
     999903    2    3    3    0    0  0.19888430524E-01 -0.10647871967E+00  0.58451064200E-01  0.12466692183E+00  0.19800178785E-01 0.  0.
         14    1    1    2    0    0  0.10535508695E-01  0.13335596646E-01  0.24641959106E-01  0.29934281851E-01  0.00000000000E+00 0. -1.
     999901    1    3    3    0    0 -0.30423939219E-01  0.93143123028E-01 -0.83093023305E-01  0.88932879632E+00  0.88000000000E+00 0. -1.
        -11    1    4    4    0    0  0.11174810271E-01 -0.17963159133E-01  0.10624937566E-01  0.23679144619E-01  0.51100000000E-03 0.  1.
         11    1    4    4    0    0  0.87136202538E-02 -0.88515560540E-01  0.47826126634E-01  0.10098777721E+00  0.51100000000E-03 0. -1.
</event>
<event>
 8    1  0.1161271E+005  0.1043930E+01  0.7957747E-01            NaN
         13   -1    0    0    0    0  0.00000000000E+00  0.00000000000E+00  0.74505805969E-08  0.10566000000E+00  0.10566000000E+00 0. -1.
     999900   -1    0    0    0    0 -0.00000000000E+00 -0.00000000000E+00 -0.74505805969E-08  0.93827000000E+00  0.93827000000E+00 0.  1.
     999902    2    1    2    0    0 -0.12888977199E-02 -0.13325374075E-01 -0.18671976692E-01  0.10209545878E+01  0.10206960374E+01 0.  0.
     999903    2    3    3    0    0  0.93112493318E-01  0.37139404594E-01 -0.83388218649E-01  0.13210898340E+00  0.21211239932E-01 0.  0.
         14    1    1    2    0    0  0.12888977199E-02  0.13325374075E-01  0.18671976692E-01  0.22975412186E-01  0.00000000000E+00 0. -1.
     999901    1    3    3    0    0 -0.94401391038E-01 -0.50464778669E-01  0.64716241958E-01  0.88884560442E+00  0.88000000000E+00 0. -1.
        -11    1    4    4    0    0  0.15821618201E-01  0.45350879189E-04 -0.19897798489E-01  0.25426544494E-01  0.51100000000E-03 0. -1.
         11    1    4    4    0    0  0.77290875117E-01  0.37094053715E-01 -0.63490420160E-01  0.10668243890E+00  0.51100000000E-03 0.  1.
</event>
<event>
 8    1  0.1161271E+005  0.1043930E+01  0.7957747E-01            NaN
         13   -1    0    0    0    0  0.00000000000E+00  0.00000000000E+00  0.74505805969E-08  0.10566000000E+00  0.10566000000E+00 0.  1.
     999900   -1    0    0    0    0 -0.00000000000E+00 -0.00000000000E+00 -0.74505805969E-08  0.93827000000E+00  0.93827000000E+00 0.  1.
     999902    2    1    2    0    0 -0.18206773922E-01  0.14737441552E-01  0.27274283393E-02  0.10203478528E+01  0.10200753027E+01 0.  0.
     999903    2    3    3    0    0  0.69869750876E-01  0.23628774563E-01  0.10516672145E+00  0.12999380033E+00  0.19956145617E-01 0.  0.
         14    1    1    2    0    0  0.18206773922E-01 -0.14737441552E-01 -0.27274283393E-02  0.23582147177E-01  0.00000000000E+00 0.  1.
     999901    1    3    3    0    0 -0.88076524798E-01 -0.88913330113E-02 -0.10243929311E+00  0.89035405250E+00  0.88000000000E+00 0. -1.
        -11    1    4    4    0    0  0.49679354496E-01  0.76379919171E-02  0.63209456526E-01  0.80759356727E-01  0.51100000000E-03 0. -1.
         11    1    4    4    0    0  0.20190396380E-01  0.15990782646E-01  0.41957264925E-01  0.49234443600E-01  0.51100000000E-03 0.  1.
</event>
<event>
 8    1  0.1161271E+005  0.1043930E+01  0.7957747E-01            NaN
         13   -1    0    0    0    0  0.00000000000E+00  0.00000000000E+00  0.74505805969E-08  0.10566000000E+00  0.10566000000E+00 0.  1.
     999900   -1    0    0    0    0 -0.00000000000E+00 -0.00000000000E+00 -0.74505805969E-08  0.93827000000E+00  0.93827000000E+00 0.  1.
     999902    2    1    2    0    0  0.27778358622E-02 -0.21553416683E-01 -0.10022751778E-01  0.10199983955E+01  0.10197176104E+01 0.  0.
     999903    2    3    3    0    0 -0.10700527522E+00  0.68124251034E-01  0.54403582807E-02  0.12852011567E+00  0.19919340544E-01 0.  0.
         14    1    1    2    0    0 -0.27778358622E-02  0.21553416683E-01  0.10022751778E-01  0.23931604543E-01  0.00000000000E+00 0.  1.
     999901    1    3    3    0    0  0.10978311109E+00 -0.89677667717E-01 -0.15463110059E-01  0.89147827979E+00  0.88000000000E+00 0. -1.
        -11    1    4    4    0    0 -0.69044718877E-01  0.33933396941E-01 -0.15702411304E-02  0.76950473754E-01  0.51100000000E-03 0. -1.
         11    1    4    4    0    0 -0.37960556347E-01  0.34190854093E-01  0.70105994111E-02  0.51569641912E-01  0.51100000000E-03 0.  1.
</event>
<event>
 8    1  0.1161271E+005  0.1043930E+01  0.7957747E-01            NaN
         13   -1    0    0    0    0  0.00000000000E+00  0.00000000000E+00  0.74505805969E-08  0.10566000000E+00  0.10566000000E+00 0.  1.
     999900   -1    0    0    0    0 -0.00000000000E+00 -0.00000000000E+00 -0.74505805969E-08  0.93827000000E+00  0.93827000000E+00 0.  1.
     999902    2    1    2    0    0 -0.15932949886E-01  0.54401019566E-02 -0.12605721475E-01  0.10228976959E+01  0.10226814453E+01 0.  0.
     999903    2    3    3    0    0 -0.33685749062E-01  0.77315395229E-01 -0.10375108373E+00  0.13509777660E+00  0.19357733309E-01 0.  0.
         14    1    1    2    0    0  0.15932949886E-01 -0.54401019566E-02  0.12605721475E-01  0.21032304088E-01  0.00000000000E+00 0.  1.
     999901    1    3    3    0    0  0.17752799175E-01 -0.71875293273E-01  0.91145362256E-01  0.88779991931E+00  0.88000000000E+00 0. -1.
        -11    1    4    4    0    0 -0.34283870935E-02  0.27354002629E-01 -0.26438181030E-01  0.38199919307E-01  0.51100000000E-03 0.  1.
         11    1    4    4    0    0 -0.30257361968E-01  0.49961392601E-01 -0.77312902700E-01  0.96897857297E-01  0.51100000000E-03 0. -1.
</event>
<event>
 8    1  0.1161271E+005  0.1043930E+01  0.7957747E-01            NaN
         13   -1    0    0    0    0  0.00000000000E+00  0.00000000000E+00  0.74505805969E-08  0.10566000000E+00  0.10566000000E+00 0. -1.
     999900   -1    0    0    0    0 -0.00000000000E+00 -0.00000000000E+00 -0.74505805969E-08  0.93827000000E+00  0.93827000000E+00 0.  1.
     999902    2    1    2    0    0  0.10724664973E-01  0.14270866572E-01  0.15135264869E-01  0.10205258911E+01  0.10202574881E+01 0.  0.
     999903    2    3    3    0    0  0.12724160653E+00  0.17382660667E-01 -0.23662453652E-01  0.13199274939E+00  0.19224745825E-01 0.  0.
         14    1    1    2    0    0 -0.10724664973E-01 -0.14270866572E-01 -0.15135264869E-01  0.23404108917E-01  0.00000000000E+00 0. -1.
     999901    1    3    3    0    0 -0.11651694156E+00 -0.31117940950E-02  0.38797718522E-01  0.88853314170E+00  0.88000000000E+00 0. -1.
        -11    1    4    4    0    0  0.49728135285E-01  0.12969549427E-01 -0.22044644349E-02  0.51441398073E-01  0.51100000000E-03 0. -1.
         11    1    4    4    0    0  0.77513471250E-01  0.44131112406E-02 -0.21457989218E-01  0.80551351312E-01  0.51100000000E-03 0.  1.
</event>
<event>
 8    1  0.1161271E+005  0.1043930E+01  0.7957747E-01            NaN
         13   -1    0    0    0    0  0.00000000000E+00  0.00000000000E+00  0.74505805969E-08  0.10566000000E+00  0.10566000000E+00 0. -1.
     999900   -1    0    0    0    0 -0.00000000000E+00 -0.00000000000E+00 -0.74505805969E-08  0.93827000000E+00  0.93827000000E+00 0. -1.
     999902    2    1    2    0    0  0.22726600312E-01  0.29332630048E-02 -0.28346949025E-02  0.10208402211E+01  0.10205790607E+01 0.  0.
     999903    2    3    3    0    0 -0.46200116177E-01 -0.11293235214E+00  0.38821669613E-01  0.12959895989E+00  0.20015031260E-01 0.  0.
         14    1    1    2    0    0 -0.22726600312E-01 -0.29332630048E-02  0.28346949025E-02  0.23089778881E-01  0.00000000000E+00 0.  1.
     999901    1    3    3    0    0  0.68926716488E-01  0.11586561515E+00 -0.41656364515E-01  0.89124126123E+00  0.88000000000E+00 0. -1.
        -11    1    4    4    0    0 -0.18139915150E-01 -0.26053500900E-01  0.45303099894E-02  0.32072203860E-01  0.51100000000E-03 0. -1.
         11    1    4    4    0    0 -0.28060201026E-01 -0.86878851244E-01  0.34291359623E-01  0.97526756026E-01  0.51100000000E-03 0.  1.
</event>
<event>
 8    1  0.1161271E+005  0.1043930E+01  0.7957747E-01            NaN
         13   -1    0    0    0    0  0.00000000000E+00  0.00000000000E+00  0.74505805969E-08  0.10566000000E+00  0.10566000000E+00 0.  1.
     999900   -1    0    0    0    0 -0.00000000000E+00 -0.00000000000E+00 -0.74505805969E-08  0.93827000000E+00  0.93827000000E+00 0.  1.
     999902    2    1    2    0    0  0.22678550701E-01 -0.16868166055E-02  0.82258328658E-02  0.10197468170E+01  0.10194600259E+01 0.  0.
     999903    2    3    3    0    0 -0.26690545612E-01 -0.74350769171E-01  0.10163169225E+00  0.13045383255E+00  0.21184415431E-01 0.  0.
         14    1    1    2    0    0 -0.22678550701E-01  0.16868166055E-02 -0.82258328658E-02  0.24183182968E-01  0.00000000000E+00 0. -1.
     999901    1    3    3    0    0  0.49369096312E-01  0.72663952566E-01 -0.93405859384E-01  0.88929298448E+00  0.88000000000E+00 0. -1.
        -11    1    4    4    0    0 -0.64546822168E-02 -0.17342981939E-01  0.40089598910E-01  0.44157434333E-01  0.51100000000E-03 0. -1.
         11    1    4    4    0    0 -0.20235863395E-01 -0.57007787232E-01  0.61542093339E-01  0.86296398221E-01  0.51100000000E-03 0.  1.
</event>
<event>
 8    1  0.1161271E+005  0.1043930E+01  0.7957747E-01            NaN
         13   -1    0    0    0    0  0.00000000000E+00  0.00000000000E+00  0.74505805969E-08  0.10566000000E+00  0.10566000000E+00 0.  1.
     999900   -1    0    0    0    0 -0.00000000000E+00 -0.00000000000E+00 -0.74505805969E-08  0.93827000000E+00  0.93827000000E+00 0. -1.
     999902    2    1    2    0    0  0.97274958955E-02 -0.10678446235E-01 -0.19218514419E-01  0.10198882720E+01  0.10196048659E+01 0.  0.
     999903    2    3    3    0    0 -0.40919211703E-01 -0.12304673710E+00 -0.44900251147E-02  0.13117647944E+00  0.19293186231E-01 0.  0.
         14    1    1    2    0    0 -0.97274958955E-02  0.10678446235E-01  0.19218514419E-01  0.24041728034E-01  0.00000000000E+00 0.  1.
     999901    1    3    3    0    0  0.50646707598E-01  0.11236829086E+00 -0.14728489304E-01  0.88871179253E+00  0.88000000000E+00 0. -1.
        -11    1    4    4    0    0 -0.23653300565E-01 -0.92271381593E-01  0.20782112188E-02  0.95278888384E-01  0.51100000000E-03 0.  1.
         11    1    4    4    0    0 -0.17265911138E-01 -0.30775355506E-01 -0.65682363336E-02  0.35897591054E-01  0.51100000000E-03 0. -1.
</event>
<event>
 8    1  0.1161271E+005  0.1043930E+01  0.7957747E-01            NaN
         13   -1    0    0    0    0  0.00000000000E+00  0.00000000000E+00  0.74505805969E-08  0.10566000000E+00  0.10566000000E+00 0.  1.
     999900   -1    0    0    0    0 -0.00000000000E+00 -0.00000000000E+00 -0.74505805969E-08  0.93827000000E+00  0.93827000000E+00 0.  1.
     999902    2    1    2    0    0 -0.16461257416E-01 -0.17450546141E-01  0.48013694511E-02  0.10194647654E+01  0.10191711633E+01 0.  0.
     999903    2    3    3    0    0 -0.10354970394E+00  0.73569690151E-01 -0.18548447766E-01  0.13018736496E+00  0.21671746257E-01 0.  0.
         14    1    1    2    0    0  0.16461257416E-01  0.17450546141E-01 -0.48013694511E-02  0.24465234618E-01  0.00000000000E+00 0. -1.
     999901    1    3    3    0    0  0.87088446526E-01 -0.91020236291E-01  0.23349817217E-01  0.88927740042E+00  0.88000000000E+00 0. -1.
        -11    1    4    4    0    0 -0.47050892505E-01  0.33094569244E-01  0.24599349982E-02  0.57579070852E-01  0.51100000000E-03 0.  1.
         11    1    4    4    0    0 -0.56498811437E-01  0.40475120907E-01 -0.21008382764E-01  0.72608294110E-01  0.51100000000E-03 0. -1.
</event>
<event>
 8    1  0.1161271E+005  0.1043930E+01  0.7957747E-01            NaN
         13   -1    0    0    0    0  0.00000000000E+00  0.00000000000E+00  0.74505805969E-08  0.10566000000E+00  0.10566000000E+00 0.  1.
     999900   -1    0    0    0    0 -0.00000000000E+00 -0.00000000000E+00 -0.74505805969E-08  0.93827000000E+00  0.93827000000E+00 0. -1.
     999902    2    1    2    0    0  0.10322866068E-01  0.13462460018E-01  0.16662457656E-01  0.10201510831E+01  0.10198739116E+01 0.  0.
     999903    2    3    3    0    0  0.24167298454E-01  0.11965199005E+00  0.48661540214E-01  0.13308184912E+00  0.21027982137E-01 0.  0.
         14    1    1    2    0    0 -0.10322866068E-01 -0.13462460018E-01 -0.16662457656E-01  0.23778916895E-01  0.00000000000E+00 0. -1.
     999901    1    3    3    0    0 -0.13844432386E-01 -0.10618953003E+00 -0.31999082559E-01  0.88706923398E+00  0.88000000000E+00 0.  1.
        -11    1    4    4    0    0  0.32902222889E-02  0.67406437923E-01  0.23704621923E-01  0.71530578480E-01  0.51100000000E-03 0. -1.
         11    1    4    4    0    0  0.20877076165E-01  0.52245552123E-01  0.24956918291E-01  0.61551270641E-01  0.51100000000E-03 0.  1.
</event>
<event>
 8    1  0.1161271E+005  0.1043930E+01  0.7957747E-01            NaN
         13   -1    0    0    0    0  0.00000000000E+00  0.00000000000E+00  0.74505805969E-08  0.10566000000E+00  0.10566000000E+00 0.  1.
     999900   -1    0    0    0    0 -0.00000000000E+00 -0.00000000000E+00 -0.74505805969E-08  0.93827000000E+00  0.93827000000E+00 0.  1.
     999902    2    1    2    0    0  0.67140985391E-02  0.10342611266E-01 -0.20394762952E-01  0.10200973526E+01  0.10198189122E+01 0.  0.
     999903    2    3    3    0    0 -0.88265127376E-01  0.32239251667E-01  0.85159932537E-01  0.12844590165E+00  0.20396898825E-01 0.  0.
         14    1    1    2    0    0 -0.67140985391E-02 -0.10342611266E-01  0.20394762952E-01  0.23832647417E-01  0.00000000000E+00 0.  1.
     999901    1    3    3    0    0  0.94979225915E-01 -0.21896640400E-01 -0.10555469549E+00  0.89165145094E+00  0.88000000000E+00 0. -1.
        -11    1    4    4    0    0 -0.52899970992E-01  0.28692763437E-01  0.59291827290E-01  0.84483510279E-01  0.51100000000E-03 0. -1.
         11    1    4    4    0    0 -0.35365156384E-01  0.35464882294E-02  0.25868105247E-01  0.43962391369E-01  0.51100000000E-03 0.  1.
</event>
<event>
 8    1  0.1161271E+005  0.1043930E+01  0.7957747E-01            NaN
         13   -1    0    0    0    0  0.00000000000E+00  0.00000000000E+00  0.74505805969E-08  0.10566000000E+00  0.10566000000E+00 0. -1.
     999900   -1    0    0    0    0 -0.00000000000E+00 -0.00000000000E+00 -0.74505805969E-08  0.93827000000E+00  0.93827000000E+00 0.  1.
     999902    2    1    2    0    0  0.37613211456E-02 -0.15753362698E-01 -0.16958088327E-01  0.10204802083E+01  0.10202107443E+01 0.  0.
     999903    2    3    3    0    0 -0.11650559578E+00  0.49303632653E-01 -0.42296704048E-02  0.12982957160E+00  0.28869109983E-01 0.  0.
         14    1    1    2    0    0 -0.37613211456E-02  0.15753362698E-01  0.16958088327E-01  0.23449791743E-01  0.00000000000E+00 0.  1.
     999901    1    3    3    0    0  0.12026691692E+00 -0.65056995351E-01 -0.12728417922E-01  0.89065063665E+00  0.88000000000E+00 0. -1.
        -11    1    4    4    0    0 -0.82278368524E-01  0.23429706772E-01 -0.11460721086E-01  0.86315064358E-01  0.51100000000E-03 0.  1.
         11    1    4    4    0    0 -0.34227227252E-01  0.25873925881E-01  0.72310506811E-02  0.43514507245E-01  0.51100000000E-03 0. -1.
</event>
<event>
 8    1  0.1161271E+005  0.1043930E+01  0.7957747E-01            NaN
         13   -1    0    0    0    0  0.00000000000E+00  0.00000000000E+00  0.74505805969E-08  0.10566000000E+00  0.10566000000E+00 0. -1.
     999900   -1    0    0    0    0 -0.00000000000E+00 -0.00000000000E+00 -0.74505805969E-08  0.93827000000E+00  0.93827000000E+00 0.  1.
     999902    2    1    2    0    0  0.44594345981E-02 -0.29703193631E-01  0.14374623379E-01  0.10106314104E+01  0.10100826955E+01 0.  0.
     999903    2    3    3    0    0 -0.61282387266E-01  0.55869585314E-01 -0.82665473978E-01  0.11874494451E+00  0.19744358826E-01 0.  0.
         14    1    1    2    0    0 -0.44594345981E-02  0.29703193631E-01 -0.14374623379E-01  0.33298589551E-01  0.00000000000E+00 0.  1.
     999901    1    3    3    0    0  0.65741821864E-01 -0.85572778945E-01  0.97040097356E-01  0.89188646594E+00  0.88000000000E+00 0. -1.
        -11    1    4    4    0    0 -0.45748622755E-01  0.31647220737E-01 -0.62092441760E-01  0.83367952531E-01  0.51100000000E-03 0. -1.
         11    1    4    4    0    0 -0.15533764510E-01  0.24222364577E-01 -0.20573032217E-01  0.35376991975E-01  0.51100000000E-03 0.  1.
</event>
<event>
 8    1  0.1161271E+005  0.1043930E+01  0.7957747E-01            NaN
         13   -1    0    0    0    0  0.00000000000E+00  0.00000000000E+00  0.74505805969E-08  0.10566000000E+00  0.10566000000E+00 0.  1.
     999900   -1    0    0    0    0 -0.00000000000E+00 -0.00000000000E+00 -0.74505805969E-08  0.93827000000E+00  0.93827000000E+00 0. -1.
     999902    2    1    2    0    0  0.20979695092E-01  0.14801806642E-02 -0.15007707265E-01  0.10180926275E+01  0.10177647215E+01 0.  0.
     999903    2    3    3    0    0  0.29437825388E-01 -0.83529395270E-01 -0.93698160055E-01  0.13046074696E+00  0.19922747348E-01 0.  0.
         14    1    1    2    0    0 -0.20979695092E-01 -0.14801806642E-02  0.15007707265E-01  0.25837372512E-01  0.00000000000E+00 0.  1.
     999901    1    3    3    0    0 -0.84581302955E-02  0.85009575934E-01  0.78690452790E-01  0.88763188053E+00  0.88000000000E+00 0.  1.
        -11    1    4    4    0    0  0.10313653179E-01 -0.46375213193E-01 -0.61448414091E-01  0.77673679943E-01  0.51100000000E-03 0.  1.
         11    1    4    4    0    0  0.19124172209E-01 -0.37154182077E-01 -0.32249745964E-01  0.52787067017E-01  0.51100000000E-03 0. -1.
</event>
<event>
 8    1  0.1161271E+005  0.1043930E+01  0.7957747E-01            NaN
         13   -1    0    0    0    0  0.00000000000E+00  0.00000000000E+00  0.74505805969E-08  0.10566000000E+00  0.10566000000E+00 0.  1.
     999900   -1    0    0    0    0 -0.00000000000E+00 -0.00000000000E+00 -0.74505805969E-08  0.93827000000E+00  0.93827000000E+00 0. -1.
     999902    2    1    2    0    0 -0.76795399586E-02 -0.20356561654E-01 -0.74376212419E-02  0.10209368892E+01  0.10206779357E+01 0.  0.
     999903    2    3    3    0    0  0.72220936119E-01 -0.99054378146E-01 -0.45689845598E-01  0.13299507515E+00  0.23926858959E-01 0.  0.
         14    1    1    2    0    0  0.76795399586E-02  0.20356561654E-01  0.74376212419E-02  0.22993110840E-01  0.00000000000E+00 0. -1.
     999901    1    3    3    0    0 -0.79900476078E-01  0.78697816492E-01  0.38252224357E-01  0.88794181401E+00  0.88000000000E+00 0. -1.
        -11    1    4    4    0    0  0.44351386718E-01 -0.43112537995E-01 -0.28927328687E-01  0.68284609555E-01  0.51100000000E-03 0.  1.
         11    1    4    4    0    0  0.27869549401E-01 -0.55941840151E-01 -0.16762516911E-01  0.64710465595E-01  0.51100000000E-03 0. -1.
</event>
<event>
 8    1  0.1161271E+005  0.1043930E+01  0.7957747E-01            NaN
         13   -1    0    0    0    0  0.00000000000E+00  0.00000000000E+00  0.74505805969E-08  0.10566000000E+00  0.10566000000E+00 0. -1.
     999900   -1    0    0    0    0 -0.00000000000E+00 -0.00000000000E+00 -0.74505805969E-08  0.93827000000E+00  0.93827000000E+00 0. -1.
     999902    2    1    2    0    0  0.90600986978E-02 -0.19928809811E-01 -0.11663393640E-01  0.10191252101E+01  0.10188232999E+01 0.  0.
     999903    2    3    3    0    0  0.13010127652E+00 -0.40137349488E-02  0.55249294778E-02  0.13053098622E+00  0.80846334068E-02 0.  0.
         14    1    1    2    0    0 -0.90600986978E-02  0.19928809811E-01  0.11663393640E-01  0.24804789862E-01  0.00000000000E+00 0.  1.
     999901    1    3    3    0    0 -0.12104117782E+00 -0.15915074862E-01 -0.17188323118E-01  0.88859422392E+00  0.88000000000E+00 0. -1.
        -11    1    4    4    0    0  0.72377594202E-01  0.17561307421E-03 -0.10869088105E-03  0.72379692713E-01  0.51100000000E-03 0. -1.
         11    1    4    4    0    0  0.57723682315E-01 -0.41893480230E-02  0.56336203588E-02  0.58151293504E-01  0.51100000000E-03 0.  1.
</event>
<event>
 8    1  0.1167478E+005  0.1043930E+01  0.7957747E-01            NaN
         13   -1    0    0    0    0  0.00000000000E+00  0.00000000000E+00  0.74505805969E-08  0.10566000000E+00  0.10566000000E+00 0.  1.
     999900   -1    0    0    0    0 -0.00000000000E+00 -0.00000000000E+00 -0.74505805969E-08  0.93827000000E+00  0.93827000000E+00 0.  1.
     999902    2    1    2    0    0 -0.68298094472E-02 -0.20038392471E-01 -0.14080178852E-01  0.10185049158E+01  0.10181875213E+01 0.  0.
     999903    2    3    3    0    0  0.77065863274E-01  0.69689425919E-01 -0.71901973346E-01  0.12809325527E+00  0.21029144246E-01 0.  0.
         14    1    1    2    0    0  0.68298094472E-02  0.20038392471E-01  0.14080178852E-01  0.25425084196E-01  0.00000000000E+00 0.  1.
     999901    1    3    3    0    0 -0.83895672721E-01 -0.89727818389E-01  0.57821794494E-01  0.89041166053E+00  0.88000000000E+00 0. -1.
        -11    1    4    4    0    0  0.43389804392E-01  0.37186991429E-01 -0.26895268265E-01  0.63159829265E-01  0.51100000000E-03 0.  1.
         11    1    4    4    0    0  0.33676058882E-01  0.32502434490E-01 -0.45006705081E-01  0.64933426006E-01  0.51100000000E-03 0. -1.
</event>
<event>
 8    1  0.1161271E+005  0.1043930E+01  0.7957747E-01            NaN
         13   -1    0    0    0    0  0.00000000000E+00  0.00000000000E+00  0.74505805969E-08  0.10566000000E+00  0.10566000000E+00 0.  1.
     999900   -1    0    0    0    0 -0.00000000000E+00 -0.00000000000E+00 -0.74505805969E-08  0.93827000000E+00  0.93827000000E+00 0. -1.
     999902    2    1    2    0    0 -0.11551007077E-01 -0.37542860248E-02 -0.20354671341E-01  0.10202269818E+01  0.10199515975E+01 0.  0.
     999903    2    3    3    0    0 -0.92996489362E-01  0.14095225790E-02 -0.93260204995E-01  0.13344896651E+00  0.21466882380E-01 0.  0.
         14    1    1    2    0    0  0.11551007077E-01  0.37542860248E-02  0.20354671341E-01  0.23703018235E-01  0.00000000000E+00 0.  1.
     999901    1    3    3    0    0  0.81445482284E-01 -0.51638086038E-02  0.72905533654E-01  0.88677801526E+00  0.88000000000E+00 0. -1.
        -11    1    4    4    0    0 -0.70273168852E-01  0.10322075993E-01 -0.70214939132E-01  0.99876234969E-01  0.51100000000E-03 0. -1.
         11    1    4    4    0    0 -0.22723320510E-01 -0.89125534144E-02 -0.23045265864E-01  0.33572731540E-01  0.51100000000E-03 0.  1.
</event>
<event>
 8    1  0.1161271E+005  0.1043930E+01  0.7957747E-01            NaN
         13   -1    0    0    0    0  0.00000000000E+00  0.00000000000E+00  0.74505805969E-08  0.10566000000E+00  0.10566000000E+00 0. -1.
     999900   -1    0    0    0    0 -0.00000000000E+00 -0.00000000000E+00 -0.74505805969E-08  0.93827000000E+00  0.93827000000E+00 0. -1.
     999902    2    1    2    0    0 -0.23374669101E-02 -0.22818309926E-01 -0.55989488999E-02  0.10203188321E+01  0.10200456029E+01 0.  0.
     999903    2    3    3    0    0 -0.21015233454E-01 -0.93080544194E-01  0.88424926878E-01  0.13232889427E+00  0.24214475425E-01 0.  0.
         14    1    1    2    0    0  0.23374669101E-02  0.22818309926E-01  0.55989488999E-02  0.23611167870E-01  0.00000000000E+00 0.  1.
     999901    1    3    3    0    0  0.18677766544E-01  0.70262234268E-01 -0.94023875778E-01  0.88798993786E+00  0.88000000000E+00 0.  1.
        -11    1    4    4    0    0  0.50573737197E-02 -0.86401389630E-02  0.10291327129E-01  0.14366682474E-01  0.51100000000E-03 0.  1.
         11    1    4    4    0    0 -0.26072607174E-01 -0.84440405231E-01  0.78133599750E-01  0.11796221179E+00  0.51100000000E-03 0. -1.
</event>
<event>
 8    1  0.1161271E+005  0.1043930E+01  0.7957747E-01            NaN
         13   -1    0    0    0    0  0.00000000000E+00  0.00000000000E+00  0.74505805969E-08  0.10566000000E+00  0.10566000000E+00 0. -1.
     999900   -1    0    0    0    0 -0.00000000000E+00 -0.00000000000E+00 -0.74505805969E-08  0.93827000000E+00  0.93827000000E+00 0. -1.
     999902    2    1    2    0    0 -0.16686367452E-02 -0.15735507351E-01 -0.17482098179E-01  0.10203500446E+01  0.10200775457E+01 0.  0.
     999903    2    3    3    0    0 -0.80576679611E-01 -0.86538261509E-01  0.51939756040E-01  0.13127248720E+00  0.23521386764E-01 0.  0.
         14    1    1    2    0    0  0.16686367452E-02  0.15735507351E-01  0.17482098179E-01  0.23579955405E-01  0.00000000000E+00 0.  1.
     999901    1    3    3    0    0  0.78908042866E-01  0.70802754158E-01 -0.69421854219E-01  0.88907755740E+00  0.88000000000E+00 0. -1.
        -11    1    4    4    0    0 -0.66412514399E-01 -0.55924022891E-01  0.37522361146E-01  0.94584920109E-01  0.51100000000E-03 0.  1.
         11    1    4    4    0    0 -0.14164165212E-01 -0.30614238618E-01  0.14417394894E-01  0.36687567088E-01  0.51100000000E-03 0. -1.
</event>
<event>
 8    1  0.1161271E+005  0.1043930E+01  0.7957747E-01            NaN
         13   -1    0    0    0    0  0.00000000000E+00  0.00000000000E+00  0.74505805969E-08  0.10566000000E+00  0.10566000000E+00 0. -1.
     999900   -1    0    0    0    0 -0.00000000000E+00 -0.00000000000E+00 -0.74505805969E-08  0.93827000000E+00  0.93827000000E+00 0. -1.
     999902    2    1    2    0    0 -0.11868140774E-01 -0.56274826063E-02 -0.80271165404E-02  0.10285366272E+01  0.10284214300E+01 0.  0.
     999903    2    3    3    0    0  0.36930420393E-01  0.10730752058E+00  0.72885698181E-01  0.13630207391E+00  0.19676646803E-01 0.  0.
         14    1    1    2    0    0  0.11868140774E-01  0.56274826063E-02  0.80271165404E-02  0.15393372790E-01  0.00000000000E+00 0.  1.
     999901    1    3    3    0    0 -0.48798561166E-01 -0.11293500319E+00 -0.80912814722E-01  0.89223455330E+00  0.88000000000E+00 0.  1.
        -11    1    4    4    0    0  0.18423241888E-01  0.28270790402E-01  0.17348904176E-01  0.37946001485E-01  0.51100000000E-03 0.  1.
         11    1    4    4    0    0  0.18507178504E-01  0.79036730178E-01  0.55536794005E-01  0.98356072424E-01  0.51100000000E-03 0. -1.
</event>
<event>
 7    1  0.1161271E+005  0.1043930E+01  0.7957747E-01            NaN
         13   -1    0    0    0    0  0.00000000000E+00  0.00000000000E+00  0.74505805969E-08  0.10566000000E+00  0.10566000000E+00 0. -1.
     999900   -1    0    0    0    0 -0.00000000000E+00 -0.00000000000E+00 -0.74505805969E-08  0.93827000000E+00  0.93827000000E+00 0.  1.
     999903    2    1    2    0    0 -0.11315794395E-01 -0.91351836786E-01 -0.14132906779E-01  0.95050850174E-01  0.19018932090E-01 0.  0.
         14    1    1    2    0    0 -0.18625771696E-01 -0.35629098703E-01 -0.41169381612E-01  0.57543635859E-01  0.00000000000E+00 0. -1.
     999901    1    1    2    0    0  0.29941566090E-01  0.12698093549E+00  0.55302288391E-01  0.89133551397E+00  0.88000000000E+00 0. -1.
        -11    1    3    3    0    0 -0.15408701451E-02 -0.43071320695E-01 -0.15403748812E-01  0.45771711194E-01  0.51100000000E-03 0.  1.
         11    1    3    3    0    0 -0.97749242496E-02 -0.48280516091E-01  0.12708420327E-02  0.49279138980E-01  0.51100000000E-03 0. -1.
</event>
<event>
 8    1  0.1161271E+005  0.1043930E+01  0.7957747E-01            NaN
         13   -1    0    0    0    0  0.00000000000E+00  0.00000000000E+00  0.74505805969E-08  0.10566000000E+00  0.10566000000E+00 0.  1.
     999900   -1    0    0    0    0 -0.00000000000E+00 -0.00000000000E+00 -0.74505805969E-08  0.93827000000E+00  0.93827000000E+00 0. -1.
     999902    2    1    2    0    0  0.12489086849E-02 -0.45671871521E-02  0.21977271213E-01  0.10214484649E+01  0.10212010316E+01 0.  0.
     999903    2    3    3    0    0 -0.12040928194E-01  0.11505134522E+00  0.61294343326E-01  0.13238657434E+00  0.19682798414E-01 0.  0.
         14    1    1    2    0    0 -0.12489086849E-02  0.45671871521E-02 -0.21977271213E-01  0.22481535120E-01  0.00000000000E+00 0. -1.
     999901    1    3    3    0    0  0.13289836879E-01 -0.11961853237E+00 -0.39317072114E-01  0.88906189054E+00  0.88000000000E+00 0.  1.
        -11    1    4    4    0    0 -0.16603867283E-02  0.68235015091E-01  0.26876074459E-01  0.73357744430E-01  0.51100000000E-03 0.  1.
         11    1    4    4    0    0 -0.10380541466E-01  0.46816330127E-01  0.34418268868E-01  0.59028829910E-01  0.51100000000E-03 0. -1.
</event>
<event>
 8    1  0.1161271E+005  0.1043930E+01  0.7957747E-01            NaN
         13   -1    0    0    0    0  0.00000000000E+00  0.00000000000E+00  0.74505805969E-08  0.10566000000E+00  0.10566000000E+00 0. -1.
     999900   -1    0    0    0    0 -0.00000000000E+00 -0.00000000000E+00 -0.74505805969E-08  0.93827000000E+00  0.93827000000E+00 0.  1.
     999902    2    1    2    0    0  0.22247317366E-01 -0.54186794911E-02 -0.68353371535E-02  0.10200338277E+01  0.10197538833E+01 0.  0.
     999903    2    3    3    0    0  0.57645200414E-03  0.56887207068E-01  0.11442316451E+00  0.12927276313E+00  0.19552495642E-01 0.  0.
         14    1    1    2    0    0 -0.22247317366E-01  0.54186794911E-02  0.68353371535E-02  0.23896172317E-01  0.00000000000E+00 0.  1.
     999901    1    3    3    0    0  0.21670865362E-01 -0.62305886559E-01 -0.12125850166E+00  0.89076106456E+00  0.88000000000E+00 0.  1.
        -11    1    4    4    0    0  0.49281250738E-02  0.84241431995E-02  0.95699178000E-02  0.13678342483E-01  0.51100000000E-03 0.  1.
         11    1    4    4    0    0 -0.43516730696E-02  0.48463063869E-01  0.10485324671E+00  0.11559442064E+00  0.51100000000E-03 0. -1.
</event>
<event>
 8    1  0.1161271E+005  0.1043930E+01  0.7957747E-01            NaN
         13   -1    0    0    0    0  0.00000000000E+00  0.00000000000E+00  0.74505805969E-08  0.10566000000E+00  0.10566000000E+00 0.  1.
     999900   -1    0    0    0    0 -0.00000000000E+00 -0.00000000000E+00 -0.74505805969E-08  0.93827000000E+00  0.93827000000E+00 0. -1.
     999902    2    1    2    0    0  0.19190593143E-01 -0.10768096345E-01 -0.73500643015E-02  0.10207296938E+01  0.10204659982E+01 0.  0.
     999903    2    3    3    0    0  0.54844593932E-02  0.11380684372E+00 -0.59953456523E-01  0.13029502987E+00  0.20007520804E-01 0.  0.
         14    1    1    2    0    0 -0.19190593143E-01  0.10768096345E-01  0.73500643015E-02  0.23200306233E-01  0.00000000000E+00 0. -1.
     999901    1    3    3    0    0  0.13706133750E-01 -0.12457494006E+00  0.52603392221E-01  0.89043466390E+00  0.88000000000E+00 0.  1.
        -11    1    4    4    0    0  0.21146610980E-02  0.12894586197E-02  0.41128532719E-03  0.25621810459E-02  0.51100000000E-03 0. -1.
         11    1    4    4    0    0  0.33697982952E-02  0.11251738510E+00 -0.60364741850E-01  0.12773284883E+00  0.51100000000E-03 0.  1.
</event>
<event>
 8    1  0.1161271E+005  0.1043930E+01  0.7957747E-01            NaN
         13   -1    0    0    0    0  0.00000000000E+00  0.00000000000E+00  0.74505805969E-08  0.10566000000E+00  0.10566000000E+00 0.  1.
     999900   -1    0    0    0    0 -0.00000000000E+00 -0.00000000000E+00 -0.74505805969E-08  0.93827000000E+00  0.93827000000E+00 0.  1.
     999902    2    1    2    0    0  0.95297423896E-02 -0.20058666875E-01  0.66817660949E-02  0.10207392237E+01  0.10204757472E+01 0.  0.
     999903    2    3    3    0    0 -0.55976582541E-01 -0.11714137692E+00  0.47560364522E-02  0.13297808487E+00  0.28373776503E-01 0.  0.
         14    1    1    2    0    0 -0.95297423896E-02  0.20058666875E-01 -0.66817660949E-02  0.23190776291E-01  0.00000000000E+00 0.  1.
     999901    1    3    3    0    0  0.65506324930E-01  0.97082710047E-01  0.19257296427E-02  0.88776113884E+00  0.88000000000E+00 0. -1.
        -11    1    4    4    0    0 -0.16727424284E-01 -0.34033291505E-01  0.14388987525E-01  0.40563231341E-01  0.51100000000E-03 0.  1.
         11    1    4    4    0    0 -0.39249158257E-01 -0.83108085417E-01 -0.96329510727E-02  0.92414853530E-01  0.51100000000E-03 0. -1.
</event>
<event>
 8    1  0.1161271E+005  0.1043930E+01  0.7957747E-01            NaN
         13   -1    0    0    0    0  0.00000000000E+00  0.00000000000E+00  0.74505805969E-08  0.10566000000E+00  0.10566000000E+00 0. -1.
     999900   -1    0    0    0    0 -0.00000000000E+00 -0.00000000000E+00 -0.74505805969E-08  0.93827000000E+00  0.93827000000E+00 0.  1.
     999902    2    1    2    0    0  0.42808469150E-02 -0.22048692589E-01  0.66287820884E-02  0.10205118180E+01  0.10202430884E+01 0.  0.
     999903    2    3    3    0    0 -0.32823236002E-01  0.10086181419E+00 -0.69692220733E-01  0.12792647134E+00  0.16053225690E-01 0.  0.
         14    1    1    2    0    0 -0.42808469150E-02  0.22048692589E-01 -0.66287820884E-02  0.23418181978E-01  0.00000000000E+00 0. -1.
     999901    1    3    3    0    0  0.37104082917E-01 -0.12291050678E+00  0.76321002822E-01  0.89258534669E+00  0.88000000000E+00 0. -1.
        -11    1    4    4    0    0 -0.28870509396E-02  0.29474973218E-01 -0.15494582854E-01  0.33428316263E-01  0.51100000000E-03 0. -1.
         11    1    4    4    0    0 -0.29936185062E-01  0.71386840970E-01 -0.54197637879E-01  0.94498155074E-01  0.51100000000E-03 0.  1.
</event>
<event>
 8    1  0.1161271E+005  0.1043930E+01  0.7957747E-01            NaN
         13   -1    0    0    0    0  0.00000000000E+00  0.00000000000E+00  0.74505805969E-08  0.10566000000E+00  0.10566000000E+00 0.  1.
     999900   -1    0    0    0    0 -0.00000000000E+00 -0.00000000000E+00 -0.74505805969E-08  0.93827000000E+00  0.93827000000E+00 0.  1.
     999902    2    1    2    0    0 -0.11194669690E-01  0.13733538454E-01  0.16301197813E-01  0.10198538758E+01  0.10195696485E+01 0.  0.
     999903    2    3    3    0    0  0.10525970298E+00  0.36625093895E-01  0.65016349740E-01  0.13055144675E+00  0.19888487679E-01 0.  0.
         14    1    1    2    0    0  0.11194669690E-01 -0.13733538454E-01 -0.16301197813E-01  0.24076124233E-01  0.00000000000E+00 0. -1.
     999901    1    3    3    0    0 -0.11645437267E+00 -0.22891555440E-01 -0.48715151927E-01  0.88930242901E+00  0.88000000000E+00 0.  1.
        -11    1    4    4    0    0  0.33440575841E-01  0.61202980814E-02  0.11337846825E-01  0.35840452742E-01  0.51100000000E-03 0.  1.
         11    1    4    4    0    0  0.71819127136E-01  0.30504795813E-01  0.53678502915E-01  0.94710994010E-01  0.51100000000E-03 0. -1.
</event>
<event>
 8    1  0.1161271E+005  0.1043930E+01  0.7957747E-01            NaN
         13   -1    0    0    0    0  0.00000000000E+00  0.00000000000E+00  0.74505805969E-08  0.10566000000E+00  0.10566000000E+00 0. -1.
     999900   -1    0    0    0    0 -0.00000000000E+00 -0.00000000000E+00 -0.74505805969E-08  0.93827000000E+00  0.93827000000E+00 0.  1.
     999902    2    1    2    0    0 -0.22795523687E-01  0.94031497777E-02  0.48856813109E-02  0.10187918814E+01  0.10184816997E+01 0.  0.
     999903    2    3    3    0    0 -0.88037721610E-01  0.86276973854E-01  0.43584782952E-01  0.13218951860E+00  0.19495611797E-01 0.  0.
         14    1    1    2    0    0  0.22795523687E-01 -0.94031497777E-02 -0.48856813109E-02  0.25138118620E-01  0.00000000000E+00 0.  1.
     999901    1    3    3    0    0  0.65242197923E-01 -0.76873824076E-01 -0.38699101641E-01  0.88660236278E+00  0.88000000000E+00 0. -1.
        -11    1    4    4    0    0 -0.17246196050E-01  0.15080717182E-01  0.46677334582E-03  0.22920259755E-01  0.51100000000E-03 0. -1.
         11    1    4    4    0    0 -0.70791525560E-01  0.71196256672E-01  0.43118009606E-01  0.10926925885E+00  0.51100000000E-03 0.  1.
</event>
<event>
 8    1  0.1161271E+005  0.1043930E+01  0.7957747E-01            NaN
         13   -1    0    0    0    0  0.00000000000E+00  0.00000000000E+00  0.74505805969E-08  0.10566000000E+00  0.10566000000E+00 0.  1.
     999900   -1    0    0    0    0 -0.00000000000E+00 -0.00000000000E+00 -0.74505805969E-08  0.93827000000E+00  0.93827000000E+00 0.  1.
     999902    2    1    2    0    0 -0.14722941011E-01  0.14162689791E-01 -0.12785056561E-01  0.10198301152E+01  0.10195453200E+01 0.  0.
     999903    2    3    3    0    0  0.12316394776E+00 -0.22847342859E-01 -0.19329302017E-01  0.12830032675E+00  0.19899568456E-01 0.  0.
         14    1    1    2    0    0  0.14722941011E-01 -0.14162689791E-01  0.12785056561E-01  0.24099884759E-01  0.00000000000E+00 0. -1.
     999901    1    3    3    0    0 -0.13788688877E+00  0.37010032650E-01  0.65442454561E-02  0.89152978849E+00  0.88000000000E+00 0.  1.
        -11    1    4    4    0    0  0.46449392532E-01 -0.17109923156E-02 -0.14005316763E-01  0.48547745364E-01  0.51100000000E-03 0.  1.
         11    1    4    4    0    0  0.76714555229E-01 -0.21136350543E-01 -0.53239852543E-02  0.79752581389E-01  0.51100000000E-03 0. -1.
</event>
<event>
 8    1  0.1161271E+005  0.1043930E+01  0.7957747E-01            NaN
         13   -1    0    0    0    0  0.00000000000E+00  0.00000000000E+00  0.74505805969E-08  0.10566000000E+00  0.10566000000E+00 0. -1.
     999900   -1    0    0    0    0 -0.00000000000E+00 -0.00000000000E+00 -0.74505805969E-08  0.93827000000E+00  0.93827000000E+00 0. -1.
     999902    2    1    2    0    0 -0.17925254388E-01 -0.85559260312E-03 -0.76349587237E-02  0.10244277084E+01  0.10242420565E+01 0.  0.
     999903    2    3    3    0    0 -0.96307761751E-01  0.29033860241E-01  0.88200198178E-01  0.13525867263E+00  0.19936989438E-01 0.  0.
         14    1    1    2    0    0  0.17925254388E-01  0.85559260312E-03  0.76349587237E-02  0.19502291616E-01  0.00000000000E+00 0. -1.
     999901    1    3    3    0    0  0.78382507363E-01 -0.29889452844E-01 -0.95835156902E-01  0.88916903576E+00  0.88000000000E+00 0. -1.
        -11    1    4    4    0    0 -0.24439788818E-01  0.11977916120E-01  0.14206140466E-01  0.30705851234E-01  0.51100000000E-03 0. -1.
         11    1    4    4    0    0 -0.71867972933E-01  0.17055944121E-01  0.73994057712E-01  0.10455282139E+00  0.51100000000E-03 0.  1.
</event>
<event>
 7    1  0.1161271E+005  0.1043930E+01  0.7957747E-01            NaN
         13   -1    0    0    0    0  0.00000000000E+00  0.00000000000E+00  0.74505805969E-08  0.10566000000E+00  0.10566000000E+00 0. -1.
     999900   -1    0    0    0    0 -0.00000000000E+00 -0.00000000000E+00 -0.74505805969E-08  0.93827000000E+00  0.93827000000E+00 0.  1.
     999903    2    1    2    0    0 -0.91551601749E-01  0.82508235043E-02  0.55777471083E-01  0.10937440441E+00  0.20046500649E-01 0.  0.
         14    1    1    2    0    0  0.31405154148E-03 -0.58012150563E-02  0.43859192877E-01  0.44242304690E-01  0.00000000000E+00 0. -1.
     999901    1    1    2    0    0  0.91237550207E-01 -0.24496084480E-02 -0.99636663959E-01  0.89031329090E+00  0.88000000000E+00 0.  1.
        -11    1    3    3    0    0 -0.50564764364E-01  0.73472831620E-02  0.19709719970E-01  0.54767802104E-01  0.51100000000E-03 0. -1.
         11    1    3    3    0    0 -0.40986837385E-01  0.90354034223E-03  0.36067751113E-01  0.54606602305E-01  0.51100000000E-03 0.  1.
</event>
<event>
 8    1  0.1161271E+005  0.1043930E+01  0.7957747E-01            NaN
         13   -1    0    0    0    0  0.00000000000E+00  0.00000000000E+00  0.74505805969E-08  0.10566000000E+00  0.10566000000E+00 0. -1.
     999900   -1    0    0    0    0 -0.00000000000E+00 -0.00000000000E+00 -0.74505805969E-08  0.93827000000E+00  0.93827000000E+00 0.  1.
     999902    2    1    2    0    0 -0.14865089008E-01 -0.39295470194E-02 -0.19526432081E-01  0.10190765543E+01  0.10187734438E+01 0.  0.
     999903    2    3    3    0    0  0.11900767532E+00  0.43588995063E-02  0.37285777650E-01  0.12710220351E+00  0.24143614739E-01 0.  0.
         14    1    1    2    0    0  0.14865089008E-01  0.39295470194E-02  0.19526432081E-01  0.24853445653E-01  0.00000000000E+00 0. -1.
     999901    1    3    3    0    0 -0.13387276433E+00 -0.82884465257E-02 -0.56812209731E-01  0.89197435084E+00  0.88000000000E+00 0.  1.
        -11    1    4    4    0    0  0.91497187693E-01 -0.38942895649E-02  0.35823612369E-01  0.98338665697E-01  0.51100000000E-03 0.  1.
         11    1    4    4    0    0  0.27510487626E-01  0.82531890712E-02  0.14621652812E-02  0.28763537814E-01  0.51100000000E-03 0. -1.
</event>
<event>
 8    1  0.1161271E+005  0.1043930E+01  0.7957747E-01            NaN
         13   -1    0    0    0    0  0.00000000000E+00  0.00000000000E+00  0.74505805969E-08  0.10566000000E+00  0.10566000000E+00 0.  1.
     999900   -1    0    0    0    0 -0.00000000000E+00 -0.00000000000E+00 -0.74505805969E-08  0.93827000000E+00  0.93827000000E+00 0. -1.
     999902    2    1    2    0    0 -0.22418485132E-01  0.33964810321E-02  0.43945461286E-02  0.10208337537E+01  0.10205724453E+01 0.  0.
     999903    2    3    3    0    0 -0.40591270233E-01 -0.10521291897E-01  0.12468062834E+00  0.13235601276E+00  0.14646031109E-01 0.  0.
         14    1    1    2    0    0  0.22418485132E-01 -0.33964810321E-02 -0.43945461286E-02  0.23096246334E-01  0.00000000000E+00 0. -1.
     999901    1    3    3    0    0  0.18172785101E-01  0.13917772929E-01 -0.12028608221E+00  0.88847774091E+00  0.88000000000E+00 0. -1.
        -11    1    4    4    0    0 -0.35059123688E-01 -0.12354666015E-01  0.93281980810E-01  0.10041697561E+00  0.51100000000E-03 0.  1.
         11    1    4    4    0    0 -0.55321465451E-02  0.18333741180E-02  0.31398647528E-01  0.31939037143E-01  0.51100000000E-03 0. -1.
</event>
<event>
 8    1  0.1161271E+005  0.1043930E+01  0.7957747E-01            NaN
         13   -1    0    0    0    0  0.00000000000E+00  0.00000000000E+00  0.74505805969E-08  0.10566000000E+00  0.10566000000E+00 0.  1.
     999900   -1    0    0    0    0 -0.00000000000E+00 -0.00000000000E+00 -0.74505805969E-08  0.93827000000E+00  0.93827000000E+00 0. -1.
     999902    2    1    2    0    0 -0.18031306304E-01 -0.14294911465E-01  0.60946051912E-02  0.10201262878E+01  0.10198485311E+01 0.  0.
     999903    2    3    3    0    0 -0.11025358416E+00  0.42145220054E-01  0.55339336865E-01  0.13214234620E+00  0.21612150783E-01 0.  0.
         14    1    1    2    0    0  0.18031306304E-01  0.14294911465E-01 -0.60946051912E-02  0.23803712174E-01  0.00000000000E+00 0.  1.
     999901    1    3    3    0    0  0.92222277861E-01 -0.56440131519E-01 -0.49244731673E-01  0.88798394162E+00  0.88000000000E+00 0. -1.
        -11    1    4    4    0    0 -0.22397445105E-02  0.38296503568E-02 -0.77561632783E-03  0.45327010728E-02  0.51100000000E-03 0. -1.
         11    1    4    4    0    0 -0.10801383965E+00  0.38315569697E-01  0.56114953192E-01  0.12760964513E+00  0.51100000000E-03 0.  1.
</event>
<event>
 8    1  0.1161271E+005  0.1043930E+01  0.7957747E-01            NaN
         13   -1    0    0    0    0  0.00000000000E+00  0.00000000000E+00  0.74505805969E-08  0.10566000000E+00  0.10566000000E+00 0.  1.
     999900   -1    0    0    0    0 -0.00000000000E+00 -0.00000000000E+00 -0.74505805969E-08  0.93827000000E+00  0.93827000000E+00 0.  1.
     999902    2    1    2    0    0 -0.76130093396E-02 -0.16360403294E-01  0.18093880869E-01  0.10183759547E+01  0.10180552912E+01 0.  0.
     999903    2    3    3    0    0 -0.28363163040E-01 -0.10465220908E+00  0.72559242303E-01  0.13203940041E+00  0.20322542478E-01 0.  0.
         14    1    1    2    0    0  0.76130093396E-02  0.16360403294E-01 -0.18093880869E-01  0.25554045317E-01  0.00000000000E+00 0. -1.
     999901    1    3    3    0    0  0.20750153700E-01  0.88291805790E-01 -0.54465361434E-01  0.88633655428E+00  0.88000000000E+00 0.  1.
        -11    1    4    4    0    0 -0.45188570609E-02 -0.41823887809E-01  0.36909433808E-01  0.55966285259E-01  0.51100000000E-03 0.  1.
         11    1    4    4    0    0 -0.23844305979E-01 -0.62828321274E-01  0.35649808495E-01  0.76073115149E-01  0.51100000000E-03 0. -1.
</event>
<event>
 8    1  0.1161271E+005  0.1043930E+01  0.7957747E-01            NaN
         13   -1    0    0    0    0  0.00000000000E+00  0.00000000000E+00  0.74505805969E-08  0.10566000000E+00  0.10566000000E+00 0.  1.
     999900   -1    0    0    0    0 -0.00000000000E+00 -0.00000000000E+00 -0.74505805969E-08  0.93827000000E+00  0.93827000000E+00 0. -1.
     999902    2    1    2    0    0 -0.20657448390E-02  0.23767856320E-01 -0.67426827213E-02  0.10191380242E+01  0.10188364296E+01 0.  0.
     999903    2    3    3    0    0  0.43335637963E-01  0.30343214333E-01 -0.11812658968E+00  0.13093146281E+00  0.19760278116E-01 0.  0.
         14    1    1    2    0    0  0.20657448390E-02 -0.23767856320E-01  0.67426827213E-02  0.24791975840E-01  0.00000000000E+00 0.  1.
     999901    1    3    3    0    0 -0.45401382802E-01 -0.65753580137E-02  0.11138390696E+00  0.88820656135E+00  0.88000000000E+00 0.  1.
        -11    1    4    4    0    0  0.22592190625E-01  0.25968868035E-01 -0.61730904531E-01  0.70680654209E-01  0.51100000000E-03 0.  1.
         11    1    4    4    0    0  0.20743447338E-01  0.43743462988E-02 -0.56395685147E-01  0.60250808603E-01  0.51100000000E-03 0. -1.
</event>
<event>
 8    1  0.1161271E+005  0.1043930E+01  0.7957747E-01            NaN
         13   -1    0    0    0    0  0.00000000000E+00  0.00000000000E+00  0.74505805969E-08  0.10566000000E+00  0.10566000000E+00 0. -1.
     999900   -1    0    0    0    0 -0.00000000000E+00 -0.00000000000E+00 -0.74505805969E-08  0.93827000000E+00  0.93827000000E+00 0. -1.
     999902    2    1    2    0    0 -0.97658664347E-03 -0.17094655969E-01 -0.18363828618E-01  0.10188220095E+01  0.10185125801E+01 0.  0.
     999903    2    3    3    0    0  0.61882855228E-01 -0.80686668637E-01 -0.81793202303E-01  0.13201958567E+00  0.19980410180E-01 0.  0.
         14    1    1    2    0    0  0.97658664347E-03  0.17094655969E-01  0.18363828618E-01  0.25107990475E-01  0.00000000000E+00 0. -1.
     999901    1    3    3    0    0 -0.62859441871E-01  0.63592012667E-01  0.63429373684E-01  0.88680242385E+00  0.88000000000E+00 0.  1.
        -11    1    4    4    0    0  0.17647500694E-02 -0.10981335529E-01 -0.12918123307E-01  0.17054122774E-01  0.51100000000E-03 0. -1.
         11    1    4    4    0    0  0.60118105158E-01 -0.69705333107E-01 -0.68875078995E-01  0.11496546290E+00  0.51100000000E-03 0.  1.
</event>
<event>
 8    1  0.1161271E+005  0.1043930E+01  0.7957747E-01            NaN
         13   -1    0    0    0    0  0.00000000000E+00  0.00000000000E+00  0.74505805969E-08  0.10566000000E+00  0.10566000000E+00 0.  1.
     999900   -1    0    0    0    0 -0.00000000000E+00 -0.00000000000E+00 -0.74505805969E-08  0.93827000000E+00  0.93827000000E+00 0.  1.
     999902    2    1    2    0    0 -0.21810415056E-02 -0.22873759287E-01  0.98339036860E-03  0.10209314596E+01  0.10206723824E+01 0.  0.
     999903    2    3    3    0    0 -0.93759749639E-01  0.73805728831E-01  0.46717925137E-01  0.12973830940E+00  0.20280240068E-01 0.  0.
         14    1    1    2    0    0  0.21810415056E-02  0.22873759287E-01 -0.98339036860E-03  0.22998540445E-01  0.00000000000E+00 0. -1.
     999901    1    3    3    0    0  0.91578708133E-01 -0.96679488118E-01 -0.45734534769E-01  0.89119315015E+00  0.88000000000E+00 0.  1.
        -11    1    4    4    0    0 -0.12248572892E-01  0.97181975422E-02 -0.83150232295E-03  0.15665995610E-01  0.51100000000E-03 0.  1.
         11    1    4    4    0    0 -0.81511176747E-01  0.64087531289E-01  0.47549427460E-01  0.11407231379E+00  0.51100000000E-03 0. -1.
</event>
<event>
 8    1  0.1161271E+005  0.1043930E+01  0.7957747E-01            NaN
         13   -1    0    0    0    0  0.00000000000E+00  0.00000000000E+00  0.74505805969E-08  0.10566000000E+00  0.10566000000E+00 0. -1.
     999900   -1    0    0    0    0 -0.00000000000E+00 -0.00000000000E+00 -0.74505805969E-08  0.93827000000E+00  0.93827000000E+00 0.  1.
     999902    2    1    2    0    0  0.16720454723E-01 -0.15094916395E-01 -0.74873272915E-03  0.10213913508E+01  0.10211426447E+01 0.  0.
     999903    2    3    3    0    0  0.64789615335E-01  0.33687312476E-01 -0.10912022805E+00  0.13210246014E+00  0.14536386356E-01 0.  0.
         14    1    1    2    0    0 -0.16720454723E-01  0.15094916395E-01  0.74873272915E-03  0.22538649202E-01  0.00000000000E+00 0. -1.
     999901    1    3    3    0    0 -0.48069160612E-01 -0.48782228872E-01  0.10837149532E+00  0.88928889066E+00  0.88000000000E+00 0. -1.
        -11    1    4    4    0    0  0.45604390710E-01  0.16061401104E-01 -0.68662283553E-01  0.83979160279E-01  0.51100000000E-03 0.  1.
         11    1    4    4    0    0  0.19185224625E-01  0.17625911372E-01 -0.40457944493E-01  0.48123299858E-01  0.51100000000E-03 0. -1.
</event>
<event>
 8    1  0.1161271E+005  0.1043930E+01  0.7957747E-01            NaN
         13   -1    0    0    0    0  0.00000000000E+00  0.00000000000E+00  0.74505805969E-08  0.10566000000E+00  0.10566000000E+00 0. -1.
     999900   -1    0    0    0    0 -0.00000000000E+00 -0.00000000000E+00 -0.74505805969E-08  0.93827000000E+00  0.93827000000E+00 0. -1.
     999902    2    1    2    0    0  0.18423046767E-01  0.89806596989E-02 -0.94018716906E-02  0.10213810290E+01  0.10211320925E+01 0.  0.
     999903    2    3    3    0    0 -0.37619233493E-01  0.53121712909E-01  0.11209865422E+00  0.13017311414E+00  0.11908327129E-01 0.  0.
         14    1    1    2    0    0 -0.18423046767E-01 -0.89806596989E-02  0.94018716906E-02  0.22548970976E-01  0.00000000000E+00 0. -1.
     999901    1    3    3    0    0  0.56042280259E-01 -0.44141053210E-01 -0.12150052591E+00  0.89120791488E+00  0.88000000000E+00 0. -1.
        -11    1    4    4    0    0 -0.17798304721E-01  0.30926584669E-01  0.70587280020E-01  0.79095249617E-01  0.51100000000E-03 0. -1.
         11    1    4    4    0    0 -0.19820928772E-01  0.22195128240E-01  0.41511374204E-01  0.51077864523E-01  0.51100000000E-03 0.  1.
</event>
<event>
 8    1  0.1161271E+005  0.1043930E+01  0.7957747E-01            NaN
         13   -1    0    0    0    0  0.00000000000E+00  0.00000000000E+00  0.74505805969E-08  0.10566000000E+00  0.10566000000E+00 0.  1.
     999900   -1    0    0    0    0 -0.00000000000E+00 -0.00000000000E+00 -0.74505805969E-08  0.93827000000E+00  0.93827000000E+00 0. -1.
     999902    2    1    2    0    0  0.54822753004E-03 -0.15498519655E-01  0.13972937273E-01  0.10230554308E+01  0.10228424447E+01 0.  0.
     999903    2    3    3    0    0  0.77139262161E-01  0.77574918381E-01 -0.69135851320E-01  0.13095906702E+00  0.20054365333E-01 0.  0.
         14    1    1    2    0    0 -0.54822753004E-03  0.15498519655E-01 -0.13972937273E-01  0.20874569240E-01  0.00000000000E+00 0.  1.
     999901    1    3    3    0    0 -0.76591034631E-01 -0.93073438036E-01  0.83108788593E-01  0.89209636374E+00  0.88000000000E+00 0.  1.
        -11    1    4    4    0    0  0.13980378792E-01  0.25859421441E-01 -0.21736868386E-01  0.36563824153E-01  0.51100000000E-03 0.  1.
         11    1    4    4    0    0  0.63158883369E-01  0.51715496940E-01 -0.47398982933E-01  0.94395242869E-01  0.51100000000E-03 0. -1.
</event>
<event>
 8    1  0.1161271E+005  0.1043930E+01  0.7957747E-01            NaN
         13   -1    0    0    0    0  0.00000000000E+00  0.00000000000E+00  0.74505805969E-08  0.10566000000E+00  0.10566000000E+00 0.  1.
     999900   -1    0    0    0    0 -0.00000000000E+00 -0.00000000000E+00 -0.74505805969E-08  0.93827000000E+00  0.93827000000E+00 0.  1.
     999902    2    1    2    0    0 -0.18627694604E-01  0.69543378582E-02  0.15531948100E-01  0.10186991611E+01  0.10183866582E+01 0.  0.
     999903    2    3    3    0    0  0.59772062536E-02  0.15341421469E-01 -0.12427281013E+00  0.12728392969E+00  0.22054052026E-01 0.  0.
         14    1    1    2    0    0  0.18627694604E-01 -0.69543378582E-02 -0.15531948100E-01  0.25230838929E-01  0.00000000000E+00 0. -1.
     999901    1    3    3    0    0 -0.24604900857E-01 -0.83870836111E-02  0.13980475823E+00  0.89141523138E+00  0.88000000000E+00 0. -1.
        -11    1    4    4    0    0  0.11227180765E-01  0.22631617120E-04 -0.46142869459E-01  0.47491847964E-01  0.51100000000E-03 0.  1.
         11    1    4    4    0    0 -0.52499745111E-02  0.15318789852E-01 -0.78129940675E-01  0.79792081723E-01  0.51100000000E-03 0. -1.
</event>
<event>
 8    1  0.1161271E+005  0.1043930E+01  0.7957747E-01            NaN
         13   -1    0    0    0    0  0.00000000000E+00  0.00000000000E+00  0.74505805969E-08  0.10566000000E+00  0.10566000000E+00 0. -1.
     999900   -1    0    0    0    0 -0.00000000000E+00 -0.00000000000E+00 -0.74505805969E-08  0.93827000000E+00  0.93827000000E+00 0. -1.
     999902    2    1    2    0    0 -0.12453922633E-01  0.11775772083E-01  0.16634067110E-01  0.10200456707E+01  0.10197660071E+01 0.  0.
     999903    2    3    3    0    0 -0.54403958399E-01  0.42809894302E-01 -0.10799253602E+00  0.12973408904E+00  0.19392480069E-01 0.  0.
         14    1    1    2    0    0  0.12453922633E-01 -0.11775772083E-01 -0.16634067110E-01  0.23884329292E-01  0.00000000000E+00 0.  1.
     999901    1    3    3    0    0  0.41950035766E-01 -0.31034122218E-01  0.12462660313E+00  0.89031158167E+00  0.88000000000E+00 0.  1.
        -11    1    4    4    0    0 -0.48095325636E-01  0.43118510836E-01 -0.90978412479E-01  0.11157821912E+00  0.51100000000E-03 0.  1.
         11    1    4    4    0    0 -0.63086327630E-02 -0.30861653399E-03 -0.17014123542E-01  0.18155869916E-01  0.51100000000E-03 0. -1.
</event>
<event>
 8    1  0.1161271E+005  0.1043930E+01  0.7957747E-01            NaN
         13   -1    0    0    0    0  0.00000000000E+00  0.00000000000E+00  0.74505805969E-08  0.10566000000E+00  0.10566000000E+00 0.  1.
     999900   -1    0    0    0    0 -0.00000000000E+00 -0.00000000000E+00 -0.74505805969E-08  0.93827000000E+00  0.93827000000E+00 0. -1.
     999902    2    1    2    0    0  0.18815510158E-01  0.14320660365E-01 -0.20216958340E-02  0.10201983336E+01  0.10199222754E+01 0.  0.
     999903    2    3    3    0    0  0.28397398378E-01  0.12354569202E+00 -0.34331862402E-01  0.13280559812E+00  0.19715472756E-01 0.  0.
         14    1    1    2    0    0 -0.18815510158E-01 -0.14320660365E-01  0.20216958340E-02  0.23731666394E-01  0.00000000000E+00 0.  1.
     999901    1    3    3    0    0 -0.95818882199E-02 -0.10922503166E+00  0.32310166568E-01  0.88739273548E+00  0.88000000000E+00 0.  1.
        -11    1    4    4    0    0  0.29783626634E-01  0.94679079137E-01 -0.29091356383E-01  0.10342997911E+00  0.51100000000E-03 0.  1.
         11    1    4    4    0    0 -0.13862282564E-02  0.28866612883E-01 -0.52405060197E-02  0.29375619014E-01  0.51100000000E-03 0. -1.
</event>
<event>
 8    1  0.1161271E+005  0.1043930E+01  0.7957747E-01            NaN
         13   -1    0    0    0    0  0.00000000000E+00  0.00000000000E+00  0.74505805969E-08  0.10566000000E+00  0.10566000000E+00 0. -1.
     999900   -1    0    0    0    0 -0.00000000000E+00 -0.00000000000E+00 -0.74505805969E-08  0.93827000000E+00  0.93827000000E+00 0.  1.
     999902    2    1    2    0    0 -0.35093468952E-02  0.16936242603E-01  0.16120650268E-01  0.10202862441E+01  0.10200122512E+01 0.  0.
     999903    2    3    3    0    0  0.97084625285E-01  0.86356567934E-01 -0.49496721206E-02  0.13158928375E+00  0.20207895766E-01 0.  0.
         14    1    1    2    0    0  0.35093468952E-02 -0.16936242603E-01 -0.16120650268E-01  0.23643755925E-01  0.00000000000E+00 0.  1.
     999901    1    3    3    0    0 -0.10059397218E+00 -0.69420325330E-01  0.21070322389E-01  0.88869696033E+00  0.88000000000E+00 0.  1.
        -11    1    4    4    0    0  0.65426774913E-01  0.45060575139E-01 -0.20165953761E-02  0.79469780957E-01  0.51100000000E-03 0. -1.
         11    1    4    4    0    0  0.31657850372E-01  0.41295992795E-01 -0.29330767445E-02  0.52119502792E-01  0.51100000000E-03 0.  1.
</event>
<event>
 8    1  0.1161271E+005  0.1043930E+01  0.7957747E-01            NaN
         13   -1    0    0    0    0  0.00000000000E+00  0.00000000000E+00  0.74505805969E-08  0.10566000000E+00  0.10566000000E+00 0.  1.
     999900   -1    0    0    0    0 -0.00000000000E+00 -0.00000000000E+00 -0.74505805969E-08  0.93827000000E+00  0.93827000000E+00 0.  1.
     999902    2    1    2    0    0  0.19136204363E-03 -0.16820561203E-01  0.15082037732E-01  0.10213371746E+01  0.10210872580E+01 0.  0.
     999903    2    3    3    0    0 -0.82739615707E-01  0.93165431218E-01 -0.27019904874E-01  0.12962699791E+00  0.23397473058E-01 0.  0.
         14    1    1    2    0    0 -0.19136204363E-03  0.16820561203E-01 -0.15082037732E-01  0.22592825427E-01  0.00000000000E+00 0. -1.
     999901    1    3    3    0    0  0.82930977750E-01 -0.10998599242E+00  0.42101942606E-01  0.89171017667E+00  0.88000000000E+00 0.  1.
        -11    1    4    4    0    0 -0.46975738402E-02  0.17314731178E-01 -0.39956511605E-02  0.18387318046E-01  0.51100000000E-03 0. -1.
         11    1    4    4    0    0 -0.78042041866E-01  0.75850700040E-01 -0.23024253713E-01  0.11123967986E+00  0.51100000000E-03 0.  1.
</event>
<event>
 8    1  0.1161271E+005  0.1043930E+01  0.7957747E-01            NaN
         13   -1    0    0    0    0  0.00000000000E+00  0.00000000000E+00  0.74505805969E-08  0.10566000000E+00  0.10566000000E+00 0. -1.
     999900   -1    0    0    0    0 -0.00000000000E+00 -0.00000000000E+00 -0.74505805969E-08  0.93827000000E+00  0.93827000000E+00 0.  1.
     999902    2    1    2    0    0  0.16232719690E-01 -0.87346589680E-02  0.14749529751E-01  0.10203218640E+01  0.10200487058E+01 0.  0.
     999903    2    3    3    0    0 -0.12171362152E+00  0.33275137859E-01  0.14404529615E-01  0.12858528011E+00  0.20130656378E-01 0.  0.
         14    1    1    2    0    0 -0.16232719690E-01  0.87346589680E-02 -0.14749529751E-01  0.23608135964E-01  0.00000000000E+00 0.  1.
     999901    1    3    3    0    0  0.13794634121E+00 -0.42009796827E-01  0.34500013536E-03  0.89173658392E+00  0.88000000000E+00 0. -1.
        -11    1    4    4    0    0 -0.50853670634E-01  0.24133942829E-01  0.78382213934E-02  0.56835216626E-01  0.51100000000E-03 0. -1.
         11    1    4    4    0    0 -0.70859950883E-01  0.91411950300E-02  0.65663082219E-02  0.71750063487E-01  0.51100000000E-03 0.  1.
</event>
<event>
 8    1  0.1161271E+005  0.1043930E+01  0.7957747E-01            NaN
         13   -1    0    0    0    0  0.00000000000E+00  0.00000000000E+00  0.74505805969E-08  0.10566000000E+00  0.10566000000E+00 0. -1.
     999900   -1    0    0    0    0 -0.00000000000E+00 -0.00000000000E+00 -0.74505805969E-08  0.93827000000E+00  0.93827000000E+00 0.  1.
     999902    2    1    2    0    0 -0.89152420398E-02  0.10299989283E-01  0.21985253586E-01  0.10180664601E+01  0.10177378811E+01 0.  0.
     999903    2    3    3    0    0  0.71677819275E-01  0.68320885333E-01  0.82448499632E-01  0.13041930610E+00  0.20149123167E-01 0.  0.
         14    1    1    2    0    0  0.89152420398E-02 -0.10299989283E-01 -0.21985253586E-01  0.25863539880E-01  0.00000000000E+00 0.  1.
     999901    1    3    3    0    0 -0.80593061314E-01 -0.58020896050E-01 -0.60463246047E-01  0.88764715402E+00  0.88000000000E+00 0.  1.
        -11    1    4    4    0    0  0.31694200858E-01  0.39475749708E-01  0.32079551671E-01  0.59935097726E-01  0.51100000000E-03 0. -1.
         11    1    4    4    0    0  0.39983618417E-01  0.28845135625E-01  0.50368947962E-01  0.70484208378E-01  0.51100000000E-03 0.  1.
</event>
<event>
 8    1  0.1672685E+005  0.1043930E+01  0.7957747E-01            NaN
         13   -1    0    0    0    0  0.00000000000E+00  0.00000000000E+00  0.74505805969E-08  0.10566000000E+00  0.10566000000E+00 0.  1.
     999900   -1    0    0    0    0 -0.00000000000E+00 -0.00000000000E+00 -0.74505805969E-08  0.93827000000E+00  0.93827000000E+00 0.  1.
     999902    2    1    2    0    0 -0.90589246053E-02 -0.73791772193E-02  0.23609517455E-01  0.10175875308E+01  0.10172465075E+01 0.  0.
     999903    2    3    3    0    0  0.88378707624E-01  0.67078457832E-02 -0.86256078561E-01  0.12530787416E+00  0.20153438434E-01 0.  0.
         14    1    1    2    0    0  0.90589246053E-02  0.73791772193E-02 -0.23609517455E-01  0.26342469244E-01  0.00000000000E+00 0. -1.
     999901    1    3    3    0    0 -0.97437632229E-01 -0.14087023003E-01  0.10986559602E+00  0.89227965660E+00  0.88000000000E+00 0. -1.
        -11    1    4    4    0    0  0.70090246857E-01  0.49332499836E-02 -0.55765894855E-01  0.89705494870E-01  0.51100000000E-03 0. -1.
         11    1    4    4    0    0  0.18288460767E-01  0.17745957995E-02 -0.30490183706E-01  0.35602379287E-01  0.51100000000E-03 0.  1.
</event>
<event>
 8    1  0.1161271E+005  0.1043930E+01  0.7957747E-01            NaN
         13   -1    0    0    0    0  0.00000000000E+00  0.00000000000E+00  0.74505805969E-08  0.10566000000E+00  0.10566000000E+00 0. -1.
     999900   -1    0    0    0    0 -0.00000000000E+00 -0.00000000000E+00 -0.74505805969E-08  0.93827000000E+00  0.93827000000E+00 0. -1.
     999902    2    1    2    0    0 -0.51117582310E-02  0.19247054988E-01  0.14856941918E-01  0.10190843179E+01  0.10187813990E+01 0.  0.
     999903    2    3    3    0    0  0.20655716242E-01 -0.10857161252E+00  0.62084423891E-01  0.12822405409E+00  0.19299707200E-01 0.  0.
         14    1    1    2    0    0  0.51117582310E-02 -0.19247054988E-01 -0.14856941918E-01  0.24845682142E-01  0.00000000000E+00 0.  1.
     999901    1    3    3    0    0 -0.25767474473E-01  0.12781866751E+00 -0.47227481973E-01  0.89086026377E+00  0.88000000000E+00 0. -1.
        -11    1    4    4    0    0  0.82998168487E-02 -0.84241071292E-01  0.50539441094E-01  0.98589762548E-01  0.51100000000E-03 0.  1.
         11    1    4    4    0    0  0.12355899393E-01 -0.24330541232E-01  0.11544982798E-01  0.29634291543E-01  0.51100000000E-03 0. -1.
</event>
<event>
 7    1  0.1340695E+005  0.1043930E+01  0.7957747E-01            NaN
         13   -1    0    0    0    0  0.00000000000E+00  0.00000000000E+00  0.74505805969E-08  0.10566000000E+00  0.10566000000E+00 0. -1.
     999900   -1    0    0    0    0 -0.00000000000E+00 -0.00000000000E+00 -0.74505805969E-08  0.93827000000E+00  0.93827000000E+00 0.  1.
     999903    2    1    2    0    0 -0.86708507481E-01  0.28324158268E-01  0.68181684534E-01  0.11569366831E+00  0.20387730858E-01 0.  0.
         14    1    1    2    0    0  0.24916261864E-01 -0.10956845307E-01  0.29935523187E-01  0.40459956906E-01  0.00000000000E+00 0.  1.
     999901    1    1    2    0    0  0.61792245616E-01 -0.17367312961E-01 -0.98117207720E-01  0.88777637479E+00  0.88000000000E+00 0.  1.
        -11    1    3    3    0    0 -0.65215439334E-01  0.20618903942E-01  0.61280679649E-01  0.91835589760E-01  0.51100000000E-03 0. -1.
         11    1    3    3    0    0 -0.21493068147E-01  0.77052543260E-02  0.69010048852E-02  0.23858078548E-01  0.51100000000E-03 0.  1.
</event>
<event>
 8    1  0.1161271E+005  0.1043930E+01  0.7957747E-01            NaN
         13   -1    0    0    0    0  0.00000000000E+00  0.00000000000E+00  0.74505805969E-08  0.10566000000E+00  0.10566000000E+00 0. -1.
     999900   -1    0    0    0    0 -0.00000000000E+00 -0.00000000000E+00 -0.74505805969E-08  0.93827000000E+00  0.93827000000E+00 0. -1.
     999902    2    1    2    0    0  0.20004767861E-01  0.15312817428E-02 -0.12716115284E-01  0.10201763656E+01  0.10198997900E+01 0.  0.
     999903    2    3    3    0    0 -0.12219652529E+00  0.15543095273E-01  0.27330837600E-01  0.12775197262E+00  0.20000330497E-01 0.  0.
         14    1    1    2    0    0 -0.20004767861E-01 -0.15312817428E-02  0.12716115284E-01  0.23753634435E-01  0.00000000000E+00 0. -1.
     999901    1    3    3    0    0  0.14220129315E+00 -0.14011813530E-01 -0.40046952884E-01  0.89242439295E+00  0.88000000000E+00 0. -1.
        -11    1    4    4    0    0 -0.64244373748E-01 -0.10653081489E-02  0.10046109671E-01  0.65035835354E-01  0.51100000000E-03 0. -1.
         11    1    4    4    0    0 -0.57952151543E-01  0.16608403422E-01  0.17284727928E-01  0.62716137263E-01  0.51100000000E-03 0.  1.
</event>
<event>
 8    1  0.1161271E+005  0.1043930E+01  0.7957747E-01            NaN
         13   -1    0    0    0    0  0.00000000000E+00  0.00000000000E+00  0.74505805969E-08  0.10566000000E+00  0.10566000000E+00 0. -1.
     999900   -1    0    0    0    0 -0.00000000000E+00 -0.00000000000E+00 -0.74505805969E-08  0.93827000000E+00  0.93827000000E+00 0. -1.
     999902    2    1    2    0    0  0.14788996110E-01  0.14654438590E-01 -0.11321272539E-01  0.10202310931E+01  0.10199558055E+01 0.  0.
     999903    2    3    3    0    0 -0.22955171805E-01  0.82868234861E-01  0.96207323718E-01  0.13026472114E+00  0.17859568149E-01 0.  0.
         14    1    1    2    0    0 -0.14788996110E-01 -0.14654438590E-01  0.11321272539E-01  0.23698906899E-01  0.00000000000E+00 0. -1.
     999901    1    3    3    0    0  0.37744167914E-01 -0.68213796272E-01 -0.10752859626E+00  0.88996637196E+00  0.88000000000E+00 0. -1.
        -11    1    4    4    0    0 -0.16093563860E-01  0.50610522827E-01  0.46387185603E-01  0.70515671504E-01  0.51100000000E-03 0.  1.
         11    1    4    4    0    0 -0.68616079445E-02  0.32257712034E-01  0.49820138115E-01  0.59749049633E-01  0.51100000000E-03 0. -1.
</event>
<event>
 8    1  0.1161271E+005  0.1043930E+01  0.7957747E-01            NaN
         13   -1    0    0    0    0  0.00000000000E+00  0.00000000000E+00  0.74505805969E-08  0.10566000000E+00  0.10566000000E+00 0. -1.
     999900   -1    0    0    0    0 -0.00000000000E+00 -0.00000000000E+00 -0.74505805969E-08  0.93827000000E+00  0.93827000000E+00 0. -1.
     999902    2    1    2    0    0 -0.12835180843E-01  0.12217076949E-01  0.17288876022E-01  0.10191731005E+01  0.10188723692E+01 0.  0.
     999903    2    3    3    0    0 -0.51388393774E-01  0.11805028863E+00 -0.16242109990E-01  0.13136042552E+00  0.20374434806E-01 0.  0.
         14    1    1    2    0    0  0.12835180843E-01 -0.12217076949E-01 -0.17288876022E-01  0.24756899453E-01  0.00000000000E+00 0.  1.
     999901    1    3    3    0    0  0.38553212931E-01 -0.10583321168E+00  0.33530986012E-01  0.88781267503E+00  0.88000000000E+00 0.  1.
        -11    1    4    4    0    0 -0.13225519484E-01  0.43246078508E-01  0.25769475043E-02  0.45299442065E-01  0.51100000000E-03 0.  1.
         11    1    4    4    0    0 -0.38162874291E-01  0.74804210125E-01 -0.18819057494E-01  0.86060983451E-01  0.51100000000E-03 0. -1.
</event>
<event>
 8    1  0.1161271E+005  0.1043930E+01  0.7957747E-01            NaN
         13   -1    0    0    0    0  0.00000000000E+00  0.00000000000E+00  0.74505805969E-08  0.10566000000E+00  0.10566000000E+00 0.  1.
     999900   -1    0    0    0    0 -0.00000000000E+00 -0.00000000000E+00 -0.74505805969E-08  0.93827000000E+00  0.93827000000E+00 0. -1.
     999902    2    1    2    0    0  0.19372323560E-01  0.12252177298E-01  0.49115877935E-02  0.10204880192E+01  0.10202187368E+01 0.  0.
     999903    2    3    3    0    0  0.13008671134E+00  0.16334600733E-01  0.14413506772E-01  0.13349048353E+00  0.20556954222E-01 0.  0.
         14    1    1    2    0    0 -0.19372323560E-01 -0.12252177298E-01 -0.49115877935E-02  0.23441980789E-01  0.00000000000E+00 0. -1.
     999901    1    3    3    0    0 -0.11071438778E+00 -0.40824234349E-02 -0.95019189788E-02  0.88699753568E+00  0.88000000000E+00 0.  1.
        -11    1    4    4    0    0  0.24323558569E-01 -0.43706089733E-02  0.56978641176E-02  0.25366602073E-01  0.51100000000E-03 0. -1.
         11    1    4    4    0    0  0.10576315277E+00  0.20705209706E-01  0.87156426548E-02  0.10812388146E+00  0.51100000000E-03 0.  1.
</event>
<event>
 8    1  0.1161271E+005  0.1043930E+01  0.7957747E-01            NaN
         13   -1    0    0    0    0  0.00000000000E+00  0.00000000000E+00  0.74505805969E-08  0.10566000000E+00  0.10566000000E+00 0. -1.
     999900   -1    0    0    0    0 -0.00000000000E+00 -0.00000000000E+00 -0.74505805969E-08  0.93827000000E+00  0.93827000000E+00 0.  1.
     999902    2    1    2    0    0 -0.30144929903E-02  0.15238909665E-01 -0.76287950332E-02  0.10266236414E+01  0.10264777596E+01 0.  0.
     999903    2    3    3    0    0  0.90233625068E-01  0.48603764306E-01 -0.89205021105E-01  0.13731879728E+00  0.19861603606E-01 0.  0.
         14    1    1    2    0    0  0.30144929903E-02 -0.15238909665E-01  0.76287950332E-02  0.17306358641E-01  0.00000000000E+00 0. -1.
     999901    1    3    3    0    0 -0.93248118059E-01 -0.33364854641E-01  0.81576226072E-01  0.88930484408E+00  0.88000000000E+00 0. -1.
        -11    1    4    4    0    0  0.55287444169E-01  0.40061482878E-01 -0.61777540358E-01  0.92077953425E-01  0.51100000000E-03 0.  1.
         11    1    4    4    0    0  0.34946180899E-01  0.85422814276E-02 -0.27427480747E-01  0.45240843853E-01  0.51100000000E-03 0. -1.
</event>
<event>
 8    1  0.1161271E+005  0.1043930E+01  0.7957747E-01            NaN
         13   -1    0    0    0    0  0.00000000000E+00  0.00000000000E+00  0.74505805969E-08  0.10566000000E+00  0.10566000000E+00 0. -1.
     999900   -1    0    0    0    0 -0.00000000000E+00 -0.00000000000E+00 -0.74505805969E-08  0.93827000000E+00  0.93827000000E+00 0. -1.
     999902    2    1    2    0    0 -0.19972758838E-01  0.72387893840E-02 -0.84158707825E-02  0.10210796598E+01  0.10208239484E+01 0.  0.
     999903    2    3    3    0    0  0.51271674923E-01 -0.11141365013E+00  0.35315063518E-01  0.12919033628E+00  0.20030057262E-01 0.  0.
         14    1    1    2    0    0  0.19972758838E-01 -0.72387893840E-02  0.84158707825E-02  0.22850340224E-01  0.00000000000E+00 0.  1.
     999901    1    3    3    0    0 -0.71244433761E-01  0.11865243951E+00 -0.43730934301E-01  0.89188932349E+00  0.88000000000E+00 0.  1.
        -11    1    4    4    0    0  0.22889616456E-01 -0.30270190207E-01  0.63819314547E-02  0.38486479792E-01  0.51100000000E-03 0. -1.
         11    1    4    4    0    0  0.28382058467E-01 -0.81143459919E-01  0.28933132064E-01  0.90703856492E-01  0.51100000000E-03 0.  1.
</event>
<event>
 8    1  0.1161271E+005  0.1043930E+01  0.7957747E-01            NaN
         13   -1    0    0    0    0  0.00000000000E+00  0.00000000000E+00  0.74505805969E-08  0.10566000000E+00  0.10566000000E+00 0. -1.
     999900   -1    0    0    0    0 -0.00000000000E+00 -0.00000000000E+00 -0.74505805969E-08  0.93827000000E+00  0.93827000000E+00 0.  1.
     999902    2    1    2    0    0  0.11713390417E-01 -0.16826423302E-01 -0.14628253216E-01  0.10187443329E+01  0.10184329619E+01 0.  0.
     999903    2    3    3    0    0 -0.15322057971E-01 -0.10390926428E+00 -0.77341930164E-01  0.13181291392E+00  0.18999196050E-01 0.  0.
         14    1    1    2    0    0 -0.11713390417E-01  0.16826423302E-01  0.14628253216E-01  0.25185667122E-01  0.00000000000E+00 0.  1.
     999901    1    3    3    0    0  0.27035448388E-01  0.87082840977E-01  0.62713676948E-01  0.88693141896E+00  0.88000000000E+00 0. -1.
        -11    1    4    4    0    0 -0.17771034220E-01 -0.71538275971E-01 -0.59730964563E-01  0.94876676980E-01  0.51100000000E-03 0. -1.
         11    1    4    4    0    0  0.24489762492E-02 -0.32370988309E-01 -0.17610965601E-01  0.36936236938E-01  0.51100000000E-03 0.  1.
</event>
<event>
 8    1  0.1161271E+005  0.1043930E+01  0.7957747E-01            NaN
         13   -1    0    0    0    0  0.00000000000E+00  0.00000000000E+00  0.74505805969E-08  0.10566000000E+00  0.10566000000E+00 0.  1.
     999900   -1    0    0    0    0 -0.00000000000E+00 -0.00000000000E+00 -0.74505805969E-08  0.93827000000E+00  0.93827000000E+00 0.  1.
     999902    2    1    2    0    0  0.19700448305E-01  0.85239532929E-02 -0.10154030225E-01  0.10201840578E+01  0.10199076634E+01 0.  0.
     999903    2    3    3    0    0 -0.80311129454E-01 -0.87529825824E-01  0.42557287173E-01  0.12776760388E+00  0.20052181600E-01 0.  0.
         14    1    1    2    0    0 -0.19700448305E-01 -0.85239532929E-02  0.10154030225E-01  0.23745942242E-01  0.00000000000E+00 0.  1.
     999901    1    3    3    0    0  0.10001157776E+00  0.96053779117E-01 -0.52711317397E-01  0.89241645388E+00  0.88000000000E+00 0. -1.
        -11    1    4    4    0    0 -0.27585687927E-02 -0.74703113154E-02 -0.11075950969E-02  0.80562485582E-02  0.51100000000E-03 0.  1.
         11    1    4    4    0    0 -0.77552560662E-01 -0.80059514509E-01  0.43664882270E-01  0.11971135532E+00  0.51100000000E-03 0. -1.
</event>
<event>
 8    1  0.1161271E+005  0.1043930E+01  0.7957747E-01            NaN
         13   -1    0    0    0    0  0.00000000000E+00  0.00000000000E+00  0.74505805969E-08  0.10566000000E+00  0.10566000000E+00 0.  1.
     999900   -1    0    0    0    0 -0.00000000000E+00 -0.00000000000E+00 -0.74505805969E-08  0.93827000000E+00  0.93827000000E+00 0.  1.
     999902    2    1    2    0    0 -0.73524097303E-02  0.18718358112E-01  0.83327062342E-02  0.10221614711E+01  0.10219296473E+01 0.  0.
     999903    2    3    3    0    0 -0.37899927335E-02 -0.18819419048E-01  0.13010783661E+00  0.13297591230E+00  0.19647125143E-01 0.  0.
         14    1    1    2    0    0  0.73524097303E-02 -0.18718358112E-01 -0.83327062342E-02  0.21768528945E-01  0.00000000000E+00 0.  1.
     999901    1    3    3    0    0 -0.35624169969E-02  0.37537777160E-01 -0.12177513037E+00  0.88918555876E+00  0.88000000000E+00 0.  1.
        -11    1    4    4    0    0 -0.48630013012E-02 -0.22479951133E-01  0.99383123473E-01  0.10201109418E+00  0.51100000000E-03 0. -1.
         11    1    4    4    0    0  0.10730085677E-02  0.36605320845E-02  0.30724713133E-01  0.30964818111E-01  0.51100000000E-03 0.  1.
</event>
<event>
 8    1  0.1161271E+005  0.1043930E+01  0.7957747E-01            NaN
         13   -1    0    0    0    0  0.00000000000E+00  0.00000000000E+00  0.74505805969E-08  0.10566000000E+00  0.10566000000E+00 0.  1.
     999900   -1    0    0    0    0 -0.00000000000E+00 -0.00000000000E+00 -0.74505805969E-08  0.93827000000E+00  0.93827000000E+00 0.  1.
     999902    2    1    2    0    0  0.15251865644E-01  0.13056546153E-01 -0.12858616931E-01  0.10200880866E+01  0.10198094271E+01 0.  0.
     999903    2    3    3    0    0  0.31244715677E-02  0.12833802448E+00 -0.23277295163E-01  0.13242517665E+00  0.22675627637E-01 0.  0.
         14    1    1    2    0    0 -0.15251865644E-01 -0.13056546153E-01  0.12858616931E-01  0.23841913355E-01  0.00000000000E+00 0.  1.
     999901    1    3    3    0    0  0.12127394076E-01 -0.11528147833E+00  0.10418678232E-01  0.88766291000E+00  0.88000000000E+00 0.  1.
        -11    1    4    4    0    0  0.11695348558E-01  0.81278480194E-01 -0.96287709289E-02  0.82679785142E-01  0.51100000000E-03 0.  1.
         11    1    4    4    0    0 -0.85708769902E-02  0.47059544289E-01 -0.13648524235E-01  0.49745391503E-01  0.51100000000E-03 0. -1.
</event>
<event>
 8    1  0.1161271E+005  0.1043930E+01  0.7957747E-01            NaN
         13   -1    0    0    0    0  0.00000000000E+00  0.00000000000E+00  0.74505805969E-08  0.10566000000E+00  0.10566000000E+00 0.  1.
     999900   -1    0    0    0    0 -0.00000000000E+00 -0.00000000000E+00 -0.74505805969E-08  0.93827000000E+00  0.93827000000E+00 0.  1.
     999902    2    1    2    0    0 -0.21530503765E-01 -0.20322985959E-02  0.49536433489E-02  0.10217437112E+01  0.10215028046E+01 0.  0.
     999903    2    3    3    0    0  0.12501590891E+00  0.22391556736E-01 -0.12604575561E-01  0.12911799630E+00  0.19550507694E-01 0.  0.
         14    1    1    2    0    0  0.21530503765E-01  0.20322985959E-02 -0.49536433489E-02  0.22186288838E-01  0.00000000000E+00 0.  1.
     999901    1    3    3    0    0 -0.14654641267E+00 -0.24423855332E-01  0.17558218910E-01  0.89262571486E+00  0.88000000000E+00 0.  1.
        -11    1    4    4    0    0  0.35689968196E-01 -0.17933663955E-02 -0.14040822670E-03  0.35738925954E-01  0.51100000000E-03 0.  1.
         11    1    4    4    0    0  0.89325940712E-01  0.24184923132E-01 -0.12464167335E-01  0.93379070349E-01  0.51100000000E-03 0. -1.
</event>
<event>
 8    1  0.1161271E+005  0.1043930E+01  0.7957747E-01            NaN
         13   -1    0    0    0    0  0.00000000000E+00  0.00000000000E+00  0.74505805969E-08  0.10566000000E+00  0.10566000000E+00 0. -1.
     999900   -1    0    0    0    0 -0.00000000000E+00 -0.00000000000E+00 -0.74505805969E-08  0.93827000000E+00  0.93827000000E+00 0. -1.
     999902    2    1    2    0    0  0.82230062511E-02  0.18261345090E-01 -0.14881981217E-01  0.10189786890E+01  0.10186731570E+01 0.  0.
     999903    2    3    3    0    0 -0.11829565533E+00 -0.43742675028E-01 -0.29950342302E-02  0.12769154685E+00  0.19719969994E-01 0.  0.
         14    1    1    2    0    0 -0.82230062511E-02 -0.18261345090E-01  0.14881981217E-01  0.24951311012E-01  0.00000000000E+00 0. -1.
     999901    1    3    3    0    0  0.12651866158E+00  0.62004020117E-01 -0.11886946986E-01  0.89128714214E+00  0.88000000000E+00 0. -1.
        -11    1    4    4    0    0 -0.46466151245E-01 -0.27209789067E-01  0.12037402973E-02  0.53862658162E-01  0.51100000000E-03 0. -1.
         11    1    4    4    0    0 -0.71829504088E-01 -0.16532885961E-01 -0.41987745275E-02  0.73828888684E-01  0.51100000000E-03 0.  1.
</event>
<event>
 8    1  0.1161271E+005  0.1043930E+01  0.7957747E-01            NaN
         13   -1    0    0    0    0  0.00000000000E+00  0.00000000000E+00  0.74505805969E-08  0.10566000000E+00  0.10566000000E+00 0.  1.
     999900   -1    0    0    0    0 -0.00000000000E+00 -0.00000000000E+00 -0.74505805969E-08  0.93827000000E+00  0.93827000000E+00 0.  1.
     999902    2    1    2    0    0 -0.21336504517E-01 -0.94367099289E-02 -0.48374209323E-02  0.10201035743E+01  0.10198252810E+01 0.  0.
     999903    2    3    3    0    0 -0.35394796693E-01 -0.96625711575E-01  0.79648323327E-01  0.13165695321E+00  0.20009451488E-01 0.  0.
         14    1    1    2    0    0  0.21336504517E-01  0.94367099289E-02  0.48374209323E-02  0.23826425678E-01  0.00000000000E+00 0. -1.
     999901    1    3    3    0    0  0.14058292176E-01  0.87189001646E-01 -0.84485744259E-01  0.88844662111E+00  0.88000000000E+00 0.  1.
        -11    1    4    4    0    0 -0.35654163058E-01 -0.93870807838E-01  0.72149936729E-01  0.12364797774E+00  0.51100000000E-03 0.  1.
         11    1    4    4    0    0  0.25936636527E-03 -0.27549037366E-02  0.74983865980E-02  0.80089754702E-02  0.51100000000E-03 0. -1.
</event>
<event>
 8    1  0.1161271E+005  0.1043930E+01  0.7957747E-01            NaN
         13   -1    0    0    0    0  0.00000000000E+00  0.00000000000E+00  0.74505805969E-08  0.10566000000E+00  0.10566000000E+00 0. -1.
     999900   -1    0    0    0    0 -0.00000000000E+00 -0.00000000000E+00 -0.74505805969E-08  0.93827000000E+00  0.93827000000E+00 0. -1.
     999902    2    1    2    0    0 -0.13281297214E-01 -0.17840066846E-01  0.78512527742E-02  0.10203439234E+01  0.10200712813E+01 0.  0.
     999903    2    3    3    0    0 -0.11128951078E+00 -0.69357378409E-01  0.14431539750E-01  0.13338116006E+00  0.19658671629E-01 0.  0.
         14    1    1    2    0    0  0.13281297214E-01  0.17840066846E-01 -0.78512527742E-02  0.23586076632E-01  0.00000000000E+00 0.  1.
     999901    1    3    3    0    0  0.98008213566E-01  0.51517311563E-01 -0.65802869760E-02  0.88696276331E+00  0.88000000000E+00 0. -1.
        -11    1    4    4    0    0 -0.24308332277E-01 -0.62644932678E-02  0.15382773903E-02  0.25154846696E-01  0.51100000000E-03 0. -1.
         11    1    4    4    0    0 -0.86981178504E-01 -0.63092885141E-01  0.12893262360E-01  0.10822631337E+00  0.51100000000E-03 0.  1.
</event>
<event>
 8    1  0.1161271E+005  0.1043930E+01  0.7957747E-01            NaN
         13   -1    0    0    0    0  0.00000000000E+00  0.00000000000E+00  0.74505805969E-08  0.10566000000E+00  0.10566000000E+00 0. -1.
     999900   -1    0    0    0    0 -0.00000000000E+00 -0.00000000000E+00 -0.74505805969E-08  0.93827000000E+00  0.93827000000E+00 0. -1.
     999902    2    1    2    0    0  0.19594944363E-01  0.11711388386E-01  0.16331595714E-02  0.10210436357E+01  0.10207871082E+01 0.  0.
     999903    2    3    3    0    0  0.52715718196E-01 -0.67243132115E-01  0.98067864149E-01  0.13164470705E+00  0.20308548791E-01 0.  0.
         14    1    1    2    0    0 -0.19594944363E-01 -0.11711388386E-01 -0.16331595714E-02  0.22886364340E-01  0.00000000000E+00 0. -1.
     999901    1    3    3    0    0 -0.33120773833E-01  0.78954520501E-01 -0.96434704577E-01  0.88939892861E+00  0.88000000000E+00 0. -1.
        -11    1    4    4    0    0  0.30780319190E-01 -0.27759914767E-01  0.57826154095E-01  0.71148901156E-01  0.51100000000E-03 0. -1.
         11    1    4    4    0    0  0.21935399006E-01 -0.39483217348E-01  0.40241710054E-01  0.60495805894E-01  0.51100000000E-03 0.  1.
</event>
<event>
 8    1  0.1161271E+005  0.1043930E+01  0.7957747E-01            NaN
         13   -1    0    0    0    0  0.00000000000E+00  0.00000000000E+00  0.74505805969E-08  0.10566000000E+00  0.10566000000E+00 0.  1.
     999900   -1    0    0    0    0 -0.00000000000E+00 -0.00000000000E+00 -0.74505805969E-08  0.93827000000E+00  0.93827000000E+00 0. -1.
     999902    2    1    2    0    0  0.64244166282E-02  0.19454788496E-01  0.11304579239E-01  0.10205300975E+01  0.10202617921E+01 0.  0.
     999903    2    3    3    0    0  0.12004660319E+00 -0.33725533798E-01  0.35994799438E-01  0.13129011026E+00  0.19820920709E-01 0.  0.
         14    1    1    2    0    0 -0.64244166282E-02 -0.19454788496E-01 -0.11304579239E-01  0.23399902483E-01  0.00000000000E+00 0. -1.
     999901    1    3    3    0    0 -0.11362218657E+00  0.53180322294E-01 -0.24690220199E-01  0.88923998725E+00  0.88000000000E+00 0. -1.
        -11    1    4    4    0    0  0.74440658862E-01 -0.18342028505E-01  0.12329922066E-01  0.77653910402E-01  0.51100000000E-03 0.  1.
         11    1    4    4    0    0  0.45605944332E-01 -0.15383505293E-01  0.23664877371E-01  0.53636199861E-01  0.51100000000E-03 0. -1.
</event>
<event>
 8    1  0.1161271E+005  0.1043930E+01  0.7957747E-01            NaN
         13   -1    0    0    0    0  0.00000000000E+00  0.00000000000E+00  0.74505805969E-08  0.10566000000E+00  0.10566000000E+00 0.  1.
     999900   -1    0    0    0    0 -0.00000000000E+00 -0.00000000000E+00 -0.74505805969E-08  0.93827000000E+00  0.93827000000E+00 0.  1.
     999902    2    1    2    0    0  0.20929095293E-01 -0.11497480478E-01  0.21489527344E-02  0.10199542396E+01  0.10196724052E+01 0.  0.
     999903    2    3    3    0    0 -0.89259228651E-01 -0.39840399298E-01  0.80352406020E-01  0.12919020361E+00  0.26060165747E-01 0.  0.
         14    1    1    2    0    0 -0.20929095293E-01  0.11497480478E-01 -0.21489527344E-02  0.23975760363E-01  0.00000000000E+00 0. -1.
     999901    1    3    3    0    0  0.11018832394E+00  0.28342918820E-01 -0.78203453286E-01  0.89076403603E+00  0.88000000000E+00 0.  1.
        -11    1    4    4    0    0 -0.57841115865E-01 -0.30209826385E-01  0.37767201692E-01  0.75397950499E-01  0.51100000000E-03 0. -1.
         11    1    4    4    0    0 -0.31418112786E-01 -0.96305729136E-02  0.42585204328E-01  0.53792253107E-01  0.51100000000E-03 0.  1.
</event>
<event>
 8    1  0.1161271E+005  0.1043930E+01  0.7957747E-01            NaN
         13   -1    0    0    0    0  0.00000000000E+00  0.00000000000E+00  0.74505805969E-08  0.10566000000E+00  0.10566000000E+00 0.  1.
     999900   -1    0    0    0    0 -0.00000000000E+00 -0.00000000000E+00 -0.74505805969E-08  0.93827000000E+00  0.93827000000E+00 0.  1.
     999902    2    1    2    0    0 -0.34846402592E-02  0.23282803585E-01  0.21468798716E-02  0.10202901871E+01  0.10200162867E+01 0.  0.
     999903    2    3    3    0    0 -0.10128130407E+00 -0.33611625559E-01  0.72049504899E-01  0.13029718685E+00  0.19964513973E-01 0.  0.
         14    1    1    2    0    0  0.34846402592E-02 -0.23282803585E-01 -0.21468798716E-02  0.23639812895E-01  0.00000000000E+00 0.  1.
     999901    1    3    3    0    0  0.97796663808E-01  0.56894429144E-01 -0.69902625028E-01  0.88999300026E+00  0.88000000000E+00 0. -1.
        -11    1    4    4    0    0 -0.45103392166E-01 -0.14745256010E-01  0.20282117530E-01  0.51607789840E-01  0.51100000000E-03 0.  1.
         11    1    4    4    0    0 -0.56177911901E-01 -0.18866369549E-01  0.51767387369E-01  0.78689397009E-01  0.51100000000E-03 0. -1.
</event>
<event>
 8    1  0.1161271E+005  0.1043930E+01  0.7957747E-01            NaN
         13   -1    0    0    0    0  0.00000000000E+00  0.00000000000E+00  0.74505805969E-08  0.10566000000E+00  0.10566000000E+00 0. -1.
     999900   -1    0    0    0    0 -0.00000000000E+00 -0.00000000000E+00 -0.74505805969E-08  0.93827000000E+00  0.93827000000E+00 0.  1.
     999902    2    1    2    0    0  0.85028187520E-02 -0.56970667370E-02  0.21091841139E-01  0.10204860187E+01  0.10202166898E+01 0.  0.
     999903    2    3    3    0    0 -0.30325338574E-01  0.64968061814E-01  0.10961776389E+00  0.13237677701E+00  0.19159376670E-01 0.  0.
         14    1    1    2    0    0 -0.85028187520E-02  0.56970667370E-02 -0.21091841139E-01  0.23443981291E-01  0.00000000000E+00 0. -1.
     999901    1    3    3    0    0  0.38828157326E-01 -0.70665128551E-01 -0.88525922756E-01  0.88810924170E+00  0.88000000000E+00 0.  1.
        -11    1    4    4    0    0 -0.97419306411E-02  0.18880421703E-01  0.18339678263E-01  0.28070989581E-01  0.51100000000E-03 0. -1.
         11    1    4    4    0    0 -0.20583407933E-01  0.46087640111E-01  0.91278085632E-01  0.10430578743E+00  0.51100000000E-03 0.  1.
</event>
<event>
 8    1  0.1161271E+005  0.1043930E+01  0.7957747E-01            NaN
         13   -1    0    0    0    0  0.00000000000E+00  0.00000000000E+00  0.74505805969E-08  0.10566000000E+00  0.10566000000E+00 0. -1.
     999900   -1    0    0    0    0 -0.00000000000E+00 -0.00000000000E+00 -0.74505805969E-08  0.93827000000E+00  0.93827000000E+00 0.  1.
     999902    2    1    2    0    0  0.18879752931E-01 -0.35050630809E-02  0.11762969938E-01  0.10214111634E+01  0.10211628993E+01 0.  0.
     999903    2    3    3    0    0  0.38256911810E-01 -0.10752610028E+00 -0.63073592694E-01  0.13191897035E+00  0.19972058000E-01 0.  0.
         14    1    1    2    0    0 -0.18879752931E-01  0.35050630809E-02 -0.11762969938E-01  0.22518836553E-01  0.00000000000E+00 0.  1.
     999901    1    3    3    0    0 -0.19377158879E-01  0.10402103720E+00  0.74836562632E-01  0.88949219309E+00  0.88000000000E+00 0. -1.
        -11    1    4    4    0    0  0.15596509767E-01 -0.61536883910E-01 -0.43876043117E-01  0.77171286622E-01  0.51100000000E-03 0. -1.
         11    1    4    4    0    0  0.22660402042E-01 -0.45989216372E-01 -0.19197549577E-01  0.54747683732E-01  0.51100000000E-03 0.  1.
</event>
<event>
 8    1  0.1161271E+005  0.1043930E+01  0.7957747E-01            NaN
         13   -1    0    0    0    0  0.00000000000E+00  0.00000000000E+00  0.74505805969E-08  0.10566000000E+00  0.10566000000E+00 0. -1.
     999900   -1    0    0    0    0 -0.00000000000E+00 -0.00000000000E+00 -0.74505805969E-08  0.93827000000E+00  0.93827000000E+00 0.  1.
     999902    2    1    2    0    0 -0.66713193769E-02 -0.99579359916E-02 -0.19247350217E-01  0.10212556206E+01  0.10210038761E+01 0.  0.
     999903    2    3    3    0    0 -0.78265528070E-01 -0.94190093113E-01  0.45878796061E-01  0.13195128464E+00  0.17578710537E-01 0.  0.
         14    1    1    2    0    0  0.66713193769E-02  0.99579359916E-02  0.19247350217E-01  0.22674379414E-01  0.00000000000E+00 0. -1.
     999901    1    3    3    0    0  0.71594208693E-01  0.84232157121E-01 -0.65126146278E-01  0.88930433595E+00  0.88000000000E+00 0.  1.
        -11    1    4    4    0    0 -0.22257722553E-01 -0.15968479575E-01  0.12541302248E-01  0.30132108062E-01  0.51100000000E-03 0.  1.
         11    1    4    4    0    0 -0.56007805517E-01 -0.78221613538E-01  0.33337493813E-01  0.10181917657E+00  0.51100000000E-03 0. -1.
</event>
<event>
 8    1  0.1161271E+005  0.1043930E+01  0.7957747E-01            NaN
         13   -1    0    0    0    0  0.00000000000E+00  0.00000000000E+00  0.74505805969E-08  0.10566000000E+00  0.10566000000E+00 0.  1.
     999900   -1    0    0    0    0 -0.00000000000E+00 -0.00000000000E+00 -0.74505805969E-08  0.93827000000E+00  0.93827000000E+00 0. -1.
     999902    2    1    2    0    0  0.67781301676E-02 -0.52604017188E-02  0.20918863625E-01  0.10213199640E+01  0.10210696622E+01 0.  0.
     999903    2    3    3    0    0  0.18005467091E-01  0.43537337336E-01  0.12373678818E+00  0.13391994252E+00  0.20101285208E-01 0.  0.
         14    1    1    2    0    0 -0.67781301676E-02  0.52604017188E-02 -0.20918863625E-01  0.22610036049E-01  0.00000000000E+00 0. -1.
     999901    1    3    3    0    0 -0.11227336923E-01 -0.48797739055E-01 -0.10281792456E+00  0.88740002143E+00  0.88000000000E+00 0. -1.
        -11    1    4    4    0    0  0.14286106019E-01  0.18009174512E-01  0.38300273703E-01  0.44672086122E-01  0.51100000000E-03 0.  1.
         11    1    4    4    0    0  0.37193610715E-02  0.25528162824E-01  0.85436514477E-01  0.89247856394E-01  0.51100000000E-03 0. -1.
</event>
<event>
 8    1  0.1161271E+005  0.1043930E+01  0.7957747E-01            NaN
         13   -1    0    0    0    0  0.00000000000E+00  0.00000000000E+00  0.74505805969E-08  0.10566000000E+00  0.10566000000E+00 0.  1.
     999900   -1    0    0    0    0 -0.00000000000E+00 -0.00000000000E+00 -0.74505805969E-08  0.93827000000E+00  0.93827000000E+00 0.  1.
     999902    2    1    2    0    0  0.18216002665E-01  0.99440842899E-02  0.98714783116E-02  0.10209484063E+01  0.10206897152E+01 0.  0.
     999903    2    3    3    0    0 -0.11107224550E+00 -0.19522466016E-01 -0.58089535411E-01  0.12842253659E+00  0.19994583732E-01 0.  0.
         14    1    1    2    0    0 -0.18216002665E-01 -0.99440842899E-02 -0.98714783116E-02  0.22981593711E-01  0.00000000000E+00 0.  1.
     999901    1    3    3    0    0  0.12928824817E+00  0.29466550306E-01  0.67961013722E-01  0.89252586970E+00  0.88000000000E+00 0. -1.
        -11    1    4    4    0    0 -0.28565128020E-01 -0.47462962155E-02 -0.25163870060E-01  0.38366330864E-01  0.51100000000E-03 0. -1.
         11    1    4    4    0    0 -0.82507117483E-01 -0.14776169800E-01 -0.32925665350E-01  0.90056205722E-01  0.51100000000E-03 0.  1.
</event>
<event>
 8    1  0.1161271E+005  0.1043930E+01  0.7957747E-01            NaN
         13   -1    0    0    0    0  0.00000000000E+00  0.00000000000E+00  0.74505805969E-08  0.10566000000E+00  0.10566000000E+00 0. -1.
     999900   -1    0    0    0    0 -0.00000000000E+00 -0.00000000000E+00 -0.74505805969E-08  0.93827000000E+00  0.93827000000E+00 0. -1.
     999902    2    1    2    0    0  0.11964678873E-01 -0.56621279546E-02  0.19712215876E-01  0.10201858494E+01  0.10199094973E+01 0.  0.
     999903    2    3    3    0    0  0.12851690985E+00 -0.19388885453E-01  0.18730493099E-01  0.13239431406E+00  0.16878922559E-01 0.  0.
         14    1    1    2    0    0 -0.11964678873E-01  0.56621279546E-02 -0.19712215876E-01  0.23744150611E-01  0.00000000000E+00 0.  1.
     999901    1    3    3    0    0 -0.11655223098E+00  0.13726757499E-01  0.98172277771E-03  0.88779153533E+00  0.88000000000E+00 0.  1.
        -11    1    4    4    0    0  0.21576770216E-01 -0.22241921492E-02  0.95184042098E-02  0.23693146337E-01  0.51100000000E-03 0. -1.
         11    1    4    4    0    0  0.10694013964E+00 -0.17164693304E-01  0.92120888887E-02  0.10870116772E+00  0.51100000000E-03 0.  1.
</event>
<event>
 8    1  0.1161271E+005  0.1043930E+01  0.7957747E-01            NaN
         13   -1    0    0    0    0  0.00000000000E+00  0.00000000000E+00  0.74505805969E-08  0.10566000000E+00  0.10566000000E+00 0. -1.
     999900   -1    0    0    0    0 -0.00000000000E+00 -0.00000000000E+00 -0.74505805969E-08  0.93827000000E+00  0.93827000000E+00 0. -1.
     999902    2    1    2    0    0 -0.97296302581E-02  0.48102479897E-02  0.21100521916E-01  0.10202016158E+01  0.10199256349E+01 0.  0.
     999903    2    3    3    0    0 -0.15423258407E-01  0.24839055427E-01 -0.12293655483E+00  0.12824856212E+00  0.21896154842E-01 0.  0.
         14    1    1    2    0    0  0.97296302581E-02 -0.48102479897E-02 -0.21100521916E-01  0.23728384180E-01  0.00000000000E+00 0.  1.
     999901    1    3    3    0    0  0.56936281489E-02 -0.20028807437E-01  0.14403707675E+00  0.89195305370E+00  0.88000000000E+00 0.  1.
        -11    1    4    4    0    0 -0.20627150477E-02  0.19991222109E-01 -0.49127411711E-01  0.53081705485E-01  0.51100000000E-03 0.  1.
         11    1    4    4    0    0 -0.13360543359E-01  0.48478333178E-02 -0.73809143122E-01  0.75166856633E-01  0.51100000000E-03 0. -1.
</event>
<event>
 8    1  0.1161271E+005  0.1043930E+01  0.7957747E-01            NaN
         13   -1    0    0    0    0  0.00000000000E+00  0.00000000000E+00  0.74505805969E-08  0.10566000000E+00  0.10566000000E+00 0. -1.
     999900   -1    0    0    0    0 -0.00000000000E+00 -0.00000000000E+00 -0.74505805969E-08  0.93827000000E+00  0.93827000000E+00 0.  1.
     999902    2    1    2    0    0  0.21798141862E-01 -0.57927687226E-02  0.87837484752E-02  0.10197252609E+01  0.10194379522E+01 0.  0.
     999903    2    3    3    0    0  0.12424605900E+00  0.41537531042E-01 -0.25940181917E-03  0.13247247190E+00  0.19658048215E-01 0.  0.
         14    1    1    2    0    0 -0.21798141862E-01  0.57927687226E-02 -0.87837484752E-02  0.24204739110E-01  0.00000000000E+00 0.  1.
     999901    1    3    3    0    0 -0.10244791714E+00 -0.47330299764E-01  0.90431502943E-02  0.88725278899E+00  0.88000000000E+00 0. -1.
        -11    1    4    4    0    0  0.40862867652E-01  0.67791005161E-02  0.62758347739E-02  0.41897224009E-01  0.51100000000E-03 0. -1.
         11    1    4    4    0    0  0.83383191350E-01  0.34758430526E-01 -0.65352365931E-02  0.90575247892E-01  0.51100000000E-03 0.  1.
</event>
<event>
 8    1  0.1161271E+005  0.1043930E+01  0.7957747E-01            NaN
         13   -1    0    0    0    0  0.00000000000E+00  0.00000000000E+00  0.74505805969E-08  0.10566000000E+00  0.10566000000E+00 0. -1.
     999900   -1    0    0    0    0 -0.00000000000E+00 -0.00000000000E+00 -0.74505805969E-08  0.93827000000E+00  0.93827000000E+00 0. -1.
     999902    2    1    2    0    0 -0.15250358361E-01  0.18494734204E-01  0.28253926901E-03  0.10199569224E+01  0.10196751517E+01 0.  0.
     999903    2    3    3    0    0  0.49912133450E-01 -0.42682212675E-01  0.10751493569E+00  0.12895324334E+00  0.27504276521E-01 0.  0.
         14    1    1    2    0    0  0.15250358361E-01 -0.18494734204E-01 -0.28253926901E-03  0.23973077646E-01  0.00000000000E+00 0. -1.
     999901    1    3    3    0    0 -0.65162491810E-01  0.61176946878E-01 -0.10723239643E+00  0.89100367901E+00  0.88000000000E+00 0. -1.
        -11    1    4    4    0    0  0.22999435175E-01 -0.33615688015E-01  0.47622148573E-01  0.62666726856E-01  0.51100000000E-03 0. -1.
         11    1    4    4    0    0  0.26912698275E-01 -0.90665246598E-02  0.59892787121E-01  0.66286516487E-01  0.51100000000E-03 0.  1.
</event>
<event>
 8    1  0.1161271E+005  0.1043930E+01  0.7957747E-01            NaN
         13   -1    0    0    0    0  0.00000000000E+00  0.00000000000E+00  0.74505805969E-08  0.10566000000E+00  0.10566000000E+00 0.  1.
     999900   -1    0    0    0    0 -0.00000000000E+00 -0.00000000000E+00 -0.74505805969E-08  0.93827000000E+00  0.93827000000E+00 0. -1.
     999902    2    1    2    0    0 -0.13761743523E-01  0.55295813502E-02  0.17852515287E-01  0.10207206451E+01  0.10204567414E+01 0.  0.
     999903    2    3    3    0    0  0.59450410940E-02  0.12968543640E+00 -0.43085616630E-02  0.13151080085E+00  0.20563830135E-01 0.  0.
         14    1    1    2    0    0  0.13761743523E-01 -0.55295813502E-02 -0.17852515287E-01  0.23209354941E-01  0.00000000000E+00 0. -1.
     999901    1    3    3    0    0 -0.19706784617E-01 -0.12415585505E+00  0.22161076950E-01  0.88920984421E+00  0.88000000000E+00 0.  1.
        -11    1    4    4    0    0  0.10046313032E-01  0.77778536673E-01  0.51183592195E-02  0.78593179695E-01  0.51100000000E-03 0. -1.
         11    1    4    4    0    0 -0.41012719380E-02  0.51906899725E-01 -0.94269208825E-02  0.52917621157E-01  0.51100000000E-03 0.  1.
</event>
<event>
 8    1  0.1161271E+005  0.1043930E+01  0.7957747E-01            NaN
         13   -1    0    0    0    0  0.00000000000E+00  0.00000000000E+00  0.74505805969E-08  0.10566000000E+00  0.10566000000E+00 0.  1.
     999900   -1    0    0    0    0 -0.00000000000E+00 -0.00000000000E+00 -0.74505805969E-08  0.93827000000E+00  0.93827000000E+00 0. -1.
     999902    2    1    2    0    0  0.74837296069E-02  0.17446964748E-01  0.12929681732E-01  0.10209609021E+01  0.10207024954E+01 0.  0.
     999903    2    3    3    0    0  0.10519688555E+00 -0.69664126600E-01 -0.26139130197E-01  0.13042029376E+00  0.20167390319E-01 0.  0.
         14    1    1    2    0    0 -0.74837296069E-02 -0.17446964748E-01 -0.12929681732E-01  0.22969097880E-01  0.00000000000E+00 0. -1.
     999901    1    3    3    0    0 -0.97713155939E-01  0.87111091348E-01  0.39068811929E-01  0.89054060836E+00  0.88000000000E+00 0.  1.
        -11    1    4    4    0    0  0.53344920678E-01 -0.38608814712E-01 -0.37336812834E-02  0.65958491739E-01  0.51100000000E-03 0.  1.
         11    1    4    4    0    0  0.51851964868E-01 -0.31055311888E-01 -0.22405448914E-01  0.64461802017E-01  0.51100000000E-03 0. -1.
</event>
<event>
 8    1  0.1161271E+005  0.1043930E+01  0.7957747E-01            NaN
         13   -1    0    0    0    0  0.00000000000E+00  0.00000000000E+00  0.74505805969E-08  0.10566000000E+00  0.10566000000E+00 0. -1.
     999900   -1    0    0    0    0 -0.00000000000E+00 -0.00000000000E+00 -0.74505805969E-08  0.93827000000E+00  0.93827000000E+00 0. -1.
     999902    2    1    2    0    0 -0.19501555810E-01 -0.11988817203E-01 -0.73460378616E-02  0.10198882303E+01  0.10196048233E+01 0.  0.
     999903    2    3    3    0    0 -0.99051939347E-02  0.48997677237E-01 -0.11912175652E+00  0.13067214075E+00  0.19655285594E-01 0.  0.
         14    1    1    2    0    0  0.19501555810E-01  0.11988817203E-01  0.73460378616E-02  0.24041769677E-01  0.00000000000E+00 0. -1.
     999901    1    3    3    0    0 -0.95963618754E-02 -0.60986494440E-01  0.11177571866E+00  0.88921608957E+00  0.88000000000E+00 0.  1.
        -11    1    4    4    0    0 -0.98433877029E-02  0.83009818662E-02 -0.32647291978E-01  0.35098509596E-01  0.51100000000E-03 0.  1.
         11    1    4    4    0    0 -0.61806231773E-04  0.40696695371E-01 -0.86474464541E-01  0.95573631158E-01  0.51100000000E-03 0. -1.
</event>
<event>
 8    1  0.1161271E+005  0.1043930E+01  0.7957747E-01            NaN
         13   -1    0    0    0    0  0.00000000000E+00  0.00000000000E+00  0.74505805969E-08  0.10566000000E+00  0.10566000000E+00 0. -1.
     999900   -1    0    0    0    0 -0.00000000000E+00 -0.00000000000E+00 -0.74505805969E-08  0.93827000000E+00  0.93827000000E+00 0.  1.
     999902    2    1    2    0    0 -0.18573761546E-02  0.41164975871E-03 -0.23220870222E-01  0.10206313280E+01  0.10203653658E+01 0.  0.
     999903    2    3    3    0    0 -0.59188966959E-01 -0.58484663861E-01 -0.10263439453E+00  0.13324066158E+00  0.17189102363E-01 0.  0.
         14    1    1    2    0    0  0.18573761546E-02 -0.41164975871E-03  0.23220870222E-01  0.23298671970E-01  0.00000000000E+00 0. -1.
     999901    1    3    3    0    0  0.57331590804E-01  0.58896313619E-01  0.79413524311E-01  0.88739066645E+00  0.88000000000E+00 0. -1.
        -11    1    4    4    0    0 -0.11195678949E-01 -0.12130295431E-01 -0.10831964446E-01  0.19750439720E-01  0.51100000000E-03 0.  1.
         11    1    4    4    0    0 -0.47993288010E-01 -0.46354368430E-01 -0.91802430087E-01  0.11349022186E+00  0.51100000000E-03 0. -1.
</event>
<event>
 8    1  0.1161271E+005  0.1043930E+01  0.7957747E-01            NaN
         13   -1    0    0    0    0  0.00000000000E+00  0.00000000000E+00  0.74505805969E-08  0.10566000000E+00  0.10566000000E+00 0. -1.
     999900   -1    0    0    0    0 -0.00000000000E+00 -0.00000000000E+00 -0.74505805969E-08  0.93827000000E+00  0.93827000000E+00 0.  1.
     999902    2    1    2    0    0 -0.19504240491E-01 -0.10945457508E-01  0.18465923850E-01  0.10149264006E+01  0.10145118973E+01 0.  0.
     999903    2    3    3    0    0 -0.11094294993E-01  0.34592773875E-01 -0.11632052919E+00  0.12346027914E+00  0.19804838530E-01 0.  0.
         14    1    1    2    0    0  0.19504240491E-01  0.10945457508E-01 -0.18465923850E-01  0.29003599446E-01  0.00000000000E+00 0.  1.
     999901    1    3    3    0    0 -0.84099454981E-02 -0.45538231383E-01  0.13478645304E+00  0.89146612141E+00  0.88000000000E+00 0. -1.
        -11    1    4    4    0    0 -0.16382295051E-02  0.22229655999E-01 -0.42267844204E-01  0.47787793174E-01  0.51100000000E-03 0. -1.
         11    1    4    4    0    0 -0.94560654877E-02  0.12363117876E-01 -0.74052684986E-01  0.75672485969E-01  0.51100000000E-03 0.  1.
</event>
<event>
 8    1  0.1161271E+005  0.1043930E+01  0.7957747E-01            NaN
         13   -1    0    0    0    0  0.00000000000E+00  0.00000000000E+00  0.74505805969E-08  0.10566000000E+00  0.10566000000E+00 0.  1.
     999900   -1    0    0    0    0 -0.00000000000E+00 -0.00000000000E+00 -0.74505805969E-08  0.93827000000E+00  0.93827000000E+00 0. -1.
     999902    2    1    2    0    0  0.11859848194E-01 -0.11860700000E-01 -0.16553597859E-01  0.10203640541E+01  0.10200918827E+01 0.  0.
     999903    2    3    3    0    0  0.15573759939E-01  0.75842452678E-01  0.10035315046E+00  0.12830305623E+00  0.19907280200E-01 0.  0.
         14    1    1    2    0    0 -0.11859848194E-01  0.11860700000E-01  0.16553597859E-01  0.23565945891E-01  0.00000000000E+00 0.  1.
     999901    1    3    3    0    0 -0.37139117457E-02 -0.87703152678E-01 -0.11690674832E+00  0.89206099788E+00  0.88000000000E+00 0. -1.
        -11    1    4    4    0    0 -0.27768841704E-02  0.31035258444E-01  0.33473140386E-01  0.45734129495E-01  0.51100000000E-03 0. -1.
         11    1    4    4    0    0  0.18350644110E-01  0.44807194234E-01  0.66880010072E-01  0.82568926738E-01  0.51100000000E-03 0.  1.
</event>
<event>
 8    1  0.1161271E+005  0.1043930E+01  0.7957747E-01            NaN
         13   -1    0    0    0    0  0.00000000000E+00  0.00000000000E+00  0.74505805969E-08  0.10566000000E+00  0.10566000000E+00 0. -1.
     999900   -1    0    0    0    0 -0.00000000000E+00 -0.00000000000E+00 -0.74505805969E-08  0.93827000000E+00  0.93827000000E+00 0.  1.
     999902    2    1    2    0    0  0.23224212422E-01  0.17801841432E-02  0.55595336367E-02  0.10199833611E+01  0.10197022190E+01 0.  0.
     999903    2    3    3    0    0 -0.81122603974E-01  0.36881070643E-01  0.90872192946E-01  0.12902961366E+00  0.21208382830E-01 0.  0.
         14    1    1    2    0    0 -0.23224212422E-01 -0.17801841432E-02 -0.55595336367E-02  0.23946638855E-01  0.00000000000E+00 0. -1.
     999901    1    3    3    0    0  0.10434681640E+00 -0.35100886500E-01 -0.85312659309E-01  0.89095374749E+00  0.88000000000E+00 0.  1.
        -11    1    4    4    0    0 -0.34856978418E-01  0.10777938564E-01  0.50513217195E-01  0.62313875955E-01  0.51100000000E-03 0.  1.
         11    1    4    4    0    0 -0.46265625556E-01  0.26103132080E-01  0.40358975751E-01  0.66715737702E-01  0.51100000000E-03 0. -1.
</event>
<event>
 8    1  0.1161271E+005  0.1043930E+01  0.7957747E-01            NaN
         13   -1    0    0    0    0  0.00000000000E+00  0.00000000000E+00  0.74505805969E-08  0.10566000000E+00  0.10566000000E+00 0.  1.
     999900   -1    0    0    0    0 -0.00000000000E+00 -0.00000000000E+00 -0.74505805969E-08  0.93827000000E+00  0.93827000000E+00 0.  1.
     999902    2    1    2    0    0  0.11501932780E-01  0.14969741184E-01  0.13007492603E-01  0.10210044145E+01  0.10207469970E+01 0.  0.
     999903    2    3    3    0    0 -0.81453113151E-01  0.77097449225E-01 -0.63941217826E-01  0.13059911533E+00  0.19723672812E-01 0.  0.
         14    1    1    2    0    0 -0.11501932780E-01 -0.14969741184E-01 -0.13007492603E-01  0.22925585545E-01  0.00000000000E+00 0.  1.
     999901    1    3    3    0    0  0.92955045931E-01 -0.62127708042E-01  0.76948710429E-01  0.89040529912E+00  0.88000000000E+00 0. -1.
        -11    1    4    4    0    0 -0.50081288396E-01  0.35886461065E-01 -0.40596811435E-01  0.73785742219E-01  0.51100000000E-03 0. -1.
         11    1    4    4    0    0 -0.31371824755E-01  0.41210988160E-01 -0.23344406391E-01  0.56813373112E-01  0.51100000000E-03 0.  1.
</event>
<event>
 8    1  0.1161271E+005  0.1043930E+01  0.7957747E-01            NaN
         13   -1    0    0    0    0  0.00000000000E+00  0.00000000000E+00  0.74505805969E-08  0.10566000000E+00  0.10566000000E+00 0.  1.
     999900   -1    0    0    0    0 -0.00000000000E+00 -0.00000000000E+00 -0.74505805969E-08  0.93827000000E+00  0.93827000000E+00 0. -1.
     999902    2    1    2    0    0 -0.37169226025E-02 -0.16665660909E-01 -0.12143583079E-01  0.10229770437E+01  0.10227624385E+01 0.  0.
     999903    2    3    3    0    0 -0.94061848110E-01 -0.65972752320E-01 -0.69687973745E-01  0.13511176580E+00  0.14097526532E-01 0.  0.
         14    1    1    2    0    0  0.37169226025E-02  0.16665660909E-01  0.12143583079E-01  0.20952956286E-01  0.00000000000E+00 0.  1.
     999901    1    3    3    0    0  0.90344925507E-01  0.49307091411E-01  0.57544390666E-01  0.88786527791E+00  0.88000000000E+00 0.  1.
        -11    1    4    4    0    0 -0.89383850874E-01 -0.59874409801E-01 -0.61734478525E-01  0.12403960942E+00  0.51100000000E-03 0.  1.
         11    1    4    4    0    0 -0.46779972359E-02 -0.60983425194E-02 -0.79534952194E-02  0.11072156377E-01  0.51100000000E-03 0. -1.
</event>
<event>
 8    1  0.1161271E+005  0.1043930E+01  0.7957747E-01            NaN
         13   -1    0    0    0    0  0.00000000000E+00  0.00000000000E+00  0.74505805969E-08  0.10566000000E+00  0.10566000000E+00 0. -1.
     999900   -1    0    0    0    0 -0.00000000000E+00 -0.00000000000E+00 -0.74505805969E-08  0.93827000000E+00  0.93827000000E+00 0.  1.
     999902    2    1    2    0    0 -0.46028938752E-03 -0.76816047719E-03 -0.24579776622E-01  0.10193339158E+01  0.10190371262E+01 0.  0.
     999903    2    3    3    0    0  0.46853820948E-02  0.98599289809E-01  0.78609488561E-01  0.12773513133E+00  0.19825219464E-01 0.  0.
         14    1    1    2    0    0  0.46028938752E-03  0.76816047719E-03  0.24579776622E-01  0.24596084152E-01  0.00000000000E+00 0. -1.
     999901    1    3    3    0    0 -0.51456714824E-02 -0.99367450286E-01 -0.10318926518E+00  0.89159878452E+00  0.88000000000E+00 0.  1.
        -11    1    4    4    0    0 -0.44448332313E-02  0.29504744859E-01  0.15111353771E-01  0.33449972278E-01  0.51100000000E-03 0. -1.
         11    1    4    4    0    0  0.91302153261E-02  0.69094544950E-01  0.63498134791E-01  0.94285159048E-01  0.51100000000E-03 0.  1.
</event>
<event>
 8    1  0.1161271E+005  0.1043930E+01  0.7957747E-01            NaN
         13   -1    0    0    0    0  0.00000000000E+00  0.00000000000E+00  0.74505805969E-08  0.10566000000E+00  0.10566000000E+00 0.  1.
     999900   -1    0    0    0    0 -0.00000000000E+00 -0.00000000000E+00 -0.74505805969E-08  0.93827000000E+00  0.93827000000E+00 0. -1.
     999902    2    1    2    0    0  0.43194472071E-02 -0.23586612043E-01  0.27575780671E-02  0.10197930961E+01  0.10195074148E+01 0.  0.
     999903    2    3    3    0    0 -0.65685747669E-01 -0.20914966769E-01  0.10916373796E+00  0.13061924594E+00  0.19814450345E-01 0.  0.
         14    1    1    2    0    0 -0.43194472071E-02  0.23586612043E-01 -0.27575780671E-02  0.24136903874E-01  0.00000000000E+00 0.  1.
     999901    1    3    3    0    0  0.70005194877E-01 -0.26716452742E-02 -0.10640615989E+00  0.88917385019E+00  0.88000000000E+00 0. -1.
        -11    1    4    4    0    0 -0.54187020928E-01 -0.90539776248E-02  0.88382038731E-01  0.10406658272E+00  0.51100000000E-03 0. -1.
         11    1    4    4    0    0 -0.11498726742E-01 -0.11860989144E-01  0.20781699226E-01  0.26552663216E-01  0.51100000000E-03 0.  1.
</event>
<event>
 8    1  0.1161271E+005  0.1043930E+01  0.7957747E-01            NaN
         13   -1    0    0    0    0  0.00000000000E+00  0.00000000000E+00  0.74505805969E-08  0.10566000000E+00  0.10566000000E+00 0. -1.
     999900   -1    0    0    0    0 -0.00000000000E+00 -0.00000000000E+00 -0.74505805969E-08  0.93827000000E+00  0.93827000000E+00 0. -1.
     999902    2    1    2    0    0  0.19031210749E-01  0.12323039158E-01 -0.70021545539E-02  0.10202008103E+01  0.10199248104E+01 0.  0.
     999903    2    3    3    0    0  0.62995440318E-01 -0.73112156093E-01 -0.87183513169E-01  0.13134701108E+00  0.18364625837E-01 0.  0.
         14    1    1    2    0    0 -0.19031210749E-01 -0.12323039158E-01  0.70021545539E-02  0.23729189726E-01  0.00000000000E+00 0. -1.
     999901    1    3    3    0    0 -0.43964229569E-01  0.85435195250E-01  0.80181358615E-01  0.88885379919E+00  0.88000000000E+00 0. -1.
        -11    1    4    4    0    0  0.47915886140E-01 -0.58048948400E-01 -0.57120705402E-01  0.94491526930E-01  0.51100000000E-03 0.  1.
         11    1    4    4    0    0  0.15079554178E-01 -0.15063207693E-01 -0.30062807767E-01  0.36855484152E-01  0.51100000000E-03 0. -1.
</event>
<event>
 8    1  0.1161271E+005  0.1043930E+01  0.7957747E-01            NaN
         13   -1    0    0    0    0  0.00000000000E+00  0.00000000000E+00  0.74505805969E-08  0.10566000000E+00  0.10566000000E+00 0.  1.
     999900   -1    0    0    0    0 -0.00000000000E+00 -0.00000000000E+00 -0.74505805969E-08  0.93827000000E+00  0.93827000000E+00 0.  1.
     999902    2    1    2    0    0  0.44267846794E-02 -0.21289653587E-01  0.78735858787E-02  0.10208034108E+01  0.10205414075E+01 0.  0.
     999903    2    3    3    0    0 -0.84692584070E-01  0.94612385827E-01  0.36958600273E-02  0.12873110544E+00  0.20825483890E-01 0.  0.
         14    1    1    2    0    0 -0.44267846794E-02  0.21289653587E-01 -0.78735858787E-02  0.23126589179E-01  0.00000000000E+00 0. -1.
     999901    1    3    3    0    0  0.89119368750E-01 -0.11590203941E+00  0.41777258513E-02  0.89207230538E+00  0.88000000000E+00 0. -1.
        -11    1    4    4    0    0 -0.66625765165E-01  0.65985588885E-01 -0.45609705518E-02  0.93883726480E-01  0.51100000000E-03 0. -1.
         11    1    4    4    0    0 -0.18066818905E-01  0.28626796942E-01  0.82568305791E-02  0.34847378964E-01  0.51100000000E-03 0.  1.
</event>
<event>
 8    1  0.1161271E+005  0.1043930E+01  0.7957747E-01            NaN
         13   -1    0    0    0    0  0.00000000000E+00  0.00000000000E+00  0.74505805969E-08  0.10566000000E+00  0.10566000000E+00 0.  1.
     999900   -1    0    0    0    0 -0.00000000000E+00 -0.00000000000E+00 -0.74505805969E-08  0.93827000000E+00  0.93827000000E+00 0. -1.
     999902    2    1    2    0    0  0.45602390379E-02 -0.51394206773E-02 -0.23410782614E-01  0.10195317589E+01  0.10192397820E+01 0.  0.
     999903    2    3    3    0    0 -0.72380277454E-01 -0.74271286657E-01 -0.79116194428E-01  0.13172426240E+00  0.18351580291E-01 0.  0.
         14    1    1    2    0    0 -0.45602390379E-02  0.51394206773E-02  0.23410782614E-01  0.24398241076E-01  0.00000000000E+00 0.  1.
     999901    1    3    3    0    0  0.76940516492E-01  0.69131865979E-01  0.55705411813E-01  0.88780749652E+00  0.88000000000E+00 0.  1.
        -11    1    4    4    0    0 -0.29946622547E-01 -0.41347595639E-01 -0.31835820108E-01  0.60168134673E-01  0.51100000000E-03 0. -1.
         11    1    4    4    0    0 -0.42433654907E-01 -0.32923691017E-01 -0.47280374320E-01  0.71556127731E-01  0.51100000000E-03 0.  1.
</event>
<event>
 8    1  0.1161271E+005  0.1043930E+01  0.7957747E-01            NaN
         13   -1    0    0    0    0  0.00000000000E+00  0.00000000000E+00  0.74505805969E-08  0.10566000000E+00  0.10566000000E+00 0. -1.
     999900   -1    0    0    0    0 -0.00000000000E+00 -0.00000000000E+00 -0.74505805969E-08  0.93827000000E+00  0.93827000000E+00 0.  1.
     999902    2    1    2    0    0  0.12898765256E-01  0.19114376727E-01 -0.45451320629E-02  0.10204268988E+01  0.10201561939E+01 0.  0.
     999903    2    3    3    0    0  0.11992718235E+00  0.53541185365E-01 -0.19653830470E-01  0.13314534254E+00  0.96032074401E-02 0.  0.
         14    1    1    2    0    0 -0.12898765256E-01 -0.19114376727E-01  0.45451320629E-02  0.23503101248E-01  0.00000000000E+00 0.  1.
     999901    1    3    3    0    0 -0.10702841709E+00 -0.34426808638E-01  0.15108698407E-01  0.88728155621E+00  0.88000000000E+00 0.  1.
        -11    1    4    4    0    0  0.83335151919E-01  0.39365014696E-01 -0.98290775729E-02  0.92688854855E-01  0.51100000000E-03 0.  1.
         11    1    4    4    0    0  0.36592030429E-01  0.14176170669E-01 -0.98247528967E-02  0.40456487690E-01  0.51100000000E-03 0. -1.
</event>
<event>
 8    1  0.1161271E+005  0.1043930E+01  0.7957747E-01            NaN
         13   -1    0    0    0    0  0.00000000000E+00  0.00000000000E+00  0.74505805969E-08  0.10566000000E+00  0.10566000000E+00 0.  1.
     999900   -1    0    0    0    0 -0.00000000000E+00 -0.00000000000E+00 -0.74505805969E-08  0.93827000000E+00  0.93827000000E+00 0. -1.
     999902    2    1    2    0    0 -0.76932793737E-03  0.11860255515E-01  0.18115009556E-01  0.10222641029E+01  0.10220344833E+01 0.  0.
     999903    2    3    3    0    0  0.48831085862E-01  0.10387722319E+00 -0.62943529954E-01  0.13237769991E+00  0.19672697463E-01 0.  0.
         14    1    1    2    0    0  0.76932793737E-03 -0.11860255515E-01 -0.18115009556E-01  0.21665897109E-01  0.00000000000E+00 0. -1.
     999901    1    3    3    0    0 -0.49600413799E-01 -0.92016967674E-01  0.81058539509E-01  0.88988640298E+00  0.88000000000E+00 0.  1.
        -11    1    4    4    0    0  0.26843795121E-02  0.56651590196E-02  0.10833020340E-02  0.63823651085E-02  0.51100000000E-03 0. -1.
         11    1    4    4    0    0  0.46146706350E-01  0.98212064169E-01 -0.64026831988E-01  0.12599533480E+00  0.51100000000E-03 0.  1.
</event>
<event>
 8    1  0.1161271E+005  0.1043930E+01  0.7957747E-01            NaN
         13   -1    0    0    0    0  0.00000000000E+00  0.00000000000E+00  0.74505805969E-08  0.10566000000E+00  0.10566000000E+00 0.  1.
     999900   -1    0    0    0    0 -0.00000000000E+00 -0.00000000000E+00 -0.74505805969E-08  0.93827000000E+00  0.93827000000E+00 0.  1.
     999902    2    1    2    0    0  0.76393703595E-02 -0.22377443849E-01 -0.78794394194E-02  0.10190062054E+01  0.10187013552E+01 0.  0.
     999903    2    3    3    0    0  0.61942632975E-01  0.75289171245E-01 -0.81766481777E-01  0.12886750435E+00  0.20389385710E-01 0.  0.
         14    1    1    2    0    0 -0.76393703595E-02  0.22377443849E-01  0.78794394194E-02  0.24923794620E-01  0.00000000000E+00 0.  1.
     999901    1    3    3    0    0 -0.54303262616E-01 -0.97666615094E-01  0.73887042357E-01  0.89013870103E+00  0.88000000000E+00 0.  1.
        -11    1    4    4    0    0  0.21551235716E-01  0.22564476723E-01 -0.38667824791E-01  0.49689769226E-01  0.51100000000E-03 0. -1.
         11    1    4    4    0    0  0.40391397260E-01  0.52724694523E-01 -0.43098656985E-01  0.79177735128E-01  0.51100000000E-03 0.  1.
</event>
<event>
 8    1  0.1161271E+005  0.1043930E+01  0.7957747E-01            NaN
         13   -1    0    0    0    0  0.00000000000E+00  0.00000000000E+00  0.74505805969E-08  0.10566000000E+00  0.10566000000E+00 0.  1.
     999900   -1    0    0    0    0 -0.00000000000E+00 -0.00000000000E+00 -0.74505805969E-08  0.93827000000E+00  0.93827000000E+00 0. -1.
     999902    2    1    2    0    0  0.19684876688E-01 -0.88073556666E-02  0.16547680826E-01  0.10167474757E+01  0.10163840513E+01 0.  0.
     999903    2    3    3    0    0  0.11007086584E+00 -0.15268150226E-01 -0.61541673997E-01  0.12865439716E+00  0.20392752414E-01 0.  0.
         14    1    1    2    0    0 -0.19684876688E-01  0.88073556666E-02 -0.16547680826E-01  0.27182524253E-01  0.00000000000E+00 0. -1.
     999901    1    3    3    0    0 -0.90385989154E-01  0.64607945596E-02  0.78089354823E-01  0.88809307859E+00  0.88000000000E+00 0. -1.
        -11    1    4    4    0    0  0.68440798898E-01 -0.94472274433E-02 -0.49276280394E-01  0.84863454977E-01  0.51100000000E-03 0.  1.
         11    1    4    4    0    0  0.41630066944E-01 -0.58209227829E-02 -0.12265393603E-01  0.43790942181E-01  0.51100000000E-03 0. -1.
</event>
<event>
 8    1  0.1161271E+005  0.1043930E+01  0.7957747E-01            NaN
         13   -1    0    0    0    0  0.00000000000E+00  0.00000000000E+00  0.74505805969E-08  0.10566000000E+00  0.10566000000E+00 0.  1.
     999900   -1    0    0    0    0 -0.00000000000E+00 -0.00000000000E+00 -0.74505805969E-08  0.93827000000E+00  0.93827000000E+00 0. -1.
     999902    2    1    2    0    0 -0.17966415640E-01  0.79381354839E-02  0.13014242263E-01  0.10203678145E+01  0.10200957309E+01 0.  0.
     999903    2    3    3    0    0  0.74066728651E-01  0.59746913111E-01 -0.84282119676E-01  0.12872840801E+00  0.20296635478E-01 0.  0.
         14    1    1    2    0    0  0.17966415640E-01 -0.79381354839E-02 -0.13014242263E-01  0.23562185543E-01  0.00000000000E+00 0. -1.
     999901    1    3    3    0    0 -0.92033144291E-01 -0.51808777627E-01  0.97296361939E-01  0.89163940645E+00  0.88000000000E+00 0. -1.
        -11    1    4    4    0    0  0.22412690937E-01  0.24134311010E-01 -0.18320195247E-01  0.37691966755E-01  0.51100000000E-03 0. -1.
         11    1    4    4    0    0  0.51654037714E-01  0.35612602101E-01 -0.65961924429E-01  0.91036441252E-01  0.51100000000E-03 0.  1.
</event>
<event>
 8    1  0.1161271E+005  0.1043930E+01  0.7957747E-01            NaN
         13   -1    0    0    0    0  0.00000000000E+00  0.00000000000E+00  0.74505805969E-08  0.10566000000E+00  0.10566000000E+00 0.  1.
     999900   -1    0    0    0    0 -0.00000000000E+00 -0.00000000000E+00 -0.74505805969E-08  0.93827000000E+00  0.93827000000E+00 0. -1.
     999902    2    1    2    0    0  0.17186999074E-01 -0.14861068640E-01  0.55361631569E-02  0.10205442479E+01  0.10202762707E+01 0.  0.
     999903    2    3    3    0    0 -0.62299339123E-01 -0.33922774388E-01 -0.10662346432E+00  0.12966759617E+00  0.20326339462E-01 0.  0.
         14    1    1    2    0    0 -0.17186999074E-01  0.14861068640E-01 -0.55361631569E-02  0.23385752089E-01  0.00000000000E+00 0. -1.
     999901    1    3    3    0    0  0.79486338197E-01  0.19061705748E-01  0.11215962747E+00  0.89087665174E+00  0.88000000000E+00 0.  1.
        -11    1    4    4    0    0 -0.37056892194E-01 -0.26523007649E-01 -0.81009065963E-01  0.92948443145E-01  0.51100000000E-03 0. -1.
         11    1    4    4    0    0 -0.25242446929E-01 -0.73997667395E-02 -0.25614398352E-01  0.36719153023E-01  0.51100000000E-03 0.  1.
</event>
<event>
 8    1  0.1161271E+005  0.1043930E+01  0.7957747E-01            NaN
         13   -1    0    0    0    0  0.00000000000E+00  0.00000000000E+00  0.74505805969E-08  0.10566000000E+00  0.10566000000E+00 0.  1.
     999900   -1    0    0    0    0 -0.00000000000E+00 -0.00000000000E+00 -0.74505805969E-08  0.93827000000E+00  0.93827000000E+00 0.  1.
     999902    2    1    2    0    0  0.78910163343E-02 -0.73194357553E-02  0.21891135286E-01  0.10195360646E+01  0.10192441920E+01 0.  0.
     999903    2    3    3    0    0  0.10703022759E+00 -0.71252506212E-01  0.20367579901E-01  0.13166313345E+00  0.19696526076E-01 0.  0.
         14    1    1    2    0    0 -0.78910163343E-02  0.73194357553E-02 -0.21891135286E-01  0.24393935367E-01  0.00000000000E+00 0. -1.
     999901    1    3    3    0    0 -0.99139211256E-01  0.63933070456E-01  0.15235553845E-02  0.88787293118E+00  0.88000000000E+00 0.  1.
        -11    1    4    4    0    0  0.33896864349E-01 -0.30844182467E-01  0.13725842307E-01  0.47843712991E-01  0.51100000000E-03 0. -1.
         11    1    4    4    0    0  0.73133363241E-01 -0.40408323745E-01  0.66417375943E-02  0.83819420459E-01  0.51100000000E-03 0.  1.
</event>
<event>
 8    1  0.1161271E+005  0.1043930E+01  0.7957747E-01            NaN
         13   -1    0    0    0    0  0.00000000000E+00  0.00000000000E+00  0.74505805969E-08  0.10566000000E+00  0.10566000000E+00 0. -1.
     999900   -1    0    0    0    0 -0.00000000000E+00 -0.00000000000E+00 -0.74505805969E-08  0.93827000000E+00  0.93827000000E+00 0. -1.
     999902    2    1    2    0    0  0.10712066058E-01 -0.19825291256E-01 -0.76476885962E-02  0.10201334105E+01  0.10198558219E+01 0.  0.
     999903    2    3    3    0    0 -0.60853639332E-01  0.95582684504E-01  0.54888535051E-01  0.12752407244E+00  0.20258893733E-01 0.  0.
         14    1    1    2    0    0 -0.10712066058E-01  0.19825291256E-01  0.76476885962E-02  0.23796589535E-01  0.00000000000E+00 0.  1.
     999901    1    3    3    0    0  0.71565705391E-01 -0.11540797576E+00 -0.62536223647E-01  0.89260933802E+00  0.88000000000E+00 0. -1.
        -11    1    4    4    0    0 -0.10782982008E-01  0.57182908292E-02  0.65190733098E-02  0.13846695953E-01  0.51100000000E-03 0.  1.
         11    1    4    4    0    0 -0.50070657324E-01  0.89864393675E-01  0.48369461741E-01  0.11367737649E+00  0.51100000000E-03 0. -1.
</event>
<event>
 8    1  0.1161271E+005  0.1043930E+01  0.7957747E-01            NaN
         13   -1    0    0    0    0  0.00000000000E+00  0.00000000000E+00  0.74505805969E-08  0.10566000000E+00  0.10566000000E+00 0.  1.
     999900   -1    0    0    0    0 -0.00000000000E+00 -0.00000000000E+00 -0.74505805969E-08  0.93827000000E+00  0.93827000000E+00 0. -1.
     999902    2    1    2    0    0 -0.87976491362E-02  0.16878287883E-01  0.79051264654E-02  0.10233201418E+01  0.10231125775E+01 0.  0.
     999903    2    3    3    0    0 -0.31742768553E-01 -0.11894268705E+00  0.42966424699E-01  0.13191500919E+00  0.20012242280E-01 0.  0.
         14    1    1    2    0    0  0.87976491362E-02 -0.16878287883E-01 -0.79051264654E-02  0.20609858239E-01  0.00000000000E+00 0. -1.
     999901    1    3    3    0    0  0.22945119417E-01  0.13582097493E+00 -0.35061298233E-01  0.89140513257E+00  0.88000000000E+00 0.  1.
        -11    1    4    4    0    0 -0.59978397981E-02 -0.37731292849E-01  0.22330916878E-01  0.44255570406E-01  0.51100000000E-03 0.  1.
         11    1    4    4    0    0 -0.25744928755E-01 -0.81211394199E-01  0.20635507821E-01  0.87659438787E-01  0.51100000000E-03 0. -1.
</event>
<event>
 8    1  0.1161271E+005  0.1043930E+01  0.7957747E-01            NaN
         13   -1    0    0    0    0  0.00000000000E+00  0.00000000000E+00  0.74505805969E-08  0.10566000000E+00  0.10566000000E+00 0. -1.
     999900   -1    0    0    0    0 -0.00000000000E+00 -0.00000000000E+00 -0.74505805969E-08  0.93827000000E+00  0.93827000000E+00 0.  1.
     999902    2    1    2    0    0 -0.19665499524E-01 -0.11101539539E-01  0.63707851366E-02  0.10204659220E+01  0.10201961258E+01 0.  0.
     999903    2    3    3    0    0  0.54934672175E-01  0.12247776932E-01  0.11558580473E+00  0.13027588799E+00  0.21068993573E-01 0.  0.
         14    1    1    2    0    0  0.19665499524E-01  0.11101539539E-01 -0.63707851366E-02  0.23464077969E-01  0.00000000000E+00 0.  1.
     999901    1    3    3    0    0 -0.74600171699E-01 -0.23349316471E-01 -0.10921501959E+00  0.89019003404E+00  0.88000000000E+00 0.  1.
        -11    1    4    4    0    0  0.19923131328E-03  0.48224831928E-02  0.88888231600E-02  0.10127602650E-01  0.51100000000E-03 0. -1.
         11    1    4    4    0    0  0.54735440861E-01  0.74252937391E-02  0.10669698157E+00  0.12014828534E+00  0.51100000000E-03 0.  1.
</event>
<event>
 8    1  0.1161271E+005  0.1043930E+01  0.7957747E-01            NaN
         13   -1    0    0    0    0  0.00000000000E+00  0.00000000000E+00  0.74505805969E-08  0.10566000000E+00  0.10566000000E+00 0. -1.
     999900   -1    0    0    0    0 -0.00000000000E+00 -0.00000000000E+00 -0.74505805969E-08  0.93827000000E+00  0.93827000000E+00 0.  1.
     999902    2    1    2    0    0  0.69676817193E-02 -0.19036235685E-02  0.22906397132E-01  0.10199117694E+01  0.10196289237E+01 0.  0.
     999903    2    3    3    0    0  0.12032684544E+00  0.41134072420E-01  0.28373987029E-01  0.13158050360E+00  0.18378904716E-01 0.  0.
         14    1    1    2    0    0 -0.69676817193E-02  0.19036235685E-02 -0.22906397132E-01  0.24018230593E-01  0.00000000000E+00 0.  1.
     999901    1    3    3    0    0 -0.11335916372E+00 -0.43037695989E-01 -0.54675898972E-02  0.88833126581E+00  0.88000000000E+00 0. -1.
        -11    1    4    4    0    0  0.48048903435E-01  0.25943113741E-01  0.10965269154E-01  0.55697760462E-01  0.51100000000E-03 0.  1.
         11    1    4    4    0    0  0.72277942009E-01  0.15190958680E-01  0.17408717875E-01  0.75882743135E-01  0.51100000000E-03 0. -1.
</event>
<event>
 8    1  0.1161271E+005  0.1043930E+01  0.7957747E-01            NaN
         13   -1    0    0    0    0  0.00000000000E+00  0.00000000000E+00  0.74505805969E-08  0.10566000000E+00  0.10566000000E+00 0. -1.
     999900   -1    0    0    0    0 -0.00000000000E+00 -0.00000000000E+00 -0.74505805969E-08  0.93827000000E+00  0.93827000000E+00 0.  1.
     999902    2    1    2    0    0 -0.23583555238E-01 -0.14687756607E-02 -0.15403030998E-02  0.10202506015E+01  0.10199757722E+01 0.  0.
     999903    2    3    3    0    0  0.58159766168E-01  0.11324677909E+00 -0.10152683999E-02  0.12904809659E+00  0.21094764508E-01 0.  0.
         14    1    1    2    0    0  0.23583555238E-01  0.14687756607E-02  0.15403030998E-02  0.23679398498E-01  0.00000000000E+00 0. -1.
     999901    1    3    3    0    0 -0.81743321406E-01 -0.11471555475E+00 -0.52503469988E-03  0.89120250491E+00  0.88000000000E+00 0. -1.
        -11    1    4    4    0    0  0.34779939831E-01  0.73484240803E-01 -0.10431156951E-01  0.81967359463E-01  0.51100000000E-03 0.  1.
         11    1    4    4    0    0  0.23379826337E-01  0.39762538285E-01  0.94158885509E-02  0.47080737129E-01  0.51100000000E-03 0. -1.
</event>
<event>
 8    1  0.1161271E+005  0.1043930E+01  0.7957747E-01            NaN
         13   -1    0    0    0    0  0.00000000000E+00  0.00000000000E+00  0.74505805969E-08  0.10566000000E+00  0.10566000000E+00 0.  1.
     999900   -1    0    0    0    0 -0.00000000000E+00 -0.00000000000E+00 -0.74505805969E-08  0.93827000000E+00  0.93827000000E+00 0. -1.
     999902    2    1    2    0    0 -0.12197591225E-01  0.94337599496E-02  0.17984864333E-01  0.10202396559E+01  0.10199645695E+01 0.  0.
     999903    2    3    3    0    0 -0.92963045309E-01 -0.53647488956E-01 -0.68369318197E-01  0.13009396705E+00  0.27016582465E-01 0.  0.
         14    1    1    2    0    0  0.12197591225E-01 -0.94337599496E-02 -0.17984864333E-01  0.23690344099E-01  0.00000000000E+00 0. -1.
     999901    1    3    3    0    0  0.80765454084E-01  0.63081248905E-01  0.86354182530E-01  0.89014568885E+00  0.88000000000E+00 0.  1.
        -11    1    4    4    0    0 -0.21574787574E-02 -0.78332673896E-02 -0.97470877933E-02  0.12699670627E-01  0.51100000000E-03 0. -1.
         11    1    4    4    0    0 -0.90805566552E-01 -0.45814221566E-01 -0.58622230404E-01  0.11739429642E+00  0.51100000000E-03 0.  1.
</event>
<event>
 8    1  0.1161271E+005  0.1043930E+01  0.7957747E-01            NaN
         13   -1    0    0    0    0  0.00000000000E+00  0.00000000000E+00  0.74505805969E-08  0.10566000000E+00  0.10566000000E+00 0.  1.
     999900   -1    0    0    0    0 -0.00000000000E+00 -0.00000000000E+00 -0.74505805969E-08  0.93827000000E+00  0.93827000000E+00 0.  1.
     999902    2    1    2    0    0 -0.19174615844E-01 -0.14215225561E-01  0.17486916267E-02  0.10199968336E+01  0.10197160115E+01 0.  0.
     999903    2    3    3    0    0 -0.41010395013E-01  0.61559455233E-01  0.10535794476E+00  0.13041632527E+00  0.20897424375E-01 0.  0.
         14    1    1    2    0    0  0.19174615844E-01  0.14215225561E-01 -0.17486916267E-02  0.23933166379E-01  0.00000000000E+00 0.  1.
     999901    1    3    3    0    0  0.21835779169E-01 -0.75774680794E-01 -0.10360925313E+00  0.88958050835E+00  0.88000000000E+00 0.  1.
        -11    1    4    4    0    0 -0.23189375372E-02  0.55502878277E-02  0.21891070733E-01  0.22708220210E-01  0.51100000000E-03 0.  1.
         11    1    4    4    0    0 -0.38691457476E-01  0.56009167405E-01  0.83466874027E-01  0.10770810506E+00  0.51100000000E-03 0. -1.
</event>
<event>
 8    1  0.1161271E+005  0.1043930E+01  0.7957747E-01            NaN
         13   -1    0    0    0    0  0.00000000000E+00  0.00000000000E+00  0.74505805969E-08  0.10566000000E+00  0.10566000000E+00 0.  1.
     999900   -1    0    0    0    0 -0.00000000000E+00 -0.00000000000E+00 -0.74505805969E-08  0.93827000000E+00  0.93827000000E+00 0. -1.
     999902    2    1    2    0    0 -0.13248936070E-01 -0.11925727080E-01  0.15357631729E-01  0.10204009940E+01  0.10201296851E+01 0.  0.
     999903    2    3    3    0    0 -0.64704710313E-01  0.71113615799E-02 -0.11056618584E+00  0.12974566484E+00  0.19281729470E-01 0.  0.
         14    1    1    2    0    0  0.13248936070E-01  0.11925727080E-01 -0.15357631729E-01  0.23529006050E-01  0.00000000000E+00 0. -1.
     999901    1    3    3    0    0  0.51455774243E-01 -0.19037088660E-01  0.12592381757E+00  0.89065532911E+00  0.88000000000E+00 0.  1.
        -11    1    4    4    0    0 -0.42799050669E-01  0.12889826000E-01 -0.80731387003E-01  0.92280682274E-01  0.51100000000E-03 0. -1.
         11    1    4    4    0    0 -0.21905659644E-01 -0.57784644198E-02 -0.29834798842E-01  0.37464982562E-01  0.51100000000E-03 0.  1.
</event>
<event>
 8    1  0.1161271E+005  0.1043930E+01  0.7957747E-01            NaN
         13   -1    0    0    0    0  0.00000000000E+00  0.00000000000E+00  0.74505805969E-08  0.10566000000E+00  0.10566000000E+00 0. -1.
     999900   -1    0    0    0    0 -0.00000000000E+00 -0.00000000000E+00 -0.74505805969E-08  0.93827000000E+00  0.93827000000E+00 0.  1.
     999902    2    1    2    0    0 -0.84821195182E-02 -0.12311795490E-01 -0.17353568878E-01  0.10210242581E+01  0.10207672911E+01 0.  0.
     999903    2    3    3    0    0  0.31278011393E-01 -0.12041977772E+00 -0.42993786772E-01  0.13314722572E+00  0.20012025226E-01 0.  0.
         14    1    1    2    0    0  0.84821195182E-02  0.12311795490E-01  0.17353568878E-01  0.22905741912E-01  0.00000000000E+00 0. -1.
     999901    1    3    3    0    0 -0.39760130911E-01  0.10810798223E+00  0.25640217893E-01  0.88787703237E+00  0.88000000000E+00 0.  1.
        -11    1    4    4    0    0  0.18325549231E-01 -0.56376561072E-01 -0.10623543874E-01  0.60226764801E-01  0.51100000000E-03 0. -1.
         11    1    4    4    0    0  0.12952462162E-01 -0.64043216647E-01 -0.32370242898E-01  0.72920460920E-01  0.51100000000E-03 0.  1.
</event>
<event>
 8    1  0.1161271E+005  0.1043930E+01  0.7957747E-01            NaN
         13   -1    0    0    0    0  0.00000000000E+00  0.00000000000E+00  0.74505805969E-08  0.10566000000E+00  0.10566000000E+00 0.  1.
     999900   -1    0    0    0    0 -0.00000000000E+00 -0.00000000000E+00 -0.74505805969E-08  0.93827000000E+00  0.93827000000E+00 0.  1.
     999902    2    1    2    0    0 -0.18450566134E-01  0.60333472623E-02  0.12922924628E-01  0.10206099089E+01  0.10203434517E+01 0.  0.
     999903    2    3    3    0    0 -0.81014899866E-01 -0.60878737255E-01  0.83887619088E-01  0.13301342916E+00  0.19641920766E-01 0.  0.
         14    1    1    2    0    0  0.18450566134E-01 -0.60333472623E-02 -0.12922924628E-01  0.23320091141E-01  0.00000000000E+00 0. -1.
     999901    1    3    3    0    0  0.62564333731E-01  0.66912084517E-01 -0.70964694460E-01  0.88759647970E+00  0.88000000000E+00 0.  1.
        -11    1    4    4    0    0 -0.52551218987E-01 -0.42940814954E-01  0.44240945160E-01  0.81012755511E-01  0.51100000000E-03 0. -1.
         11    1    4    4    0    0 -0.28463680879E-01 -0.17937922301E-01  0.39646673928E-01  0.52000673652E-01  0.51100000000E-03 0.  1.
</event>
<event>
 8    1  0.1161271E+005  0.1043930E+01  0.7957747E-01            NaN
         13   -1    0    0    0    0  0.00000000000E+00  0.00000000000E+00  0.74505805969E-08  0.10566000000E+00  0.10566000000E+00 0. -1.
     999900   -1    0    0    0    0 -0.00000000000E+00 -0.00000000000E+00 -0.74505805969E-08  0.93827000000E+00  0.93827000000E+00 0.  1.
     999902    2    1    2    0    0  0.76645070353E-02 -0.35534158042E-02 -0.21877142793E-01  0.10204783304E+01  0.10202088227E+01 0.  0.
     999903    2    3    3    0    0  0.11256094045E+00 -0.38399732743E-01  0.49996872093E-01  0.13065621243E+00  0.20660441357E-01 0.  0.
         14    1    1    2    0    0 -0.76645070353E-02  0.35534158042E-02  0.21877142793E-01  0.23451669637E-01  0.00000000000E+00 0. -1.
     999901    1    3    3    0    0 -0.10489643342E+00  0.34846316939E-01 -0.71874014886E-01  0.88982211793E+00  0.88000000000E+00 0.  1.
        -11    1    4    4    0    0  0.24414301956E-01 -0.16226113963E-01  0.71975016641E-02  0.30189568820E-01  0.51100000000E-03 0. -1.
         11    1    4    4    0    0  0.88146638497E-01 -0.22173618780E-01  0.42799370429E-01  0.10046664361E+00  0.51100000000E-03 0.  1.
</event>
<event>
 8    1  0.1161271E+005  0.1043930E+01  0.7957747E-01            NaN
         13   -1    0    0    0    0  0.00000000000E+00  0.00000000000E+00  0.74505805969E-08  0.10566000000E+00  0.10566000000E+00 0. -1.
     999900   -1    0    0    0    0 -0.00000000000E+00 -0.00000000000E+00 -0.74505805969E-08  0.93827000000E+00  0.93827000000E+00 0.  1.
     999902    2    1    2    0    0  0.66901274297E-02  0.23577200312E-01  0.71844714536E-03  0.10194114693E+01  0.10191165711E+01 0.  0.
     999903    2    3    3    0    0 -0.60851615473E-01 -0.83504423104E-01  0.72301311803E-01  0.12747398968E+00  0.18607272034E-01 0.  0.
         14    1    1    2    0    0 -0.66901274297E-02 -0.23577200312E-01 -0.71844714536E-03  0.24518530663E-01  0.00000000000E+00 0. -1.
     999901    1    3    3    0    0  0.67541742903E-01  0.10708162342E+00 -0.71582864657E-01  0.89193747966E+00  0.88000000000E+00 0. -1.
        -11    1    4    4    0    0 -0.28156055062E-01 -0.24687834037E-01  0.21759691139E-01  0.43312791016E-01  0.51100000000E-03 0.  1.
         11    1    4    4    0    0 -0.32695560411E-01 -0.58816589066E-01  0.50541620663E-01  0.84161198662E-01  0.51100000000E-03 0. -1.
</event>
<event>
 8    1  0.1161271E+005  0.1043930E+01  0.7957747E-01            NaN
         13   -1    0    0    0    0  0.00000000000E+00  0.00000000000E+00  0.74505805969E-08  0.10566000000E+00  0.10566000000E+00 0.  1.
     999900   -1    0    0    0    0 -0.00000000000E+00 -0.00000000000E+00 -0.74505805969E-08  0.93827000000E+00  0.93827000000E+00 0.  1.
     999902    2    1    2    0    0  0.27605081225E-02  0.22568668170E-01  0.10504833945E-01  0.10188837084E+01  0.10185758167E+01 0.  0.
     999903    2    3    3    0    0 -0.74342248290E-01  0.42749488491E-01 -0.94797868814E-01  0.12902936087E+00  0.17539993974E-01 0.  0.
         14    1    1    2    0    0 -0.27605081225E-02 -0.22568668170E-01 -0.10504833945E-01  0.25046291627E-01  0.00000000000E+00 0.  1.
     999901    1    3    3    0    0  0.77102756413E-01 -0.20180820321E-01  0.10530270276E+00  0.88985434750E+00  0.88000000000E+00 0. -1.
        -11    1    4    4    0    0 -0.32525299228E-01  0.14295109166E-01 -0.27986225891E-01  0.45229804295E-01  0.51100000000E-03 0. -1.
         11    1    4    4    0    0 -0.41816949062E-01  0.28454379324E-01 -0.66811642924E-01  0.83799556579E-01  0.51100000000E-03 0.  1.
</event>
<event>
 8    1  0.1161271E+005  0.1043930E+01  0.7957747E-01            NaN
         13   -1    0    0    0    0  0.00000000000E+00  0.00000000000E+00  0.74505805969E-08  0.10566000000E+00  0.10566000000E+00 0.  1.
     999900   -1    0    0    0    0 -0.00000000000E+00 -0.00000000000E+00 -0.74505805969E-08  0.93827000000E+00  0.93827000000E+00 0. -1.
     999902    2    1    2    0    0 -0.13925465937E-01 -0.49945781313E-02 -0.17183288121E-01  0.10212555694E+01  0.10210038238E+01 0.  0.
     999903    2    3    3    0    0  0.17088343852E-01 -0.10132444638E+00  0.77975366987E-01  0.13035912786E+00  0.18833200214E-01 0.  0.
         14    1    1    2    0    0  0.13925465937E-01  0.49945781313E-02  0.17183288121E-01  0.22674430598E-01  0.00000000000E+00 0.  1.
     999901    1    3    3    0    0 -0.31013809790E-01  0.96329868244E-01 -0.95158655109E-01  0.89089644154E+00  0.88000000000E+00 0. -1.
        -11    1    4    4    0    0  0.60803572552E-02 -0.89101231581E-02  0.12754649799E-01  0.16712368220E-01  0.51100000000E-03 0. -1.
         11    1    4    4    0    0  0.11007986597E-01 -0.92414323217E-01  0.65220717189E-01  0.11364675964E+00  0.51100000000E-03 0.  1.
</event>
<event>
 8    1  0.1161271E+005  0.1043930E+01  0.7957747E-01            NaN
         13   -1    0    0    0    0  0.00000000000E+00  0.00000000000E+00  0.74505805969E-08  0.10566000000E+00  0.10566000000E+00 0.  1.
     999900   -1    0    0    0    0 -0.00000000000E+00 -0.00000000000E+00 -0.74505805969E-08  0.93827000000E+00  0.93827000000E+00 0.  1.
     999902    2    1    2    0    0  0.13269438484E-01 -0.19526267907E-01 -0.30934991418E-02  0.10201198578E+01  0.10198419492E+01 0.  0.
     999903    2    3    3    0    0  0.10839095148E+00 -0.40120059804E-01  0.61362008935E-01  0.13241116737E+00  0.20228780027E-01 0.  0.
         14    1    1    2    0    0 -0.13269438484E-01  0.19526267907E-01  0.30934991418E-02  0.23810142229E-01  0.00000000000E+00 0.  1.
     999901    1    3    3    0    0 -0.95121512995E-01  0.20593791897E-01 -0.64455508077E-01  0.88770869041E+00  0.88000000000E+00 0. -1.
        -11    1    4    4    0    0  0.63909630949E-01 -0.27196074588E-01  0.26122618057E-01  0.74207275224E-01  0.51100000000E-03 0. -1.
         11    1    4    4    0    0  0.44481320530E-01 -0.12923985215E-01  0.35239390878E-01  0.58203892141E-01  0.51100000000E-03 0.  1.
</event>
<event>
 8    1  0.1161271E+005  0.1043930E+01  0.7957747E-01            NaN
         13   -1    0    0    0    0  0.00000000000E+00  0.00000000000E+00  0.74505805969E-08  0.10566000000E+00  0.10566000000E+00 0.  1.
     999900   -1    0    0    0    0 -0.00000000000E+00 -0.00000000000E+00 -0.74505805969E-08  0.93827000000E+00  0.93827000000E+00 0.  1.
     999902    2    1    2    0    0 -0.10692155057E-01  0.15330832245E-01  0.13430691107E-01  0.10209139173E+01  0.10206544403E+01 0.  0.
     999903    2    3    3    0    0 -0.37753213512E-01  0.52175192542E-01 -0.11216820300E+00  0.13082128735E+00  0.19620081908E-01 0.  0.
         14    1    1    2    0    0  0.10692155057E-01 -0.15330832245E-01 -0.13430691107E-01  0.23016082654E-01  0.00000000000E+00 0.  1.
     999901    1    3    3    0    0  0.27061058455E-01 -0.36844360297E-01  0.12559889410E+00  0.89009262999E+00  0.88000000000E+00 0. -1.
        -11    1    4    4    0    0 -0.28470361935E-02  0.16208162472E-01 -0.19995030673E-01  0.25901206891E-01  0.51100000000E-03 0.  1.
         11    1    4    4    0    0 -0.34906177318E-01  0.35967030070E-01 -0.92173172323E-01  0.10492008046E+00  0.51100000000E-03 0. -1.
</event>
<event>
 8    1  0.1161271E+005  0.1043930E+01  0.7957747E-01            NaN
         13   -1    0    0    0    0  0.00000000000E+00  0.00000000000E+00  0.74505805969E-08  0.10566000000E+00  0.10566000000E+00 0. -1.
     999900   -1    0    0    0    0 -0.00000000000E+00 -0.00000000000E+00 -0.74505805969E-08  0.93827000000E+00  0.93827000000E+00 0.  1.
     999902    2    1    2    0    0 -0.51513808468E-02 -0.77798162681E-02 -0.23018587957E-01  0.10190921729E+01  0.10187894479E+01 0.  0.
     999903    2    3    3    0    0 -0.92247874158E-01 -0.66908572306E-01  0.57545483725E-01  0.12916376080E+00  0.19630768502E-01 0.  0.
         14    1    1    2    0    0  0.51513808468E-02  0.77798162681E-02  0.23018587957E-01  0.24837827146E-01  0.00000000000E+00 0. -1.
     999901    1    3    3    0    0  0.87096493311E-01  0.59128756038E-01 -0.80564071682E-01  0.88992841206E+00  0.88000000000E+00 0.  1.
        -11    1    4    4    0    0 -0.51490844342E-01 -0.48394218928E-01  0.38935271570E-01  0.80681621017E-01  0.51100000000E-03 0.  1.
         11    1    4    4    0    0 -0.40757029816E-01 -0.18514353378E-01  0.18610212155E-01  0.48482139782E-01  0.51100000000E-03 0. -1.
</event>
<event>
 8    1  0.1161271E+005  0.1043930E+01  0.7957747E-01            NaN
         13   -1    0    0    0    0  0.00000000000E+00  0.00000000000E+00  0.74505805969E-08  0.10566000000E+00  0.10566000000E+00 0. -1.
     999900   -1    0    0    0    0 -0.00000000000E+00 -0.00000000000E+00 -0.74505805969E-08  0.93827000000E+00  0.93827000000E+00 0. -1.
     999902    2    1    2    0    0  0.17272339177E-01 -0.13917454264E-01 -0.12425797715E-01  0.10185050185E+01  0.10181876267E+01 0.  0.
     999903    2    3    3    0    0 -0.60844082199E-01  0.31301481152E-01 -0.10720646096E+00  0.12882513142E+00  0.20515948752E-01 0.  0.
         14    1    1    2    0    0 -0.17272339177E-01  0.13917454264E-01  0.12425797715E-01  0.25424981469E-01  0.00000000000E+00 0. -1.
     999901    1    3    3    0    0  0.78116421376E-01 -0.45218935415E-01  0.94780663241E-01  0.88967988711E+00  0.88000000000E+00 0.  1.
        -11    1    4    4    0    0 -0.39332170115E-01  0.16713635452E-01 -0.48647236626E-01  0.64754767920E-01  0.51100000000E-03 0.  1.
         11    1    4    4    0    0 -0.21511912084E-01  0.14587845699E-01 -0.58559224330E-01  0.64070363498E-01  0.51100000000E-03 0. -1.
</event>
<event>
 7    1  0.1161271E+005  0.1043930E+01  0.7957747E-01            NaN
         13   -1    0    0    0    0  0.00000000000E+00  0.00000000000E+00  0.74505805969E-08  0.10566000000E+00  0.10566000000E+00 0. -1.
     999900   -1    0    0    0    0 -0.00000000000E+00 -0.00000000000E+00 -0.74505805969E-08  0.93827000000E+00  0.93827000000E+00 0. -1.
     999902    2    1    2    0    0  0.17142858393E-01 -0.19068475699E-01  0.28493502525E-02  0.10181307140E+01  0.10178037864E+01 0.  0.
         14    1    1    2    0    0 -0.17142858393E-01  0.19068475699E-01 -0.28493502525E-02  0.25799285963E-01  0.00000000000E+00 0. -1.
     999901    1    3    3    0    0 -0.37569666802E-01 -0.12105303891E+00 -0.30657068544E-01  0.88960956264E+00  0.88000000000E+00 0.  1.
        -11    1    3    3    0    0  0.49571450237E-01  0.46724484897E-01  0.12997358848E-01  0.69351990782E-01  0.51100000000E-03 0. -1.
         11    1    3    3    0    0  0.51410749581E-02  0.55260078311E-01  0.20509059949E-01  0.59169160613E-01  0.51100000000E-03 0.  1.
</event>
<event>
 8    1  0.1161271E+005  0.1043930E+01  0.7957747E-01            NaN
         13   -1    0    0    0    0  0.00000000000E+00  0.00000000000E+00  0.74505805969E-08  0.10566000000E+00  0.10566000000E+00 0.  1.
     999900   -1    0    0    0    0 -0.00000000000E+00 -0.00000000000E+00 -0.74505805969E-08  0.93827000000E+00  0.93827000000E+00 0.  1.
     999902    2    1    2    0    0  0.46941372788E-02 -0.54453929659E-02  0.23799529373E-01  0.10190682859E+01  0.10187649712E+01 0.  0.
     999903    2    3    3    0    0  0.17750941056E-01 -0.10536246169E-01  0.12920244766E+00  0.13266760219E+00  0.21938819419E-01 0.  0.
         14    1    1    2    0    0 -0.46941372788E-02  0.54453929659E-02 -0.23799529373E-01  0.24861714095E-01  0.00000000000E+00 0. -1.
     999901    1    3    3    0    0 -0.13056803777E-01  0.50908532034E-02 -0.10540291829E+00  0.88640068372E+00  0.88000000000E+00 0.  1.
        -11    1    4    4    0    0  0.57177161445E-02  0.65326752353E-02  0.27519536692E-01  0.28860944966E-01  0.51100000000E-03 0. -1.
         11    1    4    4    0    0  0.12033224912E-01 -0.17068921405E-01  0.10168291097E+00  0.10380665722E+00  0.51100000000E-03 0.  1.
</event>
<event>
 8    1  0.1161271E+005  0.1043930E+01  0.7957747E-01            NaN
         13   -1    0    0    0    0  0.00000000000E+00  0.00000000000E+00  0.74505805969E-08  0.10566000000E+00  0.10566000000E+00 0. -1.
     999900   -1    0    0    0    0 -0.00000000000E+00 -0.00000000000E+00 -0.74505805969E-08  0.93827000000E+00  0.93827000000E+00 0.  1.
     999902    2    1    2    0    0  0.13705453629E-01 -0.15863303294E-01 -0.90394003149E-02  0.10211003130E+01  0.10208450688E+01 0.  0.
     999903    2    3    3    0    0  0.37710320965E-01  0.11625854233E+00  0.38644092258E-01  0.12963739666E+00  0.19348689221E-01 0.  0.
         14    1    1    2    0    0 -0.13705453629E-01  0.15863303294E-01  0.90394003149E-02  0.22829687002E-01  0.00000000000E+00 0.  1.
     999901    1    3    3    0    0 -0.24004867336E-01 -0.13212184562E+00 -0.47683492572E-01  0.89146291634E+00  0.88000000000E+00 0.  1.
        -11    1    4    4    0    0  0.29441541781E-01  0.59608439035E-01  0.21408029016E-01  0.69846511824E-01  0.51100000000E-03 0.  1.
         11    1    4    4    0    0  0.82687791846E-02  0.56650103291E-01  0.17236063242E-01  0.59790884834E-01  0.51100000000E-03 0. -1.
</event>
<event>
 8    1  0.1161271E+005  0.1043930E+01  0.7957747E-01            NaN
         13   -1    0    0    0    0  0.00000000000E+00  0.00000000000E+00  0.74505805969E-08  0.10566000000E+00  0.10566000000E+00 0.  1.
     999900   -1    0    0    0    0 -0.00000000000E+00 -0.00000000000E+00 -0.74505805969E-08  0.93827000000E+00  0.93827000000E+00 0.  1.
     999902    2    1    2    0    0 -0.14508438449E-01 -0.17707213169E-01  0.48103091925E-02  0.10205381369E+01  0.10202700180E+01 0.  0.
     999903    2    3    3    0    0  0.12566973372E+00 -0.21202403529E-01  0.91581404509E-02  0.12942588812E+00  0.20609829895E-01 0.  0.
         14    1    1    2    0    0  0.14508438449E-01  0.17707213169E-01 -0.48103091925E-02  0.23391863093E-01  0.00000000000E+00 0. -1.
     999901    1    3    3    0    0 -0.14017817217E+00  0.34951903598E-02 -0.43478312585E-02  0.89111224879E+00  0.88000000000E+00 0. -1.
        -11    1    4    4    0    0  0.73526416622E-01 -0.50711062562E-02 -0.19255677650E-02  0.73728006837E-01  0.51100000000E-03 0. -1.
         11    1    4    4    0    0  0.52143317103E-01 -0.16131297273E-01  0.11083708216E-01  0.55697881279E-01  0.51100000000E-03 0.  1.
</event>
<event>
 8    1  0.1161271E+005  0.1043930E+01  0.7957747E-01            NaN
         13   -1    0    0    0    0  0.00000000000E+00  0.00000000000E+00  0.74505805969E-08  0.10566000000E+00  0.10566000000E+00 0.  1.
     999900   -1    0    0    0    0 -0.00000000000E+00 -0.00000000000E+00 -0.74505805969E-08  0.93827000000E+00  0.93827000000E+00 0. -1.
     999902    2    1    2    0    0  0.88377896273E-02  0.21933975742E-01 -0.29809887862E-02  0.10200953170E+01  0.10198168285E+01 0.  0.
     999903    2    3    3    0    0 -0.58861678306E-01 -0.94407735244E-01  0.59455564989E-01  0.12767336812E+00  0.19697895140E-01 0.  0.
         14    1    1    2    0    0 -0.88377896273E-02 -0.21933975742E-01  0.29809887862E-02  0.23834682953E-01  0.00000000000E+00 0.  1.
     999901    1    3    3    0    0  0.67699467933E-01  0.11634171099E+00 -0.62436553775E-01  0.89242194892E+00  0.88000000000E+00 0.  1.
        -11    1    4    4    0    0 -0.34953640349E-01 -0.40578286009E-01  0.22200288182E-01  0.57978169904E-01  0.51100000000E-03 0.  1.
         11    1    4    4    0    0 -0.23908037957E-01 -0.53829449234E-01  0.37255276807E-01  0.69695198219E-01  0.51100000000E-03 0. -1.
</event>
<event>
 8    1  0.1161271E+005  0.1043930E+01  0.7957747E-01            NaN
         13   -1    0    0    0    0  0.00000000000E+00  0.00000000000E+00  0.74505805969E-08  0.10566000000E+00  0.10566000000E+00 0.  1.
     999900   -1    0    0    0    0 -0.00000000000E+00 -0.00000000000E+00 -0.74505805969E-08  0.93827000000E+00  0.93827000000E+00 0. -1.
     999902    2    1    2    0    0 -0.21482477793E-01 -0.30122711206E-02 -0.92435846436E-02  0.10203500406E+01  0.10200775416E+01 0.  0.
     999903    2    3    3    0    0 -0.66032560826E-01 -0.10674810109E+00 -0.37417856646E-01  0.13269040878E+00  0.21241290199E-01 0.  0.
         14    1    1    2    0    0  0.21482477793E-01  0.30122711206E-02  0.92435846436E-02  0.23579959425E-01  0.00000000000E+00 0. -1.
     999901    1    3    3    0    0  0.44550083033E-01  0.10373582997E+00  0.28174272002E-01  0.88765963180E+00  0.88000000000E+00 0. -1.
        -11    1    4    4    0    0 -0.39193593614E-02 -0.19675586112E-01 -0.27588524496E-02  0.20257404930E-01  0.51100000000E-03 0.  1.
         11    1    4    4    0    0 -0.62113201465E-01 -0.87072514982E-01 -0.34659004196E-01  0.11243300385E+00  0.51100000000E-03 0. -1.
</event>
<event>
 8    1  0.1161271E+005  0.1043930E+01  0.7957747E-01            NaN
         13   -1    0    0    0    0  0.00000000000E+00  0.00000000000E+00  0.74505805969E-08  0.10566000000E+00  0.10566000000E+00 0.  1.
     999900   -1    0    0    0    0 -0.00000000000E+00 -0.00000000000E+00 -0.74505805969E-08  0.93827000000E+00  0.93827000000E+00 0.  1.
     999902    2    1    2    0    0 -0.37961173943E-03 -0.23423497670E-01  0.27301597486E-03  0.10205018356E+01  0.10202328742E+01 0.  0.
     999903    2    3    3    0    0  0.64638130447E-01  0.82291890816E-01  0.72621042903E-01  0.12885320126E+00  0.19475328029E-01 0.  0.
         14    1    1    2    0    0  0.37961173943E-03  0.23423497670E-01 -0.27301597486E-03  0.23428164373E-01  0.00000000000E+00 0.  1.
     999901    1    3    3    0    0 -0.65017742186E-01 -0.10571538849E+00 -0.72348026928E-01  0.89164863436E+00  0.88000000000E+00 0.  1.
        -11    1    4    4    0    0  0.34140094868E-01  0.55080335384E-01  0.36934274946E-01  0.74590825243E-01  0.51100000000E-03 0.  1.
         11    1    4    4    0    0  0.30498035579E-01  0.27211555432E-01  0.35686767957E-01  0.54262376021E-01  0.51100000000E-03 0. -1.
</event>
<event>
 8    1  0.1161271E+005  0.1043930E+01  0.7957747E-01            NaN
         13   -1    0    0    0    0  0.00000000000E+00  0.00000000000E+00  0.74505805969E-08  0.10566000000E+00  0.10566000000E+00 0. -1.
     999900   -1    0    0    0    0 -0.00000000000E+00 -0.00000000000E+00 -0.74505805969E-08  0.93827000000E+00  0.93827000000E+00 0. -1.
     999902    2    1    2    0    0 -0.20702099988E-01  0.78013872831E-02  0.11083161636E-01  0.10191858076E+01  0.10188853887E+01 0.  0.
     999903    2    3    3    0    0 -0.12884521348E+00  0.22517861131E-01 -0.77268234099E-03  0.13236447909E+00  0.20288301577E-01 0.  0.
         14    1    1    2    0    0  0.20702099988E-01 -0.78013872831E-02 -0.11083161636E-01  0.24744192436E-01  0.00000000000E+00 0.  1.
     999901    1    3    3    0    0  0.10814311349E+00 -0.14716473848E-01  0.11855843977E-01  0.88682132847E+00  0.88000000000E+00 0.  1.
        -11    1    4    4    0    0 -0.83016591831E-01  0.14748508206E-01 -0.10200228081E-01  0.84932789825E-01  0.51100000000E-03 0.  1.
         11    1    4    4    0    0 -0.45828621647E-01  0.77693529251E-02  0.94275457401E-02  0.47431689266E-01  0.51100000000E-03 0. -1.
</event>
<event>
 8    1  0.1161271E+005  0.1043930E+01  0.7957747E-01            NaN
         13   -1    0    0    0    0  0.00000000000E+00  0.00000000000E+00  0.74505805969E-08  0.10566000000E+00  0.10566000000E+00 0.  1.
     999900   -1    0    0    0    0 -0.00000000000E+00 -0.00000000000E+00 -0.74505805969E-08  0.93827000000E+00  0.93827000000E+00 0. -1.
     999902    2    1    2    0    0 -0.20251360146E-01  0.10699153651E-01  0.58255509554E-02  0.10202968343E+01  0.10200230897E+01 0.  0.
     999903    2    3    3    0    0  0.30437220013E-01 -0.11407553217E+00 -0.46447064810E-01  0.12851744414E+00  0.20487855298E-01 0.  0.
         14    1    1    2    0    0  0.20251360146E-01 -0.10699153651E-01 -0.58255509554E-02  0.23633165690E-01  0.00000000000E+00 0. -1.
     999901    1    3    3    0    0 -0.50688580159E-01  0.12477468582E+00  0.52272615765E-01  0.89177939017E+00  0.88000000000E+00 0.  1.
        -11    1    4    4    0    0  0.46507489447E-02 -0.56975783856E-01 -0.21387674319E-01  0.61037391372E-01  0.51100000000E-03 0. -1.
         11    1    4    4    0    0  0.25786471068E-01 -0.57099748319E-01 -0.25059390491E-01  0.67480052764E-01  0.51100000000E-03 0.  1.
</event>
<event>
 8    1  0.1161271E+005  0.1043930E+01  0.7957747E-01            NaN
         13   -1    0    0    0    0  0.00000000000E+00  0.00000000000E+00  0.74505805969E-08  0.10566000000E+00  0.10566000000E+00 0. -1.
     999900   -1    0    0    0    0 -0.00000000000E+00 -0.00000000000E+00 -0.74505805969E-08  0.93827000000E+00  0.93827000000E+00 0. -1.
     999902    2    1    2    0    0 -0.47674744143E-02  0.17020319600E-01 -0.15165494139E-01  0.10206402532E+01  0.10203744971E+01 0.  0.
     999903    2    3    3    0    0  0.58334342207E-01  0.11697381527E+00  0.40001573155E-02  0.13252997701E+00  0.21504060271E-01 0.  0.
         14    1    1    2    0    0  0.47674744143E-02 -0.17020319600E-01  0.15165494139E-01  0.23289746758E-01  0.00000000000E+00 0. -1.
     999901    1    3    3    0    0 -0.63101816621E-01 -0.99953495667E-01 -0.19165651455E-01  0.88811027623E+00  0.88000000000E+00 0.  1.
        -11    1    4    4    0    0  0.16781662337E-01  0.56752281268E-01 -0.99363147068E-03  0.59192009971E-01  0.51100000000E-03 0. -1.
         11    1    4    4    0    0  0.41552679869E-01  0.60221533999E-01  0.49937887862E-02  0.73337967036E-01  0.51100000000E-03 0.  1.
</event>
<event>
 8    1  0.1161271E+005  0.1043930E+01  0.7957747E-01            NaN
         13   -1    0    0    0    0  0.00000000000E+00  0.00000000000E+00  0.74505805969E-08  0.10566000000E+00  0.10566000000E+00 0.  1.
     999900   -1    0    0    0    0 -0.00000000000E+00 -0.00000000000E+00 -0.74505805969E-08  0.93827000000E+00  0.93827000000E+00 0.  1.
     999902    2    1    2    0    0 -0.66718575661E-02 -0.23015799335E-01  0.37421559070E-02  0.10196762491E+01  0.10193877616E+01 0.  0.
     999903    2    3    3    0    0 -0.91035906443E-02  0.53291116369E-02 -0.12740873262E+00  0.12950216338E+00  0.20653096113E-01 0.  0.
         14    1    1    2    0    0  0.66718575661E-02  0.23015799335E-01 -0.37421559070E-02  0.24253750911E-01  0.00000000000E+00 0. -1.
     999901    1    3    3    0    0  0.24317330782E-02 -0.28344910972E-01  0.13115088853E+00  0.89017408571E+00  0.88000000000E+00 0. -1.
        -11    1    4    4    0    0  0.59908621805E-02  0.53073251419E-02 -0.39585715249E-01  0.40389950515E-01  0.51100000000E-03 0. -1.
         11    1    4    4    0    0 -0.15094452825E-01  0.21786495029E-04 -0.87823017371E-01  0.89112212866E-01  0.51100000000E-03 0.  1.
</event>
<event>
 8    1  0.1161271E+005  0.1043930E+01  0.7957747E-01            NaN
         13   -1    0    0    0    0  0.00000000000E+00  0.00000000000E+00  0.74505805969E-08  0.10566000000E+00  0.10566000000E+00 0.  1.
     999900   -1    0    0    0    0 -0.00000000000E+00 -0.00000000000E+00 -0.74505805969E-08  0.93827000000E+00  0.93827000000E+00 0. -1.
     999902    2    1    2    0    0  0.12513663298E-01 -0.17015535947E-01  0.10092344249E-01  0.10205211204E+01  0.10202526067E+01 0.  0.
     999903    2    3    3    0    0  0.10075356761E+00 -0.72601777770E-01  0.45517649640E-01  0.13365525495E+00  0.19224235393E-01 0.  0.
         14    1    1    2    0    0 -0.12513663298E-01  0.17015535947E-01 -0.10092344249E-01  0.23408879622E-01  0.00000000000E+00 0. -1.
     999901    1    3    3    0    0 -0.88239904312E-01  0.55586241823E-01 -0.35425305391E-01  0.88686586542E+00  0.88000000000E+00 0. -1.
        -11    1    4    4    0    0  0.85808607704E-02 -0.12168507695E-01  0.96339168071E-02  0.17741962268E-01  0.51100000000E-03 0.  1.
         11    1    4    4    0    0  0.92172706840E-01 -0.60433270075E-01  0.35883732833E-01  0.11591329269E+00  0.51100000000E-03 0. -1.
</event>
<event>
 8    1  0.1161271E+005  0.1043930E+01  0.7957747E-01            NaN
         13   -1    0    0    0    0  0.00000000000E+00  0.00000000000E+00  0.74505805969E-08  0.10566000000E+00  0.10566000000E+00 0.  1.
     999900   -1    0    0    0    0 -0.00000000000E+00 -0.00000000000E+00 -0.74505805969E-08  0.93827000000E+00  0.93827000000E+00 0.  1.
     999902    2    1    2    0    0  0.60252134585E-02 -0.15871048272E-01 -0.16108035395E-01  0.10205278169E+01  0.10202594586E+01 0.  0.
     999903    2    3    3    0    0 -0.40683226734E-01 -0.39610725699E-01 -0.11869075065E+00  0.13302093570E+00  0.19568866048E-01 0.  0.
         14    1    1    2    0    0 -0.60252134585E-02  0.15871048272E-01  0.16108035395E-01  0.23402183119E-01  0.00000000000E+00 0. -1.
     999901    1    3    3    0    0  0.46708440192E-01  0.23739677427E-01  0.10258271525E+00  0.88750688118E+00  0.88000000000E+00 0. -1.
        -11    1    4    4    0    0 -0.19610057740E-01 -0.28935108082E-01 -0.84640158213E-01  0.91575173205E-01  0.51100000000E-03 0. -1.
         11    1    4    4    0    0 -0.21073168993E-01 -0.10675617617E-01 -0.34050592434E-01  0.41445762498E-01  0.51100000000E-03 0.  1.
</event>
<event>
 8    1  0.1161271E+005  0.1043930E+01  0.7957747E-01            NaN
         13   -1    0    0    0    0  0.00000000000E+00  0.00000000000E+00  0.74505805969E-08  0.10566000000E+00  0.10566000000E+00 0. -1.
     999900   -1    0    0    0    0 -0.00000000000E+00 -0.00000000000E+00 -0.74505805969E-08  0.93827000000E+00  0.93827000000E+00 0. -1.
     999902    2    1    2    0    0 -0.35363695949E-02  0.13702742334E-01 -0.19409254285E-01  0.10199093795E+01  0.10196264768E+01 0.  0.
     999903    2    3    3    0    0 -0.10884602923E+00  0.56470618439E-01  0.39744820693E-01  0.13062965960E+00  0.21167625492E-01 0.  0.
         14    1    1    2    0    0  0.35363695949E-02 -0.13702742334E-01  0.19409254285E-01  0.24020620502E-01  0.00000000000E+00 0. -1.
     999901    1    3    3    0    0  0.10530965963E+00 -0.42767876105E-01 -0.59154074978E-01  0.88927971990E+00  0.88000000000E+00 0.  1.
        -11    1    4    4    0    0 -0.10574068148E+00  0.57485373759E-01  0.40915337815E-01  0.12712193322E+00  0.51100000000E-03 0. -1.
         11    1    4    4    0    0 -0.31053477546E-02 -0.10147553208E-02 -0.11705171225E-02  0.35077263822E-02  0.51100000000E-03 0.  1.
</event>
<event>
 8    1  0.1161271E+005  0.1043930E+01  0.7957747E-01            NaN
         13   -1    0    0    0    0  0.00000000000E+00  0.00000000000E+00  0.74505805969E-08  0.10566000000E+00  0.10566000000E+00 0.  1.
     999900   -1    0    0    0    0 -0.00000000000E+00 -0.00000000000E+00 -0.74505805969E-08  0.93827000000E+00  0.93827000000E+00 0. -1.
     999902    2    1    2    0    0 -0.16776957251E-01  0.15816820918E-01  0.71221112731E-04  0.10208726109E+01  0.10206121911E+01 0.  0.
     999903    2    3    3    0    0  0.11395865116E+00  0.53251865165E-01  0.31685705478E-01  0.12986606916E+00  0.62351159382E-02 0.  0.
         14    1    1    2    0    0  0.16776957251E-01 -0.15816820918E-01 -0.71221112731E-04  0.23057389076E-01  0.00000000000E+00 0. -1.
     999901    1    3    3    0    0 -0.13073560841E+00 -0.37435044248E-01 -0.31614484366E-01  0.89100654176E+00  0.88000000000E+00 0.  1.
        -11    1    4    4    0    0  0.85116381420E-01  0.42550954434E-01  0.23155343466E-01  0.97937802514E-01  0.51100000000E-03 0.  1.
         11    1    4    4    0    0  0.28842269736E-01  0.10700910732E-01  0.85303620128E-02  0.31928266647E-01  0.51100000000E-03 0. -1.
</event>
<event>
 8    1  0.1161271E+005  0.1043930E+01  0.7957747E-01            NaN
         13   -1    0    0    0    0  0.00000000000E+00  0.00000000000E+00  0.74505805969E-08  0.10566000000E+00  0.10566000000E+00 0.  1.
     999900   -1    0    0    0    0 -0.00000000000E+00 -0.00000000000E+00 -0.74505805969E-08  0.93827000000E+00  0.93827000000E+00 0. -1.
     999902    2    1    2    0    0  0.40655233822E-02 -0.21992700974E-01  0.12459057526E-01  0.10183285256E+01  0.10180066555E+01 0.  0.
     999903    2    3    3    0    0 -0.58140735316E-01 -0.11174948997E+00  0.31077377316E-01  0.13138290066E+00  0.20672919314E-01 0.  0.
         14    1    1    2    0    0 -0.40655233822E-02  0.21992700974E-01 -0.12459057526E-01  0.25601474390E-01  0.00000000000E+00 0.  1.
     999901    1    3    3    0    0  0.62206258698E-01  0.89756788994E-01 -0.18618319789E-01  0.88694562495E+00  0.88000000000E+00 0. -1.
        -11    1    4    4    0    0 -0.15867216681E-01 -0.46415742666E-01  0.19122302697E-01  0.52650862423E-01  0.51100000000E-03 0.  1.
         11    1    4    4    0    0 -0.42273518635E-01 -0.65333747302E-01  0.11955074618E-01  0.78732038234E-01  0.51100000000E-03 0. -1.
</event>
<event>
 8    1  0.1161271E+005  0.1043930E+01  0.7957747E-01            NaN
         13   -1    0    0    0    0  0.00000000000E+00  0.00000000000E+00  0.74505805969E-08  0.10566000000E+00  0.10566000000E+00 0. -1.
     999900   -1    0    0    0    0 -0.00000000000E+00 -0.00000000000E+00 -0.74505805969E-08  0.93827000000E+00  0.93827000000E+00 0.  1.
     999902    2    1    2    0    0 -0.21569644217E-02 -0.23106330675E-01 -0.43741793416E-02  0.10203145716E+01  0.10200412426E+01 0.  0.
     999903    2    3    3    0    0 -0.57145468644E-01  0.19332730915E-01  0.11310393393E+00  0.12979454565E+00  0.20365783556E-01 0.  0.
         14    1    1    2    0    0  0.21569644217E-02  0.23106330675E-01  0.43741793416E-02  0.23615428383E-01  0.00000000000E+00 0.  1.
     999901    1    3    3    0    0  0.54988504222E-01 -0.42439061590E-01 -0.11747811327E+00  0.89052002596E+00  0.88000000000E+00 0.  1.
        -11    1    4    4    0    0 -0.13394870904E-01 -0.34049605266E-02  0.32260332498E-01  0.35099950094E-01  0.51100000000E-03 0.  1.
         11    1    4    4    0    0 -0.43750597740E-01  0.22737691442E-01  0.80843601432E-01  0.94694595560E-01  0.51100000000E-03 0. -1.
</event>
<event>
 8    1  0.1161271E+005  0.1043930E+01  0.7957747E-01            NaN
         13   -1    0    0    0    0  0.00000000000E+00  0.00000000000E+00  0.74505805969E-08  0.10566000000E+00  0.10566000000E+00 0.  1.
     999900   -1    0    0    0    0 -0.00000000000E+00 -0.00000000000E+00 -0.74505805969E-08  0.93827000000E+00  0.93827000000E+00 0.  1.
     999902    2    1    2    0    0  0.25983274106E-01 -0.40325416921E-02 -0.23488538501E-02  0.10175309652E+01  0.10171884565E+01 0.  0.
     999903    2    3    3    0    0  0.45557700164E-02 -0.12127813048E+00 -0.38321883510E-01  0.12876793438E+00  0.19582497182E-01 0.  0.
         14    1    1    2    0    0 -0.25983274106E-01  0.40325416921E-02  0.23488538501E-02  0.26399034834E-01  0.00000000000E+00 0. -1.
     999901    1    3    3    0    0  0.21427504090E-01  0.11724558879E+00  0.35973029659E-01  0.88876303078E+00  0.88000000000E+00 0.  1.
        -11    1    4    4    0    0  0.34283777277E-02 -0.29060981032E-01 -0.10208726515E-02  0.29284768983E-01  0.51100000000E-03 0. -1.
         11    1    4    4    0    0  0.11273922886E-02 -0.92217149450E-01 -0.37301010858E-01  0.99483165401E-01  0.51100000000E-03 0.  1.
</event>
<event>
 8    1  0.1161271E+005  0.1043930E+01  0.7957747E-01            NaN
         13   -1    0    0    0    0  0.00000000000E+00  0.00000000000E+00  0.74505805969E-08  0.10566000000E+00  0.10566000000E+00 0.  1.
     999900   -1    0    0    0    0 -0.00000000000E+00 -0.00000000000E+00 -0.74505805969E-08  0.93827000000E+00  0.93827000000E+00 0.  1.
     999902    2    1    2    0    0  0.22754543757E-01  0.21162185595E-02  0.12258169062E-01  0.10179971955E+01  0.10176668313E+01 0.  0.
     999903    2    3    3    0    0 -0.97686016840E-01  0.72721641203E-01  0.30322129264E-01  0.12680846068E+00  0.18164778856E-01 0.  0.
         14    1    1    2    0    0 -0.22754543757E-01 -0.21162185595E-02 -0.12258169062E-01  0.25932804541E-01  0.00000000000E+00 0.  1.
     999901    1    3    3    0    0  0.12044056060E+00 -0.70605422644E-01 -0.18063960202E-01  0.89118873478E+00  0.88000000000E+00 0.  1.
        -11    1    4    4    0    0 -0.35039850791E-01  0.31586381991E-01  0.19649451832E-01  0.51106288742E-01  0.51100000000E-03 0.  1.
         11    1    4    4    0    0 -0.62646166049E-01  0.41135259212E-01  0.10672677433E-01  0.75702171935E-01  0.51100000000E-03 0. -1.
</event>
<event>
 8    1  0.1161271E+005  0.1043930E+01  0.7957747E-01            NaN
         13   -1    0    0    0    0  0.00000000000E+00  0.00000000000E+00  0.74505805969E-08  0.10566000000E+00  0.10566000000E+00 0. -1.
     999900   -1    0    0    0    0 -0.00000000000E+00 -0.00000000000E+00 -0.74505805969E-08  0.93827000000E+00  0.93827000000E+00 0.  1.
     999902    2    1    2    0    0 -0.12742531412E-01  0.33892837209E-02 -0.18711774159E-01  0.10210391756E+01  0.10207825470E+01 0.  0.
     999903    2    3    3    0    0 -0.13092776555E+00  0.71223060927E-03  0.78794639924E-02  0.13273629359E+00  0.20353147656E-01 0.  0.
         14    1    1    2    0    0  0.12742531412E-01 -0.33892837209E-02  0.18711774159E-01  0.22890824431E-01  0.00000000000E+00 0.  1.
     999901    1    3    3    0    0  0.11818523414E+00  0.26770531117E-02 -0.26591238152E-01  0.88830288198E+00  0.88000000000E+00 0.  1.
        -11    1    4    4    0    0 -0.57238352903E-01 -0.77837711419E-02 -0.25700252747E-02  0.57824582032E-01  0.51100000000E-03 0. -1.
         11    1    4    4    0    0 -0.73689412647E-01  0.84960017512E-02  0.10449489267E-01  0.74911711561E-01  0.51100000000E-03 0.  1.
</event>
<event>
 8    1  0.1161271E+005  0.1043930E+01  0.7957747E-01            NaN
         13   -1    0    0    0    0  0.00000000000E+00  0.00000000000E+00  0.74505805969E-08  0.10566000000E+00  0.10566000000E+00 0.  1.
     999900   -1    0    0    0    0 -0.00000000000E+00 -0.00000000000E+00 -0.74505805969E-08  0.93827000000E+00  0.93827000000E+00 0. -1.
     999902    2    1    2    0    0 -0.92455154272E-02  0.21360202944E-01  0.17901924502E-02  0.10205859940E+01  0.10203189838E+01 0.  0.
     999903    2    3    3    0    0 -0.54634045969E-01 -0.83201663662E-03  0.11796451460E+00  0.13151395734E+00  0.19867637983E-01 0.  0.
         14    1    1    2    0    0  0.92455154272E-02 -0.21360202944E-01 -0.17901924502E-02  0.23344005961E-01  0.00000000000E+00 0. -1.
     999901    1    3    3    0    0  0.45388530542E-01  0.22192219580E-01 -0.11617432215E+00  0.88907203670E+00  0.88000000000E+00 0. -1.
        -11    1    4    4    0    0 -0.40868183351E-01 -0.90985001445E-03  0.10466620975E+00  0.11236686710E+00  0.51100000000E-03 0.  1.
         11    1    4    4    0    0 -0.13765862619E-01  0.77833377832E-04  0.13298304851E-01  0.19147090238E-01  0.51100000000E-03 0. -1.
</event>
<event>
 8    1  0.1161271E+005  0.1043930E+01  0.7957747E-01            NaN
         13   -1    0    0    0    0  0.00000000000E+00  0.00000000000E+00  0.74505805969E-08  0.10566000000E+00  0.10566000000E+00 0. -1.
     999900   -1    0    0    0    0 -0.00000000000E+00 -0.00000000000E+00 -0.74505805969E-08  0.93827000000E+00  0.93827000000E+00 0.  1.
     999902    2    1    2    0    0  0.23958684953E-02 -0.19117823943E-01  0.13574136766E-01  0.10203611950E+01  0.10200889568E+01 0.  0.
     999903    2    3    3    0    0  0.50057872494E-01  0.10625254478E+00  0.50354496644E-01  0.12943909359E+00  0.20579352458E-01 0.  0.
         14    1    1    2    0    0 -0.23958684953E-02  0.19117823943E-01 -0.13574136766E-01  0.23568804957E-01  0.00000000000E+00 0.  1.
     999901    1    3    3    0    0 -0.47662003999E-01 -0.12537036872E+00 -0.36780359878E-01  0.89092210145E+00  0.88000000000E+00 0.  1.
        -11    1    4    4    0    0  0.21757846947E-01  0.64650957060E-01  0.21963245756E-01  0.71664464260E-01  0.51100000000E-03 0. -1.
         11    1    4    4    0    0  0.28300025547E-01  0.41601587719E-01  0.28391250888E-01  0.57774629334E-01  0.51100000000E-03 0.  1.
</event>
<event>
 8    1  0.1161271E+005  0.1043930E+01  0.7957747E-01            NaN
         13   -1    0    0    0    0  0.00000000000E+00  0.00000000000E+00  0.74505805969E-08  0.10566000000E+00  0.10566000000E+00 0. -1.
     999900   -1    0    0    0    0 -0.00000000000E+00 -0.00000000000E+00 -0.74505805969E-08  0.93827000000E+00  0.93827000000E+00 0.  1.
     999902    2    1    2    0    0 -0.15588874516E-03  0.19843315572E-01 -0.13132366169E-01  0.10201341912E+01  0.10198566211E+01 0.  0.
     999903    2    3    3    0    0 -0.41687721265E-01  0.87145962189E-01 -0.89593840464E-01  0.13328533352E+00  0.20140482931E-01 0.  0.
         14    1    1    2    0    0  0.15588874516E-03 -0.19843315572E-01  0.13132366169E-01  0.23795808778E-01  0.00000000000E+00 0. -1.
     999901    1    3    3    0    0  0.41531832520E-01 -0.67302646617E-01  0.76461474294E-01  0.88684885770E+00  0.88000000000E+00 0. -1.
        -11    1    4    4    0    0 -0.25871873672E-01  0.43653175822E-01 -0.58921613690E-01  0.77762274192E-01  0.51100000000E-03 0. -1.
         11    1    4    4    0    0 -0.15815847593E-01  0.43492786367E-01 -0.30672226774E-01  0.55523059330E-01  0.51100000000E-03 0.  1.
</event>
<event>
 8    1  0.1161271E+005  0.1043930E+01  0.7957747E-01            NaN
         13   -1    0    0    0    0  0.00000000000E+00  0.00000000000E+00  0.74505805969E-08  0.10566000000E+00  0.10566000000E+00 0. -1.
     999900   -1    0    0    0    0 -0.00000000000E+00 -0.00000000000E+00 -0.74505805969E-08  0.93827000000E+00  0.93827000000E+00 0. -1.
     999902    2    1    2    0    0 -0.16243291189E-01 -0.55240174487E-02 -0.15639331052E-01  0.10207147474E+01  0.10204507081E+01 0.  0.
     999903    2    3    3    0    0  0.38542638655E-01 -0.10368065889E+00  0.65132753451E-01  0.12989470160E+00  0.19878227008E-01 0.  0.
         14    1    1    2    0    0  0.16243291189E-01  0.55240174487E-02  0.15639331052E-01  0.23215252598E-01  0.00000000000E+00 0. -1.
     999901    1    3    3    0    0 -0.54785929844E-01  0.98156641442E-01 -0.80772084504E-01  0.89082004580E+00  0.88000000000E+00 0.  1.
        -11    1    4    4    0    0  0.19464668215E-01 -0.77235932065E-01  0.48909982482E-01  0.93470369733E-01  0.51100000000E-03 0. -1.
         11    1    4    4    0    0  0.19077970440E-01 -0.26444726826E-01  0.16222770970E-01  0.36424331867E-01  0.51100000000E-03 0.  1.
</event>
<event>
 8    1  0.1161271E+005  0.1043930E+01  0.7957747E-01            NaN
         13   -1    0    0    0    0  0.00000000000E+00  0.00000000000E+00  0.74505805969E-08  0.10566000000E+00  0.10566000000E+00 0.  1.
     999900   -1    0    0    0    0 -0.00000000000E+00 -0.00000000000E+00 -0.74505805969E-08  0.93827000000E+00  0.93827000000E+00 0. -1.
     999902    2    1    2    0    0  0.27372413169E-03 -0.23944959553E-01  0.17825917236E-02  0.10199172191E+01  0.10196345032E+01 0.  0.
     999903    2    3    3    0    0 -0.72909599902E-01  0.46986109976E-01  0.93806736315E-01  0.12926832155E+00  0.19674625509E-01 0.  0.
         14    1    1    2    0    0 -0.27372413169E-03  0.23944959553E-01 -0.17825917236E-02  0.24012780892E-01  0.00000000000E+00 0.  1.
     999901    1    3    3    0    0  0.73183324033E-01 -0.70931069529E-01 -0.92024144591E-01  0.89064889756E+00  0.88000000000E+00 0.  1.
        -11    1    4    4    0    0 -0.72686588598E-02  0.13060226739E-01  0.18088258245E-01  0.23470175360E-01  0.51100000000E-03 0. -1.
         11    1    4    4    0    0 -0.65640941042E-01  0.33925883236E-01  0.75718478070E-01  0.10579814619E+00  0.51100000000E-03 0.  1.
</event>
<event>
 8    1  0.1161271E+005  0.1043930E+01  0.7957747E-01            NaN
         13   -1    0    0    0    0  0.00000000000E+00  0.00000000000E+00  0.74505805969E-08  0.10566000000E+00  0.10566000000E+00 0.  1.
     999900   -1    0    0    0    0 -0.00000000000E+00 -0.00000000000E+00 -0.74505805969E-08  0.93827000000E+00  0.93827000000E+00 0.  1.
     999902    2    1    2    0    0  0.14714486932E-01 -0.88616813839E-02  0.48662264303E-02  0.10260771100E+01  0.10259217855E+01 0.  0.
     999903    2    3    3    0    0 -0.13022027018E+00 -0.17388230512E-02 -0.23314225536E-01  0.13374815897E+00  0.19613124261E-01 0.  0.
         14    1    1    2    0    0 -0.14714486932E-01  0.88616813839E-02 -0.48662264303E-02  0.17852890027E-01  0.00000000000E+00 0. -1.
     999901    1    3    3    0    0  0.14493475711E+00 -0.71228583327E-02  0.28180451966E-01  0.89232895101E+00  0.88000000000E+00 0.  1.
        -11    1    4    4    0    0 -0.68534289229E-01  0.36830883140E-02 -0.21012347174E-01  0.71779480316E-01  0.51100000000E-03 0.  1.
         11    1    4    4    0    0 -0.61685980951E-01 -0.54219113652E-02 -0.23018783623E-02  0.61968678651E-01  0.51100000000E-03 0. -1.
</event>
<event>
 8    1  0.1161271E+005  0.1043930E+01  0.7957747E-01            NaN
         13   -1    0    0    0    0  0.00000000000E+00  0.00000000000E+00  0.74505805969E-08  0.10566000000E+00  0.10566000000E+00 0.  1.
     999900   -1    0    0    0    0 -0.00000000000E+00 -0.00000000000E+00 -0.74505805969E-08  0.93827000000E+00  0.93827000000E+00 0.  1.
     999902    2    1    2    0    0 -0.15832887359E-02 -0.77766110624E-03 -0.23355341298E-01  0.10205081400E+01  0.10202393250E+01 0.  0.
     999903    2    3    3    0    0 -0.90418598776E-01 -0.25443252521E-02  0.89525015459E-01  0.12885977411E+00  0.20201890848E-01 0.  0.
         14    1    1    2    0    0  0.15832887359E-02  0.77766110624E-03  0.23355341298E-01  0.23421860028E-01  0.00000000000E+00 0.  1.
     999901    1    3    3    0    0  0.88835310040E-01  0.17666641458E-02 -0.11288035676E+00  0.89164836587E+00  0.88000000000E+00 0. -1.
        -11    1    4    4    0    0 -0.37085770411E-01  0.75265751255E-02  0.29915266082E-01  0.48240936619E-01  0.51100000000E-03 0. -1.
         11    1    4    4    0    0 -0.53332828365E-01 -0.10070900378E-01  0.59609749377E-01  0.80618837486E-01  0.51100000000E-03 0.  1.
</event>
<event>
 8    1  0.1161271E+005  0.1043930E+01  0.7957747E-01            NaN
         13   -1    0    0    0    0  0.00000000000E+00  0.00000000000E+00  0.74505805969E-08  0.10566000000E+00  0.10566000000E+00 0.  1.
     999900   -1    0    0    0    0 -0.00000000000E+00 -0.00000000000E+00 -0.74505805969E-08  0.93827000000E+00  0.93827000000E+00 0.  1.
     999902    2    1    2    0    0  0.17415602751E-01 -0.23543716003E-02  0.15190702279E-01  0.10207006281E+01  0.10204362638E+01 0.  0.
     999903    2    3    3    0    0 -0.31372526666E-01 -0.45310434142E-01 -0.11480301757E+00  0.12877917856E+00  0.19159152311E-01 0.  0.
         14    1    1    2    0    0 -0.17415602751E-01  0.23543716003E-02 -0.15190702279E-01  0.23229371936E-01  0.00000000000E+00 0. -1.
     999901    1    3    3    0    0  0.48788129417E-01  0.42956062542E-01  0.12999371985E+00  0.89192144950E+00  0.88000000000E+00 0. -1.
        -11    1    4    4    0    0 -0.16319361703E-01 -0.11889819362E-01 -0.55498518203E-01  0.59059597142E-01  0.51100000000E-03 0.  1.
         11    1    4    4    0    0 -0.15053164963E-01 -0.33420614780E-01 -0.59304499365E-01  0.69719581421E-01  0.51100000000E-03 0. -1.
</event>
<event>
 8    1  0.1161271E+005  0.1043930E+01  0.7957747E-01            NaN
         13   -1    0    0    0    0  0.00000000000E+00  0.00000000000E+00  0.74505805969E-08  0.10566000000E+00  0.10566000000E+00 0.  1.
     999900   -1    0    0    0    0 -0.00000000000E+00 -0.00000000000E+00 -0.74505805969E-08  0.93827000000E+00  0.93827000000E+00 0. -1.
     999902    2    1    2    0    0 -0.57674829149E-02 -0.18712800186E-01 -0.13863111149E-01  0.10199379471E+01  0.10196557249E+01 0.  0.
     999903    2    3    3    0    0  0.23524822747E-02 -0.96268957310E-01 -0.90478502516E-01  0.13317371154E+00  0.16602159870E-01 0.  0.
         14    1    1    2    0    0  0.57674829149E-02  0.18712800186E-01  0.13863111149E-01  0.23992052866E-01  0.00000000000E+00 0.  1.
     999901    1    3    3    0    0 -0.81199651896E-02  0.77556157124E-01  0.76615391367E-01  0.88676423560E+00  0.88000000000E+00 0.  1.
        -11    1    4    4    0    0 -0.69708532114E-02 -0.50004407931E-01 -0.48423852230E-01  0.69958303244E-01  0.51100000000E-03 0.  1.
         11    1    4    4    0    0  0.93233354861E-02 -0.46264549379E-01 -0.42054650286E-01  0.63215408292E-01  0.51100000000E-03 0. -1.
</event>
<event>
 8    1  0.1161271E+005  0.1043930E+01  0.7957747E-01            NaN
         13   -1    0    0    0    0  0.00000000000E+00  0.00000000000E+00  0.74505805969E-08  0.10566000000E+00  0.10566000000E+00 0. -1.
     999900   -1    0    0    0    0 -0.00000000000E+00 -0.00000000000E+00 -0.74505805969E-08  0.93827000000E+00  0.93827000000E+00 0. -1.
     999902    2    1    2    0    0 -0.10638908776E-02 -0.15581240090E-01 -0.17730891011E-01  0.10203018092E+01  0.10200281812E+01 0.  0.
     999903    2    3    3    0    0  0.21609038739E-01  0.11776688214E+00  0.40871503589E-01  0.12804062313E+00  0.19695996554E-01 0.  0.
         14    1    1    2    0    0  0.10638908776E-02  0.15581240090E-01  0.17730891011E-01  0.23628190844E-01  0.00000000000E+00 0.  1.
     999901    1    3    3    0    0 -0.22672929617E-01 -0.13334812223E+00 -0.58602394600E-01  0.89226118603E+00  0.88000000000E+00 0. -1.
        -11    1    4    4    0    0  0.19686089298E-02  0.60690519454E-01  0.16353468956E-01  0.62888088225E-01  0.51100000000E-03 0.  1.
         11    1    4    4    0    0  0.19640429809E-01  0.57076362689E-01  0.24518034633E-01  0.65152534902E-01  0.51100000000E-03 0. -1.
</event>
<event>
 8    1  0.1161271E+005  0.1043930E+01  0.7957747E-01            NaN
         13   -1    0    0    0    0  0.00000000000E+00  0.00000000000E+00  0.74505805969E-08  0.10566000000E+00  0.10566000000E+00 0.  1.
     999900   -1    0    0    0    0 -0.00000000000E+00 -0.00000000000E+00 -0.74505805969E-08  0.93827000000E+00  0.93827000000E+00 0. -1.
     999902    2    1    2    0    0 -0.15317620402E-01 -0.13857662535E-01  0.10524002261E-01  0.10207477022E+01  0.10204844206E+01 0.  0.
     999903    2    3    3    0    0 -0.89199697474E-01 -0.50552375938E-01 -0.81013825553E-01  0.13216217613E+00  0.19785654525E-01 0.  0.
         14    1    1    2    0    0  0.15317620402E-01  0.13857662535E-01 -0.10524002261E-01  0.23182297757E-01  0.00000000000E+00 0. -1.
     999901    1    3    3    0    0  0.73882077072E-01  0.36694713404E-01  0.91537827815E-01  0.88858552612E+00  0.88000000000E+00 0.  1.
        -11    1    4    4    0    0 -0.37020487671E-01 -0.26472043484E-01 -0.25082768326E-01  0.51968182395E-01  0.51100000000E-03 0.  1.
         11    1    4    4    0    0 -0.52179209803E-01 -0.24080332454E-01 -0.55931057227E-01  0.80193993730E-01  0.51100000000E-03 0. -1.
</event>
<event>
 8    1  0.1161271E+005  0.1043930E+01  0.7957747E-01            NaN
         13   -1    0    0    0    0  0.00000000000E+00  0.00000000000E+00  0.74505805969E-08  0.10566000000E+00  0.10566000000E+00 0.  1.
     999900   -1    0    0    0    0 -0.00000000000E+00 -0.00000000000E+00 -0.74505805969E-08  0.93827000000E+00  0.93827000000E+00 0.  1.
     999902    2    1    2    0    0  0.24584273656E-02  0.12474225587E-01  0.19904635172E-01  0.10203112644E+01  0.10200378579E+01 0.  0.
     999903    2    3    3    0    0 -0.45815951062E-01 -0.75064391239E-01 -0.90440342731E-01  0.12780387554E+00  0.20508798280E-01 0.  0.
         14    1    1    2    0    0 -0.24584273656E-02 -0.12474225587E-01 -0.19904635172E-01  0.23618735581E-01  0.00000000000E+00 0. -1.
     999901    1    3    3    0    0  0.48274378427E-01  0.87538616826E-01  0.11034497790E+00  0.89250738888E+00  0.88000000000E+00 0. -1.
        -11    1    4    4    0    0 -0.25517437318E-01 -0.23999728464E-01 -0.40472663298E-01  0.53529656911E-01  0.51100000000E-03 0.  1.
         11    1    4    4    0    0 -0.20298513744E-01 -0.51064662775E-01 -0.49967679433E-01  0.74274218633E-01  0.51100000000E-03 0. -1.
</event>
<event>
 8    1  0.1161271E+005  0.1043930E+01  0.7957747E-01            NaN
         13   -1    0    0    0    0  0.00000000000E+00  0.00000000000E+00  0.74505805969E-08  0.10566000000E+00  0.10566000000E+00 0.  1.
     999900   -1    0    0    0    0 -0.00000000000E+00 -0.00000000000E+00 -0.74505805969E-08  0.93827000000E+00  0.93827000000E+00 0. -1.
     999902    2    1    2    0    0 -0.79076821658E-02  0.52670138000E-02 -0.21869152489E-01  0.10200860762E+01  0.10198073691E+01 0.  0.
     999903    2    3    3    0    0 -0.33259643181E-02  0.92356173079E-01 -0.93978855836E-01  0.13284015588E+00  0.16545601420E-01 0.  0.
         14    1    1    2    0    0  0.79076821658E-02 -0.52670138000E-02  0.21869152489E-01  0.23843923800E-01  0.00000000000E+00 0.  1.
     999901    1    3    3    0    0 -0.45817178477E-02 -0.87089159279E-01  0.72109703347E-01  0.88724592032E+00  0.88000000000E+00 0.  1.
        -11    1    4    4    0    0 -0.42102944872E-02  0.77937003542E-01 -0.86692586805E-01  0.11665234172E+00  0.51100000000E-03 0.  1.
         11    1    4    4    0    0  0.88433016915E-03  0.14419169538E-01 -0.72862690306E-02  0.16187814163E-01  0.51100000000E-03 0. -1.
</event>
<event>
 8    1  0.1161271E+005  0.1043930E+01  0.7957747E-01            NaN
         13   -1    0    0    0    0  0.00000000000E+00  0.00000000000E+00  0.74505805969E-08  0.10566000000E+00  0.10566000000E+00 0.  1.
     999900   -1    0    0    0    0 -0.00000000000E+00 -0.00000000000E+00 -0.74505805969E-08  0.93827000000E+00  0.93827000000E+00 0.  1.
     999902    2    1    2    0    0 -0.12086047921E-01 -0.86767006565E-02 -0.19199803087E-01  0.10196402876E+01  0.10193509337E+01 0.  0.
     999903    2    3    3    0    0  0.62278398991E-01  0.27241324932E-01 -0.11033215201E+00  0.13108793658E+00  0.19752837410E-01 0.  0.
         14    1    1    2    0    0  0.12086047921E-01  0.86767006565E-02  0.19199803087E-01  0.24289712374E-01  0.00000000000E+00 0.  1.
     999901    1    3    3    0    0 -0.74364446912E-01 -0.35918025589E-01  0.91132348921E-01  0.88855235104E+00  0.88000000000E+00 0. -1.
        -11    1    4    4    0    0  0.24650521692E-01  0.20016796187E-01 -0.40880055237E-01  0.51766402101E-01  0.51100000000E-03 0.  1.
         11    1    4    4    0    0  0.37627877299E-01  0.72245287451E-02 -0.69452096770E-01  0.79321534481E-01  0.51100000000E-03 0. -1.
</event>
<event>
 8    1  0.1161271E+005  0.1043930E+01  0.7957747E-01            NaN
         13   -1    0    0    0    0  0.00000000000E+00  0.00000000000E+00  0.74505805969E-08  0.10566000000E+00  0.10566000000E+00 0.  1.
     999900   -1    0    0    0    0 -0.00000000000E+00 -0.00000000000E+00 -0.74505805969E-08  0.93827000000E+00  0.93827000000E+00 0. -1.
     999902    2    1    2    0    0 -0.16385296054E-01 -0.88964774091E-02 -0.13502068961E-01  0.10209097675E+01  0.10206501959E+01 0.  0.
     999903    2    3    3    0    0  0.11397190746E+00 -0.51644045279E-01 -0.29376857386E-01  0.13013911019E+00  0.20407967737E-01 0.  0.
         14    1    1    2    0    0  0.16385296054E-01  0.88964774091E-02  0.13502068961E-01  0.23020232477E-01  0.00000000000E+00 0.  1.
     999901    1    3    3    0    0 -0.13035720351E+00  0.42747567870E-01  0.15874788425E-01  0.89077065734E+00  0.88000000000E+00 0.  1.
        -11    1    4    4    0    0  0.93285345612E-01 -0.33138969484E-01 -0.23938207822E-01  0.10185109680E+00  0.51100000000E-03 0. -1.
         11    1    4    4    0    0  0.20686561848E-01 -0.18505075796E-01 -0.54386495642E-02  0.28288013387E-01  0.51100000000E-03 0.  1.
</event>
<event>
 8    1  0.1161271E+005  0.1043930E+01  0.7957747E-01            NaN
         13   -1    0    0    0    0  0.00000000000E+00  0.00000000000E+00  0.74505805969E-08  0.10566000000E+00  0.10566000000E+00 0. -1.
     999900   -1    0    0    0    0 -0.00000000000E+00 -0.00000000000E+00 -0.74505805969E-08  0.93827000000E+00  0.93827000000E+00 0. -1.
     999902    2    1    2    0    0  0.96915890165E-03  0.97610026549E-02 -0.20512007821E-01  0.10211932697E+01  0.10209401232E+01 0.  0.
     999903    2    3    3    0    0 -0.12083483704E+00  0.40915481825E-01 -0.25210875053E-01  0.13224507412E+00  0.24042398211E-01 0.  0.
         14    1    1    2    0    0 -0.96915890165E-03 -0.97610026549E-02  0.20512007821E-01  0.22736730342E-01  0.00000000000E+00 0. -1.
     999901    1    3    3    0    0  0.12180399594E+00 -0.31154479170E-01  0.46988672318E-02  0.88894819554E+00  0.88000000000E+00 0. -1.
        -11    1    4    4    0    0 -0.27410955495E-01  0.34896412500E-02  0.27961295925E-02  0.27778004588E-01  0.51100000000E-03 0.  1.
         11    1    4    4    0    0 -0.93423881547E-01  0.37425840575E-01 -0.28007004645E-01  0.10446706953E+00  0.51100000000E-03 0. -1.
</event>
<event>
 8    1  0.1161271E+005  0.1043930E+01  0.7957747E-01            NaN
         13   -1    0    0    0    0  0.00000000000E+00  0.00000000000E+00  0.74505805969E-08  0.10566000000E+00  0.10566000000E+00 0. -1.
     999900   -1    0    0    0    0 -0.00000000000E+00 -0.00000000000E+00 -0.74505805969E-08  0.93827000000E+00  0.93827000000E+00 0.  1.
     999902    2    1    2    0    0 -0.20792177914E-01 -0.59350069486E-02  0.96824223907E-02  0.10202384768E+01  0.10199633627E+01 0.  0.
     999903    2    3    3    0    0 -0.11404651284E-01 -0.19362360171E-01  0.12852180281E+00  0.13209928846E+00  0.20673682541E-01 0.  0.
         14    1    1    2    0    0  0.20792177914E-01  0.59350069486E-02 -0.96824223907E-02  0.23691523236E-01  0.00000000000E+00 0. -1.
     999901    1    3    3    0    0 -0.93875266294E-02  0.13427353223E-01 -0.11883938042E+00  0.88813918831E+00  0.88000000000E+00 0.  1.
        -11    1    4    4    0    0  0.39005812966E-03 -0.13541920479E-01  0.96953620467E-01  0.97896891668E-01  0.51100000000E-03 0.  1.
         11    1    4    4    0    0 -0.11794709414E-01 -0.58204396924E-02  0.31568182346E-01  0.34202396787E-01  0.51100000000E-03 0. -1.
</event>
<event>
 7    1  0.1161271E+005  0.1043930E+01  0.7957747E-01            NaN
         13   -1    0    0    0    0  0.00000000000E+00  0.00000000000E+00  0.74505805969E-08  0.10566000000E+00  0.10566000000E+00 0. -1.
     999900   -1    0    0    0    0 -0.00000000000E+00 -0.00000000000E+00 -0.74505805969E-08  0.93827000000E+00  0.93827000000E+00 0.  1.
     999902    2    1    2    0    0  0.19313331694E-01  0.94791936289E-02  0.99268476085E-02  0.10202360726E+01  0.10199609020E+01 0.  0.
         14    1    1    2    0    0 -0.19313331694E-01 -0.94791936289E-02 -0.99268476085E-02  0.23693927417E-01  0.00000000000E+00 0. -1.
     999901    1    3    3    0    0  0.51914142737E-01  0.11735452839E+00  0.37562363761E-01  0.89010004759E+00  0.88000000000E+00 0. -1.
        -11    1    3    3    0    0 -0.36266646076E-01 -0.79321284868E-01  0.40602264502E-02  0.87314846450E-01  0.51100000000E-03 0.  1.
         11    1    3    3    0    0  0.36658350328E-02 -0.28554049891E-01 -0.31695742602E-01  0.42821178543E-01  0.51100000000E-03 0. -1.
</event>
<event>
 8    1  0.1161271E+005  0.1043930E+01  0.7957747E-01            NaN
         13   -1    0    0    0    0  0.00000000000E+00  0.00000000000E+00  0.74505805969E-08  0.10566000000E+00  0.10566000000E+00 0.  1.
     999900   -1    0    0    0    0 -0.00000000000E+00 -0.00000000000E+00 -0.74505805969E-08  0.93827000000E+00  0.93827000000E+00 0. -1.
     999902    2    1    2    0    0  0.19005103064E-01  0.27739529341E-02  0.11944736898E-01  0.10213121863E+01  0.10210617104E+01 0.  0.
     999903    2    3    3    0    0 -0.12215374366E-01  0.10161386669E+00 -0.78634864562E-01  0.13061093954E+00  0.20029536387E-01 0.  0.
         14    1    1    2    0    0 -0.19005103064E-01 -0.27739529341E-02 -0.11944736898E-01  0.22617813708E-01  0.00000000000E+00 0.  1.
     999901    1    3    3    0    0  0.31220477430E-01 -0.98839913759E-01  0.90579601460E-01  0.89070124675E+00  0.88000000000E+00 0.  1.
        -11    1    4    4    0    0 -0.10255535716E-01  0.32348853233E-01 -0.17414289584E-01  0.38146335618E-01  0.51100000000E-03 0. -1.
         11    1    4    4    0    0 -0.19598386507E-02  0.69265013460E-01 -0.61220574978E-01  0.92464603924E-01  0.51100000000E-03 0.  1.
</event>
<event>
 8    1  0.1161271E+005  0.1043930E+01  0.7957747E-01            NaN
         13   -1    0    0    0    0  0.00000000000E+00  0.00000000000E+00  0.74505805969E-08  0.10566000000E+00  0.10566000000E+00 0. -1.
     999900   -1    0    0    0    0 -0.00000000000E+00 -0.00000000000E+00 -0.74505805969E-08  0.93827000000E+00  0.93827000000E+00 0. -1.
     999902    2    1    2    0    0 -0.18867168489E-01  0.16957183046E-01  0.14921049564E-01  0.10144995086E+01  0.10140725315E+01 0.  0.
     999903    2    3    3    0    0 -0.10432631085E+00 -0.68575809592E-01  0.19789628163E-02  0.12613772676E+00  0.17893826319E-01 0.  0.
         14    1    1    2    0    0  0.18867168489E-01 -0.16957183046E-01 -0.14921049564E-01  0.29430491395E-01  0.00000000000E+00 0. -1.
     999901    1    3    3    0    0  0.85459142361E-01  0.85532992638E-01  0.12942086747E-01  0.88836178185E+00  0.88000000000E+00 0. -1.
        -11    1    4    4    0    0 -0.13562775541E-01 -0.15131116226E-01 -0.36715641724E-02  0.20655291407E-01  0.51100000000E-03 0.  1.
         11    1    4    4    0    0 -0.90763535309E-01 -0.53444693366E-01  0.56505269887E-02  0.10548243535E+00  0.51100000000E-03 0. -1.
</event>
<event>
 8    1  0.1161271E+005  0.1043930E+01  0.7957747E-01            NaN
         13   -1    0    0    0    0  0.00000000000E+00  0.00000000000E+00  0.74505805969E-08  0.10566000000E+00  0.10566000000E+00 0. -1.
     999900   -1    0    0    0    0 -0.00000000000E+00 -0.00000000000E+00 -0.74505805969E-08  0.93827000000E+00  0.93827000000E+00 0. -1.
     999902    2    1    2    0    0  0.48463906725E-02  0.27722229167E-01 -0.11513581281E-01  0.10135232237E+01  0.10130670032E+01 0.  0.
     999903    2    3    3    0    0 -0.36435540520E-01 -0.72129632321E-01  0.88191510170E-01  0.12132610569E+00  0.20298989713E-01 0.  0.
         14    1    1    2    0    0 -0.48463906725E-02 -0.27722229167E-01  0.11513581281E-01  0.30406776325E-01  0.00000000000E+00 0. -1.
     999901    1    3    3    0    0  0.41281931192E-01  0.99851861488E-01 -0.99705091451E-01  0.89219711799E+00  0.88000000000E+00 0.  1.
        -11    1    4    4    0    0 -0.35192693596E-01 -0.73341937154E-01  0.84989096215E-01  0.11764766476E+00  0.51100000000E-03 0.  1.
         11    1    4    4    0    0 -0.12428469238E-02  0.12123048327E-02  0.32024139553E-02  0.36784409231E-02  0.51100000000E-03 0. -1.
</event>
<event>
 8    1  0.1161271E+005  0.1043930E+01  0.7957747E-01            NaN
         13   -1    0    0    0    0  0.00000000000E+00  0.00000000000E+00  0.74505805969E-08  0.10566000000E+00  0.10566000000E+00 0.  1.
     999900   -1    0    0    0    0 -0.00000000000E+00 -0.00000000000E+00 -0.74505805969E-08  0.93827000000E+00  0.93827000000E+00 0. -1.
     999902    2    1    2    0    0  0.50100958146E-02  0.51317478817E-04  0.24662338683E-01  0.10187638592E+01  0.10184529769E+01 0.  0.
     999903    2    3    3    0    0 -0.52286587882E-01  0.10658503587E+00 -0.43530506208E-01  0.12787519769E+00  0.19050041148E-01 0.  0.
         14    1    1    2    0    0 -0.50100958146E-02 -0.51317478817E-04 -0.24662338683E-01  0.25166140802E-01  0.00000000000E+00 0. -1.
     999901    1    3    3    0    0  0.57296683697E-01 -0.10653371839E+00  0.68192844891E-01  0.89088866151E+00  0.88000000000E+00 0.  1.
        -11    1    4    4    0    0 -0.91992790384E-02  0.21459687746E-01 -0.16871177121E-01  0.28810461146E-01  0.51100000000E-03 0.  1.
         11    1    4    4    0    0 -0.43087308844E-01  0.85125348128E-01 -0.26659329087E-01  0.99064736540E-01  0.51100000000E-03 0. -1.
</event>
<event>
 8    1  0.1161271E+005  0.1043930E+01  0.7957747E-01            NaN
         13   -1    0    0    0    0  0.00000000000E+00  0.00000000000E+00  0.74505805969E-08  0.10566000000E+00  0.10566000000E+00 0.  1.
     999900   -1    0    0    0    0 -0.00000000000E+00 -0.00000000000E+00 -0.74505805969E-08  0.93827000000E+00  0.93827000000E+00 0.  1.
     999902    2    1    2    0    0  0.18243837014E-01  0.89638995964E-02  0.50069306102E-02  0.10229953770E+01  0.10227811511E+01 0.  0.
     999903    2    3    3    0    0  0.61783326312E-01  0.10662808911E+00  0.51963808820E-01  0.13527980915E+00  0.20338646409E-01 0.  0.
         14    1    1    2    0    0 -0.18243837014E-01 -0.89638995964E-02 -0.50069306102E-02  0.20934622975E-01  0.00000000000E+00 0. -1.
     999901    1    3    3    0    0 -0.43539489298E-01 -0.97664189516E-01 -0.46956878209E-01  0.88771556788E+00  0.88000000000E+00 0. -1.
        -11    1    4    4    0    0  0.43078039265E-01  0.54550911312E-01  0.26961828550E-01  0.74556828739E-01  0.51100000000E-03 0. -1.
         11    1    4    4    0    0  0.18705287047E-01  0.52077177801E-01  0.25001980269E-01  0.60722980408E-01  0.51100000000E-03 0.  1.
</event>
<event>
 7    1  0.1161271E+005  0.1043930E+01  0.7957747E-01            NaN
         13   -1    0    0    0    0  0.00000000000E+00  0.00000000000E+00  0.74505805969E-08  0.10566000000E+00  0.10566000000E+00 0.  1.
     999900   -1    0    0    0    0 -0.00000000000E+00 -0.00000000000E+00 -0.74505805969E-08  0.93827000000E+00  0.93827000000E+00 0. -1.
     999902    2    1    2    0    0  0.11848542059E-01 -0.19022759897E-01 -0.15804668886E-01  0.10165066358E+01  0.10161366541E+01 0.  0.
         14    1    1    2    0    0 -0.11848542059E-01  0.19022759897E-01  0.15804668886E-01  0.27423364156E-01  0.00000000000E+00 0. -1.
     999901    1    3    3    0    0 -0.90969289023E-01  0.27487692170E-01 -0.58747564230E-01  0.88706384272E+00  0.88000000000E+00 0.  1.
        -11    1    3    3    0    0  0.59505093353E-01 -0.46377622514E-02  0.92049591960E-02  0.60393355333E-01  0.51100000000E-03 0.  1.
         11    1    3    3    0    0  0.43312737729E-01 -0.41872689816E-01  0.33737936148E-01  0.69049437786E-01  0.51100000000E-03 0. -1.
</event>
<event>
 8    1  0.1161271E+005  0.1043930E+01  0.7957747E-01            NaN
         13   -1    0    0    0    0  0.00000000000E+00  0.00000000000E+00  0.74505805969E-08  0.10566000000E+00  0.10566000000E+00 0. -1.
     999900   -1    0    0    0    0 -0.00000000000E+00 -0.00000000000E+00 -0.74505805969E-08  0.93827000000E+00  0.93827000000E+00 0.  1.
     999902    2    1    2    0    0 -0.17350697419E-01 -0.76903115829E-03 -0.16487826419E-01  0.10199824212E+01  0.10197012568E+01 0.  0.
     999903    2    3    3    0    0  0.99177533100E-01 -0.79390284511E-01 -0.34109532864E-02  0.12872985622E+00  0.20511970511E-01 0.  0.
         14    1    1    2    0    0  0.17350697419E-01  0.76903115829E-03  0.16487826419E-01  0.23947578790E-01  0.00000000000E+00 0. -1.
     999901    1    3    3    0    0 -0.11652823052E+00  0.78621253353E-01 -0.13076873133E-01  0.89125256499E+00  0.88000000000E+00 0.  1.
        -11    1    4    4    0    0  0.45185309450E-01 -0.23449749853E-01 -0.26205456645E-02  0.50977753372E-01  0.51100000000E-03 0. -1.
         11    1    4    4    0    0  0.53992223650E-01 -0.55940534658E-01 -0.79040762183E-03  0.77752102851E-01  0.51100000000E-03 0.  1.
</event>
<event>
 8    1  0.1161271E+005  0.1043930E+01  0.7957747E-01            NaN
         13   -1    0    0    0    0  0.00000000000E+00  0.00000000000E+00  0.74505805969E-08  0.10566000000E+00  0.10566000000E+00 0.  1.
     999900   -1    0    0    0    0 -0.00000000000E+00 -0.00000000000E+00 -0.74505805969E-08  0.93827000000E+00  0.93827000000E+00 0.  1.
     999902    2    1    2    0    0  0.10797378065E-01 -0.83476718000E-03 -0.19090131276E-01  0.10219820315E+01  0.10217463283E+01 0.  0.
     999903    2    3    3    0    0  0.10239692628E+00 -0.68728774770E-01  0.44018287278E-01  0.13238507445E+00  0.19478791768E-01 0.  0.
         14    1    1    2    0    0 -0.10797378065E-01  0.83476718000E-03  0.19090131276E-01  0.21947968504E-01  0.00000000000E+00 0.  1.
     999901    1    3    3    0    0 -0.91599548214E-01  0.67894007590E-01 -0.63108418553E-01  0.88959695705E+00  0.88000000000E+00 0.  1.
        -11    1    4    4    0    0  0.99864015659E-01 -0.63020321914E-01  0.39011955488E-01  0.12436469109E+00  0.51100000000E-03 0.  1.
         11    1    4    4    0    0  0.25329106195E-02 -0.57084528562E-02  0.50063317897E-02  0.80203833578E-02  0.51100000000E-03 0. -1.
</event>
<event>
 8    1  0.1161271E+005  0.1043930E+01  0.7957747E-01            NaN
         13   -1    0    0    0    0  0.00000000000E+00  0.00000000000E+00  0.74505805969E-08  0.10566000000E+00  0.10566000000E+00 0.  1.
     999900   -1    0    0    0    0 -0.00000000000E+00 -0.00000000000E+00 -0.74505805969E-08  0.93827000000E+00  0.93827000000E+00 0.  1.
     999902    2    1    2    0    0 -0.15001266262E-01 -0.16329345242E-01  0.88356241840E-02  0.10200604847E+01  0.10197811720E+01 0.  0.
     999903    2    3    3    0    0 -0.10421674521E+00  0.66949095922E-01  0.38352590863E-01  0.13114769272E+00  0.19633763033E-01 0.  0.
         14    1    1    2    0    0  0.15001266262E-01  0.16329345242E-01 -0.88356241840E-02  0.23869515291E-01  0.00000000000E+00 0.  1.
     999901    1    3    3    0    0  0.89215478953E-01 -0.83278441164E-01 -0.29516966679E-01  0.88891279199E+00  0.88000000000E+00 0. -1.
        -11    1    4    4    0    0 -0.69555453205E-01  0.53624859627E-01  0.21832122720E-01  0.90501322333E-01  0.51100000000E-03 0.  1.
         11    1    4    4    0    0 -0.34661292010E-01  0.13324236295E-01  0.16520468143E-01  0.40646370383E-01  0.51100000000E-03 0. -1.
</event>
<event>
 8    1  0.1161271E+005  0.1043930E+01  0.7957747E-01            NaN
         13   -1    0    0    0    0  0.00000000000E+00  0.00000000000E+00  0.74505805969E-08  0.10566000000E+00  0.10566000000E+00 0. -1.
     999900   -1    0    0    0    0 -0.00000000000E+00 -0.00000000000E+00 -0.74505805969E-08  0.93827000000E+00  0.93827000000E+00 0.  1.
     999902    2    1    2    0    0 -0.22035489441E-01  0.25103761678E-02 -0.98914442245E-02  0.10196461483E+01  0.10193569357E+01 0.  0.
     999903    2    3    3    0    0 -0.11609311041E+00 -0.49260969938E-01  0.33830834972E-01  0.13204333961E+00  0.19663791518E-01 0.  0.
         14    1    1    2    0    0  0.22035489441E-01 -0.25103761678E-02  0.98914442245E-02  0.24283851677E-01  0.00000000000E+00 0. -1.
     999901    1    3    3    0    0  0.94057620966E-01  0.51771346106E-01 -0.43722279197E-01  0.88760280871E+00  0.88000000000E+00 0.  1.
        -11    1    4    4    0    0 -0.94876276523E-01 -0.39585380681E-01  0.19409946080E-01  0.10462082650E+00  0.51100000000E-03 0.  1.
         11    1    4    4    0    0 -0.21216833885E-01 -0.96755892574E-02  0.14420888893E-01  0.27422513105E-01  0.51100000000E-03 0. -1.
</event>
<event>
 8    1  0.1161271E+005  0.1043930E+01  0.7957747E-01            NaN
         13   -1    0    0    0    0  0.00000000000E+00  0.00000000000E+00  0.74505805969E-08  0.10566000000E+00  0.10566000000E+00 0.  1.
     999900   -1    0    0    0    0 -0.00000000000E+00 -0.00000000000E+00 -0.74505805969E-08  0.93827000000E+00  0.93827000000E+00 0. -1.
     999902    2    1    2    0    0 -0.21094906192E-01 -0.42875798482E-02 -0.98880686221E-02  0.10202413464E+01  0.10199662997E+01 0.  0.
     999903    2    3    3    0    0  0.67946279924E-01  0.98020996040E-01  0.42911841318E-01  0.12828663454E+00  0.19779329000E-01 0.  0.
         14    1    1    2    0    0  0.21094906192E-01  0.42875798482E-02  0.98880686221E-02  0.23688653598E-01  0.00000000000E+00 0. -1.
     999901    1    3    3    0    0 -0.89041186116E-01 -0.10230857589E+00 -0.52799909940E-01  0.89195471186E+00  0.88000000000E+00 0. -1.
        -11    1    4    4    0    0  0.39109400281E-01  0.71267711033E-01  0.32848561552E-01  0.87680790046E-01  0.51100000000E-03 0. -1.
         11    1    4    4    0    0  0.28836879643E-01  0.26753285008E-01  0.10063279766E-01  0.40605844492E-01  0.51100000000E-03 0.  1.
</event>
<event>
 8    1  0.1161271E+005  0.1043930E+01  0.7957747E-01            NaN
         13   -1    0    0    0    0  0.00000000000E+00  0.00000000000E+00  0.74505805969E-08  0.10566000000E+00  0.10566000000E+00 0.  1.
     999900   -1    0    0    0    0 -0.00000000000E+00 -0.00000000000E+00 -0.74505805969E-08  0.93827000000E+00  0.93827000000E+00 0.  1.
     999902    2    1    2    0    0 -0.78267811710E-02  0.33590240543E-02  0.23202720432E-01  0.10192134513E+01  0.10189137115E+01 0.  0.
     999903    2    3    3    0    0 -0.56430630402E-01 -0.43079411141E-01 -0.10413469245E+00  0.12751076587E+00  0.19357415335E-01 0.  0.
         14    1    1    2    0    0  0.78267811710E-02 -0.33590240543E-02 -0.23202720432E-01  0.24716548739E-01  0.00000000000E+00 0. -1.
     999901    1    3    3    0    0  0.48603849231E-01  0.46438435195E-01  0.12733741288E+00  0.89170268540E+00  0.88000000000E+00 0. -1.
        -11    1    4    4    0    0 -0.42159417935E-01 -0.37419863336E-01 -0.68553101088E-01  0.88755008211E-01  0.51100000000E-03 0. -1.
         11    1    4    4    0    0 -0.14271212467E-01 -0.56595478044E-02 -0.35581591361E-01  0.38755757654E-01  0.51100000000E-03 0.  1.
</event>
<event>
 8    1  0.1161271E+005  0.1043930E+01  0.7957747E-01            NaN
         13   -1    0    0    0    0  0.00000000000E+00  0.00000000000E+00  0.74505805969E-08  0.10566000000E+00  0.10566000000E+00 0.  1.
     999900   -1    0    0    0    0 -0.00000000000E+00 -0.00000000000E+00 -0.74505805969E-08  0.93827000000E+00  0.93827000000E+00 0. -1.
     999902    2    1    2    0    0  0.11666400233E-01 -0.16393795462E-01  0.12381703768E-01  0.10203044204E+01  0.10200308536E+01 0.  0.
     999903    2    3    3    0    0 -0.59180216290E-01 -0.15037127361E-02  0.11479618930E+00  0.13141202842E+00  0.24215635137E-01 0.  0.
         14    1    1    2    0    0 -0.11666400233E-01  0.16393795462E-01 -0.12381703768E-01  0.23625579617E-01  0.00000000000E+00 0. -1.
     999901    1    3    3    0    0  0.70846616523E-01 -0.14890082726E-01 -0.10241448553E+00  0.88889239196E+00  0.88000000000E+00 0. -1.
        -11    1    4    4    0    0 -0.37441952982E-01  0.10806322150E-01  0.69884352234E-01  0.80017249701E-01  0.51100000000E-03 0. -1.
         11    1    4    4    0    0 -0.21738263309E-01 -0.12310034887E-01  0.44911837063E-01  0.51394778723E-01  0.51100000000E-03 0.  1.
</event>
<event>
 8    1  0.2244601E+005  0.1043930E+01  0.7957747E-01            NaN
         13   -1    0    0    0    0  0.00000000000E+00  0.00000000000E+00  0.74505805969E-08  0.10566000000E+00  0.10566000000E+00 0.  1.
     999900   -1    0    0    0    0 -0.00000000000E+00 -0.00000000000E+00 -0.74505805969E-08  0.93827000000E+00  0.93827000000E+00 0.  1.
     999902    2    1    2    0    0  0.94497298644E-02  0.78958795358E-02  0.23576863337E-01  0.10173309250E+01  0.10169831366E+01 0.  0.
     999903    2    3    3    0    0  0.43733851706E-01  0.35422810583E-02 -0.11604047624E+00  0.12565421430E+00  0.19959757090E-01 0.  0.
         14    1    1    2    0    0 -0.94497298644E-02 -0.78958795358E-02 -0.23576863337E-01  0.26599075040E-01  0.00000000000E+00 0. -1.
     999901    1    3    3    0    0 -0.34284121841E-01  0.43535984774E-02  0.13961733958E+00  0.89167671066E+00  0.88000000000E+00 0. -1.
        -11    1    4    4    0    0  0.21653209452E-01  0.11737823513E-01 -0.58022632312E-01  0.63035902165E-01  0.51100000000E-03 0.  1.
         11    1    4    4    0    0  0.22080642253E-01 -0.81955424549E-02 -0.58017843933E-01  0.62618312130E-01  0.51100000000E-03 0. -1.
</event>
<event>
 8    1  0.1161271E+005  0.1043930E+01  0.7957747E-01            NaN
         13   -1    0    0    0    0  0.00000000000E+00  0.00000000000E+00  0.74505805969E-08  0.10566000000E+00  0.10566000000E+00 0. -1.
     999900   -1    0    0    0    0 -0.00000000000E+00 -0.00000000000E+00 -0.74505805969E-08  0.93827000000E+00  0.93827000000E+00 0. -1.
     999902    2    1    2    0    0  0.94003503758E-02 -0.32796557205E-02  0.20527868240E-01  0.10211151780E+01  0.10208602699E+01 0.  0.
     999903    2    3    3    0    0  0.48312470501E-01 -0.50589249369E-01  0.11189725284E+00  0.13426642246E+00  0.24761059133E-01 0.  0.
         14    1    1    2    0    0 -0.94003503758E-02  0.32796557205E-02 -0.20527868240E-01  0.22814822009E-01  0.00000000000E+00 0.  1.
     999901    1    3    3    0    0 -0.38912120125E-01  0.47309593649E-01 -0.91369384600E-01  0.88684875553E+00  0.88000000000E+00 0. -1.
        -11    1    4    4    0    0 -0.42836641091E-03 -0.70239819585E-02  0.22055479698E-01  0.23156535278E-01  0.51100000000E-03 0. -1.
         11    1    4    4    0    0  0.48740836912E-01 -0.43565267411E-01  0.89841773142E-01  0.11110988718E+00  0.51100000000E-03 0.  1.
</event>
<event>
 8    1  0.1161271E+005  0.1043930E+01  0.7957747E-01            NaN
         13   -1    0    0    0    0  0.00000000000E+00  0.00000000000E+00  0.74505805969E-08  0.10566000000E+00  0.10566000000E+00 0. -1.
     999900   -1    0    0    0    0 -0.00000000000E+00 -0.00000000000E+00 -0.74505805969E-08  0.93827000000E+00  0.93827000000E+00 0.  1.
     999902    2    1    2    0    0  0.80315037807E-02 -0.20297337143E-01 -0.12852896196E-01  0.10185985198E+01  0.10182834874E+01 0.  0.
     999903    2    3    3    0    0 -0.17817931012E-01 -0.12829674633E+00  0.16500218534E-01  0.13113377628E+00  0.12094473360E-01 0.  0.
         14    1    1    2    0    0 -0.80315037807E-02  0.20297337143E-01  0.12852896196E-01  0.25331480192E-01  0.00000000000E+00 0. -1.
     999901    1    3    3    0    0  0.25849434793E-01  0.10799940918E+00 -0.29353114729E-01  0.88746474353E+00  0.88000000000E+00 0. -1.
        -11    1    4    4    0    0 -0.12761336319E-02 -0.18603829853E-01  0.64793177499E-02  0.19747751308E-01  0.51100000000E-03 0. -1.
         11    1    4    4    0    0 -0.16541797380E-01 -0.10969291647E+00  0.10020900784E-01  0.11138602497E+00  0.51100000000E-03 0.  1.
</event>
<event>
 8    1  0.1161271E+005  0.1043930E+01  0.7957747E-01            NaN
         13   -1    0    0    0    0  0.00000000000E+00  0.00000000000E+00  0.74505805969E-08  0.10566000000E+00  0.10566000000E+00 0. -1.
     999900   -1    0    0    0    0 -0.00000000000E+00 -0.00000000000E+00 -0.74505805969E-08  0.93827000000E+00  0.93827000000E+00 0. -1.
     999902    2    1    2    0    0 -0.16309131151E-01  0.17090640238E-01  0.31199775551E-02  0.10201011938E+01  0.10198228443E+01 0.  0.
     999903    2    3    3    0    0  0.99106813322E-02 -0.11967236584E+00 -0.40004325219E-01  0.12810831053E+00  0.19791322345E-01 0.  0.
         14    1    1    2    0    0  0.16309131151E-01 -0.17090640238E-01 -0.31199775551E-02  0.23828806152E-01  0.00000000000E+00 0.  1.
     999901    1    3    3    0    0 -0.26219812483E-01  0.13676300608E+00  0.43124302775E-01  0.89199288332E+00  0.88000000000E+00 0.  1.
        -11    1    4    4    0    0 -0.51272835682E-02 -0.16694965294E-01 -0.34869966029E-02  0.17816598140E-01  0.51100000000E-03 0.  1.
         11    1    4    4    0    0  0.15037964900E-01 -0.10297740055E+00 -0.36517328617E-01  0.11029171239E+00  0.51100000000E-03 0. -1.
</event>
<event>
 8    1  0.1161271E+005  0.1043930E+01  0.7957747E-01            NaN
         13   -1    0    0    0    0  0.00000000000E+00  0.00000000000E+00  0.74505805969E-08  0.10566000000E+00  0.10566000000E+00 0. -1.
     999900   -1    0    0    0    0 -0.00000000000E+00 -0.00000000000E+00 -0.74505805969E-08  0.93827000000E+00  0.93827000000E+00 0. -1.
     999902    2    1    2    0    0  0.12214061771E-01  0.19450334597E-01  0.48049668814E-02  0.10204654197E+01  0.10201956118E+01 0.  0.
     999903    2    3    3    0    0  0.76949007807E-01  0.98624441160E-01 -0.42510355902E-01  0.13328004329E+00  0.17564435189E-01 0.  0.
         14    1    1    2    0    0 -0.12214061771E-01 -0.19450334597E-01 -0.48049668814E-02  0.23464580277E-01  0.00000000000E+00 0.  1.
     999901    1    3    3    0    0 -0.64734946036E-01 -0.79174106564E-01  0.47315322784E-01  0.88718537643E+00  0.88000000000E+00 0.  1.
        -11    1    4    4    0    0  0.74164908523E-01  0.87102617582E-01 -0.37368743771E-01  0.12034942367E+00  0.51100000000E-03 0. -1.
         11    1    4    4    0    0  0.27840992831E-02  0.11521823578E-01 -0.51416121318E-02  0.12930619618E-01  0.51100000000E-03 0.  1.
</event>
<event>
 8    1  0.1161271E+005  0.1043930E+01  0.7957747E-01            NaN
         13   -1    0    0    0    0  0.00000000000E+00  0.00000000000E+00  0.74505805969E-08  0.10566000000E+00  0.10566000000E+00 0.  1.
     999900   -1    0    0    0    0 -0.00000000000E+00 -0.00000000000E+00 -0.74505805969E-08  0.93827000000E+00  0.93827000000E+00 0. -1.
     999902    2    1    2    0    0  0.11178078256E-02  0.22068407492E-01  0.59427554672E-02  0.10210481197E+01  0.10207916939E+01 0.  0.
     999903    2    3    3    0    0  0.79352867749E-01  0.31817193059E-01  0.99329389523E-01  0.13260182034E+00  0.20191675038E-01 0.  0.
         14    1    1    2    0    0 -0.11178078256E-02 -0.22068407492E-01 -0.59427554672E-02  0.22881880301E-01  0.00000000000E+00 0. -1.
     999901    1    3    3    0    0 -0.78235059923E-01 -0.97487855666E-02 -0.93386634056E-01  0.88844629936E+00  0.88000000000E+00 0. -1.
        -11    1    4    4    0    0  0.40508619463E-01  0.54163399955E-02  0.46854804231E-01  0.62176513172E-01  0.51100000000E-03 0. -1.
         11    1    4    4    0    0  0.38844248286E-01  0.26400853063E-01  0.52474585292E-01  0.70425307170E-01  0.51100000000E-03 0.  1.
</event>
<event>
 8    1  0.1161271E+005  0.1043930E+01  0.7957747E-01            NaN
         13   -1    0    0    0    0  0.00000000000E+00  0.00000000000E+00  0.74505805969E-08  0.10566000000E+00  0.10566000000E+00 0. -1.
     999900   -1    0    0    0    0 -0.00000000000E+00 -0.00000000000E+00 -0.74505805969E-08  0.93827000000E+00  0.93827000000E+00 0.  1.
     999902    2    1    2    0    0 -0.12664686189E-01 -0.19446014282E-01 -0.51062253956E-02  0.10201683653E+01  0.10198916012E+01 0.  0.
     999903    2    3    3    0    0 -0.10642348950E+00 -0.39673795812E-01  0.64517672747E-01  0.13222277935E+00  0.20502782534E-01 0.  0.
         14    1    1    2    0    0  0.12664686189E-01  0.19446014282E-01  0.51062253956E-02  0.23761634740E-01  0.00000000000E+00 0. -1.
     999901    1    3    3    0    0  0.93758803308E-01  0.20227781530E-01 -0.69623898142E-01  0.88794558591E+00  0.88000000000E+00 0.  1.
        -11    1    4    4    0    0 -0.96674329076E-01 -0.41043045254E-01  0.55162487333E-01  0.11863228311E+00  0.51100000000E-03 0. -1.
         11    1    4    4    0    0 -0.97491604216E-02  0.13692494420E-02  0.93551854138E-02  0.13590496241E-01  0.51100000000E-03 0.  1.
</event>
<event>
 8    1  0.1161271E+005  0.1043930E+01  0.7957747E-01            NaN
         13   -1    0    0    0    0  0.00000000000E+00  0.00000000000E+00  0.74505805969E-08  0.10566000000E+00  0.10566000000E+00 0. -1.
     999900   -1    0    0    0    0 -0.00000000000E+00 -0.00000000000E+00 -0.74505805969E-08  0.93827000000E+00  0.93827000000E+00 0. -1.
     999902    2    1    2    0    0 -0.99681536100E-02  0.92438724351E-02 -0.19679229052E-01  0.10200116949E+01  0.10197312255E+01 0.  0.
     999903    2    3    3    0    0 -0.52918043667E-01  0.97560524538E-01 -0.70217510072E-01  0.13310773055E+00  0.21651649281E-01 0.  0.
         14    1    1    2    0    0  0.99681536100E-02 -0.92438724351E-02  0.19679229052E-01  0.23918305125E-01  0.00000000000E+00 0. -1.
     999901    1    3    3    0    0  0.42949890057E-01 -0.88316652103E-01  0.50538281020E-01  0.88690396433E+00  0.88000000000E+00 0. -1.
        -11    1    4    4    0    0 -0.47316123577E-03  0.12114038997E-01 -0.33225767700E-02  0.12580717777E-01  0.51100000000E-03 0. -1.
         11    1    4    4    0    0 -0.52444882432E-01  0.85446485541E-01 -0.66894933302E-01  0.12052701277E+00  0.51100000000E-03 0.  1.
</event>
<event>
 8    1  0.1161271E+005  0.1043930E+01  0.7957747E-01            NaN
         13   -1    0    0    0    0  0.00000000000E+00  0.00000000000E+00  0.74505805969E-08  0.10566000000E+00  0.10566000000E+00 0. -1.
     999900   -1    0    0    0    0 -0.00000000000E+00 -0.00000000000E+00 -0.74505805969E-08  0.93827000000E+00  0.93827000000E+00 0.  1.
     999902    2    1    2    0    0  0.21407126748E-01 -0.50606796317E-02 -0.81133513771E-02  0.10204842749E+01  0.10202149055E+01 0.  0.
     999903    2    3    3    0    0 -0.59690901293E-01  0.10233624704E+00  0.47633448080E-01  0.12850967009E+00  0.14494094490E-01 0.  0.
         14    1    1    2    0    0 -0.21407126748E-01  0.50606796317E-02  0.81133513771E-02  0.23445725079E-01  0.00000000000E+00 0.  1.
     999901    1    3    3    0    0  0.81098028041E-01 -0.10739692667E+00 -0.55746799457E-01  0.89197460483E+00  0.88000000000E+00 0.  1.
        -11    1    4    4    0    0 -0.20336216450E-01  0.22640653715E-01  0.13496902778E-01  0.33295471249E-01  0.51100000000E-03 0.  1.
         11    1    4    4    0    0 -0.39354684844E-01  0.79695593327E-01  0.34136545303E-01  0.95214198842E-01  0.51100000000E-03 0. -1.
</event>
<event>
 8    1  0.1161271E+005  0.1043930E+01  0.7957747E-01            NaN
         13   -1    0    0    0    0  0.00000000000E+00  0.00000000000E+00  0.74505805969E-08  0.10566000000E+00  0.10566000000E+00 0.  1.
     999900   -1    0    0    0    0 -0.00000000000E+00 -0.00000000000E+00 -0.74505805969E-08  0.93827000000E+00  0.93827000000E+00 0. -1.
     999902    2    1    2    0    0  0.22617271428E-02 -0.18719372484E-01 -0.13447488698E-01  0.10207704389E+01  0.10205076794E+01 0.  0.
     999903    2    3    3    0    0  0.72186560358E-01 -0.10594762446E+00  0.26418620227E-01  0.13280222055E+00  0.22420697216E-01 0.  0.
         14    1    1    2    0    0 -0.22617271428E-02  0.18719372484E-01  0.13447488698E-01  0.23159561052E-01  0.00000000000E+00 0.  1.
     999901    1    3    3    0    0 -0.69924833215E-01  0.87228251975E-01 -0.39866108924E-01  0.88796821840E+00  0.88000000000E+00 0. -1.
        -11    1    4    4    0    0  0.56766183253E-01 -0.64614373021E-01  0.16381154671E-01  0.87555811408E-01  0.51100000000E-03 0. -1.
         11    1    4    4    0    0  0.15420377105E-01 -0.41333251438E-01  0.10037465555E-01  0.45246409142E-01  0.51100000000E-03 0.  1.
</event>
<event>
 8    1  0.1161271E+005  0.1043930E+01  0.7957747E-01            NaN
         13   -1    0    0    0    0  0.00000000000E+00  0.00000000000E+00  0.74505805969E-08  0.10566000000E+00  0.10566000000E+00 0. -1.
     999900   -1    0    0    0    0 -0.00000000000E+00 -0.00000000000E+00 -0.74505805969E-08  0.93827000000E+00  0.93827000000E+00 0. -1.
     999902    2    1    2    0    0  0.14713962096E-01 -0.93092298483E-02 -0.16708841525E-01  0.10197981160E+01  0.10195125549E+01 0.  0.
     999903    2    3    3    0    0 -0.10474484616E+00 -0.61370062767E-01  0.37673362459E-01  0.12854160897E+00  0.19128397614E-01 0.  0.
         14    1    1    2    0    0 -0.14713962096E-01  0.93092298483E-02  0.16708841525E-01  0.24131884013E-01  0.00000000000E+00 0. -1.
     999901    1    3    3    0    0  0.11945880826E+00  0.52060832919E-01 -0.54382203983E-01  0.89125650702E+00  0.88000000000E+00 0.  1.
        -11    1    4    4    0    0 -0.62997276420E-01 -0.40053800215E-01  0.32353334346E-01  0.81363155743E-01  0.51100000000E-03 0.  1.
         11    1    4    4    0    0 -0.41747569742E-01 -0.21316262552E-01  0.53200281124E-02  0.47178453225E-01  0.51100000000E-03 0. -1.
</event>
<event>
 8    1  0.1161271E+005  0.1043930E+01  0.7957747E-01            NaN
         13   -1    0    0    0    0  0.00000000000E+00  0.00000000000E+00  0.74505805969E-08  0.10566000000E+00  0.10566000000E+00 0. -1.
     999900   -1    0    0    0    0 -0.00000000000E+00 -0.00000000000E+00 -0.74505805969E-08  0.93827000000E+00  0.93827000000E+00 0.  1.
     999902    2    1    2    0    0 -0.65592704411E-02  0.84755095176E-02  0.19864392453E-01  0.10213589482E+01  0.10211095185E+01 0.  0.
     999903    2    3    3    0    0 -0.42594386010E-01 -0.22315891996E-01  0.12347784476E+00  0.13401325040E+00  0.20012305740E-01 0.  0.
         14    1    1    2    0    0  0.65592704411E-02 -0.84755095176E-02 -0.19864392453E-01  0.22571051766E-01  0.00000000000E+00 0.  1.
     999901    1    3    3    0    0  0.36035115569E-01  0.30791401514E-01 -0.10361345231E+00  0.88734569783E+00  0.88000000000E+00 0.  1.
        -11    1    4    4    0    0 -0.31289977355E-01 -0.23055150585E-01  0.78075010977E-01  0.87215658637E-01  0.51100000000E-03 0.  1.
         11    1    4    4    0    0 -0.11304408655E-01  0.73925858883E-03  0.45402833785E-01  0.46797591765E-01  0.51100000000E-03 0. -1.
</event>
<event>
 8    1  0.1161271E+005  0.1043930E+01  0.7957747E-01            NaN
         13   -1    0    0    0    0  0.00000000000E+00  0.00000000000E+00  0.74505805969E-08  0.10566000000E+00  0.10566000000E+00 0.  1.
     999900   -1    0    0    0    0 -0.00000000000E+00 -0.00000000000E+00 -0.74505805969E-08  0.93827000000E+00  0.93827000000E+00 0. -1.
     999902    2    1    2    0    0 -0.21694236953E-01 -0.19804950826E-02 -0.97583270223E-02  0.10200597837E+01  0.10197804544E+01 0.  0.
     999903    2    3    3    0    0 -0.70473216214E-01  0.85602641991E-01 -0.69353837384E-01  0.13236511801E+00  0.20403019064E-01 0.  0.
         14    1    1    2    0    0  0.21694236953E-01  0.19804950826E-02  0.97583270223E-02  0.23870216254E-01  0.00000000000E+00 0.  1.
     999901    1    3    3    0    0  0.48778979261E-01 -0.87583137074E-01  0.59595510361E-01  0.88769466573E+00  0.88000000000E+00 0. -1.
        -11    1    4    4    0    0 -0.40766421220E-01  0.63981884453E-01 -0.43731883106E-01  0.87568952022E-01  0.51100000000E-03 0. -1.
         11    1    4    4    0    0 -0.29706794994E-01  0.21620757538E-01 -0.25621954278E-01  0.44796165990E-01  0.51100000000E-03 0.  1.
</event>
<event>
 8    1  0.1161271E+005  0.1043930E+01  0.7957747E-01            NaN
         13   -1    0    0    0    0  0.00000000000E+00  0.00000000000E+00  0.74505805969E-08  0.10566000000E+00  0.10566000000E+00 0.  1.
     999900   -1    0    0    0    0 -0.00000000000E+00 -0.00000000000E+00 -0.74505805969E-08  0.93827000000E+00  0.93827000000E+00 0.  1.
     999902    2    1    2    0    0 -0.19979232195E-01 -0.36602327814E-02 -0.13839453214E-01  0.10193516053E+01  0.10190552476E+01 0.  0.
     999903    2    3    3    0    0  0.80948335215E-01  0.90559754324E-01  0.32494720763E-01  0.12738151858E+00  0.20406918484E-01 0.  0.
         14    1    1    2    0    0  0.19979232195E-01  0.36602327814E-02  0.13839453214E-01  0.24578394747E-01  0.00000000000E+00 0.  1.
     999901    1    3    3    0    0 -0.10092756741E+00 -0.94219987106E-01 -0.46334173977E-01  0.89197008667E+00  0.88000000000E+00 0.  1.
        -11    1    4    4    0    0  0.33667820505E-01  0.23381828348E-01  0.96450884852E-02  0.42113191370E-01  0.51100000000E-03 0. -1.
         11    1    4    4    0    0  0.47280514710E-01  0.67177925977E-01  0.22849632278E-01  0.85268327215E-01  0.51100000000E-03 0.  1.
</event>
<event>
 8    1  0.1161271E+005  0.1043930E+01  0.7957747E-01            NaN
         13   -1    0    0    0    0  0.00000000000E+00  0.00000000000E+00  0.74505805969E-08  0.10566000000E+00  0.10566000000E+00 0.  1.
     999900   -1    0    0    0    0 -0.00000000000E+00 -0.00000000000E+00 -0.74505805969E-08  0.93827000000E+00  0.93827000000E+00 0. -1.
     999902    2    1    2    0    0 -0.17478978729E-01  0.15592160172E-01  0.29763547016E-02  0.10203187983E+01  0.10200455683E+01 0.  0.
     999903    2    3    3    0    0  0.10544434904E+00 -0.66252844160E-01  0.21132113846E-01  0.12782880914E+00  0.19638943617E-01 0.  0.
         14    1    1    2    0    0  0.17478978729E-01 -0.15592160172E-01 -0.29763547016E-02  0.23611201654E-01  0.00000000000E+00 0.  1.
     999901    1    3    3    0    0 -0.12292332777E+00  0.81845004331E-01 -0.18155759144E-01  0.89248998921E+00  0.88000000000E+00 0.  1.
        -11    1    4    4    0    0  0.35069927955E-01 -0.21477912444E-01 -0.22879530480E-02  0.41190974980E-01  0.51100000000E-03 0.  1.
         11    1    4    4    0    0  0.70374421087E-01 -0.44774931716E-01  0.23420066894E-01  0.86637834159E-01  0.51100000000E-03 0. -1.
</event>
<event>
 8    1  0.1161271E+005  0.1043930E+01  0.7957747E-01            NaN
         13   -1    0    0    0    0  0.00000000000E+00  0.00000000000E+00  0.74505805969E-08  0.10566000000E+00  0.10566000000E+00 0. -1.
     999900   -1    0    0    0    0 -0.00000000000E+00 -0.00000000000E+00 -0.74505805969E-08  0.93827000000E+00  0.93827000000E+00 0.  1.
     999902    2    1    2    0    0 -0.90548777944E-02  0.89305244109E-02  0.20834557311E-01  0.10195204966E+01  0.10192282468E+01 0.  0.
     999903    2    3    3    0    0  0.26526388029E-01 -0.91559569470E-01 -0.81449462536E-01  0.12720535823E+00  0.21456565215E-01 0.  0.
         14    1    1    2    0    0  0.90548777944E-02 -0.89305244109E-02 -0.20834557311E-01  0.24409503405E-01  0.00000000000E+00 0.  1.
     999901    1    3    3    0    0 -0.35581265824E-01  0.10049009388E+00  0.10228401985E+00  0.89231513837E+00  0.88000000000E+00 0. -1.
        -11    1    4    4    0    0  0.76320158451E-02 -0.56834786178E-01 -0.56204102902E-01  0.80296966878E-01  0.51100000000E-03 0.  1.
         11    1    4    4    0    0  0.18894372184E-01 -0.34724783292E-01 -0.25245359634E-01  0.46908391349E-01  0.51100000000E-03 0. -1.
</event>
<event>
 8    1  0.1161271E+005  0.1043930E+01  0.7957747E-01            NaN
         13   -1    0    0    0    0  0.00000000000E+00  0.00000000000E+00  0.74505805969E-08  0.10566000000E+00  0.10566000000E+00 0.  1.
     999900   -1    0    0    0    0 -0.00000000000E+00 -0.00000000000E+00 -0.74505805969E-08  0.93827000000E+00  0.93827000000E+00 0. -1.
     999902    2    1    2    0    0 -0.21107761623E-02  0.17428270530E-01 -0.17125455058E-01  0.10194048863E+01  0.10191098278E+01 0.  0.
     999903    2    3    3    0    0 -0.69439875777E-01  0.15913165594E-01 -0.10937816702E+00  0.13202330771E+00  0.19784973391E-01 0.  0.
         14    1    1    2    0    0  0.21107761623E-02 -0.17428270530E-01  0.17125455058E-01  0.24525113672E-01  0.00000000000E+00 0.  1.
     999901    1    3    3    0    0  0.67329099615E-01  0.15151049365E-02  0.92252711962E-01  0.88738157861E+00  0.88000000000E+00 0.  1.
        -11    1    4    4    0    0 -0.53499501027E-01  0.52738949232E-02 -0.70347908428E-01  0.88538691649E-01  0.51100000000E-03 0.  1.
         11    1    4    4    0    0 -0.15940374750E-01  0.10639270670E-01 -0.39030258592E-01  0.43484616065E-01  0.51100000000E-03 0. -1.
</event>
<event>
 8    1  0.1161271E+005  0.1043930E+01  0.7957747E-01            NaN
         13   -1    0    0    0    0  0.00000000000E+00  0.00000000000E+00  0.74505805969E-08  0.10566000000E+00  0.10566000000E+00 0.  1.
     999900   -1    0    0    0    0 -0.00000000000E+00 -0.00000000000E+00 -0.74505805969E-08  0.93827000000E+00  0.93827000000E+00 0. -1.
     999902    2    1    2    0    0 -0.75559096000E-02  0.22788677457E-01  0.59483978044E-03  0.10199139757E+01  0.10196311825E+01 0.  0.
     999903    2    3    3    0    0 -0.25103963813E-01 -0.54655763704E-01 -0.11225715377E+00  0.12916084033E+00  0.21526555647E-01 0.  0.
         14    1    1    2    0    0  0.75559096000E-02 -0.22788677457E-01 -0.59483978044E-03  0.24016024328E-01  0.00000000000E+00 0.  1.
     999901    1    3    3    0    0  0.17548054213E-01  0.77444441162E-01  0.11285199355E+00  0.89075313534E+00  0.88000000000E+00 0.  1.
        -11    1    4    4    0    0 -0.20974416905E-01 -0.20308595379E-01 -0.48102392503E-01  0.56271364798E-01  0.51100000000E-03 0. -1.
         11    1    4    4    0    0 -0.41295469080E-02 -0.34347168326E-01 -0.64154761263E-01  0.72889475532E-01  0.51100000000E-03 0.  1.
</event>
<event>
 8    1  0.1161271E+005  0.1043930E+01  0.7957747E-01            NaN
         13   -1    0    0    0    0  0.00000000000E+00  0.00000000000E+00  0.74505805969E-08  0.10566000000E+00  0.10566000000E+00 0.  1.
     999900   -1    0    0    0    0 -0.00000000000E+00 -0.00000000000E+00 -0.74505805969E-08  0.93827000000E+00  0.93827000000E+00 0. -1.
     999902    2    1    2    0    0 -0.81967305055E-02  0.14601945492E-01 -0.19251234365E-01  0.10184150391E+01  0.10180953682E+01 0.  0.
     999903    2    3    3    0    0 -0.17670047479E-01 -0.14992497259E-01 -0.12749153821E+00  0.13123887954E+00  0.20797731526E-01 0.  0.
         14    1    1    2    0    0  0.81967305055E-02 -0.14601945492E-01  0.19251234365E-01  0.25514960861E-01  0.00000000000E+00 0.  1.
     999901    1    3    3    0    0  0.94733169740E-02  0.29594442751E-01  0.10824030385E+00  0.88717615959E+00  0.88000000000E+00 0.  1.
        -11    1    4    4    0    0 -0.12162076362E-01 -0.20614597336E-02 -0.95466929968E-01  0.96261942408E-01  0.51100000000E-03 0. -1.
         11    1    4    4    0    0 -0.55079711179E-02 -0.12931037525E-01 -0.32024608244E-01  0.34976937137E-01  0.51100000000E-03 0.  1.
</event>
<event>
 8    1  0.1161271E+005  0.1043930E+01  0.7957747E-01            NaN
         13   -1    0    0    0    0  0.00000000000E+00  0.00000000000E+00  0.74505805969E-08  0.10566000000E+00  0.10566000000E+00 0. -1.
     999900   -1    0    0    0    0 -0.00000000000E+00 -0.00000000000E+00 -0.74505805969E-08  0.93827000000E+00  0.93827000000E+00 0. -1.
     999902    2    1    2    0    0 -0.72095806914E-02  0.18828420559E-01  0.14646815518E-01  0.10190097938E+01  0.10187050324E+01 0.  0.
     999903    2    3    3    0    0  0.77167680344E-01  0.52060771374E-01 -0.86072756171E-01  0.12863439908E+00  0.21751194590E-01 0.  0.
         14    1    1    2    0    0  0.72095806914E-02 -0.18828420559E-01 -0.14646815518E-01  0.24920206245E-01  0.00000000000E+00 0. -1.
     999901    1    3    3    0    0 -0.84377261035E-01 -0.33232350816E-01  0.10071957169E+00  0.89037539467E+00  0.88000000000E+00 0. -1.
        -11    1    4    4    0    0  0.57026401597E-01  0.32141226466E-01 -0.70883586622E-01  0.96487371668E-01  0.51100000000E-03 0.  1.
         11    1    4    4    0    0  0.20141278746E-01  0.19919544908E-01 -0.15189169549E-01  0.32147027413E-01  0.51100000000E-03 0. -1.
</event>
<event>
 8    1  0.1161271E+005  0.1043930E+01  0.7957747E-01            NaN
         13   -1    0    0    0    0  0.00000000000E+00  0.00000000000E+00  0.74505805969E-08  0.10566000000E+00  0.10566000000E+00 0. -1.
     999900   -1    0    0    0    0 -0.00000000000E+00 -0.00000000000E+00 -0.74505805969E-08  0.93827000000E+00  0.93827000000E+00 0. -1.
     999902    2    1    2    0    0  0.12815915597E-01  0.18334640936E-01 -0.44331602649E-02  0.10211251834E+01  0.10208705013E+01 0.  0.
     999903    2    3    3    0    0  0.11743614390E+00 -0.36813560427E-03 -0.55153350745E-01  0.13328075797E+00  0.30503851060E-01 0.  0.
         14    1    1    2    0    0 -0.12815915597E-01 -0.18334640936E-01  0.44331602649E-02  0.22804816613E-01  0.00000000000E+00 0.  1.
     999901    1    3    3    0    0 -0.10462022830E+00  0.18702776540E-01  0.50720190480E-01  0.88784442542E+00  0.88000000000E+00 0. -1.
        -11    1    4    4    0    0  0.58974209632E-01 -0.13097089413E-01 -0.36606146092E-01  0.70638248885E-01  0.51100000000E-03 0.  1.
         11    1    4    4    0    0  0.58461934265E-01  0.12728953809E-01 -0.18547204653E-01  0.62642509086E-01  0.51100000000E-03 0. -1.
</event>
<event>
 8    1  0.1161271E+005  0.1043930E+01  0.7957747E-01            NaN
         13   -1    0    0    0    0  0.00000000000E+00  0.00000000000E+00  0.74505805969E-08  0.10566000000E+00  0.10566000000E+00 0.  1.
     999900   -1    0    0    0    0 -0.00000000000E+00 -0.00000000000E+00 -0.74505805969E-08  0.93827000000E+00  0.93827000000E+00 0.  1.
     999902    2    1    2    0    0  0.90946657240E-02 -0.15282337467E-01  0.15761627028E-01  0.10201667580E+01  0.10198899561E+01 0.  0.
     999903    2    3    3    0    0 -0.27823585685E-01  0.11200783771E+00 -0.52962723643E-01  0.12759251328E+00  0.12445550306E-01 0.  0.
         14    1    1    2    0    0 -0.90946657240E-02  0.15282337467E-01 -0.15761627028E-01  0.23763241985E-01  0.00000000000E+00 0. -1.
     999901    1    3    3    0    0  0.36918251409E-01 -0.12729017517E+00  0.68724350671E-01  0.89257424473E+00  0.88000000000E+00 0. -1.
        -11    1    4    4    0    0 -0.13001030542E-01  0.76511434644E-01 -0.35641693069E-01  0.85402680475E-01  0.51100000000E-03 0. -1.
         11    1    4    4    0    0 -0.14822555143E-01  0.35496403061E-01 -0.17321030574E-01  0.42189832808E-01  0.51100000000E-03 0.  1.
</event>
<event>
 8    1  0.1161271E+005  0.1043930E+01  0.7957747E-01            NaN
         13   -1    0    0    0    0  0.00000000000E+00  0.00000000000E+00  0.74505805969E-08  0.10566000000E+00  0.10566000000E+00 0. -1.
     999900   -1    0    0    0    0 -0.00000000000E+00 -0.00000000000E+00 -0.74505805969E-08  0.93827000000E+00  0.93827000000E+00 0.  1.
     999902    2    1    2    0    0 -0.14899816254E-02  0.21989125165E-01  0.20102457086E-02  0.10217989639E+01  0.10215592689E+01 0.  0.
     999903    2    3    3    0    0  0.95510967907E-01  0.10500758386E-01 -0.88085007189E-01  0.13182237917E+00  0.19635687961E-01 0.  0.
         14    1    1    2    0    0  0.14899816254E-02 -0.21989125165E-01 -0.20102457086E-02  0.22131036093E-01  0.00000000000E+00 0. -1.
     999901    1    3    3    0    0 -0.97000949533E-01  0.11488366778E-01  0.90095252898E-01  0.88997658473E+00  0.88000000000E+00 0. -1.
        -11    1    4    4    0    0  0.61244975512E-01  0.76747076814E-02 -0.43483203003E-01  0.75504292778E-01  0.51100000000E-03 0.  1.
         11    1    4    4    0    0  0.34265992395E-01  0.28260507050E-02 -0.44601804186E-01  0.56318086394E-01  0.51100000000E-03 0. -1.
</event>
<event>
 8    1  0.1161271E+005  0.1043930E+01  0.7957747E-01            NaN
         13   -1    0    0    0    0  0.00000000000E+00  0.00000000000E+00  0.74505805969E-08  0.10566000000E+00  0.10566000000E+00 0.  1.
     999900   -1    0    0    0    0 -0.00000000000E+00 -0.00000000000E+00 -0.74505805969E-08  0.93827000000E+00  0.93827000000E+00 0.  1.
     999902    2    1    2    0    0  0.12349297944E-01 -0.17754944864E-01 -0.44336116451E-02  0.10218528594E+01  0.10216143431E+01 0.  0.
     999903    2    3    3    0    0 -0.12180740826E+00  0.38969927379E-01 -0.93177553128E-02  0.12986654342E+00  0.20562066783E-01 0.  0.
         14    1    1    2    0    0 -0.12349297944E-01  0.17754944864E-01  0.44336116451E-02  0.22077140645E-01  0.00000000000E+00 0.  1.
     999901    1    3    3    0    0  0.13415670620E+00 -0.56724872243E-01  0.48841436676E-02  0.89198631593E+00  0.88000000000E+00 0.  1.
        -11    1    4    4    0    0 -0.34735024267E-01  0.11026177043E-01  0.66120555056E-02  0.37041583255E-01  0.51100000000E-03 0.  1.
         11    1    4    4    0    0 -0.87072383991E-01  0.27943750336E-01 -0.15929810818E-01  0.92824960169E-01  0.51100000000E-03 0. -1.
</event>
<event>
 8    1  0.1161271E+005  0.1043930E+01  0.7957747E-01            NaN
         13   -1    0    0    0    0  0.00000000000E+00  0.00000000000E+00  0.74505805969E-08  0.10566000000E+00  0.10566000000E+00 0. -1.
     999900   -1    0    0    0    0 -0.00000000000E+00 -0.00000000000E+00 -0.74505805969E-08  0.93827000000E+00  0.93827000000E+00 0.  1.
     999902    2    1    2    0    0 -0.21443073312E-01  0.38921297023E-02  0.97421868117E-02  0.10200581699E+01  0.10197788024E+01 0.  0.
     999903    2    3    3    0    0  0.95982556551E-01  0.81712431415E-01  0.19255639505E-01  0.12880327728E+00  0.18164029699E-01 0.  0.
         14    1    1    2    0    0  0.21443073312E-01 -0.38921297023E-02 -0.97421868117E-02  0.23871830063E-01  0.00000000000E+00 0.  1.
     999901    1    3    3    0    0 -0.11742562986E+00 -0.77820301713E-01 -0.95134526928E-02  0.89125489266E+00  0.88000000000E+00 0.  1.
        -11    1    4    4    0    0  0.74394571417E-01  0.71504100331E-01  0.18966959957E-01  0.10491613466E+00  0.51100000000E-03 0. -1.
         11    1    4    4    0    0  0.21587985134E-01  0.10208331084E-01  0.28867954725E-03  0.23887142619E-01  0.51100000000E-03 0.  1.
</event>
<event>
 8    1  0.1161271E+005  0.1043930E+01  0.7957747E-01            NaN
         13   -1    0    0    0    0  0.00000000000E+00  0.00000000000E+00  0.74505805969E-08  0.10566000000E+00  0.10566000000E+00 0. -1.
     999900   -1    0    0    0    0 -0.00000000000E+00 -0.00000000000E+00 -0.74505805969E-08  0.93827000000E+00  0.93827000000E+00 0. -1.
     999902    2    1    2    0    0  0.13109972568E-01 -0.23384383472E-04  0.18931727768E-01  0.10209021420E+01  0.10206423964E+01 0.  0.
     999903    2    3    3    0    0  0.32877385014E-03  0.12879656577E+00  0.13437275473E-01  0.13141457739E+00  0.22373362106E-01 0.  0.
         14    1    1    2    0    0 -0.13109972568E-01  0.23384383472E-04 -0.18931727768E-01  0.23027857995E-01  0.00000000000E+00 0.  1.
     999901    1    3    3    0    0  0.12781198718E-01 -0.12881995015E+00  0.54944522943E-02  0.88948756461E+00  0.88000000000E+00 0. -1.
        -11    1    4    4    0    0 -0.30771709039E-02  0.11043845474E+00  0.41640727330E-02  0.11056094196E+00  0.51100000000E-03 0. -1.
         11    1    4    4    0    0  0.34059447541E-02  0.18358111035E-01  0.92732027404E-02  0.20853635427E-01  0.51100000000E-03 0.  1.
</event>
<event>
 8    1  0.1161271E+005  0.1043930E+01  0.7957747E-01            NaN
         13   -1    0    0    0    0  0.00000000000E+00  0.00000000000E+00  0.74505805969E-08  0.10566000000E+00  0.10566000000E+00 0.  1.
     999900   -1    0    0    0    0 -0.00000000000E+00 -0.00000000000E+00 -0.74505805969E-08  0.93827000000E+00  0.93827000000E+00 0. -1.
     999902    2    1    2    0    0  0.12959298636E-01 -0.16878728070E-01 -0.11601415268E-01  0.10196930918E+01  0.10194050097E+01 0.  0.
     999903    2    3    3    0    0 -0.11154501821E+00 -0.58686038271E-01  0.20794994667E-01  0.12935680508E+00  0.20357039085E-01 0.  0.
         14    1    1    2    0    0 -0.12959298636E-01  0.16878728070E-01  0.11601415268E-01  0.24236908190E-01  0.00000000000E+00 0.  1.
     999901    1    3    3    0    0  0.12450431685E+00  0.41807310201E-01 -0.32396409935E-01  0.89033628673E+00  0.88000000000E+00 0.  1.
        -11    1    4    4    0    0 -0.52515387455E-01 -0.38355112671E-01  0.69281932206E-02  0.65400623620E-01  0.51100000000E-03 0.  1.
         11    1    4    4    0    0 -0.59029630757E-01 -0.20330925600E-01  0.13866801447E-01  0.63956181456E-01  0.51100000000E-03 0. -1.
</event>
<event>
 8    1  0.1161271E+005  0.1043930E+01  0.7957747E-01            NaN
         13   -1    0    0    0    0  0.00000000000E+00  0.00000000000E+00  0.74505805969E-08  0.10566000000E+00  0.10566000000E+00 0. -1.
     999900   -1    0    0    0    0 -0.00000000000E+00 -0.00000000000E+00 -0.74505805969E-08  0.93827000000E+00  0.93827000000E+00 0. -1.
     999902    2    1    2    0    0  0.15189135478E-01 -0.17017322474E-01 -0.28274199291E-02  0.10209453659E+01  0.10206866056E+01 0.  0.
     999903    2    3    3    0    0  0.11639267223E+00  0.56519278918E-01 -0.16733884177E-01  0.13198913676E+00  0.19985652477E-01 0.  0.
         14    1    1    2    0    0 -0.15189135478E-01  0.17017322474E-01  0.28274199291E-02  0.22984634089E-01  0.00000000000E+00 0. -1.
     999901    1    3    3    0    0 -0.10120353675E+00 -0.73536601391E-01  0.13906464248E-01  0.88895622915E+00  0.88000000000E+00 0.  1.
        -11    1    4    4    0    0  0.79527557361E-01  0.37119865855E-01 -0.19638125987E-02  0.87787439317E-01  0.51100000000E-03 0.  1.
         11    1    4    4    0    0  0.36865114870E-01  0.19399413062E-01 -0.14770071578E-01  0.44201697445E-01  0.51100000000E-03 0. -1.
</event>
<event>
 8    1  0.1161271E+005  0.1043930E+01  0.7957747E-01            NaN
         13   -1    0    0    0    0  0.00000000000E+00  0.00000000000E+00  0.74505805969E-08  0.10566000000E+00  0.10566000000E+00 0.  1.
     999900   -1    0    0    0    0 -0.00000000000E+00 -0.00000000000E+00 -0.74505805969E-08  0.93827000000E+00  0.93827000000E+00 0. -1.
     999902    2    1    2    0    0 -0.17504421039E-01  0.49898789657E-02  0.18533712613E-01  0.10179530458E+01  0.10176215413E+01 0.  0.
     999903    2    3    3    0    0 -0.82556762946E-01 -0.67297857871E-01  0.73711520479E-01  0.13087812528E+00  0.18736985938E-01 0.  0.
         14    1    1    2    0    0  0.17504421039E-01 -0.49898789657E-02 -0.18533712613E-01  0.25976954233E-01  0.00000000000E+00 0. -1.
     999901    1    3    3    0    0  0.65052341907E-01  0.72287736837E-01 -0.55177807866E-01  0.88707492049E+00  0.88000000000E+00 0. -1.
        -11    1    4    4    0    0 -0.34242526464E-01 -0.27575879643E-01  0.19471669489E-01  0.48087283043E-01  0.51100000000E-03 0.  1.
         11    1    4    4    0    0 -0.48314236482E-01 -0.39721978228E-01  0.54239850989E-01  0.82790842232E-01  0.51100000000E-03 0. -1.
</event>
<event>
 8    1  0.1161271E+005  0.1043930E+01  0.7957747E-01            NaN
         13   -1    0    0    0    0  0.00000000000E+00  0.00000000000E+00  0.74505805969E-08  0.10566000000E+00  0.10566000000E+00 0. -1.
     999900   -1    0    0    0    0 -0.00000000000E+00 -0.00000000000E+00 -0.74505805969E-08  0.93827000000E+00  0.93827000000E+00 0.  1.
     999902    2    1    2    0    0  0.14835783086E-02 -0.16877092064E-02 -0.24048692727E-01  0.10197765533E+01  0.10194904755E+01 0.  0.
     999903    2    3    3    0    0  0.49200957385E-01  0.11051762993E+00 -0.46376514900E-01  0.13108902774E+00  0.19966755540E-01 0.  0.
         14    1    1    2    0    0 -0.14835783086E-02  0.16877092064E-02  0.24048692727E-01  0.24153446728E-01  0.00000000000E+00 0. -1.
     999901    1    3    3    0    0 -0.47717379076E-01 -0.11220533913E+00  0.22327822173E-01  0.88868752553E+00  0.88000000000E+00 0. -1.
        -11    1    4    4    0    0  0.15112355067E-01  0.53248743712E-01 -0.27558890065E-01  0.61834986255E-01  0.51100000000E-03 0.  1.
         11    1    4    4    0    0  0.34088602318E-01  0.57268886215E-01 -0.18817624835E-01  0.69254041483E-01  0.51100000000E-03 0. -1.
</event>
<event>
 8    1  0.1161271E+005  0.1043930E+01  0.7957747E-01            NaN
         13   -1    0    0    0    0  0.00000000000E+00  0.00000000000E+00  0.74505805969E-08  0.10566000000E+00  0.10566000000E+00 0.  1.
     999900   -1    0    0    0    0 -0.00000000000E+00 -0.00000000000E+00 -0.74505805969E-08  0.93827000000E+00  0.93827000000E+00 0.  1.
     999902    2    1    2    0    0  0.14250365087E-01 -0.41953051729E-02 -0.26346950241E-02  0.10288430815E+01  0.10287324586E+01 0.  0.
     999903    2    3    3    0    0  0.45471127049E-01  0.79193762973E-01  0.10187655195E+00  0.13819664585E+00  0.19498861507E-01 0.  0.
         14    1    1    2    0    0 -0.14250365087E-01  0.41953051729E-02  0.26346950241E-02  0.15086918456E-01  0.00000000000E+00 0.  1.
     999901    1    3    3    0    0 -0.31220761961E-01 -0.83389068146E-01 -0.10451124697E+00  0.89064643569E+00  0.88000000000E+00 0.  1.
        -11    1    4    4    0    0  0.19456824119E-01  0.39018158545E-01  0.34772623186E-01  0.55770791148E-01  0.51100000000E-03 0.  1.
         11    1    4    4    0    0  0.26014302930E-01  0.40175604429E-01  0.67103928760E-01  0.82425854707E-01  0.51100000000E-03 0. -1.
</event>
<event>
 8    1  0.1161271E+005  0.1043930E+01  0.7957747E-01            NaN
         13   -1    0    0    0    0  0.00000000000E+00  0.00000000000E+00  0.74505805969E-08  0.10566000000E+00  0.10566000000E+00 0.  1.
     999900   -1    0    0    0    0 -0.00000000000E+00 -0.00000000000E+00 -0.74505805969E-08  0.93827000000E+00  0.93827000000E+00 0. -1.
     999902    2    1    2    0    0 -0.13080853128E-01 -0.13707691427E-01  0.14381557570E-01  0.10201426353E+01  0.10198652644E+01 0.  0.
     999903    2    3    3    0    0 -0.11879831320E+00  0.46332885401E-02 -0.51055275149E-01  0.13121375623E+00  0.21815181015E-01 0.  0.
         14    1    1    2    0    0  0.13080853128E-01  0.13707691427E-01 -0.14381557570E-01  0.23787364733E-01  0.00000000000E+00 0. -1.
     999901    1    3    3    0    0  0.10571746007E+00 -0.18340979967E-01  0.65436832719E-01  0.88892887904E+00  0.88000000000E+00 0. -1.
        -11    1    4    4    0    0 -0.34866785996E-01  0.55315536642E-02 -0.55676122730E-02  0.35742835352E-01  0.51100000000E-03 0. -1.
         11    1    4    4    0    0 -0.83931527199E-01 -0.89826512413E-03 -0.45487662876E-01  0.95470920877E-01  0.51100000000E-03 0.  1.
</event>
<event>
 8    1  0.1161271E+005  0.1043930E+01  0.7957747E-01            NaN
         13   -1    0    0    0    0  0.00000000000E+00  0.00000000000E+00  0.74505805969E-08  0.10566000000E+00  0.10566000000E+00 0. -1.
     999900   -1    0    0    0    0 -0.00000000000E+00 -0.00000000000E+00 -0.74505805969E-08  0.93827000000E+00  0.93827000000E+00 0. -1.
     999902    2    1    2    0    0 -0.28222582721E-02  0.22353297180E-01 -0.62774583419E-02  0.10205410813E+01  0.10202730306E+01 0.  0.
     999903    2    3    3    0    0 -0.24160870967E-01  0.12947415271E+00  0.10842319021E-01  0.13362321536E+00  0.19756110342E-01 0.  0.
         14    1    1    2    0    0  0.28222582721E-02 -0.22353297180E-01  0.62774583419E-02  0.23388918740E-01  0.00000000000E+00 0. -1.
     999901    1    3    3    0    0  0.21338612695E-01 -0.10712085553E+00 -0.17119777363E-01  0.88691786590E+00  0.88000000000E+00 0. -1.
        -11    1    4    4    0    0 -0.41015048537E-02  0.45386377203E-01  0.12144720467E-01  0.47164615274E-01  0.51100000000E-03 0. -1.
         11    1    4    4    0    0 -0.20059366113E-01  0.84087775503E-01 -0.13024014463E-02  0.86458600084E-01  0.51100000000E-03 0.  1.
</event>
<event>
 8    1  0.1161271E+005  0.1043930E+01  0.7957747E-01            NaN
         13   -1    0    0    0    0  0.00000000000E+00  0.00000000000E+00  0.74505805969E-08  0.10566000000E+00  0.10566000000E+00 0.  1.
     999900   -1    0    0    0    0 -0.00000000000E+00 -0.00000000000E+00 -0.74505805969E-08  0.93827000000E+00  0.93827000000E+00 0. -1.
     999902    2    1    2    0    0  0.62428117167E-02  0.27698222076E-01 -0.39507103621E-02  0.10152634286E+01  0.10148586390E+01 0.  0.
     999903    2    3    3    0    0  0.69884702511E-01  0.56165491365E-02 -0.10402696716E+00  0.12703308249E+00  0.20009419807E-01 0.  0.
         14    1    1    2    0    0 -0.62428117167E-02 -0.27698222076E-01  0.39507103621E-02  0.28666571414E-01  0.00000000000E+00 0.  1.
     999901    1    3    3    0    0 -0.63641890794E-01  0.22081672939E-01  0.10007625680E+00  0.88823034609E+00  0.88000000000E+00 0.  1.
        -11    1    4    4    0    0  0.70675598382E-01  0.45282250562E-02 -0.98475447608E-01  0.12129806236E+00  0.51100000000E-03 0.  1.
         11    1    4    4    0    0 -0.79089587103E-03  0.10883240803E-02 -0.55515195571E-02  0.57350201373E-02  0.51100000000E-03 0. -1.
</event>
<event>
 8    1  0.1161271E+005  0.1043930E+01  0.7957747E-01            NaN
         13   -1    0    0    0    0  0.00000000000E+00  0.00000000000E+00  0.74505805969E-08  0.10566000000E+00  0.10566000000E+00 0.  1.
     999900   -1    0    0    0    0 -0.00000000000E+00 -0.00000000000E+00 -0.74505805969E-08  0.93827000000E+00  0.93827000000E+00 0. -1.
     999902    2    1    2    0    0  0.35477416768E-02  0.52383644902E-02 -0.19746026693E-01  0.10231951862E+01  0.10229850715E+01 0.  0.
     999903    2    3    3    0    0  0.12424438239E+00  0.29955274481E-01 -0.35999751850E-01  0.13446418735E+00  0.21228530825E-01 0.  0.
         14    1    1    2    0    0 -0.35477416768E-02 -0.52383644902E-02  0.19746026693E-01  0.20734813809E-01  0.00000000000E+00 0.  1.
     999901    1    3    3    0    0 -0.12069664072E+00 -0.24716909991E-01  0.16253725156E-01  0.88873099884E+00  0.88000000000E+00 0. -1.
        -11    1    4    4    0    0  0.89060932511E-01  0.31120753929E-01 -0.25639096369E-01  0.97764898652E-01  0.51100000000E-03 0.  1.
         11    1    4    4    0    0  0.35183449881E-01 -0.11654794477E-02 -0.10360655481E-01  0.36699288697E-01  0.51100000000E-03 0. -1.
</event>
<event>
 8    1  0.1161271E+005  0.1043930E+01  0.7957747E-01            NaN
         13   -1    0    0    0    0  0.00000000000E+00  0.00000000000E+00  0.74505805969E-08  0.10566000000E+00  0.10566000000E+00 0.  1.
     999900   -1    0    0    0    0 -0.00000000000E+00 -0.00000000000E+00 -0.74505805969E-08  0.93827000000E+00  0.93827000000E+00 0. -1.
     999902    2    1    2    0    0  0.23178666789E-01  0.24996937013E-03 -0.20941015723E-02  0.10206555861E+01  0.10203901838E+01 0.  0.
     999903    2    3    3    0    0  0.24157965027E-01  0.83842378675E-02  0.12731107548E+00  0.13115413860E+00  0.18422687435E-01 0.  0.
         14    1    1    2    0    0 -0.23178666789E-01 -0.24996937013E-03  0.20941015723E-02  0.23274413853E-01  0.00000000000E+00 0.  1.
     999901    1    3    3    0    0 -0.97929823760E-03 -0.81342684974E-02 -0.12940517705E+00  0.88950144755E+00  0.88000000000E+00 0. -1.
        -11    1    4    4    0    0  0.25081465908E-01  0.64851958473E-02  0.86803372272E-01  0.90588212567E-01  0.51100000000E-03 0. -1.
         11    1    4    4    0    0 -0.92350088158E-03  0.18990420202E-02  0.40507703207E-01  0.40565926029E-01  0.51100000000E-03 0.  1.
</event>
<event>
 8    1  0.1161271E+005  0.1043930E+01  0.7957747E-01            NaN
         13   -1    0    0    0    0  0.00000000000E+00  0.00000000000E+00  0.74505805969E-08  0.10566000000E+00  0.10566000000E+00 0. -1.
     999900   -1    0    0    0    0 -0.00000000000E+00 -0.00000000000E+00 -0.74505805969E-08  0.93827000000E+00  0.93827000000E+00 0.  1.
     999902    2    1    2    0    0  0.12462973057E-01  0.82059555993E-02 -0.19163440932E-01  0.10196421250E+01  0.10193528153E+01 0.  0.
     999903    2    3    3    0    0 -0.70639936781E-01 -0.31759437453E-01 -0.10394321407E+00  0.13077152911E+00  0.17272479254E-01 0.  0.
         14    1    1    2    0    0 -0.12462973057E-01 -0.82059555993E-02  0.19163440932E-01  0.24287875022E-01  0.00000000000E+00 0. -1.
     999901    1    3    3    0    0  0.83102909838E-01  0.39965393052E-01  0.84779773135E-01  0.88887059587E+00  0.88000000000E+00 0. -1.
        -11    1    4    4    0    0 -0.21510224678E-01 -0.18638360127E-01 -0.39122896556E-01  0.48383265597E-01  0.51100000000E-03 0. -1.
         11    1    4    4    0    0 -0.49129712103E-01 -0.13121077326E-01 -0.64820317511E-01  0.82388263513E-01  0.51100000000E-03 0.  1.
</event>
<event>
 8    1  0.1161271E+005  0.1043930E+01  0.7957747E-01            NaN
         13   -1    0    0    0    0  0.00000000000E+00  0.00000000000E+00  0.74505805969E-08  0.10566000000E+00  0.10566000000E+00 0.  1.
     999900   -1    0    0    0    0 -0.00000000000E+00 -0.00000000000E+00 -0.74505805969E-08  0.93827000000E+00  0.93827000000E+00 0. -1.
     999902    2    1    2    0    0  0.87258072222E-02 -0.13018153738E-01  0.23574208641E-01  0.10156217794E+01  0.10152271881E+01 0.  0.
     999903    2    3    3    0    0  0.32462054589E-01  0.46913200786E-01 -0.10835960593E+00  0.12345491829E+00  0.15642226725E-01 0.  0.
         14    1    1    2    0    0 -0.87258072222E-02  0.13018153738E-01 -0.23574208641E-01  0.28308220564E-01  0.00000000000E+00 0. -1.
     999901    1    3    3    0    0 -0.23736247367E-01 -0.59931354524E-01  0.13193381457E+00  0.89216686114E+00  0.88000000000E+00 0.  1.
        -11    1    4    4    0    0  0.64956625761E-02  0.22217863292E-01 -0.47070114947E-01  0.52456495534E-01  0.51100000000E-03 0.  1.
         11    1    4    4    0    0  0.25966392013E-01  0.24695337494E-01 -0.61289490985E-01  0.70998422759E-01  0.51100000000E-03 0. -1.
</event>
<event>
 8    1  0.1161271E+005  0.1043930E+01  0.7957747E-01            NaN
         13   -1    0    0    0    0  0.00000000000E+00  0.00000000000E+00  0.74505805969E-08  0.10566000000E+00  0.10566000000E+00 0. -1.
     999900   -1    0    0    0    0 -0.00000000000E+00 -0.00000000000E+00 -0.74505805969E-08  0.93827000000E+00  0.93827000000E+00 0.  1.
     999902    2    1    2    0    0 -0.18638545031E-01 -0.82312269617E-02  0.19850170788E-01  0.10154839504E+01  0.10150854524E+01 0.  0.
     999903    2    3    3    0    0 -0.21263015054E-01  0.12104114237E+00 -0.14959253490E-01  0.12535478598E+00  0.19671531400E-01 0.  0.
         14    1    1    2    0    0  0.18638545031E-01  0.82312269617E-02 -0.19850170788E-01  0.28446049611E-01  0.00000000000E+00 0.  1.
     999901    1    3    3    0    0  0.26244700230E-02 -0.12927236933E+00  0.34809424278E-01  0.89012916441E+00  0.88000000000E+00 0. -1.
        -11    1    4    4    0    0 -0.19179949264E-01  0.84879744708E-01 -0.25341139877E-02  0.87058166591E-01  0.51100000000E-03 0. -1.
         11    1    4    4    0    0 -0.20830657896E-02  0.36161397661E-01 -0.12425139502E-01  0.38296619388E-01  0.51100000000E-03 0.  1.
</event>
<event>
 8    1  0.1161271E+005  0.1043930E+01  0.7957747E-01            NaN
         13   -1    0    0    0    0  0.00000000000E+00  0.00000000000E+00  0.74505805969E-08  0.10566000000E+00  0.10566000000E+00 0. -1.
     999900   -1    0    0    0    0 -0.00000000000E+00 -0.00000000000E+00 -0.74505805969E-08  0.93827000000E+00  0.93827000000E+00 0. -1.
     999902    2    1    2    0    0 -0.63923486159E-02 -0.17873684465E-01  0.13432969661E-01  0.10206754221E+01  0.10204104772E+01 0.  0.
     999903    2    3    3    0    0 -0.37219180626E-01  0.45821246810E-01  0.11618041260E+00  0.13187602134E+00  0.20212438466E-01 0.  0.
         14    1    1    2    0    0  0.63923486159E-02  0.17873684465E-01 -0.13432969661E-01  0.23254577852E-01  0.00000000000E+00 0.  1.
     999901    1    3    3    0    0  0.30826832010E-01 -0.63694931275E-01 -0.10274744293E+00  0.88879940081E+00  0.88000000000E+00 0. -1.
        -11    1    4    4    0    0 -0.19374107724E-01  0.93703664421E-02  0.46388081942E-01  0.51139760311E-01  0.51100000000E-03 0.  1.
         11    1    4    4    0    0 -0.17845072902E-01  0.36450880368E-01  0.69792330653E-01  0.80736261032E-01  0.51100000000E-03 0. -1.
</event>
<event>
 8    1  0.1161271E+005  0.1043930E+01  0.7957747E-01            NaN
         13   -1    0    0    0    0  0.00000000000E+00  0.00000000000E+00  0.74505805969E-08  0.10566000000E+00  0.10566000000E+00 0. -1.
     999900   -1    0    0    0    0 -0.00000000000E+00 -0.00000000000E+00 -0.74505805969E-08  0.93827000000E+00  0.93827000000E+00 0. -1.
     999902    2    1    2    0    0 -0.57590096051E-02 -0.70821009534E-02 -0.21675659336E-01  0.10204107195E+01  0.10201396375E+01 0.  0.
     999903    2    3    3    0    0 -0.15035154254E-01 -0.77716271427E-01  0.10002052318E+00  0.12918392813E+00  0.20457456371E-01 0.  0.
         14    1    1    2    0    0  0.57590096051E-02  0.70821009534E-02  0.21675659336E-01  0.23519280456E-01  0.00000000000E+00 0. -1.
     999901    1    3    3    0    0  0.92761446492E-02  0.70634170474E-01 -0.12169618252E+00  0.89122679142E+00  0.88000000000E+00 0. -1.
        -11    1    4    4    0    0 -0.91614000010E-02 -0.93305294710E-02  0.17375478537E-01  0.21752204614E-01  0.51100000000E-03 0. -1.
         11    1    4    4    0    0 -0.58737542533E-02 -0.68385741956E-01  0.82645044644E-01  0.10743172351E+00  0.51100000000E-03 0.  1.
</event>
<event>
 8    1  0.1161271E+005  0.1043930E+01  0.7957747E-01            NaN
         13   -1    0    0    0    0  0.00000000000E+00  0.00000000000E+00  0.74505805969E-08  0.10566000000E+00  0.10566000000E+00 0. -1.
     999900   -1    0    0    0    0 -0.00000000000E+00 -0.00000000000E+00 -0.74505805969E-08  0.93827000000E+00  0.93827000000E+00 0. -1.
     999902    2    1    2    0    0 -0.19860936098E-01  0.39579332534E-03  0.11633038419E-01  0.10209095522E+01  0.10206499756E+01 0.  0.
     999903    2    3    3    0    0  0.83173523649E-01 -0.94010009697E-01  0.25687538298E-01  0.12977202940E+00  0.20620694239E-01 0.  0.
         14    1    1    2    0    0  0.19860936098E-01 -0.39579332534E-03 -0.11633038419E-01  0.23020447822E-01  0.00000000000E+00 0.  1.
     999901    1    3    3    0    0 -0.10303445975E+00  0.94405803022E-01 -0.14054499879E-01  0.89113752278E+00  0.88000000000E+00 0. -1.
        -11    1    4    4    0    0  0.69506678440E-01 -0.66427112134E-01  0.15795734645E-01  0.97434623868E-01  0.51100000000E-03 0. -1.
         11    1    4    4    0    0  0.13666845209E-01 -0.27582897563E-01  0.98918036531E-02  0.32337405530E-01  0.51100000000E-03 0.  1.
</event>
<event>
 8    1  0.1161271E+005  0.1043930E+01  0.7957747E-01            NaN
         13   -1    0    0    0    0  0.00000000000E+00  0.00000000000E+00  0.74505805969E-08  0.10566000000E+00  0.10566000000E+00 0. -1.
     999900   -1    0    0    0    0 -0.00000000000E+00 -0.00000000000E+00 -0.74505805969E-08  0.93827000000E+00  0.93827000000E+00 0. -1.
     999902    2    1    2    0    0 -0.34784196792E-02 -0.11651269928E-01  0.20319321906E-01  0.10202503392E+01  0.10199755037E+01 0.  0.
     999903    2    3    3    0    0 -0.37534990394E-02  0.15097018421E-02 -0.12649845907E+00  0.12798986842E+00  0.19057237921E-01 0.  0.
         14    1    1    2    0    0  0.34784196792E-02  0.11651269928E-01 -0.20319321906E-01  0.23679660832E-01  0.00000000000E+00 0.  1.
     999901    1    3    3    0    0  0.27507936018E-03 -0.13160971770E-01  0.14681778097E+00  0.89226047075E+00  0.88000000000E+00 0.  1.
        -11    1    4    4    0    0  0.34174728542E-03  0.95711985726E-02 -0.83432668715E-01  0.83982116925E-01  0.51100000000E-03 0.  1.
         11    1    4    4    0    0 -0.40952463248E-02 -0.80614967304E-02 -0.43065790354E-01  0.44007751497E-01  0.51100000000E-03 0. -1.
</event>
<event>
 8    1  0.1228245E+005  0.1043930E+01  0.7957747E-01            NaN
         13   -1    0    0    0    0  0.00000000000E+00  0.00000000000E+00  0.74505805969E-08  0.10566000000E+00  0.10566000000E+00 0.  1.
     999900   -1    0    0    0    0 -0.00000000000E+00 -0.00000000000E+00 -0.74505805969E-08  0.93827000000E+00  0.93827000000E+00 0. -1.
     999902    2    1    2    0    0 -0.19469549721E-01  0.42350561530E-03  0.20155715400E-01  0.10159033058E+01  0.10155166327E+01 0.  0.
     999903    2    3    3    0    0 -0.20486910728E-01  0.13205933109E-01  0.12558144704E+00  0.12951794360E+00  0.20250622044E-01 0.  0.
         14    1    1    2    0    0  0.19469549721E-01 -0.42350561530E-03 -0.20155715400E-01  0.28026694179E-01  0.00000000000E+00 0. -1.
     999901    1    3    3    0    0  0.10173610074E-02 -0.12782427494E-01 -0.10542573164E+00  0.88638536223E+00  0.88000000000E+00 0. -1.
        -11    1    4    4    0    0 -0.17795185639E-01  0.13857864582E-01  0.63782194294E-01  0.67654552490E-01  0.51100000000E-03 0.  1.
         11    1    4    4    0    0 -0.26917250891E-02 -0.65193147324E-03  0.61799252742E-01  0.61863391106E-01  0.51100000000E-03 0. -1.
</event>
<event>
 8    1  0.1161271E+005  0.1043930E+01  0.7957747E-01            NaN
         13   -1    0    0    0    0  0.00000000000E+00  0.00000000000E+00  0.74505805969E-08  0.10566000000E+00  0.10566000000E+00 0. -1.
     999900   -1    0    0    0    0 -0.00000000000E+00 -0.00000000000E+00 -0.74505805969E-08  0.93827000000E+00  0.93827000000E+00 0.  1.
     999902    2    1    2    0    0 -0.97288333769E-02  0.11055293918E-01  0.13503115150E-01  0.10239499139E+01  0.10237549620E+01 0.  0.
     999903    2    3    3    0    0 -0.52824533192E-01 -0.11919076798E+00  0.22045395064E-01  0.13327924156E+00  0.16747725474E-01 0.  0.
         14    1    1    2    0    0  0.97288333769E-02 -0.11055293918E-01 -0.13503115150E-01  0.19980086117E-01  0.00000000000E+00 0.  1.
     999901    1    3    3    0    0  0.43095699815E-01  0.13024606190E+00 -0.85422799137E-02  0.89067067232E+00  0.88000000000E+00 0.  1.
        -11    1    4    4    0    0 -0.23402326119E-01 -0.42976632410E-01  0.15435777458E-01  0.51314560778E-01  0.51100000000E-03 0. -1.
         11    1    4    4    0    0 -0.29422207073E-01 -0.76214135575E-01  0.66096176055E-02  0.81964680786E-01  0.51100000000E-03 0.  1.
</event>
<event>
 8    1  0.1161271E+005  0.1043930E+01  0.7957747E-01            NaN
         13   -1    0    0    0    0  0.00000000000E+00  0.00000000000E+00  0.74505805969E-08  0.10566000000E+00  0.10566000000E+00 0.  1.
     999900   -1    0    0    0    0 -0.00000000000E+00 -0.00000000000E+00 -0.74505805969E-08  0.93827000000E+00  0.93827000000E+00 0. -1.
     999902    2    1    2    0    0 -0.12197814386E-01  0.58229782256E-02  0.19697646755E-01  0.10200408594E+01  0.10197610817E+01 0.  0.
     999903    2    3    3    0    0  0.10446017953E+00 -0.18054307675E-03  0.75575847594E-01  0.13056488831E+00  0.20579592225E-01 0.  0.
         14    1    1    2    0    0  0.12197814386E-01 -0.58229782256E-02 -0.19697646755E-01  0.23889140606E-01  0.00000000000E+00 0. -1.
     999901    1    3    3    0    0 -0.11665799391E+00  0.60035213024E-02 -0.55878200839E-01  0.88947597109E+00  0.88000000000E+00 0.  1.
        -11    1    4    4    0    0  0.46109369547E-01 -0.82140790620E-02  0.41100190489E-01  0.62313977839E-01  0.51100000000E-03 0. -1.
         11    1    4    4    0    0  0.58350809981E-01  0.80335359853E-02  0.34475657104E-01  0.68250910468E-01  0.51100000000E-03 0.  1.
</event>
<event>
 8    1  0.1161271E+005  0.1043930E+01  0.7957747E-01            NaN
         13   -1    0    0    0    0  0.00000000000E+00  0.00000000000E+00  0.74505805969E-08  0.10566000000E+00  0.10566000000E+00 0.  1.
     999900   -1    0    0    0    0 -0.00000000000E+00 -0.00000000000E+00 -0.74505805969E-08  0.93827000000E+00  0.93827000000E+00 0.  1.
     999902    2    1    2    0    0  0.19730686130E-01 -0.12235858078E-02 -0.12259463623E-01  0.10206686246E+01  0.10204035229E+01 0.  0.
     999903    2    3    3    0    0  0.98378794001E-01  0.75600226166E-01 -0.44199416631E-01  0.13325238429E+00  0.20219500071E-01 0.  0.
         14    1    1    2    0    0 -0.19730686130E-01  0.12235858078E-02  0.12259463623E-01  0.23261375405E-01  0.00000000000E+00 0.  1.
     999901    1    3    3    0    0 -0.78648107871E-01 -0.76823811974E-01  0.31939953008E-01  0.88741624030E+00  0.88000000000E+00 0.  1.
        -11    1    4    4    0    0  0.52459579647E-01  0.42097962840E-01 -0.13348552548E-01  0.68576168952E-01  0.51100000000E-03 0. -1.
         11    1    4    4    0    0  0.45919214354E-01  0.33502263327E-01 -0.30850864082E-01  0.64676215339E-01  0.51100000000E-03 0.  1.
</event>
<event>
 8    1  0.1161271E+005  0.1043930E+01  0.7957747E-01            NaN
         13   -1    0    0    0    0  0.00000000000E+00  0.00000000000E+00  0.74505805969E-08  0.10566000000E+00  0.10566000000E+00 0.  1.
     999900   -1    0    0    0    0 -0.00000000000E+00 -0.00000000000E+00 -0.74505805969E-08  0.93827000000E+00  0.93827000000E+00 0. -1.
     999902    2    1    2    0    0  0.49523002991E-02  0.18283732151E-01  0.14169004647E-01  0.10202745391E+01  0.10200002717E+01 0.  0.
     999903    2    3    3    0    0 -0.61707638015E-01  0.39819125433E-01 -0.10440062679E+00  0.12956354326E+00  0.22222185512E-01 0.  0.
         14    1    1    2    0    0 -0.49523002991E-02 -0.18283732151E-01 -0.14169004647E-01  0.23655460941E-01  0.00000000000E+00 0. -1.
     999901    1    3    3    0    0  0.66659938314E-01 -0.21535393282E-01  0.11856963143E+00  0.89071099580E+00  0.88000000000E+00 0.  1.
        -11    1    4    4    0    0 -0.31657029023E-01  0.10792104383E-01 -0.33991870025E-01  0.47690097005E-01  0.51100000000E-03 0. -1.
         11    1    4    4    0    0 -0.30050608991E-01  0.29027021051E-01 -0.70408756762E-01  0.81873446255E-01  0.51100000000E-03 0.  1.
</event>
<event>
 8    1  0.1161271E+005  0.1043930E+01  0.7957747E-01            NaN
         13   -1    0    0    0    0  0.00000000000E+00  0.00000000000E+00  0.74505805969E-08  0.10566000000E+00  0.10566000000E+00 0. -1.
     999900   -1    0    0    0    0 -0.00000000000E+00 -0.00000000000E+00 -0.74505805969E-08  0.93827000000E+00  0.93827000000E+00 0.  1.
     999902    2    1    2    0    0  0.18134604956E-01  0.10580236741E-01 -0.95709181923E-02  0.10208560367E+01  0.10205952380E+01 0.  0.
     999903    2    3    3    0    0 -0.37471236058E-01 -0.98706652230E-01  0.70892677248E-01  0.12871814163E+00  0.19886969914E-01 0.  0.
         14    1    1    2    0    0 -0.18134604956E-01 -0.10580236741E-01  0.95709181923E-02  0.23073963280E-01  0.00000000000E+00 0. -1.
     999901    1    3    3    0    0  0.55605841014E-01  0.10928688897E+00 -0.80463595440E-01  0.89213789509E+00  0.88000000000E+00 0.  1.
        -11    1    4    4    0    0 -0.17502439507E-01 -0.63564636704E-01  0.52627408989E-01  0.84360557880E-01  0.51100000000E-03 0. -1.
         11    1    4    4    0    0 -0.19968796552E-01 -0.35142015526E-01  0.18265268258E-01  0.44357583755E-01  0.51100000000E-03 0.  1.
</event>
<event>
 8    1  0.1161271E+005  0.1043930E+01  0.7957747E-01            NaN
         13   -1    0    0    0    0  0.00000000000E+00  0.00000000000E+00  0.74505805969E-08  0.10566000000E+00  0.10566000000E+00 0.  1.
     999900   -1    0    0    0    0 -0.00000000000E+00 -0.00000000000E+00 -0.74505805969E-08  0.93827000000E+00  0.93827000000E+00 0.  1.
     999902    2    1    2    0    0 -0.87942759646E-02 -0.20927525508E-01 -0.34098985588E-02  0.10209750872E+01  0.10207170032E+01 0.  0.
     999903    2    3    3    0    0  0.71085455497E-01 -0.42195638466E-01 -0.10067310622E+00  0.13176575544E+00  0.19837492325E-01 0.  0.
         14    1    1    2    0    0  0.87942759646E-02  0.20927525508E-01  0.34098985588E-02  0.22954912803E-01  0.00000000000E+00 0.  1.
     999901    1    3    3    0    0 -0.79879731462E-01  0.21268112958E-01  0.97263207656E-01  0.88920933176E+00  0.88000000000E+00 0. -1.
        -11    1    4    4    0    0  0.30794540056E-02 -0.85768381551E-02 -0.99103066389E-02  0.13472953959E-01  0.51100000000E-03 0.  1.
         11    1    4    4    0    0  0.68006001491E-01 -0.33618800311E-01 -0.90762799576E-01  0.11829280148E+00  0.51100000000E-03 0. -1.
</event>
<event>
 8    1  0.1161271E+005  0.1043930E+01  0.7957747E-01            NaN
         13   -1    0    0    0    0  0.00000000000E+00  0.00000000000E+00  0.74505805969E-08  0.10566000000E+00  0.10566000000E+00 0. -1.
     999900   -1    0    0    0    0 -0.00000000000E+00 -0.00000000000E+00 -0.74505805969E-08  0.93827000000E+00  0.93827000000E+00 0. -1.
     999902    2    1    2    0    0 -0.65301014028E-02  0.41674820939E-02  0.22340243407E-01  0.10202847762E+01  0.10200107490E+01 0.  0.
     999903    2    3    3    0    0 -0.11303530993E+00 -0.61288967730E-01 -0.12832099778E-01  0.13075400106E+00  0.19965649261E-01 0.  0.
         14    1    1    2    0    0  0.65301014028E-02 -0.41674820939E-02 -0.22340243407E-01  0.23645223764E-01  0.00000000000E+00 0.  1.
     999901    1    3    3    0    0  0.10650520853E+00  0.65456449824E-01  0.35172343186E-01  0.88953077518E+00  0.88000000000E+00 0. -1.
        -11    1    4    4    0    0 -0.72572314448E-01 -0.39936562356E-01 -0.17810468980E-01  0.84729828062E-01  0.51100000000E-03 0. -1.
         11    1    4    4    0    0 -0.40462995484E-01 -0.21352405374E-01  0.49783692018E-02  0.46024172994E-01  0.51100000000E-03 0.  1.
</event>
<event>
 8    1  0.1161271E+005  0.1043930E+01  0.7957747E-01            NaN
         13   -1    0    0    0    0  0.00000000000E+00  0.00000000000E+00  0.74505805969E-08  0.10566000000E+00  0.10566000000E+00 0. -1.
     999900   -1    0    0    0    0 -0.00000000000E+00 -0.00000000000E+00 -0.74505805969E-08  0.93827000000E+00  0.93827000000E+00 0.  1.
     999902    2    1    2    0    0  0.17017680461E-01 -0.14845686655E-01  0.84339833282E-02  0.10198234047E+01  0.10195384490E+01 0.  0.
     999903    2    3    3    0    0  0.94446518904E-01 -0.44704135475E-01  0.79847676846E-01  0.13303895087E+00  0.20127252412E-01 0.  0.
         14    1    1    2    0    0 -0.17017680461E-01  0.14845686655E-01 -0.84339833282E-02  0.24106595266E-01  0.00000000000E+00 0.  1.
     999901    1    3    3    0    0 -0.77428838443E-01  0.29858448820E-01 -0.71413693518E-01  0.88678445386E+00  0.88000000000E+00 0.  1.
        -11    1    4    4    0    0  0.14789971013E-01 -0.13288294339E-01  0.22234174418E-01  0.29831889683E-01  0.51100000000E-03 0. -1.
         11    1    4    4    0    0  0.79656547891E-01 -0.31415841137E-01  0.57613502428E-01  0.10320706119E+00  0.51100000000E-03 0.  1.
</event>
<event>
 8    1  0.1161271E+005  0.1043930E+01  0.7957747E-01            NaN
         13   -1    0    0    0    0  0.00000000000E+00  0.00000000000E+00  0.74505805969E-08  0.10566000000E+00  0.10566000000E+00 0.  1.
     999900   -1    0    0    0    0 -0.00000000000E+00 -0.00000000000E+00 -0.74505805969E-08  0.93827000000E+00  0.93827000000E+00 0.  1.
     999902    2    1    2    0    0 -0.82616252600E-02 -0.21292127796E-01 -0.13571038366E-01  0.10173634376E+01  0.10170165101E+01 0.  0.
     999903    2    3    3    0    0 -0.56505647338E-01 -0.54797071005E-01  0.99221268203E-01  0.12822218257E+00  0.20011518379E-01 0.  0.
         14    1    1    2    0    0  0.82616252600E-02  0.21292127796E-01  0.13571038366E-01  0.26566562449E-01  0.00000000000E+00 0.  1.
     999901    1    3    3    0    0  0.48244022078E-01  0.33504943210E-01 -0.11279230657E+00  0.88914125498E+00  0.88000000000E+00 0.  1.
        -11    1    4    4    0    0 -0.12580072697E-01 -0.24537447513E-01  0.28751802058E-01  0.39840579841E-01  0.51100000000E-03 0. -1.
         11    1    4    4    0    0 -0.43925574641E-01 -0.30259623492E-01  0.70469466145E-01  0.88381602730E-01  0.51100000000E-03 0.  1.
</event>
<event>
 8    1  0.1161271E+005  0.1043930E+01  0.7957747E-01            NaN
         13   -1    0    0    0    0  0.00000000000E+00  0.00000000000E+00  0.74505805969E-08  0.10566000000E+00  0.10566000000E+00 0.  1.
     999900   -1    0    0    0    0 -0.00000000000E+00 -0.00000000000E+00 -0.74505805969E-08  0.93827000000E+00  0.93827000000E+00 0. -1.
     999902    2    1    2    0    0 -0.18711538939E-01 -0.37943169385E-02  0.14297046628E-01  0.10200778707E+01  0.10197989695E+01 0.  0.
     999903    2    3    3    0    0 -0.71005585388E-01 -0.10427794112E+00  0.35805921622E-01  0.13255645814E+00  0.19325330806E-01 0.  0.
         14    1    1    2    0    0  0.18711538939E-01  0.37943169385E-02 -0.14297046628E-01  0.23852129313E-01  0.00000000000E+00 0.  1.
     999901    1    3    3    0    0  0.52294046450E-01  0.10048362418E+00 -0.21508874993E-01  0.88752141255E+00  0.88000000000E+00 0.  1.
        -11    1    4    4    0    0 -0.58972993396E-01 -0.94462252507E-01  0.35947967381E-01  0.11701900948E+00  0.51100000000E-03 0.  1.
         11    1    4    4    0    0 -0.12032591993E-01 -0.98156886152E-02 -0.14204575917E-03  0.15537448666E-01  0.51100000000E-03 0. -1.
</event>
<event>
 8    1  0.1161271E+005  0.1043930E+01  0.7957747E-01            NaN
         13   -1    0    0    0    0  0.00000000000E+00  0.00000000000E+00  0.74505805969E-08  0.10566000000E+00  0.10566000000E+00 0.  1.
     999900   -1    0    0    0    0 -0.00000000000E+00 -0.00000000000E+00 -0.74505805969E-08  0.93827000000E+00  0.93827000000E+00 0. -1.
     999902    2    1    2    0    0 -0.27553260906E-02  0.23484741089E-01  0.61490639342E-02  0.10194977289E+01  0.10192049270E+01 0.  0.
     999903    2    3    3    0    0  0.11624423214E+00  0.50102547569E-02  0.53645505162E-01  0.13002703601E+00  0.22166770429E-01 0.  0.
         14    1    1    2    0    0  0.27553260906E-02 -0.23484741089E-01 -0.61490639342E-02  0.24432271142E-01  0.00000000000E+00 0. -1.
     999901    1    3    3    0    0 -0.11899955823E+00  0.18474486332E-01 -0.47496441227E-01  0.88947069285E+00  0.88000000000E+00 0. -1.
        -11    1    4    4    0    0  0.76356487092E-01  0.11284811189E-01  0.27595184057E-01  0.81972040287E-01  0.51100000000E-03 0. -1.
         11    1    4    4    0    0  0.39887745048E-01 -0.62745564322E-02  0.26050321104E-01  0.48054995724E-01  0.51100000000E-03 0.  1.
</event>
<event>
 8    1  0.1161271E+005  0.1043930E+01  0.7957747E-01            NaN
         13   -1    0    0    0    0  0.00000000000E+00  0.00000000000E+00  0.74505805969E-08  0.10566000000E+00  0.10566000000E+00 0.  1.
     999900   -1    0    0    0    0 -0.00000000000E+00 -0.00000000000E+00 -0.74505805969E-08  0.93827000000E+00  0.93827000000E+00 0.  1.
     999902    2    1    2    0    0  0.17089459626E-01 -0.14650259449E-01  0.80737132378E-02  0.10200163098E+01  0.10197359500E+01 0.  0.
     999903    2    3    3    0    0  0.27151973524E-01 -0.69326409469E-01  0.10795631341E+00  0.13262278417E+00  0.19770092528E-01 0.  0.
         14    1    1    2    0    0 -0.17089459626E-01  0.14650259449E-01 -0.80737132378E-02  0.23913690173E-01  0.00000000000E+00 0. -1.
     999901    1    3    3    0    0 -0.10062513898E-01  0.54676150020E-01 -0.99882600174E-01  0.88739352566E+00  0.88000000000E+00 0. -1.
        -11    1    4    4    0    0  0.87641831351E-02 -0.45692157317E-01  0.57737834307E-01  0.74151889914E-01  0.51100000000E-03 0.  1.
         11    1    4    4    0    0  0.18387790389E-01 -0.23634252152E-01  0.50218479104E-01  0.58470894253E-01  0.51100000000E-03 0. -1.
</event>
<event>
 8    1  0.1161271E+005  0.1043930E+01  0.7957747E-01            NaN
         13   -1    0    0    0    0  0.00000000000E+00  0.00000000000E+00  0.74505805969E-08  0.10566000000E+00  0.10566000000E+00 0. -1.
     999900   -1    0    0    0    0 -0.00000000000E+00 -0.00000000000E+00 -0.74505805969E-08  0.93827000000E+00  0.93827000000E+00 0. -1.
     999902    2    1    2    0    0 -0.10416530032E-01  0.56005555067E-02 -0.20782444399E-01  0.10200180717E+01  0.10197377537E+01 0.  0.
     999903    2    3    3    0    0  0.82897268124E-02  0.70067866324E-01 -0.11051779510E+00  0.13291131861E+00  0.21748795809E-01 0.  0.
         14    1    1    2    0    0  0.10416530032E-01 -0.56005555067E-02  0.20782444399E-01  0.23911928301E-01  0.00000000000E+00 0. -1.
     999901    1    3    3    0    0 -0.18706256844E-01 -0.64467310817E-01  0.89735350702E-01  0.88710675309E+00  0.88000000000E+00 0.  1.
        -11    1    4    4    0    0  0.11979816681E-01  0.34544825109E-01 -0.69416743560E-01  0.78458946953E-01  0.51100000000E-03 0. -1.
         11    1    4    4    0    0 -0.36900898687E-02  0.35523041215E-01 -0.41101051541E-01  0.54452371657E-01  0.51100000000E-03 0.  1.
</event>
<event>
 8    1  0.1161271E+005  0.1043930E+01  0.7957747E-01            NaN
         13   -1    0    0    0    0  0.00000000000E+00  0.00000000000E+00  0.74505805969E-08  0.10566000000E+00  0.10566000000E+00 0.  1.
     999900   -1    0    0    0    0 -0.00000000000E+00 -0.00000000000E+00 -0.74505805969E-08  0.93827000000E+00  0.93827000000E+00 0.  1.
     999902    2    1    2    0    0  0.16859661219E-01  0.55363187810E-03 -0.14149363476E-01  0.10219127529E+01  0.10216755431E+01 0.  0.
     999903    2    3    3    0    0 -0.47206719159E-01 -0.52220411404E-01  0.10698950499E+00  0.12974448051E+00  0.20770901367E-01 0.  0.
         14    1    1    2    0    0 -0.16859661219E-01 -0.55363187810E-03  0.14149363476E-01  0.22017247136E-01  0.00000000000E+00 0.  1.
     999901    1    3    3    0    0  0.64066380378E-01  0.52774043282E-01 -0.12113886847E+00  0.89216827235E+00  0.88000000000E+00 0.  1.
        -11    1    4    4    0    0 -0.12882987087E-01 -0.24032598600E-01  0.54805622818E-01  0.61216456654E-01  0.51100000000E-03 0.  1.
         11    1    4    4    0    0 -0.34323732071E-01 -0.28187812804E-01  0.52183882175E-01  0.68528023858E-01  0.51100000000E-03 0. -1.
</event>
<event>
 8    1  0.1161271E+005  0.1043930E+01  0.7957747E-01            NaN
         13   -1    0    0    0    0  0.00000000000E+00  0.00000000000E+00  0.74505805969E-08  0.10566000000E+00  0.10566000000E+00 0. -1.
     999900   -1    0    0    0    0 -0.00000000000E+00 -0.00000000000E+00 -0.74505805969E-08  0.93827000000E+00  0.93827000000E+00 0. -1.
     999902    2    1    2    0    0 -0.18613049080E-01  0.12184917775E-01  0.12925236276E-01  0.10182010367E+01  0.10178759117E+01 0.  0.
     999903    2    3    3    0    0  0.68148788737E-02 -0.43264991272E-01 -0.11707213899E+00  0.12656176579E+00  0.19841693209E-01 0.  0.
         14    1    1    2    0    0  0.18613049080E-01 -0.12184917775E-01 -0.12925236276E-01  0.25728963252E-01  0.00000000000E+00 0.  1.
     999901    1    3    3    0    0 -0.25427927954E-01  0.55449909046E-01  0.12999737526E+00  0.89163927095E+00  0.88000000000E+00 0.  1.
        -11    1    4    4    0    0  0.12576654727E-01 -0.18466193839E-01 -0.48071974968E-01  0.53012719769E-01  0.51100000000E-03 0. -1.
         11    1    4    4    0    0 -0.57617758529E-02 -0.24798797433E-01 -0.69000164021E-01  0.73549046024E-01  0.51100000000E-03 0.  1.
</event>
<event>
 8    1  0.1161271E+005  0.1043930E+01  0.7957747E-01            NaN
         13   -1    0    0    0    0  0.00000000000E+00  0.00000000000E+00  0.74505805969E-08  0.10566000000E+00  0.10566000000E+00 0. -1.
     999900   -1    0    0    0    0 -0.00000000000E+00 -0.00000000000E+00 -0.74505805969E-08  0.93827000000E+00  0.93827000000E+00 0.  1.
     999902    2    1    2    0    0 -0.15801666776E-01 -0.85796761081E-02  0.16098767977E-01  0.10197955051E+01  0.10195098814E+01 0.  0.
     999903    2    3    3    0    0 -0.10424790383E+00  0.15816392828E-01  0.77845228804E-01  0.13287356349E+00  0.21856817982E-01 0.  0.
         14    1    1    2    0    0  0.15801666776E-01  0.85796761081E-02 -0.16098767977E-01  0.24134494928E-01  0.00000000000E+00 0. -1.
     999901    1    3    3    0    0  0.88446237057E-01 -0.24396068936E-01 -0.61746460827E-01  0.88692194158E+00  0.88000000000E+00 0.  1.
        -11    1    4    4    0    0 -0.29414972148E-01  0.14486808662E-01  0.21997590471E-01  0.39487508395E-01  0.51100000000E-03 0.  1.
         11    1    4    4    0    0 -0.74832931685E-01  0.13295841660E-02  0.55847638333E-01  0.93386055099E-01  0.51100000000E-03 0. -1.
</event>
<event>
 8    1  0.1161271E+005  0.1043930E+01  0.7957747E-01            NaN
         13   -1    0    0    0    0  0.00000000000E+00  0.00000000000E+00  0.74505805969E-08  0.10566000000E+00  0.10566000000E+00 0.  1.
     999900   -1    0    0    0    0 -0.00000000000E+00 -0.00000000000E+00 -0.74505805969E-08  0.93827000000E+00  0.93827000000E+00 0.  1.
     999902    2    1    2    0    0  0.64831933379E-02 -0.81388828607E-02 -0.14855507163E-01  0.10257927647E+01  0.10256324083E+01 0.  0.
     999903    2    3    3    0    0 -0.38409898095E-01  0.14275878728E-02  0.12592762794E+00  0.13342131844E+00  0.21589869327E-01 0.  0.
         14    1    1    2    0    0 -0.64831933379E-02  0.81388828607E-02  0.14855507163E-01  0.18137235268E-01  0.00000000000E+00 0.  1.
     999901    1    3    3    0    0  0.44893091433E-01 -0.95664707336E-02 -0.14078313510E+00  0.89237144629E+00  0.88000000000E+00 0.  1.
        -11    1    4    4    0    0 -0.93680089080E-02  0.76589755448E-02  0.58484257388E-01  0.59725111809E-01  0.51100000000E-03 0.  1.
         11    1    4    4    0    0 -0.29041889187E-01 -0.62313876720E-02  0.67443370553E-01  0.73696206636E-01  0.51100000000E-03 0. -1.
</event>
<event>
 8    1  0.1161271E+005  0.1043930E+01  0.7957747E-01            NaN
         13   -1    0    0    0    0  0.00000000000E+00  0.00000000000E+00  0.74505805969E-08  0.10566000000E+00  0.10566000000E+00 0. -1.
     999900   -1    0    0    0    0 -0.00000000000E+00 -0.00000000000E+00 -0.74505805969E-08  0.93827000000E+00  0.93827000000E+00 0.  1.
     999902    2    1    2    0    0 -0.11864908527E-01  0.12664140123E-01 -0.15358972030E-01  0.10207555632E+01  0.10204924621E+01 0.  0.
     999903    2    3    3    0    0 -0.19958267702E-01 -0.11067521683E+00 -0.63789612807E-01  0.13079847074E+00  0.19793665053E-01 0.  0.
         14    1    1    2    0    0  0.11864908527E-01 -0.12664140123E-01  0.15358972030E-01  0.23174436806E-01  0.00000000000E+00 0. -1.
     999901    1    3    3    0    0  0.80933591743E-02  0.12333935696E+00  0.48430640776E-01  0.88995709245E+00  0.88000000000E+00 0. -1.
        -11    1    4    4    0    0 -0.38688911664E-02 -0.67229042397E-01 -0.31642591968E-01  0.74405827782E-01  0.51100000000E-03 0. -1.
         11    1    4    4    0    0 -0.16089376535E-01 -0.43446174436E-01 -0.32147020839E-01  0.56392642962E-01  0.51100000000E-03 0.  1.
</event>
<event>
 8    1  0.1161271E+005  0.1043930E+01  0.7957747E-01            NaN
         13   -1    0    0    0    0  0.00000000000E+00  0.00000000000E+00  0.74505805969E-08  0.10566000000E+00  0.10566000000E+00 0.  1.
     999900   -1    0    0    0    0 -0.00000000000E+00 -0.00000000000E+00 -0.74505805969E-08  0.93827000000E+00  0.93827000000E+00 0.  1.
     999902    2    1    2    0    0  0.12587154272E-01 -0.29918091070E-02  0.20514236114E-01  0.10196767269E+01  0.10193882509E+01 0.  0.
     999903    2    3    3    0    0 -0.63246601492E-01 -0.10531212041E+00  0.38823387914E-01  0.13031997637E+00  0.19628180927E-01 0.  0.
         14    1    1    2    0    0 -0.12587154272E-01  0.29918091070E-02 -0.20514236114E-01  0.24253273135E-01  0.00000000000E+00 0. -1.
     999901    1    3    3    0    0  0.75833755763E-01  0.10232031130E+00 -0.18309151800E-01  0.88935675050E+00  0.88000000000E+00 0.  1.
        -11    1    4    4    0    0 -0.13522836481E-01 -0.20278949747E-01 -0.16248570162E-03  0.24380123706E-01  0.51100000000E-03 0. -1.
         11    1    4    4    0    0 -0.49723765011E-01 -0.85033170659E-01  0.38985873616E-01  0.10593985266E+00  0.51100000000E-03 0.  1.
</event>
<event>
 8    1  0.1161271E+005  0.1043930E+01  0.7957747E-01            NaN
         13   -1    0    0    0    0  0.00000000000E+00  0.00000000000E+00  0.74505805969E-08  0.10566000000E+00  0.10566000000E+00 0. -1.
     999900   -1    0    0    0    0 -0.00000000000E+00 -0.00000000000E+00 -0.74505805969E-08  0.93827000000E+00  0.93827000000E+00 0. -1.
     999902    2    1    2    0    0  0.22488152539E-01  0.48863280706E-02 -0.68036823334E-02  0.10199324314E+01  0.10196500779E+01 0.  0.
     999903    2    3    3    0    0 -0.34157087900E-01  0.10103537689E+00  0.70561273470E-01  0.12951755097E+00  0.20519470278E-01 0.  0.
         14    1    1    2    0    0 -0.22488152539E-01 -0.48863280706E-02  0.68036823334E-02  0.23997568625E-01  0.00000000000E+00 0. -1.
     999901    1    3    3    0    0  0.56645240439E-01 -0.96149048815E-01 -0.77364955803E-01  0.89041488040E+00  0.88000000000E+00 0.  1.
        -11    1    4    4    0    0 -0.15189113364E-01  0.54686732503E-01  0.49027373443E-01  0.75001948937E-01  0.51100000000E-03 0.  1.
         11    1    4    4    0    0 -0.18967974536E-01  0.46348644383E-01  0.21533900026E-01  0.54515602037E-01  0.51100000000E-03 0. -1.
</event>
<event>
 8    1  0.1161271E+005  0.1043930E+01  0.7957747E-01            NaN
         13   -1    0    0    0    0  0.00000000000E+00  0.00000000000E+00  0.74505805969E-08  0.10566000000E+00  0.10566000000E+00 0. -1.
     999900   -1    0    0    0    0 -0.00000000000E+00 -0.00000000000E+00 -0.74505805969E-08  0.93827000000E+00  0.93827000000E+00 0. -1.
     999902    2    1    2    0    0  0.78583708239E-03  0.19566851490E-01  0.13235050004E-01  0.10202943116E+01  0.10200205079E+01 0.  0.
     999903    2    3    3    0    0  0.67815643389E-01  0.68184624574E-01 -0.86745082753E-01  0.13077044473E+00  0.18113401598E-01 0.  0.
         14    1    1    2    0    0 -0.78583708239E-03 -0.19566851490E-01 -0.13235050004E-01  0.23635688392E-01  0.00000000000E+00 0.  1.
     999901    1    3    3    0    0 -0.67029806307E-01 -0.48617773083E-01  0.99980132757E-01  0.88952386687E+00  0.88000000000E+00 0.  1.
        -11    1    4    4    0    0  0.56958322325E-01  0.57660023500E-01 -0.63179056445E-01  0.10276567076E+00  0.51100000000E-03 0.  1.
         11    1    4    4    0    0  0.10857321064E-01  0.10524601073E-01 -0.23566026309E-01  0.28004773975E-01  0.51100000000E-03 0. -1.
</event>
<event>
 7    1  0.1561924E+005  0.1043930E+01  0.7957747E-01            NaN
         13   -1    0    0    0    0  0.00000000000E+00  0.00000000000E+00  0.74505805969E-08  0.10566000000E+00  0.10566000000E+00 0.  1.
     999900   -1    0    0    0    0 -0.00000000000E+00 -0.00000000000E+00 -0.74505805969E-08  0.93827000000E+00  0.93827000000E+00 0. -1.
     999903    2    1    2    0    0 -0.81577967650E-01 -0.18268847171E-01 -0.10017389886E-01  0.86551323234E-01  0.20051630122E-01 0.  0.
         14    1    1    2    0    0 -0.59010791486E-01 -0.27085297824E-01  0.38619109814E-02  0.65044609511E-01  0.00000000000E+00 0. -1.
     999901    1    1    2    0    0  0.14058875914E+00  0.45354144996E-01  0.61554789046E-02  0.89233406726E+00  0.88000000000E+00 0. -1.
        -11    1    3    3    0    0 -0.87272850045E-02  0.42344477692E-02 -0.14845974962E-02  0.98265559677E-02  0.51100000000E-03 0.  1.
         11    1    3    3    0    0 -0.72850682645E-01 -0.22503294941E-01 -0.85327923899E-02  0.76724767266E-01  0.51100000000E-03 0. -1.
</event>
<event>
 8    1  0.1161271E+005  0.1043930E+01  0.7957747E-01            NaN
         13   -1    0    0    0    0  0.00000000000E+00  0.00000000000E+00  0.74505805969E-08  0.10566000000E+00  0.10566000000E+00 0.  1.
     999900   -1    0    0    0    0 -0.00000000000E+00 -0.00000000000E+00 -0.74505805969E-08  0.93827000000E+00  0.93827000000E+00 0. -1.
     999902    2    1    2    0    0 -0.42441974451E-02 -0.24802358828E-01  0.10156377207E-02  0.10187466377E+01  0.10184353245E+01 0.  0.
     999903    2    3    3    0    0  0.11032588717E-01  0.11998425656E+00 -0.31523014809E-01  0.12619114472E+00  0.20311688908E-01 0.  0.
         14    1    1    2    0    0  0.42441974451E-02  0.24802358828E-01 -0.10156377207E-02  0.25183362273E-01  0.00000000000E+00 0. -1.
     999901    1    3    3    0    0 -0.15276786162E-01 -0.14478661539E+00  0.32538652530E-01  0.89255549301E+00  0.88000000000E+00 0. -1.
        -11    1    4    4    0    0  0.13773571548E-02  0.81701862585E-01 -0.28689565974E-01  0.86605102502E-01  0.51100000000E-03 0.  1.
         11    1    4    4    0    0  0.96552315620E-02  0.38282393977E-01 -0.28334488358E-02  0.39586042217E-01  0.51100000000E-03 0. -1.
</event>
<event>
 8    1  0.1161271E+005  0.1043930E+01  0.7957747E-01            NaN
         13   -1    0    0    0    0  0.00000000000E+00  0.00000000000E+00  0.74505805969E-08  0.10566000000E+00  0.10566000000E+00 0.  1.
     999900   -1    0    0    0    0 -0.00000000000E+00 -0.00000000000E+00 -0.74505805969E-08  0.93827000000E+00  0.93827000000E+00 0. -1.
     999902    2    1    2    0    0 -0.22324390839E-01 -0.68529384006E-02  0.51799214902E-02  0.10200098667E+01  0.10197293540E+01 0.  0.
     999903    2    3    3    0    0  0.12323916797E+00 -0.17480621325E-01 -0.15842928526E-01  0.12774104087E+00  0.23943903071E-01 0.  0.
         14    1    1    2    0    0  0.22324390839E-01  0.68529384006E-02 -0.51799214902E-02  0.23920133313E-01  0.00000000000E+00 0.  1.
     999901    1    3    3    0    0 -0.14556355881E+00  0.10627682925E-01  0.21022850017E-01  0.89226882581E+00  0.88000000000E+00 0.  1.
        -11    1    4    4    0    0  0.76671029189E-01 -0.19165981472E-01 -0.18125438825E-01  0.81083748163E-01  0.51100000000E-03 0.  1.
         11    1    4    4    0    0  0.46568138784E-01  0.16853601466E-02  0.22825102989E-02  0.46657292708E-01  0.51100000000E-03 0. -1.
</event>
<event>
 8    1  0.1161271E+005  0.1043930E+01  0.7957747E-01            NaN
         13   -1    0    0    0    0  0.00000000000E+00  0.00000000000E+00  0.74505805969E-08  0.10566000000E+00  0.10566000000E+00 0.  1.
     999900   -1    0    0    0    0 -0.00000000000E+00 -0.00000000000E+00 -0.74505805969E-08  0.93827000000E+00  0.93827000000E+00 0. -1.
     999902    2    1    2    0    0 -0.20767420964E-01 -0.74250908431E-02 -0.87601490601E-02  0.10201990506E+01  0.10199230093E+01 0.  0.
     999903    2    3    3    0    0  0.18311381209E-01 -0.12835286549E+00  0.95050355780E-02  0.13088229240E+00  0.15167860809E-01 0.  0.
         14    1    1    2    0    0  0.20767420964E-01  0.74250908431E-02  0.87601490601E-02  0.23730949392E-01  0.00000000000E+00 0.  1.
     999901    1    3    3    0    0 -0.39078802173E-01  0.12092777465E+00 -0.18265184638E-01  0.88931675821E+00  0.88000000000E+00 0. -1.
        -11    1    4    4    0    0  0.88091887306E-02 -0.64771618287E-01 -0.27827801288E-02  0.65429116820E-01  0.51100000000E-03 0. -1.
         11    1    4    4    0    0  0.95021924788E-02 -0.63581247202E-01  0.12287815707E-01  0.65453175580E-01  0.51100000000E-03 0.  1.
</event>
<event>
 8    1  0.1161271E+005  0.1043930E+01  0.7957747E-01            NaN
         13   -1    0    0    0    0  0.00000000000E+00  0.00000000000E+00  0.74505805969E-08  0.10566000000E+00  0.10566000000E+00 0. -1.
     999900   -1    0    0    0    0 -0.00000000000E+00 -0.00000000000E+00 -0.74505805969E-08  0.93827000000E+00  0.93827000000E+00 0.  1.
     999902    2    1    2    0    0 -0.16237178433E-01 -0.48885139597E-02 -0.18068799669E-01  0.10191504711E+01  0.10188491830E+01 0.  0.
     999903    2    3    3    0    0  0.61086888284E-01  0.72661346774E-01  0.81655120659E-01  0.12677283102E+00  0.19811933750E-01 0.  0.
         14    1    1    2    0    0  0.16237178433E-01  0.48885139597E-02  0.18068799669E-01  0.24779528924E-01  0.00000000000E+00 0. -1.
     999901    1    3    3    0    0 -0.77324066717E-01 -0.77549860734E-01 -0.99723920328E-01  0.89237764006E+00  0.88000000000E+00 0.  1.
        -11    1    4    4    0    0  0.47853540350E-01  0.55791395165E-01  0.51424899641E-01  0.89707427354E-01  0.51100000000E-03 0.  1.
         11    1    4    4    0    0  0.13233347934E-01  0.16869951609E-01  0.30230221018E-01  0.37065403662E-01  0.51100000000E-03 0. -1.
</event>
<event>
 8    1  0.1161271E+005  0.1043930E+01  0.7957747E-01            NaN
         13   -1    0    0    0    0  0.00000000000E+00  0.00000000000E+00  0.74505805969E-08  0.10566000000E+00  0.10566000000E+00 0. -1.
     999900   -1    0    0    0    0 -0.00000000000E+00 -0.00000000000E+00 -0.74505805969E-08  0.93827000000E+00  0.93827000000E+00 0.  1.
     999902    2    1    2    0    0  0.10188112068E-01 -0.93002651013E-02  0.19299178780E-01  0.10202076295E+01  0.10199317901E+01 0.  0.
     999903    2    3    3    0    0  0.12246825005E+00 -0.79301052927E-02 -0.41409790450E-01  0.13099770738E+00  0.19602799674E-01 0.  0.
         14    1    1    2    0    0 -0.10188112068E-01  0.93002651013E-02 -0.19299178780E-01  0.23722370456E-01  0.00000000000E+00 0.  1.
     999901    1    3    3    0    0 -0.11228013798E+00 -0.13701598087E-02  0.60708969230E-01  0.88920992216E+00  0.88000000000E+00 0.  1.
        -11    1    4    4    0    0  0.34587773990E-01  0.41237078716E-02 -0.18212228693E-01  0.39309864807E-01  0.51100000000E-03 0. -1.
         11    1    4    4    0    0  0.87880476058E-01 -0.12053813164E-01 -0.23197561757E-01  0.91687842577E-01  0.51100000000E-03 0.  1.
</event>
<event>
 8    1  0.1161271E+005  0.1043930E+01  0.7957747E-01            NaN
         13   -1    0    0    0    0  0.00000000000E+00  0.00000000000E+00  0.74505805969E-08  0.10566000000E+00  0.10566000000E+00 0. -1.
     999900   -1    0    0    0    0 -0.00000000000E+00 -0.00000000000E+00 -0.74505805969E-08  0.93827000000E+00  0.93827000000E+00 0.  1.
     999902    2    1    2    0    0 -0.11635869920E-01  0.20778721217E-01 -0.23783343560E-02  0.10199966509E+01  0.10197158245E+01 0.  0.
     999903    2    3    3    0    0 -0.10385896047E+00  0.57483096639E-01  0.55307045888E-01  0.13253965888E+00  0.20418172845E-01 0.  0.
         14    1    1    2    0    0  0.11635869920E-01 -0.20778721217E-01  0.23783343560E-02  0.23933349087E-01  0.00000000000E+00 0. -1.
     999901    1    3    3    0    0  0.92223090555E-01 -0.36704375422E-01 -0.57685380244E-01  0.88745699203E+00  0.88000000000E+00 0.  1.
        -11    1    4    4    0    0 -0.68763623026E-01  0.35848926424E-01  0.25394305835E-01  0.81600939132E-01  0.51100000000E-03 0.  1.
         11    1    4    4    0    0 -0.35095337449E-01  0.21634170215E-01  0.29912740053E-01  0.50938719752E-01  0.51100000000E-03 0. -1.
</event>
<event>
 8    1  0.1161271E+005  0.1043930E+01  0.7957747E-01            NaN
         13   -1    0    0    0    0  0.00000000000E+00  0.00000000000E+00  0.74505805969E-08  0.10566000000E+00  0.10566000000E+00 0.  1.
     999900   -1    0    0    0    0 -0.00000000000E+00 -0.00000000000E+00 -0.74505805969E-08  0.93827000000E+00  0.93827000000E+00 0.  1.
     999902    2    1    2    0    0 -0.12126472827E-01 -0.18510207840E-01 -0.65308460491E-02  0.10208576987E+01  0.10205969380E+01 0.  0.
     999903    2    3    3    0    0  0.91817158382E-01 -0.89837281138E-01  0.19405076968E-01  0.13149584773E+00  0.20334042915E-01 0.  0.
         14    1    1    2    0    0  0.12126472827E-01  0.18510207840E-01  0.65308460491E-02  0.23072301307E-01  0.00000000000E+00 0.  1.
     999901    1    3    3    0    0 -0.10394363121E+00  0.71327073298E-01 -0.25935923017E-01  0.88936185097E+00  0.88000000000E+00 0.  1.
        -11    1    4    4    0    0  0.20131342696E-01 -0.22905777322E-01 -0.37339605306E-02  0.30727010524E-01  0.51100000000E-03 0.  1.
         11    1    4    4    0    0  0.71685815686E-01 -0.66931503815E-01  0.23139037499E-01  0.10076883720E+00  0.51100000000E-03 0. -1.
</event>
<event>
 8    1  0.1161271E+005  0.1043930E+01  0.7957747E-01            NaN
         13   -1    0    0    0    0  0.00000000000E+00  0.00000000000E+00  0.74505805969E-08  0.10566000000E+00  0.10566000000E+00 0. -1.
     999900   -1    0    0    0    0 -0.00000000000E+00 -0.00000000000E+00 -0.74505805969E-08  0.93827000000E+00  0.93827000000E+00 0.  1.
     999902    2    1    2    0    0 -0.24682802653E-01  0.81007085422E-02  0.15194114909E-01  0.10138347619E+01  0.10133879816E+01 0.  0.
     999903    2    3    3    0    0 -0.37616010737E-02 -0.12606975201E-01 -0.12067941063E+00  0.12292055744E+00  0.19309526802E-01 0.  0.
         14    1    1    2    0    0  0.24682802653E-01 -0.81007085422E-02 -0.15194114909E-01  0.30095238054E-01  0.00000000000E+00 0.  1.
     999901    1    3    3    0    0 -0.20921201579E-01  0.20707683744E-01  0.13587352554E+00  0.89091420450E+00  0.88000000000E+00 0. -1.
        -11    1    4    4    0    0  0.59209648668E-02 -0.11425178616E-02 -0.64020200107E-01  0.64305600959E-01  0.51100000000E-03 0. -1.
         11    1    4    4    0    0 -0.96825659405E-02 -0.11464457340E-01 -0.56659210525E-01  0.58614956484E-01  0.51100000000E-03 0.  1.
</event>
<event>
 8    1  0.1161271E+005  0.1043930E+01  0.7957747E-01            NaN
         13   -1    0    0    0    0  0.00000000000E+00  0.00000000000E+00  0.74505805969E-08  0.10566000000E+00  0.10566000000E+00 0.  1.
     999900   -1    0    0    0    0 -0.00000000000E+00 -0.00000000000E+00 -0.74505805969E-08  0.93827000000E+00  0.93827000000E+00 0. -1.
     999902    2    1    2    0    0 -0.16581571455E-01 -0.79036210021E-02 -0.15254376920E-01  0.10200529870E+01  0.10197734966E+01 0.  0.
     999903    2    3    3    0    0 -0.32947832685E-02  0.18251940250E-01 -0.12985947378E+00  0.13213689838E+00  0.15896165037E-01 0.  0.
         14    1    1    2    0    0  0.16581571455E-01  0.79036210021E-02  0.15254376920E-01  0.23877013048E-01  0.00000000000E+00 0.  1.
     999901    1    3    3    0    0 -0.13286788186E-01 -0.26155561252E-01  0.11460509686E+00  0.88791608858E+00  0.88000000000E+00 0.  1.
        -11    1    4    4    0    0 -0.21094521528E-02  0.19994854934E-01 -0.90062520749E-01  0.92280890638E-01  0.51100000000E-03 0.  1.
         11    1    4    4    0    0 -0.11853311157E-02 -0.17429146842E-02 -0.39796953030E-01  0.39856007740E-01  0.51100000000E-03 0. -1.
</event>
<event>
 8    1  0.1161271E+005  0.1043930E+01  0.7957747E-01            NaN
         13   -1    0    0    0    0  0.00000000000E+00  0.00000000000E+00  0.74505805969E-08  0.10566000000E+00  0.10566000000E+00 0.  1.
     999900   -1    0    0    0    0 -0.00000000000E+00 -0.00000000000E+00 -0.74505805969E-08  0.93827000000E+00  0.93827000000E+00 0.  1.
     999902    2    1    2    0    0 -0.20639025220E-01  0.95176210759E-02 -0.19843809975E-02  0.10211157010E+01  0.10208608047E+01 0.  0.
     999903    2    3    3    0    0 -0.27720095265E-01 -0.62698968139E-01 -0.11077874377E+00  0.13145194948E+00  0.17553366214E-01 0.  0.
         14    1    1    2    0    0  0.20639025220E-01 -0.95176210759E-02  0.19843809975E-02  0.22814299045E-01  0.00000000000E+00 0. -1.
     999901    1    3    3    0    0  0.70810700449E-02  0.72216589215E-01  0.10879436277E+00  0.88966375147E+00  0.88000000000E+00 0. -1.
        -11    1    4    4    0    0 -0.17061084838E-01 -0.52795295539E-01 -0.94728693393E-01  0.10978255927E+00  0.51100000000E-03 0.  1.
         11    1    4    4    0    0 -0.10659010427E-01 -0.99036725998E-02 -0.16050050374E-01  0.21669390214E-01  0.51100000000E-03 0. -1.
</event>
<event>
 8    1  0.1161271E+005  0.1043930E+01  0.7957747E-01            NaN
         13   -1    0    0    0    0  0.00000000000E+00  0.00000000000E+00  0.74505805969E-08  0.10566000000E+00  0.10566000000E+00 0. -1.
     999900   -1    0    0    0    0 -0.00000000000E+00 -0.00000000000E+00 -0.74505805969E-08  0.93827000000E+00  0.93827000000E+00 0. -1.
     999902    2    1    2    0    0  0.18074366005E-01  0.28017571157E-02 -0.14746140206E-01  0.10204357198E+01  0.10201652205E+01 0.  0.
     999903    2    3    3    0    0 -0.55150874508E-01  0.50378478257E-01 -0.10640934140E+00  0.13137575409E+00  0.18895258527E-01 0.  0.
         14    1    1    2    0    0 -0.18074366005E-01 -0.28017571157E-02  0.14746140206E-01  0.23494280163E-01  0.00000000000E+00 0. -1.
     999901    1    3    3    0    0  0.73225240513E-01 -0.47576721141E-01  0.91663201194E-01  0.88905996575E+00  0.88000000000E+00 0.  1.
        -11    1    4    4    0    0 -0.14616881504E-01  0.34375798538E-02 -0.21239414992E-01  0.26016226674E-01  0.51100000000E-03 0. -1.
         11    1    4    4    0    0 -0.40533993004E-01  0.46940898403E-01 -0.85169926408E-01  0.10535952741E+00  0.51100000000E-03 0.  1.
</event>
<event>
 8    1  0.1161271E+005  0.1043930E+01  0.7957747E-01            NaN
         13   -1    0    0    0    0  0.00000000000E+00  0.00000000000E+00  0.74505805969E-08  0.10566000000E+00  0.10566000000E+00 0.  1.
     999900   -1    0    0    0    0 -0.00000000000E+00 -0.00000000000E+00 -0.74505805969E-08  0.93827000000E+00  0.93827000000E+00 0.  1.
     999902    2    1    2    0    0  0.16700722298E-01 -0.49688994307E-02 -0.16968284973E-01  0.10196086764E+01  0.10193185597E+01 0.  0.
     999903    2    3    3    0    0  0.12873556242E+00 -0.14968391796E-01 -0.18452768449E-01  0.13244803765E+00  0.20126605055E-01 0.  0.
         14    1    1    2    0    0 -0.16700722298E-01  0.49688994307E-02  0.16968284973E-01  0.24321323603E-01  0.00000000000E+00 0.  1.
     999901    1    3    3    0    0 -0.11203484012E+00  0.99994923657E-02  0.14844834761E-02  0.88716063875E+00  0.88000000000E+00 0. -1.
        -11    1    4    4    0    0  0.47948113297E-01 -0.13290785379E-01 -0.95020072383E-03  0.49767766146E-01  0.51100000000E-03 0.  1.
         11    1    4    4    0    0  0.80787449119E-01 -0.16776064177E-02 -0.17502567726E-01  0.82680271506E-01  0.51100000000E-03 0. -1.
</event>
<event>
 8    1  0.1161271E+005  0.1043930E+01  0.7957747E-01            NaN
         13   -1    0    0    0    0  0.00000000000E+00  0.00000000000E+00  0.74505805969E-08  0.10566000000E+00  0.10566000000E+00 0. -1.
     999900   -1    0    0    0    0 -0.00000000000E+00 -0.00000000000E+00 -0.74505805969E-08  0.93827000000E+00  0.93827000000E+00 0. -1.
     999902    2    1    2    0    0  0.17399440115E-01 -0.18984482727E-01 -0.88212169031E-03  0.10181631756E+01  0.10178370807E+01 0.  0.
     999903    2    3    3    0    0  0.92370287984E-01  0.41558714300E-01  0.77891848761E-01  0.12940480284E+00  0.20471103015E-01 0.  0.
         14    1    1    2    0    0 -0.17399440115E-01  0.18984482727E-01  0.88212169031E-03  0.25766824394E-01  0.00000000000E+00 0. -1.
     999901    1    3    3    0    0 -0.74970847869E-01 -0.60543197027E-01 -0.78773970451E-01  0.88875837276E+00  0.88000000000E+00 0. -1.
        -11    1    4    4    0    0  0.33337152441E-01  0.54052120995E-02  0.30512779875E-01  0.45517830654E-01  0.51100000000E-03 0. -1.
         11    1    4    4    0    0  0.59033135543E-01  0.36153502201E-01  0.47379068886E-01  0.83886972188E-01  0.51100000000E-03 0.  1.
</event>
<event>
 8    1  0.1161271E+005  0.1043930E+01  0.7957747E-01            NaN
         13   -1    0    0    0    0  0.00000000000E+00  0.00000000000E+00  0.74505805969E-08  0.10566000000E+00  0.10566000000E+00 0. -1.
     999900   -1    0    0    0    0 -0.00000000000E+00 -0.00000000000E+00 -0.74505805969E-08  0.93827000000E+00  0.93827000000E+00 0. -1.
     999902    2    1    2    0    0  0.15832238911E-01 -0.14060229264E-01  0.48419321731E-02  0.10222091772E+01  0.10219783793E+01 0.  0.
     999903    2    3    3    0    0  0.15835015925E-01 -0.12634434439E+00  0.32222357007E-01  0.13465218738E+00  0.29652827629E-01 0.  0.
         14    1    1    2    0    0 -0.15832238911E-01  0.14060229264E-01 -0.48419321731E-02  0.21720822798E-01  0.00000000000E+00 0.  1.
     999901    1    3    3    0    0 -0.27770136178E-05  0.11228411513E+00 -0.27380424834E-01  0.88755698982E+00  0.88000000000E+00 0. -1.
        -11    1    4    4    0    0  0.24664362009E-02 -0.71270513855E-01  0.31525752922E-01  0.77972454565E-01  0.51100000000E-03 0.  1.
         11    1    4    4    0    0  0.13368579724E-01 -0.55073830535E-01  0.69660408511E-03  0.56679732814E-01  0.51100000000E-03 0. -1.
</event>
<event>
 8    1  0.1161271E+005  0.1043930E+01  0.7957747E-01            NaN
         13   -1    0    0    0    0  0.00000000000E+00  0.00000000000E+00  0.74505805969E-08  0.10566000000E+00  0.10566000000E+00 0.  1.
     999900   -1    0    0    0    0 -0.00000000000E+00 -0.00000000000E+00 -0.74505805969E-08  0.93827000000E+00  0.93827000000E+00 0.  1.
     999902    2    1    2    0    0 -0.33437330617E-01 -0.29277348180E-02  0.43894501185E-02  0.10100789441E+01  0.10095115549E+01 0.  0.
     999903    2    3    3    0    0 -0.87604332442E-01 -0.83892674982E-01 -0.18749904780E-01  0.12440134176E+00  0.20288788159E-01 0.  0.
         14    1    1    2    0    0  0.33437330617E-01  0.29277348180E-02 -0.43894501185E-02  0.33851055852E-01  0.00000000000E+00 0. -1.
     999901    1    3    3    0    0  0.54167001825E-01  0.80964940164E-01  0.23139354898E-01  0.88567760239E+00  0.88000000000E+00 0. -1.
        -11    1    4    4    0    0 -0.43238603052E-01 -0.54453224161E-01 -0.71090005446E-02  0.69896562328E-01  0.51100000000E-03 0. -1.
         11    1    4    4    0    0 -0.44365729389E-01 -0.29439450820E-01 -0.11640904235E-01  0.54504779435E-01  0.51100000000E-03 0.  1.
</event>
<event>
 8    1  0.1161271E+005  0.1043930E+01  0.7957747E-01            NaN
         13   -1    0    0    0    0  0.00000000000E+00  0.00000000000E+00  0.74505805969E-08  0.10566000000E+00  0.10566000000E+00 0.  1.
     999900   -1    0    0    0    0 -0.00000000000E+00 -0.00000000000E+00 -0.74505805969E-08  0.93827000000E+00  0.93827000000E+00 0. -1.
     999902    2    1    2    0    0  0.19538754058E-01  0.27840986019E-02  0.10323951772E-01  0.10216567404E+01  0.10214139205E+01 0.  0.
     999903    2    3    3    0    0  0.75661105998E-01 -0.63584276561E-01 -0.85677308406E-01  0.13217896010E+00  0.19055527550E-01 0.  0.
         14    1    1    2    0    0 -0.19538754058E-01 -0.27840986019E-02 -0.10323951772E-01  0.22273259649E-01  0.00000000000E+00 0. -1.
     999901    1    3    3    0    0 -0.56122351939E-01  0.66368375163E-01  0.96001260179E-01  0.88947778025E+00  0.88000000000E+00 0.  1.
        -11    1    4    4    0    0  0.23627087845E-01 -0.29148505548E-01 -0.40012783769E-01  0.54855798615E-01  0.51100000000E-03 0. -1.
         11    1    4    4    0    0  0.52034018153E-01 -0.34435771013E-01 -0.45664524638E-01  0.77323161483E-01  0.51100000000E-03 0.  1.
</event>
<event>
 8    1  0.1161271E+005  0.1043930E+01  0.7957747E-01            NaN
         13   -1    0    0    0    0  0.00000000000E+00  0.00000000000E+00  0.74505805969E-08  0.10566000000E+00  0.10566000000E+00 0.  1.
     999900   -1    0    0    0    0 -0.00000000000E+00 -0.00000000000E+00 -0.74505805969E-08  0.93827000000E+00  0.93827000000E+00 0.  1.
     999902    2    1    2    0    0 -0.16562088310E-01 -0.83476463885E-02 -0.15591657523E-01  0.10197001475E+01  0.10194122351E+01 0.  0.
     999903    2    3    3    0    0  0.10036345967E+00 -0.43806782690E-01  0.62740408339E-01  0.12781178749E+00  0.20189995945E-01 0.  0.
         14    1    1    2    0    0  0.16562088310E-01  0.83476463885E-02  0.15591657523E-01  0.24229852532E-01  0.00000000000E+00 0.  1.
     999901    1    3    3    0    0 -0.11692554798E+00  0.35459136302E-01 -0.78332065861E-01  0.89188835998E+00  0.88000000000E+00 0.  1.
        -11    1    4    4    0    0  0.89391317109E-01 -0.40562146703E-01  0.48368241665E-01  0.10943419595E+00  0.51100000000E-03 0.  1.
         11    1    4    4    0    0  0.10972142563E-01 -0.32446359869E-02  0.14372166674E-01  0.18377591546E-01  0.51100000000E-03 0. -1.
</event>
<event>
 8    1  0.1161271E+005  0.1043930E+01  0.7957747E-01            NaN
         13   -1    0    0    0    0  0.00000000000E+00  0.00000000000E+00  0.74505805969E-08  0.10566000000E+00  0.10566000000E+00 0. -1.
     999900   -1    0    0    0    0 -0.00000000000E+00 -0.00000000000E+00 -0.74505805969E-08  0.93827000000E+00  0.93827000000E+00 0.  1.
     999902    2    1    2    0    0  0.22675348634E-02  0.13523075768E-01  0.20307331720E-01  0.10194268775E+01  0.10191323542E+01 0.  0.
     999903    2    3    3    0    0 -0.77259312663E-01 -0.84045287906E-01 -0.53067352102E-01  0.12744708548E+00  0.19849532164E-01 0.  0.
         14    1    1    2    0    0 -0.22675348634E-02 -0.13523075768E-01 -0.20307331720E-01  0.24503122539E-01  0.00000000000E+00 0.  1.
     999901    1    3    3    0    0  0.79526847526E-01  0.97568363674E-01  0.73374683822E-01  0.89197979198E+00  0.88000000000E+00 0.  1.
        -11    1    4    4    0    0 -0.31231091910E-01 -0.47799003064E-01 -0.29788927395E-01  0.64403160732E-01  0.51100000000E-03 0. -1.
         11    1    4    4    0    0 -0.46028220753E-01 -0.36246284842E-01 -0.23278424707E-01  0.63043924753E-01  0.51100000000E-03 0.  1.
</event>
<event>
 8    1  0.1161271E+005  0.1043930E+01  0.7957747E-01            NaN
         13   -1    0    0    0    0  0.00000000000E+00  0.00000000000E+00  0.74505805969E-08  0.10566000000E+00  0.10566000000E+00 0.  1.
     999900   -1    0    0    0    0 -0.00000000000E+00 -0.00000000000E+00 -0.74505805969E-08  0.93827000000E+00  0.93827000000E+00 0. -1.
     999902    2    1    2    0    0 -0.10770581679E-01  0.98598460790E-02  0.22993290042E-01  0.10166919130E+01  0.10163269812E+01 0.  0.
     999903    2    3    3    0    0 -0.12558431281E+00 -0.34806262234E-02 -0.15235216916E-01  0.12831047480E+00  0.21164397612E-01 0.  0.
         14    1    1    2    0    0  0.10770581679E-01 -0.98598460790E-02 -0.22993290042E-01  0.27238086962E-01  0.00000000000E+00 0. -1.
     999901    1    3    3    0    0  0.11481373113E+00  0.13340472302E-01  0.38228506959E-01  0.88838143824E+00  0.88000000000E+00 0. -1.
        -11    1    4    4    0    0 -0.10609132682E+00 -0.88022598376E-02 -0.17802281271E-01  0.10793531277E+00  0.51100000000E-03 0.  1.
         11    1    4    4    0    0 -0.19492985996E-01  0.53216336142E-02  0.25670643549E-02  0.20375162030E-01  0.51100000000E-03 0. -1.
</event>
<event>
 8    1  0.1161271E+005  0.1043930E+01  0.7957747E-01            NaN
         13   -1    0    0    0    0  0.00000000000E+00  0.00000000000E+00  0.74505805969E-08  0.10566000000E+00  0.10566000000E+00 0.  1.
     999900   -1    0    0    0    0 -0.00000000000E+00 -0.00000000000E+00 -0.74505805969E-08  0.93827000000E+00  0.93827000000E+00 0. -1.
     999902    2    1    2    0    0  0.20125177788E-01 -0.14326479951E-01  0.32038176885E-02  0.10190194549E+01  0.10187149328E+01 0.  0.
     999903    2    3    3    0    0 -0.88619946959E-01  0.52279680263E-01  0.72099878650E-01  0.12716265590E+00  0.19628769343E-01 0.  0.
         14    1    1    2    0    0 -0.20125177788E-01  0.14326479951E-01 -0.32038176885E-02  0.24910545088E-01  0.00000000000E+00 0.  1.
     999901    1    3    3    0    0  0.10874512475E+00 -0.66606160214E-01 -0.68896060961E-01  0.89185679902E+00  0.88000000000E+00 0. -1.
        -11    1    4    4    0    0 -0.51303838110E-01  0.28835110430E-01  0.52732376030E-01  0.79022224729E-01  0.51100000000E-03 0. -1.
         11    1    4    4    0    0 -0.37316108849E-01  0.23444569833E-01  0.19367502620E-01  0.48140431168E-01  0.51100000000E-03 0.  1.
</event>
<event>
 8    1  0.1161271E+005  0.1043930E+01  0.7957747E-01            NaN
         13   -1    0    0    0    0  0.00000000000E+00  0.00000000000E+00  0.74505805969E-08  0.10566000000E+00  0.10566000000E+00 0.  1.
     999900   -1    0    0    0    0 -0.00000000000E+00 -0.00000000000E+00 -0.74505805969E-08  0.93827000000E+00  0.93827000000E+00 0.  1.
     999902    2    1    2    0    0 -0.10745705206E-01 -0.37067486576E-02 -0.21291074106E-01  0.10197945488E+01  0.10195089023E+01 0.  0.
     999903    2    3    3    0    0 -0.11335152640E+00  0.33099994279E-01  0.50903763339E-01  0.13013462200E+00  0.19991212129E-01 0.  0.
         14    1    1    2    0    0  0.10745705206E-01  0.37067486576E-02  0.21291074106E-01  0.24135451157E-01  0.00000000000E+00 0.  1.
     999901    1    3    3    0    0  0.10260582120E+00 -0.36806742936E-01 -0.72194837445E-01  0.88965992684E+00  0.88000000000E+00 0. -1.
        -11    1    4    4    0    0 -0.47250841635E-01  0.22218518125E-01  0.16106858368E-01  0.54644273171E-01  0.51100000000E-03 0.  1.
         11    1    4    4    0    0 -0.66100684770E-01  0.10881476153E-01  0.34796904970E-01  0.75490348832E-01  0.51100000000E-03 0. -1.
</event>
<event>
 8    1  0.1161271E+005  0.1043930E+01  0.7957747E-01            NaN
         13   -1    0    0    0    0  0.00000000000E+00  0.00000000000E+00  0.74505805969E-08  0.10566000000E+00  0.10566000000E+00 0. -1.
     999900   -1    0    0    0    0 -0.00000000000E+00 -0.00000000000E+00 -0.74505805969E-08  0.93827000000E+00  0.93827000000E+00 0.  1.
     999902    2    1    2    0    0  0.66611808236E-02  0.22213984994E-01  0.69759263639E-02  0.10197123203E+01  0.10194247006E+01 0.  0.
     999903    2    3    3    0    0  0.94280061864E-01  0.89569845018E-01 -0.14713501127E-01  0.13253459775E+00  0.20915192682E-01 0.  0.
         14    1    1    2    0    0 -0.66611808236E-02 -0.22213984994E-01 -0.69759263639E-02  0.24217679656E-01  0.00000000000E+00 0.  1.
     999901    1    3    3    0    0 -0.87618881040E-01 -0.67355860023E-01  0.21689427491E-01  0.88717772259E+00  0.88000000000E+00 0. -1.
        -11    1    4    4    0    0  0.63379984009E-01  0.54494885476E-01 -0.20825162416E-03  0.83588392770E-01  0.51100000000E-03 0. -1.
         11    1    4    4    0    0  0.30900077855E-01  0.35074959541E-01 -0.14505249503E-01  0.48946204985E-01  0.51100000000E-03 0.  1.
</event>
<event>
 8    1  0.1161271E+005  0.1043930E+01  0.7957747E-01            NaN
         13   -1    0    0    0    0  0.00000000000E+00  0.00000000000E+00  0.74505805969E-08  0.10566000000E+00  0.10566000000E+00 0. -1.
     999900   -1    0    0    0    0 -0.00000000000E+00 -0.00000000000E+00 -0.74505805969E-08  0.93827000000E+00  0.93827000000E+00 0.  1.
     999902    2    1    2    0    0  0.19088653425E-01 -0.80467773774E-02 -0.12331035585E-01  0.10198222885E+01  0.10195373060E+01 0.  0.
     999903    2    3    3    0    0 -0.10922002000E+00 -0.61742673569E-01 -0.21523913662E-01  0.12885041803E+00  0.19949457601E-01 0.  0.
         14    1    1    2    0    0 -0.19088653425E-01  0.80467773774E-02  0.12331035585E-01  0.24107711511E-01  0.00000000000E+00 0. -1.
     999901    1    3    3    0    0  0.12830867342E+00  0.53695896192E-01  0.91928780779E-02  0.89097187046E+00  0.88000000000E+00 0. -1.
        -11    1    4    4    0    0 -0.10247456054E+00 -0.61468154057E-01 -0.23523934851E-01  0.12179082951E+00  0.51100000000E-03 0.  1.
         11    1    4    4    0    0 -0.67454594566E-02 -0.27451951164E-03  0.20000211887E-02  0.70595885148E-02  0.51100000000E-03 0. -1.
</event>
<event>
 8    1  0.1161271E+005  0.1043930E+01  0.7957747E-01            NaN
         13   -1    0    0    0    0  0.00000000000E+00  0.00000000000E+00  0.74505805969E-08  0.10566000000E+00  0.10566000000E+00 0.  1.
     999900   -1    0    0    0    0 -0.00000000000E+00 -0.00000000000E+00 -0.74505805969E-08  0.93827000000E+00  0.93827000000E+00 0.  1.
     999902    2    1    2    0    0  0.13872086847E-01 -0.13440160015E-01 -0.12890247051E-01  0.10207086485E+01  0.10204444689E+01 0.  0.
     999903    2    3    3    0    0  0.72993166367E-01 -0.10332157417E+00 -0.38975568270E-01  0.13377324241E+00  0.19308947076E-01 0.  0.
         14    1    1    2    0    0 -0.13872086847E-01  0.13440160015E-01  0.12890247051E-01  0.23221351463E-01  0.00000000000E+00 0.  1.
     999901    1    3    3    0    0 -0.59121079520E-01  0.89881414159E-01  0.26085321219E-01  0.88693540612E+00  0.88000000000E+00 0.  1.
        -11    1    4    4    0    0  0.55575633094E-01 -0.88574956902E-01 -0.36749187400E-01  0.11083743898E+00  0.51100000000E-03 0. -1.
         11    1    4    4    0    0  0.17417533273E-01 -0.14746617273E-01 -0.22263808699E-02  0.22935803432E-01  0.51100000000E-03 0.  1.
</event>
<event>
 8    1  0.1161271E+005  0.1043930E+01  0.7957747E-01            NaN
         13   -1    0    0    0    0  0.00000000000E+00  0.00000000000E+00  0.74505805969E-08  0.10566000000E+00  0.10566000000E+00 0. -1.
     999900   -1    0    0    0    0 -0.00000000000E+00 -0.00000000000E+00 -0.74505805969E-08  0.93827000000E+00  0.93827000000E+00 0.  1.
     999902    2    1    2    0    0  0.15522032985E-01  0.96672824702E-02 -0.16287709380E-01  0.10194416490E+01  0.10191474851E+01 0.  0.
     999903    2    3    3    0    0 -0.11259964145E+00 -0.53668122091E-01 -0.20373139370E-01  0.12790184188E+00  0.19618097886E-01 0.  0.
         14    1    1    2    0    0 -0.15522032985E-01 -0.96672824702E-02  0.16287709380E-01  0.24488351010E-01  0.00000000000E+00 0. -1.
     999901    1    3    3    0    0  0.12812167443E+00  0.63335404561E-01  0.40854299898E-02  0.89153980711E+00  0.88000000000E+00 0.  1.
        -11    1    4    4    0    0 -0.31507901434E-01 -0.23447005447E-01 -0.13900316484E-02  0.39302712708E-01  0.51100000000E-03 0. -1.
         11    1    4    4    0    0 -0.81091740014E-01 -0.30221116644E-01 -0.18983107722E-01  0.88599129168E-01  0.51100000000E-03 0.  1.
</event>
<event>
 8    1  0.1161271E+005  0.1043930E+01  0.7957747E-01            NaN
         13   -1    0    0    0    0  0.00000000000E+00  0.00000000000E+00  0.74505805969E-08  0.10566000000E+00  0.10566000000E+00 0.  1.
     999900   -1    0    0    0    0 -0.00000000000E+00 -0.00000000000E+00 -0.74505805969E-08  0.93827000000E+00  0.93827000000E+00 0. -1.
     999902    2    1    2    0    0 -0.11022912217E-01  0.20666624208E-01  0.12075271657E-01  0.10175780336E+01  0.10172367612E+01 0.  0.
     999903    2    3    3    0    0  0.46991659411E-01 -0.46198573708E-01 -0.10483830634E+00  0.12544271314E+00  0.20056907425E-01 0.  0.
         14    1    1    2    0    0  0.11022912217E-01 -0.20666624208E-01 -0.12075271657E-01  0.26351966445E-01  0.00000000000E+00 0. -1.
     999901    1    3    3    0    0 -0.58014571629E-01  0.66865197916E-01  0.11691357800E+00  0.89213532042E+00  0.88000000000E+00 0.  1.
        -11    1    4    4    0    0  0.63490511637E-02 -0.24322460711E-02 -0.23887410471E-01  0.24841412433E-01  0.51100000000E-03 0.  1.
         11    1    4    4    0    0  0.40642608248E-01 -0.43766327637E-01 -0.80950895873E-01  0.10060130071E+00  0.51100000000E-03 0. -1.
</event>
<event>
 8    1  0.1161271E+005  0.1043930E+01  0.7957747E-01            NaN
         13   -1    0    0    0    0  0.00000000000E+00  0.00000000000E+00  0.74505805969E-08  0.10566000000E+00  0.10566000000E+00 0. -1.
     999900   -1    0    0    0    0 -0.00000000000E+00 -0.00000000000E+00 -0.74505805969E-08  0.93827000000E+00  0.93827000000E+00 0. -1.
     999902    2    1    2    0    0 -0.12450913246E-01  0.11319867577E-01 -0.16865158515E-01  0.10201056802E+01  0.10198274366E+01 0.  0.
     999903    2    3    3    0    0 -0.94413353317E-01 -0.87746116201E-01 -0.89652308971E-02  0.13072706589E+00  0.19897944556E-01 0.  0.
         14    1    1    2    0    0  0.12450913246E-01 -0.11319867577E-01  0.16865158515E-01  0.23824319809E-01  0.00000000000E+00 0. -1.
     999901    1    3    3    0    0  0.81962440071E-01  0.99065983778E-01 -0.78999276180E-02  0.88937861430E+00  0.88000000000E+00 0. -1.
        -11    1    4    4    0    0 -0.24941521446E-01 -0.35810807589E-01 -0.15617793749E-02  0.43671428967E-01  0.51100000000E-03 0.  1.
         11    1    4    4    0    0 -0.69471831872E-01 -0.51935308613E-01 -0.74034515223E-02  0.87055636921E-01  0.51100000000E-03 0. -1.
</event>
<event>
 8    1  0.1161271E+005  0.1043930E+01  0.7957747E-01            NaN
         13   -1    0    0    0    0  0.00000000000E+00  0.00000000000E+00  0.74505805969E-08  0.10566000000E+00  0.10566000000E+00 0. -1.
     999900   -1    0    0    0    0 -0.00000000000E+00 -0.00000000000E+00 -0.74505805969E-08  0.93827000000E+00  0.93827000000E+00 0.  1.
     999902    2    1    2    0    0  0.59776848708E-02 -0.95881985439E-02 -0.20850604234E-01  0.10202147314E+01  0.10199390591E+01 0.  0.
     999903    2    3    3    0    0  0.10736658593E+00 -0.72414720839E-01  0.12639575591E-01  0.13153679576E+00  0.19253420447E-01 0.  0.
         14    1    1    2    0    0 -0.59776848708E-02  0.95881985439E-02  0.20850604234E-01  0.23715268597E-01  0.00000000000E+00 0. -1.
     999901    1    3    3    0    0 -0.10138890106E+00  0.62826522295E-01 -0.33490179825E-01  0.88867793565E+00  0.88000000000E+00 0.  1.
        -11    1    4    4    0    0  0.76232650126E-01 -0.40450507492E-01  0.79201268099E-02  0.86664006550E-01  0.51100000000E-03 0. -1.
         11    1    4    4    0    0  0.31133935801E-01 -0.31964213347E-01  0.47194487815E-02  0.44872789206E-01  0.51100000000E-03 0.  1.
</event>
<event>
 8    1  0.1161271E+005  0.1043930E+01  0.7957747E-01            NaN
         13   -1    0    0    0    0  0.00000000000E+00  0.00000000000E+00  0.74505805969E-08  0.10566000000E+00  0.10566000000E+00 0.  1.
     999900   -1    0    0    0    0 -0.00000000000E+00 -0.00000000000E+00 -0.74505805969E-08  0.93827000000E+00  0.93827000000E+00 0. -1.
     999902    2    1    2    0    0 -0.10060460345E-02 -0.23482201634E-01  0.91215739729E-03  0.10204085640E+01  0.10201374316E+01 0.  0.
     999903    2    3    3    0    0 -0.36763455175E-01 -0.58612167812E-01 -0.11046252520E+00  0.13197340777E+00  0.20689925867E-01 0.  0.
         14    1    1    2    0    0  0.10060460345E-02  0.23482201634E-01 -0.91215739729E-03  0.23521436039E-01  0.00000000000E+00 0. -1.
     999901    1    3    3    0    0  0.35757409140E-01  0.35129966178E-01  0.11137468260E+00  0.88843515619E+00  0.88000000000E+00 0.  1.
        -11    1    4    4    0    0 -0.26453742504E-02 -0.98161551543E-02 -0.31325980816E-01  0.32938322696E-01  0.51100000000E-03 0.  1.
         11    1    4    4    0    0 -0.34118080924E-01 -0.48796012657E-01 -0.79136544387E-01  0.99035085074E-01  0.51100000000E-03 0. -1.
</event>
<event>
 8    1  0.1161271E+005  0.1043930E+01  0.7957747E-01            NaN
         13   -1    0    0    0    0  0.00000000000E+00  0.00000000000E+00  0.74505805969E-08  0.10566000000E+00  0.10566000000E+00 0.  1.
     999900   -1    0    0    0    0 -0.00000000000E+00 -0.00000000000E+00 -0.74505805969E-08  0.93827000000E+00  0.93827000000E+00 0.  1.
     999902    2    1    2    0    0 -0.20556259042E-01 -0.11821086519E-01  0.41147761911E-02  0.10198628179E+01  0.10195788042E+01 0.  0.
     999903    2    3    3    0    0 -0.12734496459E+00 -0.12072268032E-01  0.29790612113E-01  0.13303524767E+00  0.21175856350E-01 0.  0.
         14    1    1    2    0    0  0.20556259042E-01  0.11821086519E-01 -0.41147761911E-02  0.24067182124E-01  0.00000000000E+00 0.  1.
     999901    1    3    3    0    0  0.10678870554E+00  0.25118151214E-03 -0.25675835922E-01  0.88682757020E+00  0.88000000000E+00 0. -1.
        -11    1    4    4    0    0 -0.30878336910E-01  0.60482273791E-02  0.59592381527E-02  0.32028524554E-01  0.51100000000E-03 0.  1.
         11    1    4    4    0    0 -0.96466627676E-01 -0.18120495411E-01  0.23831373960E-01  0.10100672312E+00  0.51100000000E-03 0. -1.
</event>
<event>
 8    1  0.1161271E+005  0.1043930E+01  0.7957747E-01            NaN
         13   -1    0    0    0    0  0.00000000000E+00  0.00000000000E+00  0.74505805969E-08  0.10566000000E+00  0.10566000000E+00 0. -1.
     999900   -1    0    0    0    0 -0.00000000000E+00 -0.00000000000E+00 -0.74505805969E-08  0.93827000000E+00  0.93827000000E+00 0. -1.
     999902    2    1    2    0    0 -0.57377733480E-02 -0.20882056818E-01 -0.42703152390E-02  0.10218569863E+01  0.10216185602E+01 0.  0.
     999903    2    3    3    0    0 -0.17840369670E-01  0.12297307461E+00  0.30403940289E-01  0.12942039157E+00  0.19610770010E-01 0.  0.
         14    1    1    2    0    0  0.57377733480E-02  0.20882056818E-01  0.42703152390E-02  0.22073013664E-01  0.00000000000E+00 0. -1.
     999901    1    3    3    0    0  0.12102596322E-01 -0.14385513143E+00 -0.34674255528E-01  0.89243659476E+00  0.88000000000E+00 0. -1.
        -11    1    4    4    0    0 -0.20133931604E-01  0.78620639669E-01  0.15939458095E-01  0.82709779526E-01  0.51100000000E-03 0. -1.
         11    1    4    4    0    0  0.22935619347E-02  0.44352434943E-01  0.14464482194E-01  0.46710612047E-01  0.51100000000E-03 0.  1.
</event>
<event>
 8    1  0.1161271E+005  0.1043930E+01  0.7957747E-01            NaN
         13   -1    0    0    0    0  0.00000000000E+00  0.00000000000E+00  0.74505805969E-08  0.10566000000E+00  0.10566000000E+00 0.  1.
     999900   -1    0    0    0    0 -0.00000000000E+00 -0.00000000000E+00 -0.74505805969E-08  0.93827000000E+00  0.93827000000E+00 0. -1.
     999902    2    1    2    0    0  0.89898769613E-02 -0.22242016037E-01 -0.19753405049E-02  0.10198587072E+01  0.10195745954E+01 0.  0.
     999903    2    3    3    0    0  0.15322279344E-02  0.12581029789E+00  0.16482363825E-02  0.12745283853E+00  0.20271422995E-01 0.  0.
         14    1    1    2    0    0 -0.89898769613E-02  0.22242016037E-01  0.19753405049E-02  0.24071292763E-01  0.00000000000E+00 0.  1.
     999901    1    3    3    0    0  0.74576490269E-02 -0.14805231392E+00 -0.36235768874E-02  0.89240586870E+00  0.88000000000E+00 0.  1.
        -11    1    4    4    0    0 -0.84351645628E-02  0.84494199270E-01 -0.17474655131E-04  0.84915741402E-01  0.51100000000E-03 0. -1.
         11    1    4    4    0    0  0.99673924972E-02  0.41316098617E-01  0.16657110376E-02  0.42537097132E-01  0.51100000000E-03 0.  1.
</event>
<event>
 8    1  0.1161271E+005  0.1043930E+01  0.7957747E-01            NaN
         13   -1    0    0    0    0  0.00000000000E+00  0.00000000000E+00  0.74505805969E-08  0.10566000000E+00  0.10566000000E+00 0.  1.
     999900   -1    0    0    0    0 -0.00000000000E+00 -0.00000000000E+00 -0.74505805969E-08  0.93827000000E+00  0.93827000000E+00 0.  1.
     999902    2    1    2    0    0 -0.62208912989E-02  0.20503494959E-01  0.13282465536E-01  0.10187205437E+01  0.10184085769E+01 0.  0.
     999903    2    3    3    0    0 -0.73023581281E-01  0.81683891282E-01 -0.67734943854E-01  0.13036843962E+00  0.20079987817E-01 0.  0.
         14    1    1    2    0    0  0.62208912989E-02 -0.20503494959E-01 -0.13282465536E-01  0.25209456257E-01  0.00000000000E+00 0.  1.
     999901    1    3    3    0    0  0.66802689982E-01 -0.61180396323E-01  0.81017409391E-01  0.88835210413E+00  0.88000000000E+00 0. -1.
        -11    1    4    4    0    0 -0.46890822013E-01  0.53257777456E-01 -0.32330710282E-01  0.77978689377E-01  0.51100000000E-03 0.  1.
         11    1    4    4    0    0 -0.26132759268E-01  0.28426113826E-01 -0.35404233572E-01  0.52389750238E-01  0.51100000000E-03 0. -1.
</event>
<event>
 8    1  0.1161271E+005  0.1043930E+01  0.7957747E-01            NaN
         13   -1    0    0    0    0  0.00000000000E+00  0.00000000000E+00  0.74505805969E-08  0.10566000000E+00  0.10566000000E+00 0. -1.
     999900   -1    0    0    0    0 -0.00000000000E+00 -0.00000000000E+00 -0.74505805969E-08  0.93827000000E+00  0.93827000000E+00 0. -1.
     999902    2    1    2    0    0  0.20390070436E-01 -0.84500839346E-03 -0.14474541825E-01  0.10189103802E+01  0.10186031522E+01 0.  0.
     999903    2    3    3    0    0  0.11593199600E+00  0.36282135280E-01 -0.48779194509E-01  0.13229688298E+00  0.19142476146E-01 0.  0.
         14    1    1    2    0    0 -0.20390070436E-01  0.84500839346E-03  0.14474541825E-01  0.25019619754E-01  0.00000000000E+00 0. -1.
     999901    1    3    3    0    0 -0.95541925561E-01 -0.37127143674E-01  0.34304652684E-01  0.88661349727E+00  0.88000000000E+00 0.  1.
        -11    1    4    4    0    0  0.72631579440E-01  0.21393298577E-01 -0.40131031343E-01  0.85695859606E-01  0.51100000000E-03 0. -1.
         11    1    4    4    0    0  0.43300416557E-01  0.14888836703E-01 -0.86481631660E-02  0.46601023374E-01  0.51100000000E-03 0.  1.
</event>
<event>
 8    1  0.1161271E+005  0.1043930E+01  0.7957747E-01            NaN
         13   -1    0    0    0    0  0.00000000000E+00  0.00000000000E+00  0.74505805969E-08  0.10566000000E+00  0.10566000000E+00 0. -1.
     999900   -1    0    0    0    0 -0.00000000000E+00 -0.00000000000E+00 -0.74505805969E-08  0.93827000000E+00  0.93827000000E+00 0. -1.
     999902    2    1    2    0    0  0.20605925734E-01 -0.38710727472E-02  0.47784997460E-02  0.10224259669E+01  0.10221998016E+01 0.  0.
     999903    2    3    3    0    0 -0.57847053323E-01 -0.64792499104E-01 -0.96070250702E-01  0.13111414684E+00  0.20422461024E-01 0.  0.
         14    1    1    2    0    0 -0.20605925734E-01  0.38710727472E-02 -0.47784997460E-02  0.21504033096E-01  0.00000000000E+00 0. -1.
     999901    1    3    3    0    0  0.78452979057E-01  0.60921426356E-01  0.10084875045E+00  0.89131182006E+00  0.88000000000E+00 0.  1.
        -11    1    4    4    0    0 -0.16694878266E-01 -0.26975339371E-01 -0.23336747340E-01  0.39385946629E-01  0.51100000000E-03 0. -1.
         11    1    4    4    0    0 -0.41152175058E-01 -0.37817159733E-01 -0.72733503363E-01  0.91728200215E-01  0.51100000000E-03 0.  1.
</event>
<event>
 8    1  0.1161271E+005  0.1043930E+01  0.7957747E-01            NaN
         13   -1    0    0    0    0  0.00000000000E+00  0.00000000000E+00  0.74505805969E-08  0.10566000000E+00  0.10566000000E+00 0.  1.
     999900   -1    0    0    0    0 -0.00000000000E+00 -0.00000000000E+00 -0.74505805969E-08  0.93827000000E+00  0.93827000000E+00 0.  1.
     999902    2    1    2    0    0 -0.13528778620E-01  0.79853427966E-02  0.19110670326E-01  0.10191911384E+01  0.10188908506E+01 0.  0.
     999903    2    3    3    0    0  0.80161449812E-01 -0.68908230496E-01  0.71746958444E-01  0.12932538490E+00  0.20080509628E-01 0.  0.
         14    1    1    2    0    0  0.13528778620E-01 -0.79853427966E-02 -0.19110670326E-01  0.24738861551E-01  0.00000000000E+00 0. -1.
     999901    1    3    3    0    0 -0.93690228432E-01  0.76893573292E-01 -0.52636288118E-01  0.88986575355E+00  0.88000000000E+00 0.  1.
        -11    1    4    4    0    0  0.33570857190E-01 -0.29998472636E-01  0.42614432084E-01  0.61993239598E-01  0.51100000000E-03 0.  1.
         11    1    4    4    0    0  0.46590592621E-01 -0.38909757860E-01  0.29132526360E-01  0.67332145300E-01  0.51100000000E-03 0. -1.
</event>
<event>
 8    1  0.1161271E+005  0.1043930E+01  0.7957747E-01            NaN
         13   -1    0    0    0    0  0.00000000000E+00  0.00000000000E+00  0.74505805969E-08  0.10566000000E+00  0.10566000000E+00 0. -1.
     999900   -1    0    0    0    0 -0.00000000000E+00 -0.00000000000E+00 -0.74505805969E-08  0.93827000000E+00  0.93827000000E+00 0.  1.
     999902    2    1    2    0    0 -0.15625880593E-01  0.52275074855E-02  0.15630919180E-01  0.10212183155E+01  0.10209657327E+01 0.  0.
     999903    2    3    3    0    0  0.38260948256E-01 -0.29663267415E-01 -0.11803657203E+00  0.12881249149E+00  0.17782464204E-01 0.  0.
         14    1    1    2    0    0  0.15625880593E-01 -0.52275074855E-02 -0.15630919180E-01  0.22711684509E-01  0.00000000000E+00 0.  1.
     999901    1    3    3    0    0 -0.53886828849E-01  0.34890774901E-01  0.13366749121E+00  0.89240582400E+00  0.88000000000E+00 0. -1.
        -11    1    4    4    0    0  0.30432357671E-01 -0.27534320870E-01 -0.79966339037E-01  0.89884057092E-01  0.51100000000E-03 0. -1.
         11    1    4    4    0    0  0.78285905849E-02 -0.21289465455E-02 -0.38070232993E-01  0.38928434403E-01  0.51100000000E-03 0.  1.
</event>
<event>
 8    1  0.1161271E+005  0.1043930E+01  0.7957747E-01            NaN
         13   -1    0    0    0    0  0.00000000000E+00  0.00000000000E+00  0.74505805969E-08  0.10566000000E+00  0.10566000000E+00 0. -1.
     999900   -1    0    0    0    0 -0.00000000000E+00 -0.00000000000E+00 -0.74505805969E-08  0.93827000000E+00  0.93827000000E+00 0.  1.
     999902    2    1    2    0    0  0.52771066241E-02 -0.14841172573E-01  0.17967483334E-01  0.10200356761E+01  0.10197557756E+01 0.  0.
     999903    2    3    3    0    0  0.48019152250E-01  0.38060023520E-01 -0.11106955418E+00  0.12802896308E+00  0.17336814793E-01 0.  0.
         14    1    1    2    0    0 -0.52771066241E-02  0.14841172573E-01 -0.17967483334E-01  0.23894323908E-01  0.00000000000E+00 0.  1.
     999901    1    3    3    0    0 -0.42742045626E-01 -0.52901196092E-01  0.12903703752E+00  0.89200671301E+00  0.88000000000E+00 0. -1.
        -11    1    4    4    0    0  0.18218299812E-01  0.25473717319E-01 -0.55224668125E-01  0.63488910942E-01  0.51100000000E-03 0. -1.
         11    1    4    4    0    0  0.29800852438E-01  0.12586306201E-01 -0.55844886058E-01  0.64540052136E-01  0.51100000000E-03 0.  1.
</event>
<event>
 8    1  0.1161271E+005  0.1043930E+01  0.7957747E-01            NaN
         13   -1    0    0    0    0  0.00000000000E+00  0.00000000000E+00  0.74505805969E-08  0.10566000000E+00  0.10566000000E+00 0.  1.
     999900   -1    0    0    0    0 -0.00000000000E+00 -0.00000000000E+00 -0.74505805969E-08  0.93827000000E+00  0.93827000000E+00 0. -1.
     999902    2    1    2    0    0  0.15009595644E-01  0.15139506015E-01  0.84858891955E-02  0.10209843486E+01  0.10207264752E+01 0.  0.
     999903    2    3    3    0    0  0.73864964282E-01 -0.69628554776E-01  0.81671044588E-01  0.13193674270E+00  0.20808074430E-01 0.  0.
         14    1    1    2    0    0 -0.15009595644E-01 -0.15139506015E-01 -0.84858891955E-02  0.22945651422E-01  0.00000000000E+00 0.  1.
     999901    1    3    3    0    0 -0.58855368638E-01  0.84768060791E-01 -0.73185155392E-01  0.88904760588E+00  0.88000000000E+00 0.  1.
        -11    1    4    4    0    0  0.35277322603E-01 -0.46127976011E-01  0.40422240860E-01  0.70756613387E-01  0.51100000000E-03 0.  1.
         11    1    4    4    0    0  0.38587641679E-01 -0.23500578765E-01  0.41248803728E-01  0.61180129312E-01  0.51100000000E-03 0. -1.
</event>
<event>
 8    1  0.1161271E+005  0.1043930E+01  0.7957747E-01            NaN
         13   -1    0    0    0    0  0.00000000000E+00  0.00000000000E+00  0.74505805969E-08  0.10566000000E+00  0.10566000000E+00 0.  1.
     999900   -1    0    0    0    0 -0.00000000000E+00 -0.00000000000E+00 -0.74505805969E-08  0.93827000000E+00  0.93827000000E+00 0. -1.
     999902    2    1    2    0    0  0.42540727129E-02  0.65604998161E-02  0.22803607378E-01  0.10198231171E+01  0.10195381545E+01 0.  0.
     999903    2    3    3    0    0 -0.87709577553E-01  0.29668283780E-01  0.91922547781E-01  0.13203445389E+00  0.20252534801E-01 0.  0.
         14    1    1    2    0    0 -0.42540727129E-02 -0.65604998161E-02 -0.22803607378E-01  0.24106882875E-01  0.00000000000E+00 0. -1.
     999901    1    3    3    0    0  0.91963650266E-01 -0.23107783964E-01 -0.69118940403E-01  0.88778866324E+00  0.88000000000E+00 0. -1.
        -11    1    4    4    0    0 -0.11066047072E-01 -0.25792142200E-02  0.80959378435E-02  0.13961198887E-01  0.51100000000E-03 0.  1.
         11    1    4    4    0    0 -0.76643530481E-01  0.32247498000E-01  0.83826609938E-01  0.11807325500E+00  0.51100000000E-03 0. -1.
</event>
<event>
 8    1  0.1161271E+005  0.1043930E+01  0.7957747E-01            NaN
         13   -1    0    0    0    0  0.00000000000E+00  0.00000000000E+00  0.74505805969E-08  0.10566000000E+00  0.10566000000E+00 0. -1.
     999900   -1    0    0    0    0 -0.00000000000E+00 -0.00000000000E+00 -0.74505805969E-08  0.93827000000E+00  0.93827000000E+00 0. -1.
     999902    2    1    2    0    0 -0.46099472724E-02  0.18984595916E-01 -0.12832478588E-01  0.10205561042E+01  0.10202884018E+01 0.  0.
     999903    2    3    3    0    0  0.77563605099E-01  0.46712156624E-01 -0.94703231815E-01  0.13251098683E+00  0.19807097273E-01 0.  0.
         14    1    1    2    0    0  0.46099472724E-02 -0.18984595916E-01  0.12832478588E-01  0.23373895753E-01  0.00000000000E+00 0. -1.
     999901    1    3    3    0    0 -0.82173552371E-01 -0.27727560708E-01  0.81870753227E-01  0.88804511742E+00  0.88000000000E+00 0.  1.
        -11    1    4    4    0    0  0.47862283160E-01  0.35627333286E-01 -0.72016008142E-01  0.93523641803E-01  0.51100000000E-03 0.  1.
         11    1    4    4    0    0  0.29701321939E-01  0.11084823337E-01 -0.22687223673E-01  0.38987345028E-01  0.51100000000E-03 0. -1.
</event>
<event>
 8    1  0.1161271E+005  0.1043930E+01  0.7957747E-01            NaN
         13   -1    0    0    0    0  0.00000000000E+00  0.00000000000E+00  0.74505805969E-08  0.10566000000E+00  0.10566000000E+00 0. -1.
     999900   -1    0    0    0    0 -0.00000000000E+00 -0.00000000000E+00 -0.74505805969E-08  0.93827000000E+00  0.93827000000E+00 0. -1.
     999902    2    1    2    0    0  0.21248969146E-01 -0.52906327571E-02 -0.71958818986E-02  0.10208802668E+01  0.10206200218E+01 0.  0.
     999903    2    3    3    0    0 -0.83612654463E-01  0.89962805305E-01  0.31597703988E-01  0.12870644971E+00  0.21967088478E-01 0.  0.
         14    1    1    2    0    0 -0.21248969146E-01  0.52906327571E-02  0.71958818986E-02  0.23049733210E-01  0.00000000000E+00 0.  1.
     999901    1    3    3    0    0  0.10486162361E+00 -0.95253438062E-01 -0.38793585886E-01  0.89217381708E+00  0.88000000000E+00 0. -1.
        -11    1    4    4    0    0 -0.23322623735E-01  0.28686281399E-01 -0.40835831020E-03  0.36976687195E-01  0.51100000000E-03 0. -1.
         11    1    4    4    0    0 -0.60290030728E-01  0.61276523906E-01  0.32006062298E-01  0.91729762520E-01  0.51100000000E-03 0.  1.
</event>
<event>
 8    1  0.1161271E+005  0.1043930E+01  0.7957747E-01            NaN
         13   -1    0    0    0    0  0.00000000000E+00  0.00000000000E+00  0.74505805969E-08  0.10566000000E+00  0.10566000000E+00 0.  1.
     999900   -1    0    0    0    0 -0.00000000000E+00 -0.00000000000E+00 -0.74505805969E-08  0.93827000000E+00  0.93827000000E+00 0. -1.
     999902    2    1    2    0    0 -0.18204373675E-01  0.13289152313E-01  0.62526955351E-02  0.10205398954E+01  0.10202718173E+01 0.  0.
     999903    2    3    3    0    0  0.60567033660E-02  0.62010073121E-01  0.11485445206E+00  0.13219499085E+00  0.20050875897E-01 0.  0.
         14    1    1    2    0    0  0.18204373675E-01 -0.13289152313E-01 -0.62526955351E-02  0.23390104565E-01  0.00000000000E+00 0.  1.
     999901    1    3    3    0    0 -0.24261077041E-01 -0.48720920808E-01 -0.10860175652E+00  0.88834490459E+00  0.88000000000E+00 0. -1.
        -11    1    4    4    0    0 -0.30908019887E-02  0.12667470953E-01  0.11901403041E-01  0.17661324770E-01  0.51100000000E-03 0.  1.
         11    1    4    4    0    0  0.91475053547E-02  0.49342602168E-01  0.10295304902E+00  0.11453366608E+00  0.51100000000E-03 0. -1.
</event>
<event>
 8    1  0.1161271E+005  0.1043930E+01  0.7957747E-01            NaN
         13   -1    0    0    0    0  0.00000000000E+00  0.00000000000E+00  0.74505805969E-08  0.10566000000E+00  0.10566000000E+00 0. -1.
     999900   -1    0    0    0    0 -0.00000000000E+00 -0.00000000000E+00 -0.74505805969E-08  0.93827000000E+00  0.93827000000E+00 0. -1.
     999902    2    1    2    0    0  0.41386866115E-02  0.23339392595E-01  0.48950313314E-02  0.10197263369E+01  0.10194390541E+01 0.  0.
     999903    2    3    3    0    0  0.75025218099E-01  0.81048102626E-01  0.70276136009E-01  0.13257928915E+00  0.20998912576E-01 0.  0.
         14    1    1    2    0    0 -0.41386866115E-02 -0.23339392595E-01 -0.48950313314E-02  0.24203663056E-01  0.00000000000E+00 0.  1.
     999901    1    3    3    0    0 -0.70886531487E-01 -0.57708710031E-01 -0.65381104677E-01  0.88714704779E+00  0.88000000000E+00 0. -1.
        -11    1    4    4    0    0  0.11851358288E-01  0.71979273868E-02  0.16316862343E-01  0.21418822789E-01  0.51100000000E-03 0. -1.
         11    1    4    4    0    0  0.63173859810E-01  0.73850175240E-01  0.53959273665E-01  0.11116046636E+00  0.51100000000E-03 0.  1.
</event>
<event>
 8    1  0.1161271E+005  0.1043930E+01  0.7957747E-01            NaN
         13   -1    0    0    0    0  0.00000000000E+00  0.00000000000E+00  0.74505805969E-08  0.10566000000E+00  0.10566000000E+00 0.  1.
     999900   -1    0    0    0    0 -0.00000000000E+00 -0.00000000000E+00 -0.74505805969E-08  0.93827000000E+00  0.93827000000E+00 0. -1.
     999902    2    1    2    0    0 -0.15234844343E-01 -0.69275092471E-02 -0.11211282342E-01  0.10237859260E+01  0.10235877288E+01 0.  0.
     999903    2    3    3    0    0  0.11671928031E+00 -0.59090986598E-01  0.98090840327E-02  0.13217234646E+00  0.16067854434E-01 0.  0.
         14    1    1    2    0    0  0.15234844343E-01  0.69275092471E-02  0.11211282342E-01  0.20144074023E-01  0.00000000000E+00 0.  1.
     999901    1    3    3    0    0 -0.13195412465E+00  0.52163477351E-01 -0.21020366375E-01  0.89161357952E+00  0.88000000000E+00 0.  1.
        -11    1    4    4    0    0  0.62268259233E-01 -0.22851329696E-01  0.70435015213E-02  0.66703758601E-01  0.51100000000E-03 0.  1.
         11    1    4    4    0    0  0.54451021073E-01 -0.36239656902E-01  0.27655825115E-02  0.65468587856E-01  0.51100000000E-03 0. -1.
</event>
<event>
 8    1  0.1161271E+005  0.1043930E+01  0.7957747E-01            NaN
         13   -1    0    0    0    0  0.00000000000E+00  0.00000000000E+00  0.74505805969E-08  0.10566000000E+00  0.10566000000E+00 0.  1.
     999900   -1    0    0    0    0 -0.00000000000E+00 -0.00000000000E+00 -0.74505805969E-08  0.93827000000E+00  0.93827000000E+00 0. -1.
     999902    2    1    2    0    0 -0.94134172772E-02 -0.16660149169E-01 -0.15139478786E-01  0.10195296555E+01  0.10192376276E+01 0.  0.
     999903    2    3    3    0    0  0.44682591030E-01  0.10222750255E+00 -0.60928118895E-01  0.12871135110E+00  0.20183657014E-01 0.  0.
         14    1    1    2    0    0  0.94134172772E-02  0.16660149169E-01  0.15139478786E-01  0.24400344528E-01  0.00000000000E+00 0.  1.
     999901    1    3    3    0    0 -0.54096008308E-01 -0.11888765172E+00  0.45788640109E-01  0.89081830437E+00  0.88000000000E+00 0. -1.
        -11    1    4    4    0    0  0.34227312785E-01  0.88147899945E-01 -0.43872999466E-01  0.10424328472E+00  0.51100000000E-03 0.  1.
         11    1    4    4    0    0  0.10455278246E-01  0.14079602605E-01 -0.17055119430E-01  0.24468066382E-01  0.51100000000E-03 0. -1.
</event>
<event>
 8    1  0.1161271E+005  0.1043930E+01  0.7957747E-01            NaN
         13   -1    0    0    0    0  0.00000000000E+00  0.00000000000E+00  0.74505805969E-08  0.10566000000E+00  0.10566000000E+00 0.  1.
     999900   -1    0    0    0    0 -0.00000000000E+00 -0.00000000000E+00 -0.74505805969E-08  0.93827000000E+00  0.93827000000E+00 0. -1.
     999902    2    1    2    0    0  0.13415253901E-01  0.11664137416E-01 -0.14475056966E-01  0.10210051573E+01  0.10207477567E+01 0.  0.
     999903    2    3    3    0    0  0.46983308059E-01  0.11133386042E+00 -0.54515949088E-01  0.13383880255E+00  0.18389579996E-01 0.  0.
         14    1    1    2    0    0 -0.13415253901E-01 -0.11664137416E-01  0.14475056966E-01  0.22924842705E-01  0.00000000000E+00 0. -1.
     999901    1    3    3    0    0 -0.33568054158E-01 -0.99669723001E-01  0.40040892122E-01  0.88716635474E+00  0.88000000000E+00 0.  1.
        -11    1    4    4    0    0  0.17707002212E-01  0.64092982536E-01 -0.26307500795E-01  0.71510796784E-01  0.51100000000E-03 0. -1.
         11    1    4    4    0    0  0.29276305847E-01  0.47240877881E-01 -0.28208448294E-01  0.62328005769E-01  0.51100000000E-03 0.  1.
</event>
<event>
 8    1  0.1161271E+005  0.1043930E+01  0.7957747E-01            NaN
         13   -1    0    0    0    0  0.00000000000E+00  0.00000000000E+00  0.74505805969E-08  0.10566000000E+00  0.10566000000E+00 0.  1.
     999900   -1    0    0    0    0 -0.00000000000E+00 -0.00000000000E+00 -0.74505805969E-08  0.93827000000E+00  0.93827000000E+00 0. -1.
     999902    2    1    2    0    0 -0.94015812472E-02 -0.19259126830E-01 -0.90389526096E-02  0.10206704566E+01  0.10204053972E+01 0.  0.
     999903    2    3    3    0    0  0.72778662575E-01 -0.83435903733E-01 -0.69784223310E-01  0.13243499281E+00  0.20270810053E-01 0.  0.
         14    1    1    2    0    0  0.94015812472E-02  0.19259126830E-01  0.90389526096E-02  0.23259543428E-01  0.00000000000E+00 0. -1.
     999901    1    3    3    0    0 -0.82180243823E-01  0.64176776903E-01  0.60745270700E-01  0.88823546376E+00  0.88000000000E+00 0.  1.
        -11    1    4    4    0    0  0.42892000203E-01 -0.37525512562E-01 -0.43359671542E-01  0.71611521501E-01  0.51100000000E-03 0. -1.
         11    1    4    4    0    0  0.29886662372E-01 -0.45910391171E-01 -0.26424551768E-01  0.60823471311E-01  0.51100000000E-03 0.  1.
</event>
<event>
 8    1  0.1161271E+005  0.1043930E+01  0.7957747E-01            NaN
         13   -1    0    0    0    0  0.00000000000E+00  0.00000000000E+00  0.74505805969E-08  0.10566000000E+00  0.10566000000E+00 0.  1.
     999900   -1    0    0    0    0 -0.00000000000E+00 -0.00000000000E+00 -0.74505805969E-08  0.93827000000E+00  0.93827000000E+00 0. -1.
     999902    2    1    2    0    0 -0.50878676555E-02 -0.47541591247E-02 -0.15200366245E-01  0.10272105634E+01  0.10270744871E+01 0.  0.
     999903    2    3    3    0    0 -0.94985220549E-01  0.68031724007E-01  0.66303501608E-01  0.13590691182E+00  0.20591910097E-01 0.  0.
         14    1    1    2    0    0  0.50878676555E-02  0.47541591247E-02  0.15200366245E-01  0.16719436600E-01  0.00000000000E+00 0.  1.
     999901    1    3    3    0    0  0.89897352894E-01 -0.72785883132E-01 -0.81503867853E-01  0.89130365158E+00  0.88000000000E+00 0. -1.
        -11    1    4    4    0    0 -0.77227306066E-01  0.62493785974E-01  0.50257134056E-01  0.11133539748E+00  0.51100000000E-03 0. -1.
         11    1    4    4    0    0 -0.17757914483E-01  0.55379380333E-02  0.16046367552E-01  0.24571514342E-01  0.51100000000E-03 0.  1.
</event>
<event>
 8    1  0.1161271E+005  0.1043930E+01  0.7957747E-01            NaN
         13   -1    0    0    0    0  0.00000000000E+00  0.00000000000E+00  0.74505805969E-08  0.10566000000E+00  0.10566000000E+00 0.  1.
     999900   -1    0    0    0    0 -0.00000000000E+00 -0.00000000000E+00 -0.74505805969E-08  0.93827000000E+00  0.93827000000E+00 0. -1.
     999902    2    1    2    0    0  0.20798718508E-01  0.12022637463E-02 -0.11367561328E-01  0.10201970360E+01  0.10199209473E+01 0.  0.
     999903    2    3    3    0    0  0.92688779394E-01 -0.39196524502E-01 -0.86234114485E-01  0.13317660572E+00  0.13119011104E-01 0.  0.
         14    1    1    2    0    0 -0.20798718508E-01 -0.12022637463E-02  0.11367561328E-01  0.23732964000E-01  0.00000000000E+00 0.  1.
     999901    1    3    3    0    0 -0.71890060886E-01  0.40398788248E-01  0.74866553157E-01  0.88702043028E+00  0.88000000000E+00 0.  1.
        -11    1    4    4    0    0  0.34843991007E-01 -0.79617003330E-02 -0.30586592183E-01  0.47045649362E-01  0.51100000000E-03 0.  1.
         11    1    4    4    0    0  0.57844788386E-01 -0.31234824169E-01 -0.55647522303E-01  0.86130956361E-01  0.51100000000E-03 0. -1.
</event>
<event>
 8    1  0.1161271E+005  0.1043930E+01  0.7957747E-01            NaN
         13   -1    0    0    0    0  0.00000000000E+00  0.00000000000E+00  0.74505805969E-08  0.10566000000E+00  0.10566000000E+00 0.  1.
     999900   -1    0    0    0    0 -0.00000000000E+00 -0.00000000000E+00 -0.74505805969E-08  0.93827000000E+00  0.93827000000E+00 0. -1.
     999902    2    1    2    0    0  0.34724270788E-02 -0.22662805748E-01  0.60283526089E-03  0.10209947885E+01  0.10207371524E+01 0.  0.
     999903    2    3    3    0    0  0.91769351806E-01 -0.58617033241E-01  0.73383027282E-01  0.13285853225E+00  0.20217576067E-01 0.  0.
         14    1    1    2    0    0 -0.34724270788E-02  0.22662805748E-01 -0.60283526089E-03  0.22935211456E-01  0.00000000000E+00 0.  1.
     999901    1    3    3    0    0 -0.88296924727E-01  0.35954227493E-01 -0.72780192021E-01  0.88813625629E+00  0.88000000000E+00 0. -1.
        -11    1    4    4    0    0  0.50025218757E-01 -0.43061483475E-01  0.39931009247E-01  0.77146357602E-01  0.51100000000E-03 0. -1.
         11    1    4    4    0    0  0.41744133049E-01 -0.15555549766E-01  0.33452018036E-01  0.55712174650E-01  0.51100000000E-03 0.  1.
</event>
<event>
 8    1  0.1161271E+005  0.1043930E+01  0.7957747E-01            NaN
         13   -1    0    0    0    0  0.00000000000E+00  0.00000000000E+00  0.74505805969E-08  0.10566000000E+00  0.10566000000E+00 0.  1.
     999900   -1    0    0    0    0 -0.00000000000E+00 -0.00000000000E+00 -0.74505805969E-08  0.93827000000E+00  0.93827000000E+00 0. -1.
     999902    2    1    2    0    0  0.19578291309E-01  0.60718489852E-02 -0.46816828681E-02  0.10229039449E+01  0.10226878240E+01 0.  0.
     999903    2    3    3    0    0  0.39483098980E-01  0.57160423948E-02 -0.12661090048E+00  0.13427406573E+00  0.20189511144E-01 0.  0.
         14    1    1    2    0    0 -0.19578291309E-01 -0.60718489852E-02  0.46816828681E-02  0.21026055149E-01  0.00000000000E+00 0.  1.
     999901    1    3    3    0    0 -0.19904807672E-01  0.35580659034E-03  0.12192921761E+00  0.88862987913E+00  0.88000000000E+00 0.  1.
        -11    1    4    4    0    0  0.33894171883E-01  0.12285355899E-01 -0.10355462366E+00  0.10965202260E+00  0.51100000000E-03 0.  1.
         11    1    4    4    0    0  0.55889270974E-02 -0.65693135039E-02 -0.23056276820E-01  0.24622043129E-01  0.51100000000E-03 0. -1.
</event>
<event>
 8    1  0.1161271E+005  0.1043930E+01  0.7957747E-01            NaN
         13   -1    0    0    0    0  0.00000000000E+00  0.00000000000E+00  0.74505805969E-08  0.10566000000E+00  0.10566000000E+00 0.  1.
     999900   -1    0    0    0    0 -0.00000000000E+00 -0.00000000000E+00 -0.74505805969E-08  0.93827000000E+00  0.93827000000E+00 0.  1.
     999902    2    1    2    0    0  0.57591068133E-03  0.16301912961E-01  0.17249453469E-01  0.10201891558E+01  0.10199128815E+01 0.  0.
     999903    2    3    3    0    0 -0.62501867149E-02 -0.31500555074E-01  0.12649073643E+00  0.13212084227E+00  0.20607298610E-01 0.  0.
         14    1    1    2    0    0 -0.57591068133E-03 -0.16301912961E-01 -0.17249453469E-01  0.23740844220E-01  0.00000000000E+00 0. -1.
     999901    1    3    3    0    0  0.68260973962E-02  0.47802468035E-01 -0.10924128296E+00  0.88806831351E+00  0.88000000000E+00 0.  1.
        -11    1    4    4    0    0 -0.10892968420E-01 -0.20753866991E-01  0.10557113890E+00  0.10814298981E+00  0.51100000000E-03 0. -1.
         11    1    4    4    0    0  0.46427817056E-02 -0.10746688083E-01  0.20919597534E-01  0.23977852462E-01  0.51100000000E-03 0.  1.
</event>
<event>
 8    1  0.1161271E+005  0.1043930E+01  0.7957747E-01            NaN
         13   -1    0    0    0    0  0.00000000000E+00  0.00000000000E+00  0.74505805969E-08  0.10566000000E+00  0.10566000000E+00 0. -1.
     999900   -1    0    0    0    0 -0.00000000000E+00 -0.00000000000E+00 -0.74505805969E-08  0.93827000000E+00  0.93827000000E+00 0.  1.
     999902    2    1    2    0    0 -0.13030186929E-01  0.17439572223E-01  0.40776342933E-02  0.10217816016E+01  0.10215415262E+01 0.  0.
     999903    2    3    3    0    0  0.85617187431E-01 -0.52218588872E-01  0.80569495047E-01  0.13024665071E+00  0.20387807191E-01 0.  0.
         14    1    1    2    0    0  0.13030186929E-01 -0.17439572223E-01 -0.40776342933E-02  0.22148398411E-01  0.00000000000E+00 0. -1.
     999901    1    3    3    0    0 -0.98647374359E-01  0.69658161095E-01 -0.76491860754E-01  0.89153495088E+00  0.88000000000E+00 0.  1.
        -11    1    4    4    0    0  0.82132373605E-01 -0.45959660348E-01  0.69284236877E-01  0.11686994384E+00  0.51100000000E-03 0. -1.
         11    1    4    4    0    0  0.34848138256E-02 -0.62589285243E-02  0.11285258170E-01  0.13376706868E-01  0.51100000000E-03 0.  1.
</event>
<event>
 8    1  0.1161271E+005  0.1043930E+01  0.7957747E-01            NaN
         13   -1    0    0    0    0  0.00000000000E+00  0.00000000000E+00  0.74505805969E-08  0.10566000000E+00  0.10566000000E+00 0.  1.
     999900   -1    0    0    0    0 -0.00000000000E+00 -0.00000000000E+00 -0.74505805969E-08  0.93827000000E+00  0.93827000000E+00 0. -1.
     999902    2    1    2    0    0  0.98451458297E-02  0.20555401808E-01  0.52087526555E-02  0.10205508951E+01  0.10202830720E+01 0.  0.
     999903    2    3    3    0    0 -0.17120290211E-01  0.22891251435E-01  0.12755793867E+00  0.13167412401E+00  0.15809284800E-01 0.  0.
         14    1    1    2    0    0 -0.98451458297E-02 -0.20555401808E-01 -0.52087526555E-02  0.23379104861E-01  0.00000000000E+00 0. -1.
     999901    1    3    3    0    0  0.26965436041E-01 -0.23358496268E-02 -0.12234918602E+00  0.88887677113E+00  0.88000000000E+00 0. -1.
        -11    1    4    4    0    0 -0.42672714197E-02  0.48993597311E-02  0.64916218682E-01  0.65242546702E-01  0.51100000000E-03 0.  1.
         11    1    4    4    0    0 -0.12853018792E-01  0.17991891704E-01  0.62641719991E-01  0.66431577307E-01  0.51100000000E-03 0. -1.
</event>
<event>
 8    1  0.1161271E+005  0.1043930E+01  0.7957747E-01            NaN
         13   -1    0    0    0    0  0.00000000000E+00  0.00000000000E+00  0.74505805969E-08  0.10566000000E+00  0.10566000000E+00 0.  1.
     999900   -1    0    0    0    0 -0.00000000000E+00 -0.00000000000E+00 -0.74505805969E-08  0.93827000000E+00  0.93827000000E+00 0. -1.
     999902    2    1    2    0    0  0.80877061713E-02 -0.86282148925E-02 -0.20305130747E-01  0.10204320125E+01  0.10201614268E+01 0.  0.
     999903    2    3    3    0    0 -0.12222025460E+00 -0.39310917127E-01 -0.16138585734E-01  0.13029777936E+00  0.15294394909E-01 0.  0.
         14    1    1    2    0    0 -0.80877061713E-02  0.86282148925E-02  0.20305130747E-01  0.23497987531E-01  0.00000000000E+00 0.  1.
     999901    1    3    3    0    0  0.13030796077E+00  0.30682702235E-01 -0.41665450135E-02  0.89013423311E+00  0.88000000000E+00 0. -1.
        -11    1    4    4    0    0 -0.11660733708E+00 -0.38631672265E-01 -0.12322815460E-01  0.12345764482E+00  0.51100000000E-03 0.  1.
         11    1    4    4    0    0 -0.56129175206E-02 -0.67924486234E-03 -0.38157702740E-02  0.68401345353E-02  0.51100000000E-03 0. -1.
</event>
<event>
 8    1  0.1161271E+005  0.1043930E+01  0.7957747E-01            NaN
         13   -1    0    0    0    0  0.00000000000E+00  0.00000000000E+00  0.74505805969E-08  0.10566000000E+00  0.10566000000E+00 0. -1.
     999900   -1    0    0    0    0 -0.00000000000E+00 -0.00000000000E+00 -0.74505805969E-08  0.93827000000E+00  0.93827000000E+00 0. -1.
     999902    2    1    2    0    0 -0.10580009430E-01  0.47404383269E-02  0.20528560103E-01  0.10203539500E+01  0.10200815424E+01 0.  0.
     999903    2    3    3    0    0  0.32781063411E-01 -0.25289717851E-01  0.12474215185E+00  0.13263639037E+00  0.17822448067E-01 0.  0.
         14    1    1    2    0    0  0.10580009430E-01 -0.47404383269E-02 -0.20528560103E-01  0.23576050029E-01  0.00000000000E+00 0.  1.
     999901    1    3    3    0    0 -0.43361072841E-01  0.30030156178E-01 -0.10421359175E+00  0.88771755960E+00  0.88000000000E+00 0. -1.
        -11    1    4    4    0    0  0.54389423579E-02 -0.13917875901E-01  0.32928574681E-01  0.36164091515E-01  0.51100000000E-03 0.  1.
         11    1    4    4    0    0  0.27342121053E-01 -0.11371841950E-01  0.91813577169E-01  0.96472298856E-01  0.51100000000E-03 0. -1.
</event>
<event>
 8    1  0.1161271E+005  0.1043930E+01  0.7957747E-01            NaN
         13   -1    0    0    0    0  0.00000000000E+00  0.00000000000E+00  0.74505805969E-08  0.10566000000E+00  0.10566000000E+00 0.  1.
     999900   -1    0    0    0    0 -0.00000000000E+00 -0.00000000000E+00 -0.74505805969E-08  0.93827000000E+00  0.93827000000E+00 0. -1.
     999902    2    1    2    0    0 -0.81452507388E-02 -0.15408747542E-01  0.16917784677E-01  0.10196403716E+01  0.10193510197E+01 0.  0.
     999903    2    3    3    0    0  0.82592544749E-01  0.58468895996E-01  0.78706051081E-01  0.12974765692E+00  0.19991792108E-01 0.  0.
         14    1    1    2    0    0  0.81452507388E-02  0.15408747542E-01 -0.16917784677E-01  0.24289628421E-01  0.00000000000E+00 0. -1.
     999901    1    3    3    0    0 -0.90737795487E-01 -0.73877643538E-01 -0.61788266403E-01  0.88989271466E+00  0.88000000000E+00 0. -1.
        -11    1    4    4    0    0  0.54852324942E-01  0.32107677008E-01  0.38857466852E-01  0.74497277303E-01  0.51100000000E-03 0.  1.
         11    1    4    4    0    0  0.27740219806E-01  0.26361218987E-01  0.39848584229E-01  0.55250379613E-01  0.51100000000E-03 0. -1.
</event>
<event>
 8    1  0.1161271E+005  0.1043930E+01  0.7957747E-01            NaN
         13   -1    0    0    0    0  0.00000000000E+00  0.00000000000E+00  0.74505805969E-08  0.10566000000E+00  0.10566000000E+00 0.  1.
     999900   -1    0    0    0    0 -0.00000000000E+00 -0.00000000000E+00 -0.74505805969E-08  0.93827000000E+00  0.93827000000E+00 0.  1.
     999902    2    1    2    0    0 -0.11216424543E-01 -0.10808786937E-01 -0.17786363010E-01  0.10202869722E+01  0.10200129964E+01 0.  0.
     999903    2    3    3    0    0  0.50911767082E-01  0.13703237251E-01 -0.11929542653E+00  0.13193746806E+00  0.19907534931E-01 0.  0.
         14    1    1    2    0    0  0.11216424543E-01  0.10808786937E-01  0.17786363010E-01  0.23643027803E-01  0.00000000000E+00 0.  1.
     999901    1    3    3    0    0 -0.62128191625E-01 -0.24512024188E-01  0.10150906352E+00  0.88834950414E+00  0.88000000000E+00 0. -1.
        -11    1    4    4    0    0  0.44706000368E-02  0.83749719812E-02 -0.23265477798E-01  0.25133045947E-01  0.51100000000E-03 0.  1.
         11    1    4    4    0    0  0.46441167045E-01  0.53282652695E-02 -0.96029948737E-01  0.10680442211E+00  0.51100000000E-03 0. -1.
</event>
<event>
 8    1  0.1161271E+005  0.1043930E+01  0.7957747E-01            NaN
         13   -1    0    0    0    0  0.00000000000E+00  0.00000000000E+00  0.74505805969E-08  0.10566000000E+00  0.10566000000E+00 0. -1.
     999900   -1    0    0    0    0 -0.00000000000E+00 -0.00000000000E+00 -0.74505805969E-08  0.93827000000E+00  0.93827000000E+00 0. -1.
     999902    2    1    2    0    0 -0.11870093446E-01 -0.85452210365E-02  0.19034912544E-01  0.10199248377E+01  0.10196423033E+01 0.  0.
     999903    2    3    3    0    0  0.20436817095E-02 -0.22201700747E-01 -0.12451812823E+00  0.12807980179E+00  0.20064376848E-01 0.  0.
         14    1    1    2    0    0  0.11870093446E-01  0.85452210365E-02 -0.19034912544E-01  0.24005162289E-01  0.00000000000E+00 0.  1.
     999901    1    3    3    0    0 -0.13913775155E-01  0.13656479711E-01  0.14355304077E+00  0.89184503592E+00  0.88000000000E+00 0.  1.
        -11    1    4    4    0    0  0.72580718478E-02 -0.19843514430E-01 -0.66500787587E-01  0.69778653918E-01  0.51100000000E-03 0. -1.
         11    1    4    4    0    0 -0.52143901384E-02 -0.23581863172E-02 -0.58017340642E-01  0.58301147874E-01  0.51100000000E-03 0.  1.
</event>
<event>
 8    1  0.1161271E+005  0.1043930E+01  0.7957747E-01            NaN
         13   -1    0    0    0    0  0.00000000000E+00  0.00000000000E+00  0.74505805969E-08  0.10566000000E+00  0.10566000000E+00 0.  1.
     999900   -1    0    0    0    0 -0.00000000000E+00 -0.00000000000E+00 -0.74505805969E-08  0.93827000000E+00  0.93827000000E+00 0. -1.
     999902    2    1    2    0    0  0.62738151131E-02  0.20164773426E-03  0.22991688806E-01  0.10200968472E+01  0.10198183949E+01 0.  0.
     999903    2    3    3    0    0  0.94760613140E-01 -0.11116785916E-01  0.90451560702E-01  0.13301801493E+00  0.20227474625E-01 0.  0.
         14    1    1    2    0    0 -0.62738151131E-02 -0.20164773426E-03 -0.22991688806E-01  0.23833152793E-01  0.00000000000E+00 0. -1.
     999901    1    3    3    0    0 -0.88486798027E-01  0.11318433650E-01 -0.67459871896E-01  0.88707883228E+00  0.88000000000E+00 0. -1.
        -11    1    4    4    0    0  0.83962408410E-01 -0.33566968180E-02  0.75077524366E-01  0.11268473377E+00  0.51100000000E-03 0. -1.
         11    1    4    4    0    0  0.10798204730E-01 -0.77600890978E-02  0.15374036336E-01  0.20333281153E-01  0.51100000000E-03 0.  1.
</event>
<event>
 8    1  0.1161271E+005  0.1043930E+01  0.7957747E-01            NaN
         13   -1    0    0    0    0  0.00000000000E+00  0.00000000000E+00  0.74505805969E-08  0.10566000000E+00  0.10566000000E+00 0.  1.
     999900   -1    0    0    0    0 -0.00000000000E+00 -0.00000000000E+00 -0.74505805969E-08  0.93827000000E+00  0.93827000000E+00 0. -1.
     999902    2    1    2    0    0  0.51711460966E-02  0.84030394261E-02  0.25934704922E-01  0.10161818335E+01  0.10158029130E+01 0.  0.
     999903    2    3    3    0    0 -0.85386665853E-01  0.39022492359E-01  0.86449436054E-01  0.12893874345E+00  0.18386325135E-01 0.  0.
         14    1    1    2    0    0 -0.51711460966E-02 -0.84030394261E-02 -0.25934704922E-01  0.27748166478E-01  0.00000000000E+00 0. -1.
     999901    1    3    3    0    0  0.90557811949E-01 -0.30619452933E-01 -0.60514731132E-01  0.88724309008E+00  0.88000000000E+00 0. -1.
        -11    1    4    4    0    0 -0.31219217640E-01  0.18247468685E-01  0.22495399353E-01  0.42590066641E-01  0.51100000000E-03 0. -1.
         11    1    4    4    0    0 -0.54167448213E-01  0.20775023674E-01  0.63954036701E-01  0.86348676805E-01  0.51100000000E-03 0.  1.
</event>
<event>
 8    1  0.1161271E+005  0.1043930E+01  0.7957747E-01            NaN
         13   -1    0    0    0    0  0.00000000000E+00  0.00000000000E+00  0.74505805969E-08  0.10566000000E+00  0.10566000000E+00 0.  1.
     999900   -1    0    0    0    0 -0.00000000000E+00 -0.00000000000E+00 -0.74505805969E-08  0.93827000000E+00  0.93827000000E+00 0. -1.
     999902    2    1    2    0    0 -0.11488570029E-01 -0.20247204193E-01  0.86651682041E-02  0.10190900793E+01  0.10187873027E+01 0.  0.
     999903    2    3    3    0    0  0.85861839700E-01 -0.34696383016E-01  0.89141689995E-01  0.12995434638E+00  0.19125813387E-01 0.  0.
         14    1    1    2    0    0  0.11488570029E-01  0.20247204193E-01 -0.86651682041E-02  0.24839920671E-01  0.00000000000E+00 0.  1.
     999901    1    3    3    0    0 -0.97350409728E-01  0.14449178823E-01 -0.80476521790E-01  0.88913573295E+00  0.88000000000E+00 0. -1.
        -11    1    4    4    0    0  0.59091774807E-01 -0.14032559051E-01  0.57743113625E-01  0.83805004955E-01  0.51100000000E-03 0. -1.
         11    1    4    4    0    0  0.26770064893E-01 -0.20663823965E-01  0.31398576370E-01  0.46149341428E-01  0.51100000000E-03 0.  1.
</event>
<event>
 8    1  0.1161271E+005  0.1043930E+01  0.7957747E-01            NaN
         13   -1    0    0    0    0  0.00000000000E+00  0.00000000000E+00  0.74505805969E-08  0.10566000000E+00  0.10566000000E+00 0.  1.
     999900   -1    0    0    0    0 -0.00000000000E+00 -0.00000000000E+00 -0.74505805969E-08  0.93827000000E+00  0.93827000000E+00 0.  1.
     999902    2    1    2    0    0  0.15012848146E-01  0.15860127890E-01 -0.97509569597E-02  0.10200132605E+01  0.10197328283E+01 0.  0.
     999903    2    3    3    0    0 -0.48117469812E-01  0.54859139625E-01  0.10494959468E+00  0.12947265138E+00  0.20589655936E-01 0.  0.
         14    1    1    2    0    0 -0.15012848146E-01 -0.15860127890E-01  0.97509569597E-02  0.23916739488E-01  0.00000000000E+00 0.  1.
     999901    1    3    3    0    0  0.63130317958E-01 -0.38999011735E-01 -0.11470055164E+00  0.89054060913E+00  0.88000000000E+00 0.  1.
        -11    1    4    4    0    0 -0.25991250796E-01  0.41464047076E-01  0.58191334013E-01  0.76034891945E-01  0.51100000000E-03 0.  1.
         11    1    4    4    0    0 -0.22126219016E-01  0.13395092549E-01  0.46758260665E-01  0.53437759438E-01  0.51100000000E-03 0. -1.
</event>
<event>
 8    1  0.1161271E+005  0.1043930E+01  0.7957747E-01            NaN
         13   -1    0    0    0    0  0.00000000000E+00  0.00000000000E+00  0.74505805969E-08  0.10566000000E+00  0.10566000000E+00 0. -1.
     999900   -1    0    0    0    0 -0.00000000000E+00 -0.00000000000E+00 -0.74505805969E-08  0.93827000000E+00  0.93827000000E+00 0.  1.
     999902    2    1    2    0    0  0.68202546248E-02  0.98389049301E-02 -0.20637257885E-01  0.10200717449E+01  0.10197926987E+01 0.  0.
     999903    2    3    3    0    0 -0.33417230902E-01  0.10876473490E+00  0.59540564683E-01  0.12999654678E+00  0.20187730288E-01 0.  0.
         14    1    1    2    0    0 -0.68202546248E-02 -0.98389049301E-02  0.20637257885E-01  0.23858255099E-01  0.00000000000E+00 0. -1.
     999901    1    3    3    0    0  0.40237485527E-01 -0.98925829966E-01 -0.80177822567E-01  0.89007519812E+00  0.88000000000E+00 0.  1.
        -11    1    4    4    0    0 -0.21304098765E-01  0.76758938262E-01  0.31175912956E-01  0.85545297340E-01  0.51100000000E-03 0. -1.
         11    1    4    4    0    0 -0.12113132136E-01  0.32005796634E-01  0.28364651727E-01  0.44451249442E-01  0.51100000000E-03 0.  1.
</event>
<event>
 8    1  0.1161271E+005  0.1043930E+01  0.7957747E-01            NaN
         13   -1    0    0    0    0  0.00000000000E+00  0.00000000000E+00  0.74505805969E-08  0.10566000000E+00  0.10566000000E+00 0.  1.
     999900   -1    0    0    0    0 -0.00000000000E+00 -0.00000000000E+00 -0.74505805969E-08  0.93827000000E+00  0.93827000000E+00 0.  1.
     999902    2    1    2    0    0  0.68651151851E-02 -0.19566308753E-01  0.51568195656E-02  0.10225626644E+01  0.10223393955E+01 0.  0.
     999903    2    3    3    0    0  0.71206586387E-01 -0.24339083309E-01 -0.10779041574E+00  0.13300115312E+00  0.20193169307E-01 0.  0.
         14    1    1    2    0    0 -0.68651151851E-02  0.19566308753E-01 -0.51568195656E-02  0.21367335649E-01  0.00000000000E+00 0. -1.
     999901    1    3    3    0    0 -0.64341471202E-01  0.47727745557E-02  0.11294723530E+00  0.88956151123E+00  0.88000000000E+00 0. -1.
        -11    1    4    4    0    0  0.27557444501E-01 -0.24234708620E-02 -0.27431080871E-01  0.38961664199E-01  0.51100000000E-03 0.  1.
         11    1    4    4    0    0  0.43649141886E-01 -0.21915612447E-01 -0.80359334865E-01  0.94039488925E-01  0.51100000000E-03 0. -1.
</event>
<event>
 8    1  0.1161271E+005  0.1043930E+01  0.7957747E-01            NaN
         13   -1    0    0    0    0  0.00000000000E+00  0.00000000000E+00  0.74505805969E-08  0.10566000000E+00  0.10566000000E+00 0.  1.
     999900   -1    0    0    0    0 -0.00000000000E+00 -0.00000000000E+00 -0.74505805969E-08  0.93827000000E+00  0.93827000000E+00 0. -1.
     999902    2    1    2    0    0  0.13945556217E-01  0.10172007462E-01 -0.15485830906E-01  0.10207403637E+01  0.10204769134E+01 0.  0.
     999903    2    3    3    0    0  0.48581237480E-01  0.10062579232E+00 -0.70388076821E-01  0.13372527123E+00  0.21030456299E-01 0.  0.
         14    1    1    2    0    0 -0.13945556217E-01 -0.10172007462E-01  0.15485830906E-01  0.23189636325E-01  0.00000000000E+00 0.  1.
     999901    1    3    3    0    0 -0.34635681263E-01 -0.90453784861E-01  0.54902245915E-01  0.88701509244E+00  0.88000000000E+00 0.  1.
        -11    1    4    4    0    0  0.29895440206E-01  0.41272582758E-01 -0.25434578093E-01  0.56959128473E-01  0.51100000000E-03 0. -1.
         11    1    4    4    0    0  0.18685797274E-01  0.59353209566E-01 -0.44953498728E-01  0.76766142761E-01  0.51100000000E-03 0.  1.
</event>
<event>
 8    1  0.1161271E+005  0.1043930E+01  0.7957747E-01            NaN
         13   -1    0    0    0    0  0.00000000000E+00  0.00000000000E+00  0.74505805969E-08  0.10566000000E+00  0.10566000000E+00 0.  1.
     999900   -1    0    0    0    0 -0.00000000000E+00 -0.00000000000E+00 -0.74505805969E-08  0.93827000000E+00  0.93827000000E+00 0. -1.
     999902    2    1    2    0    0 -0.47680420766E-02 -0.25581424468E-01  0.96754859611E-02  0.10161674617E+01  0.10157881431E+01 0.  0.
     999903    2    3    3    0    0 -0.51878730240E-01  0.10020253180E+00 -0.48155244157E-01  0.12409940718E+00  0.18702547693E-01 0.  0.
         14    1    1    2    0    0  0.47680420766E-02  0.25581424468E-01 -0.96754859611E-02  0.27762538278E-01  0.00000000000E+00 0. -1.
     999901    1    3    3    0    0  0.47110688164E-01 -0.12578395627E+00  0.57830730118E-01  0.89206805455E+00  0.88000000000E+00 0.  1.
        -11    1    4    4    0    0 -0.31214676064E-01  0.57683737725E-01 -0.17966829888E-01  0.68006159258E-01  0.51100000000E-03 0.  1.
         11    1    4    4    0    0 -0.20664054176E-01  0.42518794080E-01 -0.30188414269E-01  0.56093247918E-01  0.51100000000E-03 0. -1.
</event>
<event>
 8    1  0.1161271E+005  0.1043930E+01  0.7957747E-01            NaN
         13   -1    0    0    0    0  0.00000000000E+00  0.00000000000E+00  0.74505805969E-08  0.10566000000E+00  0.10566000000E+00 0.  1.
     999900   -1    0    0    0    0 -0.00000000000E+00 -0.00000000000E+00 -0.74505805969E-08  0.93827000000E+00  0.93827000000E+00 0.  1.
     999902    2    1    2    0    0 -0.10865319568E-01  0.19369583998E-01 -0.11717393837E-01  0.10188195784E+01  0.10185100884E+01 0.  0.
     999903    2    3    3    0    0  0.18309699842E-01  0.79792443292E-02  0.12457543246E+00  0.12777712371E+00  0.20224774969E-01 0.  0.
         14    1    1    2    0    0  0.10865319568E-01 -0.19369583998E-01  0.11717393837E-01  0.25110421579E-01  0.00000000000E+00 0.  1.
     999901    1    3    3    0    0 -0.29175019410E-01  0.11390339669E-01 -0.13629282630E+00  0.89104245471E+00  0.88000000000E+00 0.  1.
        -11    1    4    4    0    0  0.13988692234E-01 -0.73991952375E-03  0.10477735789E+00  0.10571086434E+00  0.51100000000E-03 0.  1.
         11    1    4    4    0    0  0.43210076083E-02  0.87191638530E-02  0.19798074568E-01  0.22066259371E-01  0.51100000000E-03 0. -1.
</event>
<event>
 8    1  0.1161271E+005  0.1043930E+01  0.7957747E-01            NaN
         13   -1    0    0    0    0  0.00000000000E+00  0.00000000000E+00  0.74505805969E-08  0.10566000000E+00  0.10566000000E+00 0. -1.
     999900   -1    0    0    0    0 -0.00000000000E+00 -0.00000000000E+00 -0.74505805969E-08  0.93827000000E+00  0.93827000000E+00 0.  1.
     999902    2    1    2    0    0 -0.83309168207E-03 -0.15589787867E-01  0.17353087638E-01  0.10205876527E+01  0.10203206808E+01 0.  0.
     999903    2    3    3    0    0  0.28557210214E-01  0.12369409549E+00 -0.84205135665E-02  0.12877597496E+00  0.19914898051E-01 0.  0.
         14    1    1    2    0    0  0.83309168207E-03  0.15589787867E-01 -0.17353087638E-01  0.23342347312E-01  0.00000000000E+00 0. -1.
     999901    1    3    3    0    0 -0.29390301896E-01 -0.13928388336E+00  0.25773601204E-01  0.89181167773E+00  0.88000000000E+00 0. -1.
        -11    1    4    4    0    0 -0.20367420119E-02  0.13314965054E-01  0.25196118809E-02  0.13712993016E-01  0.51100000000E-03 0.  1.
         11    1    4    4    0    0  0.30593952226E-01  0.11037913044E+00 -0.10940125447E-01  0.11506298195E+00  0.51100000000E-03 0. -1.
</event>
<event>
 8    1  0.1161271E+005  0.1043930E+01  0.7957747E-01            NaN
         13   -1    0    0    0    0  0.00000000000E+00  0.00000000000E+00  0.74505805969E-08  0.10566000000E+00  0.10566000000E+00 0.  1.
     999900   -1    0    0    0    0 -0.00000000000E+00 -0.00000000000E+00 -0.74505805969E-08  0.93827000000E+00  0.93827000000E+00 0. -1.
     999902    2    1    2    0    0 -0.54289257548E-02  0.21075967733E-01 -0.53941736261E-02  0.10215075389E+01  0.10212614187E+01 0.  0.
     999903    2    3    3    0    0 -0.10455818868E+00 -0.70946362919E-01  0.26213966589E-01  0.13061259865E+00  0.20166250288E-01 0.  0.
         14    1    1    2    0    0  0.54289257548E-02 -0.21075967733E-01  0.53941736261E-02  0.22422461056E-01  0.00000000000E+00 0.  1.
     999901    1    3    3    0    0  0.99129262927E-01  0.92022330652E-01 -0.31608140215E-01  0.89089494029E+00  0.88000000000E+00 0.  1.
        -11    1    4    4    0    0 -0.90868504832E-01 -0.52788360560E-01  0.23686888028E-01  0.10772662608E+00  0.51100000000E-03 0.  1.
         11    1    4    4    0    0 -0.13689683850E-01 -0.18158002360E-01  0.25270785606E-02  0.22885972574E-01  0.51100000000E-03 0. -1.
</event>
<event>
 8    1  0.1161271E+005  0.1043930E+01  0.7957747E-01            NaN
         13   -1    0    0    0    0  0.00000000000E+00  0.00000000000E+00  0.74505805969E-08  0.10566000000E+00  0.10566000000E+00 0. -1.
     999900   -1    0    0    0    0 -0.00000000000E+00 -0.00000000000E+00 -0.74505805969E-08  0.93827000000E+00  0.93827000000E+00 0. -1.
     999902    2    1    2    0    0  0.98157196443E-02  0.47578399414E-02 -0.21076494438E-01  0.10201980803E+01  0.10199220162E+01 0.  0.
     999903    2    3    3    0    0  0.85329661987E-01  0.76909089281E-01 -0.63809357190E-01  0.13299221030E+00  0.20472779660E-01 0.  0.
         14    1    1    2    0    0 -0.98157196443E-02 -0.47578399414E-02  0.21076494438E-01  0.23731919662E-01  0.00000000000E+00 0. -1.
     999901    1    3    3    0    0 -0.75513942342E-01 -0.72151249339E-01  0.42732862752E-01  0.88720587004E+00  0.88000000000E+00 0.  1.
        -11    1    4    4    0    0  0.22155843828E-01  0.99079506087E-02 -0.17419126335E-01  0.29878687794E-01  0.51100000000E-03 0.  1.
         11    1    4    4    0    0  0.63173818158E-01  0.67001138672E-01 -0.46390230856E-01  0.10311352251E+00  0.51100000000E-03 0. -1.
</event>
<event>
 8    1  0.1161271E+005  0.1043930E+01  0.7957747E-01            NaN
         13   -1    0    0    0    0  0.00000000000E+00  0.00000000000E+00  0.74505805969E-08  0.10566000000E+00  0.10566000000E+00 0.  1.
     999900   -1    0    0    0    0 -0.00000000000E+00 -0.00000000000E+00 -0.74505805969E-08  0.93827000000E+00  0.93827000000E+00 0.  1.
     999902    2    1    2    0    0 -0.14876097962E-01  0.70554759969E-02  0.16603280952E-01  0.10205473789E+01  0.10202794742E+01 0.  0.
     999903    2    3    3    0    0 -0.85292251579E-01  0.19622159011E-01  0.99291119594E-01  0.13378155022E+00  0.19467394447E-01 0.  0.
         14    1    1    2    0    0  0.14876097962E-01 -0.70554759969E-02 -0.16603280952E-01  0.23382621120E-01  0.00000000000E+00 0. -1.
     999901    1    3    3    0    0  0.70416153617E-01 -0.12566683014E-01 -0.82687838642E-01  0.88676582866E+00  0.88000000000E+00 0.  1.
        -11    1    4    4    0    0 -0.92313241473E-02  0.89206733206E-02  0.14251845548E-01  0.19187808122E-01  0.51100000000E-03 0. -1.
         11    1    4    4    0    0 -0.76060927431E-01  0.10701485691E-01  0.85039274045E-01  0.11459374210E+00  0.51100000000E-03 0.  1.
</event>
<event>
 8    1  0.1161271E+005  0.1043930E+01  0.7957747E-01            NaN
         13   -1    0    0    0    0  0.00000000000E+00  0.00000000000E+00  0.74505805969E-08  0.10566000000E+00  0.10566000000E+00 0.  1.
     999900   -1    0    0    0    0 -0.00000000000E+00 -0.00000000000E+00 -0.74505805969E-08  0.93827000000E+00  0.93827000000E+00 0.  1.
     999902    2    1    2    0    0  0.21174358214E-01 -0.54865666111E-02 -0.20758393730E-02  0.10219580868E+01  0.10217218635E+01 0.  0.
     999903    2    3    3    0    0 -0.15543250055E-01 -0.10500410203E+00  0.76140556886E-01  0.13214365267E+00  0.19927530489E-01 0.  0.
         14    1    1    2    0    0 -0.21174358214E-01  0.54865666111E-02  0.20758393730E-02  0.21971913164E-01  0.00000000000E+00 0. -1.
     999901    1    3    3    0    0  0.36717608270E-01  0.99517535420E-01 -0.78216396259E-01  0.88981443417E+00  0.88000000000E+00 0.  1.
        -11    1    4    4    0    0 -0.10807973043E-01 -0.73134311314E-01  0.63747742392E-01  0.97619032744E-01  0.51100000000E-03 0.  1.
         11    1    4    4    0    0 -0.47352770121E-02 -0.31869790717E-01  0.12392814494E-01  0.34524619923E-01  0.51100000000E-03 0. -1.
</event>
<event>
 8    1  0.1161271E+005  0.1043930E+01  0.7957747E-01            NaN
         13   -1    0    0    0    0  0.00000000000E+00  0.00000000000E+00  0.74505805969E-08  0.10566000000E+00  0.10566000000E+00 0.  1.
     999900   -1    0    0    0    0 -0.00000000000E+00 -0.00000000000E+00 -0.74505805969E-08  0.93827000000E+00  0.93827000000E+00 0. -1.
     999902    2    1    2    0    0 -0.20261787626E-01 -0.11057605432E-01 -0.70259855875E-02  0.10198016940E+01  0.10195162186E+01 0.  0.
     999903    2    3    3    0    0  0.13815453135E-01 -0.12405984414E+00  0.34626086081E-01  0.13094531678E+00  0.19131086637E-01 0.  0.
         14    1    1    2    0    0  0.20261787626E-01  0.11057605432E-01  0.70259855875E-02  0.24128305974E-01  0.00000000000E+00 0. -1.
     999901    1    3    3    0    0 -0.34077240761E-01  0.11300223871E+00 -0.41652071669E-01  0.88885637724E+00  0.88000000000E+00 0.  1.
        -11    1    4    4    0    0  0.13165951829E-01 -0.50837607890E-01  0.20452682586E-01  0.56359364879E-01  0.51100000000E-03 0.  1.
         11    1    4    4    0    0  0.64950130569E-03 -0.73222236253E-01  0.14173403495E-01  0.74585951904E-01  0.51100000000E-03 0. -1.
</event>
<event>
 8    1  0.1161271E+005  0.1043930E+01  0.7957747E-01            NaN
         13   -1    0    0    0    0  0.00000000000E+00  0.00000000000E+00  0.74505805969E-08  0.10566000000E+00  0.10566000000E+00 0. -1.
     999900   -1    0    0    0    0 -0.00000000000E+00 -0.00000000000E+00 -0.74505805969E-08  0.93827000000E+00  0.93827000000E+00 0. -1.
     999902    2    1    2    0    0  0.11778251851E-01 -0.20349397399E-01  0.33591753075E-03  0.10204153656E+01  0.10201443919E+01 0.  0.
     999903    2    3    3    0    0 -0.43905720822E-01 -0.10395601014E+00 -0.65935128245E-01  0.13222472050E+00  0.20034250924E-01 0.  0.
         14    1    1    2    0    0 -0.11778251851E-01  0.20349397399E-01 -0.33591753075E-03  0.23514634417E-01  0.00000000000E+00 0. -1.
     999901    1    3    3    0    0  0.55683972672E-01  0.83606612738E-01  0.66271045775E-01  0.88819064508E+00  0.88000000000E+00 0.  1.
        -11    1    4    4    0    0 -0.17569911712E-02 -0.55784824896E-02 -0.96598540695E-02  0.11303998695E-01  0.51100000000E-03 0.  1.
         11    1    4    4    0    0 -0.42148729650E-01 -0.98377527647E-01 -0.56275274175E-01  0.12092072180E+00  0.51100000000E-03 0. -1.
</event>
<event>
 8    1  0.1161271E+005  0.1043930E+01  0.7957747E-01            NaN
         13   -1    0    0    0    0  0.00000000000E+00  0.00000000000E+00  0.74505805969E-08  0.10566000000E+00  0.10566000000E+00 0. -1.
     999900   -1    0    0    0    0 -0.00000000000E+00 -0.00000000000E+00 -0.74505805969E-08  0.93827000000E+00  0.93827000000E+00 0.  1.
     999902    2    1    2    0    0  0.13827595641E-01 -0.92027352322E-03  0.19368144797E-01  0.10201145777E+01  0.10198365444E+01 0.  0.
     999903    2    3    3    0    0  0.75086826959E-01 -0.86955191847E-01 -0.58408801090E-01  0.13039329896E+00  0.19788567359E-01 0.  0.
         14    1    1    2    0    0 -0.13827595641E-01  0.92027352322E-03 -0.19368144797E-01  0.23815422261E-01  0.00000000000E+00 0.  1.
     999901    1    3    3    0    0 -0.61259231319E-01  0.86034918324E-01  0.77776945887E-01  0.88972127877E+00  0.88000000000E+00 0. -1.
        -11    1    4    4    0    0  0.33801266249E-01 -0.27945813695E-01 -0.15274030811E-01  0.46444065728E-01  0.51100000000E-03 0.  1.
         11    1    4    4    0    0  0.41285560711E-01 -0.59009378152E-01 -0.43134770278E-01  0.83949233237E-01  0.51100000000E-03 0. -1.
</event>
<event>
 7    1  0.1161271E+005  0.1043930E+01  0.7957747E-01            NaN
         13   -1    0    0    0    0  0.00000000000E+00  0.00000000000E+00  0.74505805969E-08  0.10566000000E+00  0.10566000000E+00 0.  1.
     999900   -1    0    0    0    0 -0.00000000000E+00 -0.00000000000E+00 -0.74505805969E-08  0.93827000000E+00  0.93827000000E+00 0.  1.
     999902    2    1    2    0    0  0.13577128206E-01  0.18438080990E-01  0.67614644558E-02  0.10200549368E+01  0.10197754927E+01 0.  0.
         14    1    1    2    0    0 -0.13577128206E-01 -0.18438080990E-01 -0.67614644558E-02  0.23875063194E-01  0.00000000000E+00 0.  1.
     999901    1    3    3    0    0 -0.10280965555E+00  0.42714101503E-01  0.15836617531E-01  0.88715563358E+00  0.88000000000E+00 0.  1.
        -11    1    3    3    0    0  0.84967540082E-01 -0.37044249417E-01  0.11224696352E-01  0.93370306906E-01  0.51100000000E-03 0. -1.
         11    1    3    3    0    0  0.31419243672E-01  0.12768228904E-01 -0.20299849427E-01  0.39528996319E-01  0.51100000000E-03 0.  1.
</event>
<event>
 8    1  0.1161271E+005  0.1043930E+01  0.7957747E-01            NaN
         13   -1    0    0    0    0  0.00000000000E+00  0.00000000000E+00  0.74505805969E-08  0.10566000000E+00  0.10566000000E+00 0. -1.
     999900   -1    0    0    0    0 -0.00000000000E+00 -0.00000000000E+00 -0.74505805969E-08  0.93827000000E+00  0.93827000000E+00 0. -1.
     999902    2    1    2    0    0 -0.21571731090E-02  0.22171728921E-01  0.24154377735E-02  0.10215230078E+01  0.10212772308E+01 0.  0.
     999903    2    3    3    0    0 -0.48421718227E-01 -0.11381233742E-01 -0.11960045394E+00  0.13126793916E+00  0.21279285448E-01 0.  0.
         14    1    1    2    0    0  0.21571731090E-02 -0.22171728921E-01 -0.24154377735E-02  0.22406992186E-01  0.00000000000E+00 0.  1.
     999901    1    3    3    0    0  0.46264545118E-01  0.33552962664E-01  0.12201589172E+00  0.89025506866E+00  0.88000000000E+00 0.  1.
        -11    1    4    4    0    0 -0.98818353091E-02 -0.11193759850E-01 -0.42908014625E-01  0.45434675840E-01  0.51100000000E-03 0.  1.
         11    1    4    4    0    0 -0.38539882918E-01 -0.18747389266E-03 -0.76692439320E-01  0.85833263317E-01  0.51100000000E-03 0. -1.
</event>
<event>
 8    1  0.1161271E+005  0.1043930E+01  0.7957747E-01            NaN
         13   -1    0    0    0    0  0.00000000000E+00  0.00000000000E+00  0.74505805969E-08  0.10566000000E+00  0.10566000000E+00 0. -1.
     999900   -1    0    0    0    0 -0.00000000000E+00 -0.00000000000E+00 -0.74505805969E-08  0.93827000000E+00  0.93827000000E+00 0.  1.
     999902    2    1    2    0    0  0.76200121615E-02 -0.23343783985E-01 -0.14455614827E-03  0.10193735806E+01  0.10190777591E+01 0.  0.
     999903    2    3    3    0    0  0.12956141997E+00 -0.13663813951E-01  0.45409340281E-02  0.13089996673E+00  0.11887802651E-01 0.  0.
         14    1    1    2    0    0 -0.76200121615E-02  0.23343783985E-01  0.14455614827E-03  0.24556419376E-01  0.00000000000E+00 0. -1.
     999901    1    3    3    0    0 -0.12194140781E+00 -0.96799700339E-02 -0.46854901764E-02  0.88847361389E+00  0.88000000000E+00 0.  1.
        -11    1    4    4    0    0  0.43639356062E-01 -0.59182607887E-02 -0.39101572446E-02  0.44215038833E-01  0.51100000000E-03 0.  1.
         11    1    4    4    0    0  0.85922063912E-01 -0.77455531626E-02  0.84510912728E-02  0.86684927902E-01  0.51100000000E-03 0. -1.
</event>
<event>
 8    1  0.1161271E+005  0.1043930E+01  0.7957747E-01            NaN
         13   -1    0    0    0    0  0.00000000000E+00  0.00000000000E+00  0.74505805969E-08  0.10566000000E+00  0.10566000000E+00 0. -1.
     999900   -1    0    0    0    0 -0.00000000000E+00 -0.00000000000E+00 -0.74505805969E-08  0.93827000000E+00  0.93827000000E+00 0.  1.
     999902    2    1    2    0    0 -0.11691933663E-01 -0.20069516717E-01 -0.33871425138E-03  0.10207006750E+01  0.10204363118E+01 0.  0.
     999903    2    3    3    0    0 -0.10426292069E+00 -0.62739898222E-01  0.50522401707E-01  0.13335801161E+00  0.20610548925E-01 0.  0.
         14    1    1    2    0    0  0.11691933663E-01  0.20069516717E-01  0.33871425138E-03  0.23229325030E-01  0.00000000000E+00 0.  1.
     999901    1    3    3    0    0  0.92570987028E-01  0.42670381505E-01 -0.50861115959E-01  0.88734266336E+00  0.88000000000E+00 0.  1.
        -11    1    4    4    0    0 -0.27240380680E-01 -0.15005425933E-01  0.22901380292E-01  0.38625580737E-01  0.51100000000E-03 0. -1.
         11    1    4    4    0    0 -0.77022540011E-01 -0.47734472289E-01  0.27621021416E-01  0.94732430875E-01  0.51100000000E-03 0.  1.
</event>
<event>
 8    1  0.1161271E+005  0.1043930E+01  0.7957747E-01            NaN
         13   -1    0    0    0    0  0.00000000000E+00  0.00000000000E+00  0.74505805969E-08  0.10566000000E+00  0.10566000000E+00 0. -1.
     999900   -1    0    0    0    0 -0.00000000000E+00 -0.00000000000E+00 -0.74505805969E-08  0.93827000000E+00  0.93827000000E+00 0. -1.
     999902    2    1    2    0    0  0.17848512695E-01  0.13849779010E-01  0.25242882772E-02  0.10211976923E+01  0.10209446453E+01 0.  0.
     999903    2    3    3    0    0  0.20409343157E-01  0.10039925754E+00 -0.83810823476E-01  0.13274334812E+00  0.99995068047E-02 0.  0.
         14    1    1    2    0    0 -0.17848512695E-01 -0.13849779010E-01 -0.25242882772E-02  0.22732307744E-01  0.00000000000E+00 0. -1.
     999901    1    3    3    0    0 -0.25608304620E-02 -0.86549478531E-01  0.86335111754E-01  0.88845434413E+00  0.88000000000E+00 0. -1.
        -11    1    4    4    0    0  0.15462478337E-02  0.28156718793E-01 -0.25178219737E-01  0.37807348038E-01  0.51100000000E-03 0. -1.
         11    1    4    4    0    0  0.18863095323E-01  0.72242538749E-01 -0.58632603739E-01  0.94936000086E-01  0.51100000000E-03 0.  1.
</event>
<event>
 8    1  0.1161271E+005  0.1043930E+01  0.7957747E-01            NaN
         13   -1    0    0    0    0  0.00000000000E+00  0.00000000000E+00  0.74505805969E-08  0.10566000000E+00  0.10566000000E+00 0.  1.
     999900   -1    0    0    0    0 -0.00000000000E+00 -0.00000000000E+00 -0.74505805969E-08  0.93827000000E+00  0.93827000000E+00 0. -1.
     999902    2    1    2    0    0 -0.12794455667E-02  0.28561265891E-02 -0.24425930402E-01  0.10193043931E+01  0.10190068818E+01 0.  0.
     999903    2    3    3    0    0 -0.45794849475E-01  0.11764247886E+00 -0.27178810882E-01  0.13072963190E+00  0.20362412101E-01 0.  0.
         14    1    1    2    0    0  0.12794455667E-02 -0.28561265891E-02  0.24425930402E-01  0.24625606918E-01  0.00000000000E+00 0.  1.
     999901    1    3    3    0    0  0.44515403908E-01 -0.11478635227E+00  0.27528804802E-02  0.88857476118E+00  0.88000000000E+00 0. -1.
        -11    1    4    4    0    0 -0.27186075201E-01  0.62610209385E-01 -0.24666505434E-01  0.72579739704E-01  0.51100000000E-03 0. -1.
         11    1    4    4    0    0 -0.18608774274E-01  0.55032269472E-01 -0.25123054481E-02  0.58149892200E-01  0.51100000000E-03 0.  1.
</event>
<event>
 8    1  0.1161271E+005  0.1043930E+01  0.7957747E-01            NaN
         13   -1    0    0    0    0  0.00000000000E+00  0.00000000000E+00  0.74505805969E-08  0.10566000000E+00  0.10566000000E+00 0. -1.
     999900   -1    0    0    0    0 -0.00000000000E+00 -0.00000000000E+00 -0.74505805969E-08  0.93827000000E+00  0.93827000000E+00 0.  1.
     999902    2    1    2    0    0  0.15717324641E-01 -0.26126283867E-02  0.18657559748E-01  0.10193950320E+01  0.10190997334E+01 0.  0.
     999903    2    3    3    0    0  0.13669008532E-01 -0.12669074102E+00 -0.16540590511E-01  0.12999158953E+00  0.19668161023E-01 0.  0.
         14    1    1    2    0    0 -0.15717324641E-01  0.26126283867E-02 -0.18657559748E-01  0.24534968039E-01  0.00000000000E+00 0.  1.
     999901    1    3    3    0    0  0.20483161096E-02  0.12407811263E+00  0.35198150258E-01  0.88940344244E+00  0.88000000000E+00 0.  1.
        -11    1    4    4    0    0  0.85043210548E-02 -0.12073376163E+00 -0.15592991526E-01  0.12203428690E+00  0.51100000000E-03 0. -1.
         11    1    4    4    0    0  0.51646874768E-02 -0.59569793920E-02 -0.94759898433E-03  0.79573026237E-02  0.51100000000E-03 0.  1.
</event>
<event>
 8    1  0.1161271E+005  0.1043930E+01  0.7957747E-01            NaN
         13   -1    0    0    0    0  0.00000000000E+00  0.00000000000E+00  0.74505805969E-08  0.10566000000E+00  0.10566000000E+00 0. -1.
     999900   -1    0    0    0    0 -0.00000000000E+00 -0.00000000000E+00 -0.74505805969E-08  0.93827000000E+00  0.93827000000E+00 0.  1.
     999902    2    1    2    0    0  0.62413806938E-02  0.15810904133E-01  0.16568049609E-01  0.10201931133E+01  0.10199169322E+01 0.  0.
     999903    2    3    3    0    0  0.54989428622E-01 -0.50455254071E-01 -0.10154690864E+00  0.12849881632E+00  0.25111774477E-01 0.  0.
         14    1    1    2    0    0 -0.62413806938E-02 -0.15810904133E-01 -0.16568049609E-01  0.23736886703E-01  0.00000000000E+00 0.  1.
     999901    1    3    3    0    0 -0.48748047928E-01  0.66266158204E-01  0.11811495825E+00  0.89169429698E+00  0.88000000000E+00 0. -1.
        -11    1    4    4    0    0  0.45232606834E-01 -0.25475951153E-01 -0.66414300487E-01  0.84297883949E-01  0.51100000000E-03 0.  1.
         11    1    4    4    0    0  0.97568217875E-02 -0.24979302918E-01 -0.35132608155E-01  0.44200932370E-01  0.51100000000E-03 0. -1.
</event>
<event>
 8    1  0.1161271E+005  0.1043930E+01  0.7957747E-01            NaN
         13   -1    0    0    0    0  0.00000000000E+00  0.00000000000E+00  0.74505805969E-08  0.10566000000E+00  0.10566000000E+00 0. -1.
     999900   -1    0    0    0    0 -0.00000000000E+00 -0.00000000000E+00 -0.74505805969E-08  0.93827000000E+00  0.93827000000E+00 0.  1.
     999902    2    1    2    0    0 -0.19408788469E-02  0.16749453275E-01 -0.14242474456E-01  0.10218583151E+01  0.10216199180E+01 0.  0.
     999903    2    3    3    0    0  0.40906035964E-01  0.79886111126E-01  0.94688658519E-01  0.13186500759E+00  0.19166211059E-01 0.  0.
         14    1    1    2    0    0  0.19408788469E-02 -0.16749453275E-01  0.14242474456E-01  0.22071684900E-01  0.00000000000E+00 0.  1.
     999901    1    3    3    0    0 -0.42846914811E-01 -0.63136657851E-01 -0.10893113298E+00  0.88999330751E+00  0.88000000000E+00 0.  1.
        -11    1    4    4    0    0  0.24006487821E-01  0.43403885428E-01  0.38600454789E-01  0.62852724354E-01  0.51100000000E-03 0. -1.
         11    1    4    4    0    0  0.16899548143E-01  0.36482225698E-01  0.56088203731E-01  0.69012283240E-01  0.51100000000E-03 0.  1.
</event>
<event>
 8    1  0.1161271E+005  0.1043930E+01  0.7957747E-01            NaN
         13   -1    0    0    0    0  0.00000000000E+00  0.00000000000E+00  0.74505805969E-08  0.10566000000E+00  0.10566000000E+00 0. -1.
     999900   -1    0    0    0    0 -0.00000000000E+00 -0.00000000000E+00 -0.74505805969E-08  0.93827000000E+00  0.93827000000E+00 0.  1.
     999902    2    1    2    0    0 -0.67136296706E-02  0.32687779392E-02  0.22045061226E-01  0.10206546384E+01  0.10203892142E+01 0.  0.
     999903    2    3    3    0    0  0.85950540605E-01 -0.26568843556E-01 -0.89279343848E-01  0.12831498600E+00  0.20013383403E-01 0.  0.
         14    1    1    2    0    0  0.67136296706E-02 -0.32687779392E-02 -0.22045061226E-01  0.23275361587E-01  0.00000000000E+00 0.  1.
     999901    1    3    3    0    0 -0.92664170275E-01  0.29837621495E-01  0.11132440507E+00  0.89233965242E+00  0.88000000000E+00 0. -1.
        -11    1    4    4    0    0  0.64720204455E-01 -0.22781140111E-01 -0.55572309088E-01  0.88296250587E-01  0.51100000000E-03 0.  1.
         11    1    4    4    0    0  0.21230336150E-01 -0.37877034443E-02 -0.33707034761E-01  0.40018735410E-01  0.51100000000E-03 0. -1.
</event>
<event>
 8    1  0.1161271E+005  0.1043930E+01  0.7957747E-01            NaN
         13   -1    0    0    0    0  0.00000000000E+00  0.00000000000E+00  0.74505805969E-08  0.10566000000E+00  0.10566000000E+00 0.  1.
     999900   -1    0    0    0    0 -0.00000000000E+00 -0.00000000000E+00 -0.74505805969E-08  0.93827000000E+00  0.93827000000E+00 0. -1.
     999902    2    1    2    0    0  0.19263701966E-01 -0.14890299651E-01 -0.27889977151E-02  0.10194230674E+01  0.10191284515E+01 0.  0.
     999903    2    3    3    0    0 -0.63033011520E-01  0.81021870422E-01  0.72408566626E-01  0.12721985787E+00  0.20104419597E-01 0.  0.
         14    1    1    2    0    0 -0.19263701966E-01  0.14890299651E-01  0.27889977151E-02  0.24506932598E-01  0.00000000000E+00 0. -1.
     999901    1    3    3    0    0  0.82296713486E-01 -0.95912170073E-01 -0.75197564341E-01  0.89220320953E+00  0.88000000000E+00 0. -1.
        -11    1    4    4    0    0 -0.34141987831E-01  0.33248746243E-01  0.42627943643E-01  0.63941826373E-01  0.51100000000E-03 0. -1.
         11    1    4    4    0    0 -0.28891023689E-01  0.47773124179E-01  0.29780622983E-01  0.63278031495E-01  0.51100000000E-03 0.  1.
</event>
<event>
 8    1  0.1161271E+005  0.1043930E+01  0.7957747E-01            NaN
         13   -1    0    0    0    0  0.00000000000E+00  0.00000000000E+00  0.74505805969E-08  0.10566000000E+00  0.10566000000E+00 0.  1.
     999900   -1    0    0    0    0 -0.00000000000E+00 -0.00000000000E+00 -0.74505805969E-08  0.93827000000E+00  0.93827000000E+00 0.  1.
     999902    2    1    2    0    0  0.22804887494E-01 -0.34503849211E-02  0.17045298692E-02  0.10208026683E+01  0.10205406480E+01 0.  0.
     999903    2    3    3    0    0 -0.52075478416E-01 -0.91726023332E-01 -0.73933904670E-01  0.13000480665E+00  0.17592858866E-01 0.  0.
         14    1    1    2    0    0 -0.22804887494E-01  0.34503849211E-02 -0.17045298692E-02  0.23127331705E-01  0.00000000000E+00 0. -1.
     999901    1    3    3    0    0  0.74880365910E-01  0.88275638411E-01  0.75638434540E-01  0.89079786165E+00  0.88000000000E+00 0. -1.
        -11    1    4    4    0    0 -0.15013224842E-01 -0.31415479277E-01 -0.34283893695E-01  0.48866918731E-01  0.51100000000E-03 0. -1.
         11    1    4    4    0    0 -0.37062253574E-01 -0.60310544055E-01 -0.39650010975E-01  0.81137887917E-01  0.51100000000E-03 0.  1.
</event>
<event>
 8    1  0.1161271E+005  0.1043930E+01  0.7957747E-01            NaN
         13   -1    0    0    0    0  0.00000000000E+00  0.00000000000E+00  0.74505805969E-08  0.10566000000E+00  0.10566000000E+00 0. -1.
     999900   -1    0    0    0    0 -0.00000000000E+00 -0.00000000000E+00 -0.74505805969E-08  0.93827000000E+00  0.93827000000E+00 0. -1.
     999902    2    1    2    0    0  0.21989718075E-01 -0.82263663937E-02  0.22514727706E-02  0.10203442006E+01  0.10200715650E+01 0.  0.
     999903    2    3    3    0    0  0.12989978767E+00  0.13112294840E-01  0.15283200936E-01  0.13340015075E+00  0.22718645998E-01 0.  0.
         14    1    1    2    0    0 -0.21989718075E-01  0.82263663937E-02 -0.22514727706E-02  0.23585799429E-01  0.00000000000E+00 0. -1.
     999901    1    3    3    0    0 -0.10791006959E+00 -0.21338661233E-01 -0.13031728166E-01  0.88694404983E+00  0.88000000000E+00 0.  1.
        -11    1    4    4    0    0  0.10716233219E+00  0.83186180856E-02  0.39925900804E-02  0.10756006110E+00  0.51100000000E-03 0.  1.
         11    1    4    4    0    0  0.22737455481E-01  0.47936767541E-02  0.11290610856E-01  0.25840089649E-01  0.51100000000E-03 0. -1.
</event>
<event>
 8    1  0.1161271E+005  0.1043930E+01  0.7957747E-01            NaN
         13   -1    0    0    0    0  0.00000000000E+00  0.00000000000E+00  0.74505805969E-08  0.10566000000E+00  0.10566000000E+00 0. -1.
     999900   -1    0    0    0    0 -0.00000000000E+00 -0.00000000000E+00 -0.74505805969E-08  0.93827000000E+00  0.93827000000E+00 0.  1.
     999902    2    1    2    0    0 -0.23375189470E-01  0.51699442892E-02  0.31546154385E-02  0.10197829628E+01  0.10194970387E+01 0.  0.
     999903    2    3    3    0    0  0.12060427851E+00 -0.22559545492E-01 -0.26560947478E-01  0.12715648634E+00  0.20222833611E-01 0.  0.
         14    1    1    2    0    0  0.23375189470E-01 -0.51699442892E-02 -0.31546154385E-02  0.24147037195E-01  0.00000000000E+00 0. -1.
     999901    1    3    3    0    0 -0.14397946798E+00  0.27729489781E-01  0.29715562916E-01  0.89262647646E+00  0.88000000000E+00 0. -1.
        -11    1    4    4    0    0  0.15996066898E-01 -0.38212397700E-02  0.32673734555E-02  0.16775365269E-01  0.51100000000E-03 0.  1.
         11    1    4    4    0    0  0.10460821161E+00 -0.18738305722E-01 -0.29828320933E-01  0.11038112107E+00  0.51100000000E-03 0. -1.
</event>
<event>
 8    1  0.1161271E+005  0.1043930E+01  0.7957747E-01            NaN
         13   -1    0    0    0    0  0.00000000000E+00  0.00000000000E+00  0.74505805969E-08  0.10566000000E+00  0.10566000000E+00 0. -1.
     999900   -1    0    0    0    0 -0.00000000000E+00 -0.00000000000E+00 -0.74505805969E-08  0.93827000000E+00  0.93827000000E+00 0.  1.
     999902    2    1    2    0    0  0.12540188542E-01 -0.15507099291E-01 -0.11364249012E-01  0.10209762941E+01  0.10207182376E+01 0.  0.
     999903    2    3    3    0    0  0.91734207511E-01 -0.15477841134E-01 -0.93666134939E-01  0.13359515059E+00  0.20483921345E-01 0.  0.
         14    1    1    2    0    0 -0.12540188542E-01  0.15507099291E-01  0.11364249012E-01  0.22953705860E-01  0.00000000000E+00 0. -1.
     999901    1    3    3    0    0 -0.79194018969E-01 -0.29258157298E-04  0.82301885927E-01  0.88738114355E+00  0.88000000000E+00 0. -1.
        -11    1    4    4    0    0  0.70834506771E-01 -0.20375236146E-01 -0.74765406503E-01  0.10498954580E+00  0.51100000000E-03 0.  1.
         11    1    4    4    0    0  0.20899700741E-01  0.48973950127E-02 -0.18900728436E-01  0.28605604789E-01  0.51100000000E-03 0. -1.
</event>
<event>
 8    1  0.1161271E+005  0.1043930E+01  0.7957747E-01            NaN
         13   -1    0    0    0    0  0.00000000000E+00  0.00000000000E+00  0.74505805969E-08  0.10566000000E+00  0.10566000000E+00 0.  1.
     999900   -1    0    0    0    0 -0.00000000000E+00 -0.00000000000E+00 -0.74505805969E-08  0.93827000000E+00  0.93827000000E+00 0.  1.
     999902    2    1    2    0    0  0.10764011638E-01 -0.21087891747E-01  0.33298940279E-02  0.10200207692E+01  0.10197405151E+01 0.  0.
     999903    2    3    3    0    0  0.94904093425E-01  0.85959595086E-01 -0.16490841573E-02  0.12953578444E+00  0.19518223154E-01 0.  0.
         14    1    1    2    0    0 -0.10764011638E-01  0.21087891747E-01 -0.33298940279E-02  0.23909230835E-01  0.00000000000E+00 0. -1.
     999901    1    3    3    0    0 -0.84140081787E-01 -0.10704748683E+00  0.49789781853E-02  0.89048498473E+00  0.88000000000E+00 0. -1.
        -11    1    4    4    0    0  0.40410788455E-01  0.36972612442E-01 -0.10350467813E-01  0.55744050797E-01  0.51100000000E-03 0. -1.
         11    1    4    4    0    0  0.54493304970E-01  0.48986982644E-01  0.87013836553E-02  0.73791733640E-01  0.51100000000E-03 0.  1.
</event>
<event>
 8    1  0.1161271E+005  0.1043930E+01  0.7957747E-01            NaN
         13   -1    0    0    0    0  0.00000000000E+00  0.00000000000E+00  0.74505805969E-08  0.10566000000E+00  0.10566000000E+00 0.  1.
     999900   -1    0    0    0    0 -0.00000000000E+00 -0.00000000000E+00 -0.74505805969E-08  0.93827000000E+00  0.93827000000E+00 0. -1.
     999902    2    1    2    0    0 -0.24983960246E-02 -0.11611945881E-01 -0.20525416968E-01  0.10202156159E+01  0.10199399644E+01 0.  0.
     999903    2    3    3    0    0  0.21088915607E-01  0.23422428082E-01 -0.12591113696E+00  0.13292202382E+00  0.28658288625E-01 0.  0.
         14    1    1    2    0    0  0.24983960246E-02  0.11611945881E-01  0.20525416968E-01  0.23714384064E-01  0.00000000000E+00 0.  1.
     999901    1    3    3    0    0 -0.23587311632E-01 -0.35034373964E-01  0.10538571999E+00  0.88729359211E+00  0.88000000000E+00 0.  1.
        -11    1    4    4    0    0 -0.23030769949E-02 -0.18167831489E-02 -0.43652549393E-01  0.43753983294E-01  0.51100000000E-03 0. -1.
         11    1    4    4    0    0  0.23391992602E-01  0.25239211231E-01 -0.82258587569E-01  0.89168040527E-01  0.51100000000E-03 0.  1.
</event>
<event>
 8    1  0.1161271E+005  0.1043930E+01  0.7957747E-01            NaN
         13   -1    0    0    0    0  0.00000000000E+00  0.00000000000E+00  0.74505805969E-08  0.10566000000E+00  0.10566000000E+00 0. -1.
     999900   -1    0    0    0    0 -0.00000000000E+00 -0.00000000000E+00 -0.74505805969E-08  0.93827000000E+00  0.93827000000E+00 0. -1.
     999902    2    1    2    0    0  0.48407430264E-02 -0.10302849392E-01 -0.20508332570E-01  0.10204742288E+01  0.10202046258E+01 0.  0.
     999903    2    3    3    0    0 -0.23419813615E-01  0.90849358526E-01  0.84767489392E-01  0.12799821963E+00  0.19897822879E-01 0.  0.
         14    1    1    2    0    0 -0.48407430264E-02  0.10302849392E-01  0.20508332570E-01  0.23455771219E-01  0.00000000000E+00 0. -1.
     999901    1    3    3    0    0  0.28260556641E-01 -0.10115220792E+00 -0.10527582196E+00  0.89247600916E+00  0.88000000000E+00 0. -1.
        -11    1    4    4    0    0 -0.85770912852E-02  0.61138796918E-01  0.63447542423E-01  0.88528926030E-01  0.51100000000E-03 0. -1.
         11    1    4    4    0    0 -0.14842722330E-01  0.29710561609E-01  0.21319946968E-01  0.39469293596E-01  0.51100000000E-03 0.  1.
</event>
<event>
 8    1  0.1161271E+005  0.1043930E+01  0.7957747E-01            NaN
         13   -1    0    0    0    0  0.00000000000E+00  0.00000000000E+00  0.74505805969E-08  0.10566000000E+00  0.10566000000E+00 0.  1.
     999900   -1    0    0    0    0 -0.00000000000E+00 -0.00000000000E+00 -0.74505805969E-08  0.93827000000E+00  0.93827000000E+00 0. -1.
     999902    2    1    2    0    0  0.93895785983E-02  0.62241029399E-03 -0.21943184908E-01  0.10200541766E+01  0.10197747144E+01 0.  0.
     999903    2    3    3    0    0 -0.84771688704E-01 -0.74597806612E-01  0.57872930297E-01  0.12826101807E+00  0.18722733190E-01 0.  0.
         14    1    1    2    0    0 -0.93895785983E-02 -0.62241029399E-03  0.21943184908E-01  0.23875823436E-01  0.00000000000E+00 0. -1.
     999901    1    3    3    0    0  0.94161267302E-01  0.75220216906E-01 -0.79816115205E-01  0.89179315849E+00  0.88000000000E+00 0. -1.
        -11    1    4    4    0    0 -0.56016923645E-01 -0.37290495898E-01  0.31980300793E-01  0.74508238328E-01  0.51100000000E-03 0.  1.
         11    1    4    4    0    0 -0.28754765059E-01 -0.37307310714E-01  0.25892629504E-01  0.53752779741E-01  0.51100000000E-03 0. -1.
</event>
<event>
 8    1  0.1161271E+005  0.1043930E+01  0.7957747E-01            NaN
         13   -1    0    0    0    0  0.00000000000E+00  0.00000000000E+00  0.74505805969E-08  0.10566000000E+00  0.10566000000E+00 0.  1.
     999900   -1    0    0    0    0 -0.00000000000E+00 -0.00000000000E+00 -0.74505805969E-08  0.93827000000E+00  0.93827000000E+00 0.  1.
     999902    2    1    2    0    0 -0.80080087282E-03  0.25683455034E-01 -0.11338302115E-02  0.10182090608E+01  0.10178841411E+01 0.  0.
     999903    2    3    3    0    0 -0.10627703176E+00  0.71540897351E-01  0.13390733146E-01  0.13060605083E+00  0.21580577041E-01 0.  0.
         14    1    1    2    0    0  0.80080087282E-03 -0.25683455034E-01  0.11338302115E-02  0.25720939241E-01  0.00000000000E+00 0.  1.
     999901    1    3    3    0    0  0.10547623089E+00 -0.45857442318E-01 -0.14524563357E-01  0.88760300993E+00  0.88000000000E+00 0.  1.
        -11    1    4    4    0    0 -0.62083554893E-01  0.48980613314E-01  0.16880151963E-01  0.80862036334E-01  0.51100000000E-03 0.  1.
         11    1    4    4    0    0 -0.44193476865E-01  0.22560284037E-01 -0.34894188167E-02  0.49744014494E-01  0.51100000000E-03 0. -1.
</event>
<event>
 8    1  0.1161271E+005  0.1043930E+01  0.7957747E-01            NaN
         13   -1    0    0    0    0  0.00000000000E+00  0.00000000000E+00  0.74505805969E-08  0.10566000000E+00  0.10566000000E+00 0.  1.
     999900   -1    0    0    0    0 -0.00000000000E+00 -0.00000000000E+00 -0.74505805969E-08  0.93827000000E+00  0.93827000000E+00 0. -1.
     999902    2    1    2    0    0  0.20404268231E-02 -0.21389301554E-01 -0.61070431987E-02  0.10215925530E+01  0.10213483161E+01 0.  0.
     999903    2    3    3    0    0  0.77989702213E-01  0.10125172406E+00 -0.11073030788E-01  0.12983374331E+00  0.19997090178E-01 0.  0.
         14    1    1    2    0    0 -0.20404268231E-02  0.21389301554E-01  0.61070431987E-02  0.22337447017E-01  0.00000000000E+00 0.  1.
     999901    1    3    3    0    0 -0.75949275390E-01 -0.12264102561E+00  0.49659875893E-02  0.89175880967E+00  0.88000000000E+00 0. -1.
        -11    1    4    4    0    0  0.58127346800E-01  0.79713910835E-01 -0.43206537270E-03  0.98658724035E-01  0.51100000000E-03 0. -1.
         11    1    4    4    0    0  0.19862355413E-01  0.21537813221E-01 -0.10640965415E-01  0.31175019277E-01  0.51100000000E-03 0.  1.
</event>
<event>
 8    1  0.1161271E+005  0.1043930E+01  0.7957747E-01            NaN
         13   -1    0    0    0    0  0.00000000000E+00  0.00000000000E+00  0.74505805969E-08  0.10566000000E+00  0.10566000000E+00 0. -1.
     999900   -1    0    0    0    0 -0.00000000000E+00 -0.00000000000E+00 -0.74505805969E-08  0.93827000000E+00  0.93827000000E+00 0.  1.
     999902    2    1    2    0    0  0.27796704235E-02 -0.23815929182E-01  0.43933265158E-02  0.10195532412E+01  0.10192617845E+01 0.  0.
     999903    2    3    3    0    0  0.27638519611E-01 -0.31572595504E-01  0.12269450800E+00  0.13125526318E+00  0.20329418783E-01 0.  0.
         14    1    1    2    0    0 -0.27796704235E-02  0.23815929182E-01 -0.43933265158E-02  0.24376758774E-01  0.00000000000E+00 0.  1.
     999901    1    3    3    0    0 -0.24858849188E-01  0.77566663220E-02 -0.11830118148E+00  0.88829797804E+00  0.88000000000E+00 0. -1.
        -11    1    4    4    0    0  0.33618728479E-02 -0.18530560592E-01  0.56227915125E-01  0.59300281831E-01  0.51100000000E-03 0. -1.
         11    1    4    4    0    0  0.24276646763E-01 -0.13042034912E-01  0.66466592870E-01  0.71954981353E-01  0.51100000000E-03 0.  1.
</event>
<event>
 8    1  0.1161271E+005  0.1043930E+01  0.7957747E-01            NaN
         13   -1    0    0    0    0  0.00000000000E+00  0.00000000000E+00  0.74505805969E-08  0.10566000000E+00  0.10566000000E+00 0. -1.
     999900   -1    0    0    0    0 -0.00000000000E+00 -0.00000000000E+00 -0.74505805969E-08  0.93827000000E+00  0.93827000000E+00 0. -1.
     999902    2    1    2    0    0  0.23750068286E-01 -0.60642784201E-02  0.34112429327E-03  0.10194155638E+01  0.10191207652E+01 0.  0.
     999903    2    3    3    0    0  0.12329408467E+00 -0.15857438428E-01 -0.39706751238E-01  0.13284421895E+00  0.24861028633E-01 0.  0.
         14    1    1    2    0    0 -0.23750068286E-01  0.60642784201E-02 -0.34112429327E-03  0.24514436199E-01  0.00000000000E+00 0.  1.
     999901    1    3    3    0    0 -0.99544016388E-01  0.97931600075E-02  0.40047875531E-01  0.88657134485E+00  0.88000000000E+00 0. -1.
        -11    1    4    4    0    0  0.78308922745E-01  0.20572105253E-02 -0.25345411704E-01  0.82335718325E-01  0.51100000000E-03 0.  1.
         11    1    4    4    0    0  0.44985161930E-01 -0.17914648953E-01 -0.14361339534E-01  0.50508500622E-01  0.51100000000E-03 0. -1.
</event>
<event>
 8    1  0.1161271E+005  0.1043930E+01  0.7957747E-01            NaN
         13   -1    0    0    0    0  0.00000000000E+00  0.00000000000E+00  0.74505805969E-08  0.10566000000E+00  0.10566000000E+00 0. -1.
     999900   -1    0    0    0    0 -0.00000000000E+00 -0.00000000000E+00 -0.74505805969E-08  0.93827000000E+00  0.93827000000E+00 0.  1.
     999902    2    1    2    0    0 -0.58221679447E-02  0.14981062419E-01  0.17696793382E-01  0.10200238007E+01  0.10197436185E+01 0.  0.
     999903    2    3    3    0    0  0.10446831896E+00  0.74630533056E-01 -0.13545259296E-01  0.13058683454E+00  0.19649457370E-01 0.  0.
         14    1    1    2    0    0  0.58221679447E-02 -0.14981062419E-01 -0.17696793382E-01  0.23906199338E-01  0.00000000000E+00 0.  1.
     999901    1    3    3    0    0 -0.11029048691E+00 -0.59649470637E-01  0.31242052678E-01  0.88943696612E+00  0.88000000000E+00 0.  1.
        -11    1    4    4    0    0  0.12715722330E-01  0.94064363731E-02  0.47789531587E-02  0.16530884850E-01  0.51100000000E-03 0.  1.
         11    1    4    4    0    0  0.91752596631E-01  0.65224096683E-01 -0.18324212455E-01  0.11405594969E+00  0.51100000000E-03 0. -1.
</event>
<event>
 8    1  0.1161271E+005  0.1043930E+01  0.7957747E-01            NaN
         13   -1    0    0    0    0  0.00000000000E+00  0.00000000000E+00  0.74505805969E-08  0.10566000000E+00  0.10566000000E+00 0. -1.
     999900   -1    0    0    0    0 -0.00000000000E+00 -0.00000000000E+00 -0.74505805969E-08  0.93827000000E+00  0.93827000000E+00 0.  1.
     999902    2    1    2    0    0  0.65666260151E-02  0.20151458497E-01 -0.96834289664E-02  0.10206282693E+01  0.10203622364E+01 0.  0.
     999903    2    3    3    0    0  0.79192802884E-01  0.10547687509E+00 -0.22315962460E-02  0.13349213652E+00  0.20452366225E-01 0.  0.
         14    1    1    2    0    0 -0.65666260151E-02 -0.20151458497E-01  0.96834289664E-02  0.23301730694E-01  0.00000000000E+00 0. -1.
     999901    1    3    3    0    0 -0.72626176868E-01 -0.85325416590E-01 -0.74518327205E-02  0.88713613279E+00  0.88000000000E+00 0.  1.
        -11    1    4    4    0    0  0.65476682955E-01  0.82332077770E-01  0.59610821663E-02  0.10536395333E+00  0.51100000000E-03 0. -1.
         11    1    4    4    0    0  0.13716119928E-01  0.23144797318E-01 -0.81926784123E-02  0.28128183186E-01  0.51100000000E-03 0.  1.
</event>
<event>
 8    1  0.1161271E+005  0.1043930E+01  0.7957747E-01            NaN
         13   -1    0    0    0    0  0.00000000000E+00  0.00000000000E+00  0.74505805969E-08  0.10566000000E+00  0.10566000000E+00 0. -1.
     999900   -1    0    0    0    0 -0.00000000000E+00 -0.00000000000E+00 -0.74505805969E-08  0.93827000000E+00  0.93827000000E+00 0. -1.
     999902    2    1    2    0    0 -0.12650232266E-01  0.17706499024E-01  0.11815016877E-01  0.10191682733E+01  0.10188674233E+01 0.  0.
     999903    2    3    3    0    0  0.45053199675E-01  0.12071466279E+00  0.15093425184E-01  0.13127688592E+00  0.20099469631E-01 0.  0.
         14    1    1    2    0    0  0.12650232266E-01 -0.17706499024E-01 -0.11815016877E-01  0.24761726675E-01  0.00000000000E+00 0.  1.
     999901    1    3    3    0    0 -0.57703431941E-01 -0.10300816377E+00 -0.32784083063E-02  0.88789138740E+00  0.88000000000E+00 0. -1.
        -11    1    4    4    0    0  0.46726910394E-01  0.10969768634E+00  0.14360093484E-01  0.12009771001E+00  0.51100000000E-03 0. -1.
         11    1    4    4    0    0 -0.16737107184E-02  0.11016976456E-01  0.73333169928E-03  0.11179175917E-01  0.51100000000E-03 0.  1.
</event>
<event>
 8    1  0.1161271E+005  0.1043930E+01  0.7957747E-01            NaN
         13   -1    0    0    0    0  0.00000000000E+00  0.00000000000E+00  0.74505805969E-08  0.10566000000E+00  0.10566000000E+00 0. -1.
     999900   -1    0    0    0    0 -0.00000000000E+00 -0.00000000000E+00 -0.74505805969E-08  0.93827000000E+00  0.93827000000E+00 0. -1.
     999902    2    1    2    0    0 -0.20425580133E-01  0.15409103205E-01 -0.47997120478E-02  0.10178976735E+01  0.10175647359E+01 0.  0.
     999903    2    3    3    0    0  0.44012320212E-01  0.29576762701E-01 -0.11542560500E+00  0.12852089524E+00  0.19562234052E-01 0.  0.
         14    1    1    2    0    0  0.20425580133E-01 -0.15409103205E-01  0.47997120478E-02  0.26032326463E-01  0.00000000000E+00 0. -1.
     999901    1    3    3    0    0 -0.64437900345E-01 -0.14167659496E-01  0.11062589296E+00  0.88937677829E+00  0.88000000000E+00 0.  1.
        -11    1    4    4    0    0  0.35806975683E-01  0.29892087282E-01 -0.84508515433E-01  0.96527854484E-01  0.51100000000E-03 0.  1.
         11    1    4    4    0    0  0.82053445292E-02 -0.31532458079E-03 -0.30917089572E-01  0.31993040759E-01  0.51100000000E-03 0. -1.
</event>
<event>
 8    1  0.1161271E+005  0.1043930E+01  0.7957747E-01            NaN
         13   -1    0    0    0    0  0.00000000000E+00  0.00000000000E+00  0.74505805969E-08  0.10566000000E+00  0.10566000000E+00 0.  1.
     999900   -1    0    0    0    0 -0.00000000000E+00 -0.00000000000E+00 -0.74505805969E-08  0.93827000000E+00  0.93827000000E+00 0. -1.
     999902    2    1    2    0    0  0.33820708245E-02 -0.36691516789E-02 -0.22932242342E-01  0.10204611096E+01  0.10201912014E+01 0.  0.
     999903    2    3    3    0    0  0.79381752022E-01  0.38277136424E-01  0.91644400147E-01  0.12879791668E+00  0.20581679624E-01 0.  0.
         14    1    1    2    0    0 -0.33820708245E-02  0.36691516789E-02  0.22932242342E-01  0.23468890386E-01  0.00000000000E+00 0.  1.
     999901    1    3    3    0    0 -0.75999681197E-01 -0.41946288103E-01 -0.11457664249E+00  0.89166319293E+00  0.88000000000E+00 0. -1.
        -11    1    4    4    0    0  0.56027483531E-01  0.16228567772E-01  0.57142069885E-01  0.81657348686E-01  0.51100000000E-03 0.  1.
         11    1    4    4    0    0  0.23354268491E-01  0.22048568651E-01  0.34502330263E-01  0.47140567995E-01  0.51100000000E-03 0. -1.
</event>
<event>
 7    1  0.1161271E+005  0.1043930E+01  0.7957747E-01            NaN
         13   -1    0    0    0    0  0.00000000000E+00  0.00000000000E+00  0.74505805969E-08  0.10566000000E+00  0.10566000000E+00 0. -1.
     999900   -1    0    0    0    0 -0.00000000000E+00 -0.00000000000E+00 -0.74505805969E-08  0.93827000000E+00  0.93827000000E+00 0. -1.
     999902    2    1    2    0    0  0.21893075966E-01 -0.30654824672E-03  0.90785025719E-02  0.10202272585E+01  0.10199518807E+01 0.  0.
         14    1    1    2    0    0 -0.21893075966E-01  0.30654824672E-03 -0.90785025719E-02  0.23702741530E-01  0.00000000000E+00 0.  1.
     999901    1    3    3    0    0 -0.13755701959E-01  0.10353892475E+00 -0.55340024172E-01  0.88790317408E+00  0.88000000000E+00 0. -1.
        -11    1    3    3    0    0  0.32166388507E-02 -0.47753580689E-01  0.12978994126E-01  0.49593010028E-01  0.51100000000E-03 0. -1.
         11    1    3    3    0    0  0.32432139074E-01 -0.56091892306E-01  0.51439532618E-01  0.82731074358E-01  0.51100000000E-03 0.  1.
</event>
<event>
 8    1  0.1161271E+005  0.1043930E+01  0.7957747E-01            NaN
         13   -1    0    0    0    0  0.00000000000E+00  0.00000000000E+00  0.74505805969E-08  0.10566000000E+00  0.10566000000E+00 0.  1.
     999900   -1    0    0    0    0 -0.00000000000E+00 -0.00000000000E+00 -0.74505805969E-08  0.93827000000E+00  0.93827000000E+00 0.  1.
     999902    2    1    2    0    0 -0.14995338771E-01 -0.11363872689E-01 -0.13981429108E-01  0.10204890498E+01  0.10202197913E+01 0.  0.
     999903    2    3    3    0    0  0.10720544156E+00 -0.45135993487E-02 -0.71055392695E-01  0.13018719407E+00  0.19658519500E-01 0.  0.
         14    1    1    2    0    0  0.14995338771E-01  0.11363872689E-01  0.13981429108E-01  0.23440950221E-01  0.00000000000E+00 0.  1.
     999901    1    3    3    0    0 -0.12220078033E+00 -0.68502733407E-02  0.57073963587E-01  0.89030185571E+00  0.88000000000E+00 0. -1.
        -11    1    4    4    0    0  0.66974410032E-01  0.21549288032E-02 -0.53664931759E-01  0.85851041572E-01  0.51100000000E-03 0. -1.
         11    1    4    4    0    0  0.40231031531E-01 -0.66685281518E-02 -0.17390460936E-01  0.44336152498E-01  0.51100000000E-03 0.  1.
</event>
<event>
 8    1  0.1161271E+005  0.1043930E+01  0.7957747E-01            NaN
         13   -1    0    0    0    0  0.00000000000E+00  0.00000000000E+00  0.74505805969E-08  0.10566000000E+00  0.10566000000E+00 0. -1.
     999900   -1    0    0    0    0 -0.00000000000E+00 -0.00000000000E+00 -0.74505805969E-08  0.93827000000E+00  0.93827000000E+00 0. -1.
     999902    2    1    2    0    0 -0.13901941948E-01  0.13766268331E-01  0.14210632851E-01  0.10197490939E+01  0.10194623575E+01 0.  0.
     999903    2    3    3    0    0  0.97043092837E-01  0.83050181649E-01  0.13994414028E-01  0.13008111755E+00  0.20262255079E-01 0.  0.
         14    1    1    2    0    0  0.13901941948E-01 -0.13766268331E-01 -0.14210632851E-01  0.24180906098E-01  0.00000000000E+00 0.  1.
     999901    1    3    3    0    0 -0.11094503479E+00 -0.69283913318E-01  0.21621882302E-03  0.88966797635E+00  0.88000000000E+00 0. -1.
        -11    1    4    4    0    0  0.73905961212E-01  0.64380286833E-01  0.20516237781E-02  0.98037659685E-01  0.51100000000E-03 0. -1.
         11    1    4    4    0    0  0.23137131625E-01  0.18669894816E-01  0.11942790250E-01  0.32043457869E-01  0.51100000000E-03 0.  1.
</event>
<event>
 8    1  0.1161271E+005  0.1043930E+01  0.7957747E-01            NaN
         13   -1    0    0    0    0  0.00000000000E+00  0.00000000000E+00  0.74505805969E-08  0.10566000000E+00  0.10566000000E+00 0. -1.
     999900   -1    0    0    0    0 -0.00000000000E+00 -0.00000000000E+00 -0.74505805969E-08  0.93827000000E+00  0.93827000000E+00 0. -1.
     999902    2    1    2    0    0 -0.23175151464E-01  0.43842242575E-02 -0.15238201169E-02  0.10202946220E+01  0.10200208255E+01 0.  0.
     999903    2    3    3    0    0  0.32725273958E-01 -0.73559172143E-01  0.99280820780E-01  0.12936162434E+00  0.19896057794E-01 0.  0.
         14    1    1    2    0    0  0.23175151464E-01 -0.43842242575E-02  0.15238201169E-02  0.23635378048E-01  0.00000000000E+00 0.  1.
     999901    1    3    3    0    0 -0.55900425422E-01  0.77943396401E-01 -0.10080464090E+00  0.89093299761E+00  0.88000000000E+00 0. -1.
        -11    1    4    4    0    0  0.24417252940E-01 -0.47978858508E-01  0.79316985789E-01  0.95862497676E-01  0.51100000000E-03 0.  1.
         11    1    4    4    0    0  0.83080210178E-02 -0.25580313635E-01  0.19963834990E-01  0.33499126667E-01  0.51100000000E-03 0. -1.
</event>
<event>
 8    1  0.1161271E+005  0.1043930E+01  0.7957747E-01            NaN
         13   -1    0    0    0    0  0.00000000000E+00  0.00000000000E+00  0.74505805969E-08  0.10566000000E+00  0.10566000000E+00 0. -1.
     999900   -1    0    0    0    0 -0.00000000000E+00 -0.00000000000E+00 -0.74505805969E-08  0.93827000000E+00  0.93827000000E+00 0. -1.
     999902    2    1    2    0    0 -0.51172847918E-02  0.15988091836E-01 -0.16397102446E-01  0.10204636272E+01  0.10201937776E+01 0.  0.
     999903    2    3    3    0    0  0.24858579870E-01  0.94964233404E-01  0.83766256536E-01  0.13076228298E+00  0.21114788609E-01 0.  0.
         14    1    1    2    0    0  0.51172847918E-02 -0.15988091836E-01  0.16397102446E-01  0.23466372809E-01  0.00000000000E+00 0. -1.
     999901    1    3    3    0    0 -0.29975864662E-01 -0.78976141568E-01 -0.10016335898E+00  0.88970134421E+00  0.88000000000E+00 0. -1.
        -11    1    4    4    0    0  0.83050903407E-02  0.37510252741E-01  0.46444147145E-01  0.60276973309E-01  0.51100000000E-03 0. -1.
         11    1    4    4    0    0  0.16553489529E-01  0.57453980663E-01  0.37322109391E-01  0.70485309675E-01  0.51100000000E-03 0.  1.
</event>
<event>
 8    1  0.1161271E+005  0.1043930E+01  0.7957747E-01            NaN
         13   -1    0    0    0    0  0.00000000000E+00  0.00000000000E+00  0.74505805969E-08  0.10566000000E+00  0.10566000000E+00 0. -1.
     999900   -1    0    0    0    0 -0.00000000000E+00 -0.00000000000E+00 -0.74505805969E-08  0.93827000000E+00  0.93827000000E+00 0. -1.
     999902    2    1    2    0    0 -0.20162710184E-01  0.13098797470E-01 -0.16505852501E-02  0.10198294231E+01  0.10195446113E+01 0.  0.
     999903    2    3    3    0    0  0.19321918232E-01  0.14346854512E-01 -0.12621370727E+00  0.13017973645E+00  0.20921164411E-01 0.  0.
         14    1    1    2    0    0  0.20162710184E-01 -0.13098797470E-01  0.16505852501E-02  0.24100576939E-01  0.00000000000E+00 0. -1.
     999901    1    3    3    0    0 -0.39484628416E-01 -0.12480570420E-02  0.12456312202E+00  0.88964968662E+00  0.88000000000E+00 0.  1.
        -11    1    4    4    0    0  0.14423784855E-01  0.49751491859E-02 -0.10830624686E+00  0.10937688014E+00  0.51100000000E-03 0. -1.
         11    1    4    4    0    0  0.48981333769E-02  0.93717053263E-02 -0.17907460411E-01  0.20802856310E-01  0.51100000000E-03 0.  1.
</event>
<event>
 8    1  0.1161271E+005  0.1043930E+01  0.7957747E-01            NaN
         13   -1    0    0    0    0  0.00000000000E+00  0.00000000000E+00  0.74505805969E-08  0.10566000000E+00  0.10566000000E+00 0. -1.
     999900   -1    0    0    0    0 -0.00000000000E+00 -0.00000000000E+00 -0.74505805969E-08  0.93827000000E+00  0.93827000000E+00 0.  1.
     999902    2    1    2    0    0 -0.14848813949E-01  0.12015959222E-01 -0.13954297316E-01  0.10202742826E+01  0.10200000092E+01 0.  0.
     999903    2    3    3    0    0 -0.57486230860E-01  0.98406569526E-02  0.11430884404E+00  0.12995180469E+00  0.20480587096E-01 0.  0.
         14    1    1    2    0    0  0.14848813949E-01 -0.12015959222E-01  0.13954297316E-01  0.23655717391E-01  0.00000000000E+00 0. -1.
     999901    1    3    3    0    0  0.42637416912E-01  0.21753022698E-02 -0.12826314136E+00  0.89032247792E+00  0.88000000000E+00 0.  1.
        -11    1    4    4    0    0 -0.44676742786E-01  0.12547661915E-02  0.70196699280E-01  0.83219129381E-01  0.51100000000E-03 0.  1.
         11    1    4    4    0    0 -0.12809488074E-01  0.85858907611E-02  0.44112144761E-01  0.46732675306E-01  0.51100000000E-03 0. -1.
</event>
<event>
 8    1  0.1161271E+005  0.1043930E+01  0.7957747E-01            NaN
         13   -1    0    0    0    0  0.00000000000E+00  0.00000000000E+00  0.74505805969E-08  0.10566000000E+00  0.10566000000E+00 0. -1.
     999900   -1    0    0    0    0 -0.00000000000E+00 -0.00000000000E+00 -0.74505805969E-08  0.93827000000E+00  0.93827000000E+00 0. -1.
     999902    2    1    2    0    0  0.23663334787E-01  0.39536672575E-02  0.29393669786E-03  0.10199368490E+01  0.10196546006E+01 0.  0.
     999903    2    3    3    0    0 -0.20788289444E-01 -0.12551388257E+00 -0.11714146324E-01  0.12927305863E+00  0.19708241096E-01 0.  0.
         14    1    1    2    0    0 -0.23663334787E-01 -0.39536672575E-02 -0.29393669786E-03  0.23993151039E-01  0.00000000000E+00 0. -1.
     999901    1    3    3    0    0  0.44451624230E-01  0.12946754983E+00  0.12008083022E-01  0.89066379033E+00  0.88000000000E+00 0. -1.
        -11    1    4    4    0    0 -0.19380194940E-05 -0.44469501177E-01  0.18532852010E-02  0.44511035999E-01  0.51100000000E-03 0.  1.
         11    1    4    4    0    0 -0.20786351424E-01 -0.81044381392E-01 -0.13567431526E-01  0.84762022628E-01  0.51100000000E-03 0. -1.
</event>
<event>
 8    1  0.1161271E+005  0.1043930E+01  0.7957747E-01            NaN
         13   -1    0    0    0    0  0.00000000000E+00  0.00000000000E+00  0.74505805969E-08  0.10566000000E+00  0.10566000000E+00 0. -1.
     999900   -1    0    0    0    0 -0.00000000000E+00 -0.00000000000E+00 -0.74505805969E-08  0.93827000000E+00  0.93827000000E+00 0.  1.
     999902    2    1    2    0    0 -0.87063037428E-02  0.14331994030E-01 -0.14338060047E-01  0.10218667785E+01  0.10216285662E+01 0.  0.
     999903    2    3    3    0    0 -0.73734835268E-02  0.10655187610E+00  0.75846672988E-01  0.13246272569E+00  0.19646509430E-01 0.  0.
         14    1    1    2    0    0  0.87063037428E-02 -0.14331994030E-01  0.14338060047E-01  0.22063221516E-01  0.00000000000E+00 0. -1.
     999901    1    3    3    0    0 -0.13328202161E-02 -0.92219882073E-01 -0.90184733034E-01  0.88940405280E+00  0.88000000000E+00 0.  1.
        -11    1    4    4    0    0 -0.96887543847E-02  0.37736181291E-01  0.35170177679E-01  0.52488987978E-01  0.51100000000E-03 0.  1.
         11    1    4    4    0    0  0.23152708580E-02  0.68815694812E-01  0.40676495308E-01  0.79973737710E-01  0.51100000000E-03 0. -1.
</event>
<event>
 8    1  0.1161271E+005  0.1043930E+01  0.7957747E-01            NaN
         13   -1    0    0    0    0  0.00000000000E+00  0.00000000000E+00  0.74505805969E-08  0.10566000000E+00  0.10566000000E+00 0.  1.
     999900   -1    0    0    0    0 -0.00000000000E+00 -0.00000000000E+00 -0.74505805969E-08  0.93827000000E+00  0.93827000000E+00 0.  1.
     999902    2    1    2    0    0 -0.16112180266E-01 -0.88022199602E-02  0.14770730045E-01  0.10203661316E+01  0.10200940087E+01 0.  0.
     999903    2    3    3    0    0  0.85881534852E-01 -0.40641304777E-01  0.88949553097E-01  0.13080503584E+00  0.13060655562E-01 0.  0.
         14    1    1    2    0    0  0.16112180266E-01  0.88022199602E-02 -0.14770730045E-01  0.23563868426E-01  0.00000000000E+00 0. -1.
     999901    1    3    3    0    0 -0.10199371512E+00  0.31839084817E-01 -0.74178823051E-01  0.88956109573E+00  0.88000000000E+00 0.  1.
        -11    1    4    4    0    0  0.45494968007E-01 -0.20934921223E-01  0.38001384760E-01  0.62868349789E-01  0.51100000000E-03 0. -1.
         11    1    4    4    0    0  0.40386566845E-01 -0.19706383555E-01  0.50948168337E-01  0.67936686055E-01  0.51100000000E-03 0.  1.
</event>
<event>
 8    1  0.1161271E+005  0.1043930E+01  0.7957747E-01            NaN
         13   -1    0    0    0    0  0.00000000000E+00  0.00000000000E+00  0.74505805969E-08  0.10566000000E+00  0.10566000000E+00 0.  1.
     999900   -1    0    0    0    0 -0.00000000000E+00 -0.00000000000E+00 -0.74505805969E-08  0.93827000000E+00  0.93827000000E+00 0.  1.
     999902    2    1    2    0    0 -0.15756073424E-01 -0.10675770597E-01 -0.15846815804E-01  0.10191641465E+01  0.10188631950E+01 0.  0.
     999903    2    3    3    0    0  0.12485345677E+00  0.92638423732E-02 -0.15478724421E-01  0.12777827966E+00  0.20334537120E-01 0.  0.
         14    1    1    2    0    0  0.15756073424E-01  0.10675770597E-01  0.15846815804E-01  0.24765853482E-01  0.00000000000E+00 0.  1.
     999901    1    3    3    0    0 -0.14060953019E+00 -0.19939612970E-01 -0.36809138337E-03  0.89138586686E+00  0.88000000000E+00 0. -1.
        -11    1    4    4    0    0  0.11418278747E+00  0.36957393366E-02 -0.10438928919E-01  0.11471965743E+00  0.51100000000E-03 0.  1.
         11    1    4    4    0    0  0.10670669303E-01  0.55681030366E-02 -0.50397955012E-02  0.13058622228E-01  0.51100000000E-03 0. -1.
</event>
<event>
 8    1  0.1161271E+005  0.1043930E+01  0.7957747E-01            NaN
         13   -1    0    0    0    0  0.00000000000E+00  0.00000000000E+00  0.74505805969E-08  0.10566000000E+00  0.10566000000E+00 0.  1.
     999900   -1    0    0    0    0 -0.00000000000E+00 -0.00000000000E+00 -0.74505805969E-08  0.93827000000E+00  0.93827000000E+00 0.  1.
     999902    2    1    2    0    0  0.21717297287E-02  0.12049478318E-01 -0.20556419170E-01  0.10200035981E+01  0.10197229366E+01 0.  0.
     999903    2    3    3    0    0  0.55056329621E-02 -0.11596570093E+00 -0.54823043512E-01  0.13007483548E+00  0.20869617646E-01 0.  0.
         14    1    1    2    0    0 -0.21717297287E-02 -0.12049478318E-01  0.20556419170E-01  0.23926401878E-01  0.00000000000E+00 0.  1.
     999901    1    3    3    0    0 -0.33339032334E-02  0.12801517924E+00  0.34266624342E-01  0.88992876264E+00  0.88000000000E+00 0. -1.
        -11    1    4    4    0    0 -0.63493988706E-02 -0.59278189739E-01 -0.33299262296E-01  0.68288510272E-01  0.51100000000E-03 0.  1.
         11    1    4    4    0    0  0.11855031833E-01 -0.56687511186E-01 -0.21523781216E-01  0.61786325211E-01  0.51100000000E-03 0. -1.
</event>
<event>
 8    1  0.1161271E+005  0.1043930E+01  0.7957747E-01            NaN
         13   -1    0    0    0    0  0.00000000000E+00  0.00000000000E+00  0.74505805969E-08  0.10566000000E+00  0.10566000000E+00 0.  1.
     999900   -1    0    0    0    0 -0.00000000000E+00 -0.00000000000E+00 -0.74505805969E-08  0.93827000000E+00  0.93827000000E+00 0. -1.
     999902    2    1    2    0    0  0.20948374880E-01 -0.31389975341E-02  0.67766222284E-02  0.10216901636E+01  0.10214480799E+01 0.  0.
     999903    2    3    3    0    0  0.62682459077E-01 -0.55165494807E-01  0.10282362187E+00  0.13395511507E+00  0.19973811462E-01 0.  0.
         14    1    1    2    0    0 -0.20948374880E-01  0.31389975341E-02 -0.67766222284E-02  0.22239836431E-01  0.00000000000E+00 0. -1.
     999901    1    3    3    0    0 -0.41734084197E-01  0.52026497273E-01 -0.96046999642E-01  0.88773504850E+00  0.88000000000E+00 0.  1.
        -11    1    4    4    0    0  0.14013958322E-01 -0.34985227918E-02  0.12738205244E-01  0.19265349294E-01  0.51100000000E-03 0. -1.
         11    1    4    4    0    0  0.48668500756E-01 -0.51666972015E-01  0.90085416626E-01  0.11468976577E+00  0.51100000000E-03 0.  1.
</event>
<event>
 8    1  0.1161271E+005  0.1043930E+01  0.7957747E-01            NaN
         13   -1    0    0    0    0  0.00000000000E+00  0.00000000000E+00  0.74505805969E-08  0.10566000000E+00  0.10566000000E+00 0.  1.
     999900   -1    0    0    0    0 -0.00000000000E+00 -0.00000000000E+00 -0.74505805969E-08  0.93827000000E+00  0.93827000000E+00 0.  1.
     999902    2    1    2    0    0  0.98673956517E-02 -0.14638098724E-01 -0.14744008845E-01  0.10209294516E+01  0.10206703287E+01 0.  0.
     999903    2    3    3    0    0 -0.74817993777E-01  0.69368523400E-01  0.75440176362E-01  0.12831424052E+00  0.19068295108E-01 0.  0.
         14    1    1    2    0    0 -0.98673956517E-02  0.14638098724E-01  0.14744008845E-01  0.23000548429E-01  0.00000000000E+00 0.  1.
     999901    1    3    3    0    0  0.84685389429E-01 -0.84006622125E-01 -0.90184185208E-01  0.89261521105E+00  0.88000000000E+00 0.  1.
        -11    1    4    4    0    0 -0.35017412301E-01  0.44516604497E-01  0.45479040329E-01  0.72639875209E-01  0.51100000000E-03 0.  1.
         11    1    4    4    0    0 -0.39800581476E-01  0.24851918903E-01  0.29961136034E-01  0.55674365307E-01  0.51100000000E-03 0. -1.
</event>
<event>
 8    1  0.1161271E+005  0.1043930E+01  0.7957747E-01            NaN
         13   -1    0    0    0    0  0.00000000000E+00  0.00000000000E+00  0.74505805969E-08  0.10566000000E+00  0.10566000000E+00 0.  1.
     999900   -1    0    0    0    0 -0.00000000000E+00 -0.00000000000E+00 -0.74505805969E-08  0.93827000000E+00  0.93827000000E+00 0. -1.
     999902    2    1    2    0    0 -0.17053283847E-01  0.15280243853E-01  0.38897798336E-02  0.10207043519E+01  0.10204400733E+01 0.  0.
     999903    2    3    3    0    0  0.31804664797E-01 -0.59438090522E-01 -0.10823457616E+00  0.12910926452E+00  0.20249824715E-01 0.  0.
         14    1    1    2    0    0  0.17053283847E-01 -0.15280243853E-01 -0.38897798336E-02  0.23225648093E-01  0.00000000000E+00 0.  1.
     999901    1    3    3    0    0 -0.48857948644E-01  0.74718334374E-01  0.11212435600E+00  0.89159508738E+00  0.88000000000E+00 0.  1.
        -11    1    4    4    0    0  0.11250627282E-01 -0.35449497457E-01 -0.44689846512E-01  0.58143675378E-01  0.51100000000E-03 0.  1.
         11    1    4    4    0    0  0.20554037515E-01 -0.23988593065E-01 -0.63544729652E-01  0.70965589147E-01  0.51100000000E-03 0. -1.
</event>
<event>
 8    1  0.1161271E+005  0.1043930E+01  0.7957747E-01            NaN
         13   -1    0    0    0    0  0.00000000000E+00  0.00000000000E+00  0.74505805969E-08  0.10566000000E+00  0.10566000000E+00 0.  1.
     999900   -1    0    0    0    0 -0.00000000000E+00 -0.00000000000E+00 -0.74505805969E-08  0.93827000000E+00  0.93827000000E+00 0. -1.
     999902    2    1    2    0    0  0.13240169491E-01 -0.16418803051E-01  0.11053328967E-01  0.10201170778E+01  0.10198391036E+01 0.  0.
     999903    2    3    3    0    0  0.10105407392E+00  0.64368008245E-01  0.49460830173E-01  0.13123411204E+00  0.20514680136E-01 0.  0.
         14    1    1    2    0    0 -0.13240169491E-01  0.16418803051E-01 -0.11053328967E-01  0.23812922186E-01  0.00000000000E+00 0.  1.
     999901    1    3    3    0    0 -0.87813904427E-01 -0.80786811296E-01 -0.38407501206E-01  0.88888296577E+00  0.88000000000E+00 0. -1.
        -11    1    4    4    0    0  0.61245432278E-01  0.48642896482E-01  0.26003848579E-01  0.82423271077E-01  0.51100000000E-03 0. -1.
         11    1    4    4    0    0  0.39808641641E-01  0.15725111763E-01  0.23456981594E-01  0.48810840965E-01  0.51100000000E-03 0.  1.
</event>
<event>
 8    1  0.1161271E+005  0.1043930E+01  0.7957747E-01            NaN
         13   -1    0    0    0    0  0.00000000000E+00  0.00000000000E+00  0.74505805969E-08  0.10566000000E+00  0.10566000000E+00 0. -1.
     999900   -1    0    0    0    0 -0.00000000000E+00 -0.00000000000E+00 -0.74505805969E-08  0.93827000000E+00  0.93827000000E+00 0.  1.
     999902    2    1    2    0    0 -0.13354108890E-01 -0.17654225417E-01 -0.91695401492E-02  0.10199699423E+01  0.10196884812E+01 0.  0.
     999903    2    3    3    0    0  0.48786071643E-01  0.11158050782E+00 -0.32753065052E-01  0.12805111136E+00  0.22226860705E-01 0.  0.
         14    1    1    2    0    0  0.13354108890E-01  0.17654225417E-01  0.91695401492E-02  0.23960057719E-01  0.00000000000E+00 0. -1.
     999901    1    3    3    0    0 -0.62140180533E-01 -0.12923473324E+00  0.23583524903E-01  0.89191883093E+00  0.88000000000E+00 0. -1.
        -11    1    4    4    0    0  0.40330076384E-03  0.21124617038E-01 -0.39514360619E-02  0.21500861947E-01  0.51100000000E-03 0.  1.
         11    1    4    4    0    0  0.48382770879E-01  0.90455890785E-01 -0.28801628991E-01  0.10655024941E+00  0.51100000000E-03 0. -1.
</event>
<event>
 8    1  0.1161271E+005  0.1043930E+01  0.7957747E-01            NaN
         13   -1    0    0    0    0  0.00000000000E+00  0.00000000000E+00  0.74505805969E-08  0.10566000000E+00  0.10566000000E+00 0. -1.
     999900   -1    0    0    0    0 -0.00000000000E+00 -0.00000000000E+00 -0.74505805969E-08  0.93827000000E+00  0.93827000000E+00 0. -1.
     999902    2    1    2    0    0 -0.15888014719E-01 -0.29878636925E-02  0.19678090759E-01  0.10184626955E+01  0.10181442327E+01 0.  0.
     999903    2    3    3    0    0 -0.33643710594E-01  0.73540686371E-01 -0.96019226467E-01  0.12741962534E+00  0.21815986263E-01 0.  0.
         14    1    1    2    0    0  0.15888014719E-01  0.29878636925E-02 -0.19678090759E-01  0.25467304472E-01  0.00000000000E+00 0.  1.
     999901    1    3    3    0    0  0.17755695875E-01 -0.76528550064E-01  0.11569731723E+00  0.89104307018E+00  0.88000000000E+00 0.  1.
        -11    1    4    4    0    0 -0.87598275971E-02  0.27570375802E-01 -0.20046201749E-01  0.35199027358E-01  0.51100000000E-03 0.  1.
         11    1    4    4    0    0 -0.24883882997E-01  0.45970310570E-01 -0.75973024718E-01  0.92220597985E-01  0.51100000000E-03 0. -1.
</event>
<event>
 8    1  0.1161271E+005  0.1043930E+01  0.7957747E-01            NaN
         13   -1    0    0    0    0  0.00000000000E+00  0.00000000000E+00  0.74505805969E-08  0.10566000000E+00  0.10566000000E+00 0. -1.
     999900   -1    0    0    0    0 -0.00000000000E+00 -0.00000000000E+00 -0.74505805969E-08  0.93827000000E+00  0.93827000000E+00 0. -1.
     999902    2    1    2    0    0 -0.15104746257E-01 -0.18342797953E-01 -0.23299207626E-02  0.10200544869E+01  0.10197750321E+01 0.  0.
     999903    2    3    3    0    0  0.42868823240E-01  0.11840718551E+00 -0.53980221571E-02  0.12760229993E+00  0.19879907406E-01 0.  0.
         14    1    1    2    0    0  0.15104746257E-01  0.18342797953E-01  0.23299207626E-02  0.23875513125E-01  0.00000000000E+00 0. -1.
     999901    1    3    3    0    0 -0.57973569497E-01 -0.13674998346E+00  0.30681013945E-02  0.89245218694E+00  0.88000000000E+00 0. -1.
        -11    1    4    4    0    0  0.38400061447E-01  0.10715123066E+00 -0.10790274444E-01  0.11433565539E+00  0.51100000000E-03 0.  1.
         11    1    4    4    0    0  0.44687617931E-02  0.11255954848E-01  0.53922522871E-02  0.13266644536E-01  0.51100000000E-03 0. -1.
</event>
<event>
 8    1  0.1161271E+005  0.1043930E+01  0.7957747E-01            NaN
         13   -1    0    0    0    0  0.00000000000E+00  0.00000000000E+00  0.74505805969E-08  0.10566000000E+00  0.10566000000E+00 0.  1.
     999900   -1    0    0    0    0 -0.00000000000E+00 -0.00000000000E+00 -0.74505805969E-08  0.93827000000E+00  0.93827000000E+00 0.  1.
     999902    2    1    2    0    0 -0.19779983412E-01 -0.61298874140E-02  0.10708430441E-01  0.10206170477E+01  0.10203507555E+01 0.  0.
     999903    2    3    3    0    0  0.61130862380E-01 -0.41486764275E-01  0.10628307643E+00  0.13104907014E+00  0.20484933571E-01 0.  0.
         14    1    1    2    0    0  0.19779983412E-01  0.61298874140E-02 -0.10708430441E-01  0.23312952323E-01  0.00000000000E+00 0.  1.
     999901    1    3    3    0    0 -0.80910845792E-01  0.35356876861E-01 -0.95574645988E-01  0.88956797754E+00  0.88000000000E+00 0.  1.
        -11    1    4    4    0    0  0.55586606373E-01 -0.43559922198E-01  0.99733856331E-01  0.12220654995E+00  0.51100000000E-03 0. -1.
         11    1    4    4    0    0  0.55442560069E-02  0.20731579239E-02  0.65492200978E-02  0.88425201915E-02  0.51100000000E-03 0.  1.
</event>
<event>
 8    1  0.1161271E+005  0.1043930E+01  0.7957747E-01            NaN
         13   -1    0    0    0    0  0.00000000000E+00  0.00000000000E+00  0.74505805969E-08  0.10566000000E+00  0.10566000000E+00 0.  1.
     999900   -1    0    0    0    0 -0.00000000000E+00 -0.00000000000E+00 -0.74505805969E-08  0.93827000000E+00  0.93827000000E+00 0.  1.
     999902    2    1    2    0    0 -0.15449540695E-01 -0.12803525266E-01 -0.12147953633E-01  0.10204738421E+01  0.10202042301E+01 0.  0.
     999903    2    3    3    0    0  0.36833696360E-01  0.49211320383E-01 -0.11372525845E+00  0.13092489637E+00  0.20722423548E-01 0.  0.
         14    1    1    2    0    0  0.15449540695E-01  0.12803525266E-01  0.12147953633E-01  0.23456157920E-01  0.00000000000E+00 0. -1.
     999901    1    3    3    0    0 -0.52283237055E-01 -0.62014845649E-01  0.10157730482E+00  0.88954894571E+00  0.88000000000E+00 0. -1.
        -11    1    4    4    0    0  0.27399958549E-01  0.47394418161E-01 -0.90284526088E-01  0.10558667233E+00  0.51100000000E-03 0.  1.
         11    1    4    4    0    0  0.94337378108E-02  0.18169022221E-02 -0.23440732366E-01  0.25338224042E-01  0.51100000000E-03 0. -1.
</event>
<event>
 8    1  0.1161271E+005  0.1043930E+01  0.7957747E-01            NaN
         13   -1    0    0    0    0  0.00000000000E+00  0.00000000000E+00  0.74505805969E-08  0.10566000000E+00  0.10566000000E+00 0.  1.
     999900   -1    0    0    0    0 -0.00000000000E+00 -0.00000000000E+00 -0.74505805969E-08  0.93827000000E+00  0.93827000000E+00 0. -1.
     999902    2    1    2    0    0 -0.13469139600E-01  0.14574380391E-01 -0.13153569117E-01  0.10201214581E+01  0.10198435874E+01 0.  0.
     999903    2    3    3    0    0 -0.12345396500E+00 -0.20336804333E-01  0.34309083393E-01  0.13131993022E+00  0.20330857944E-01 0.  0.
         14    1    1    2    0    0  0.13469139600E-01 -0.14574380391E-01  0.13153569117E-01  0.23808541868E-01  0.00000000000E+00 0.  1.
     999901    1    3    3    0    0  0.10998482540E+00  0.34911184724E-01 -0.47462652510E-01  0.88880152791E+00  0.88000000000E+00 0.  1.
        -11    1    4    4    0    0 -0.62220909431E-01 -0.20400565319E-01  0.19412154838E-01  0.68298737267E-01  0.51100000000E-03 0.  1.
         11    1    4    4    0    0 -0.61233055569E-01  0.63760985604E-04  0.14896928555E-01  0.63021192953E-01  0.51100000000E-03 0. -1.
</event>
<event>
 8    1  0.1161271E+005  0.1043930E+01  0.7957747E-01            NaN
         13   -1    0    0    0    0  0.00000000000E+00  0.00000000000E+00  0.74505805969E-08  0.10566000000E+00  0.10566000000E+00 0.  1.
     999900   -1    0    0    0    0 -0.00000000000E+00 -0.00000000000E+00 -0.74505805969E-08  0.93827000000E+00  0.93827000000E+00 0. -1.
     999902    2    1    2    0    0 -0.60020388097E-04  0.22203864274E-01 -0.20906277412E-02  0.10216278495E+01  0.10213843924E+01 0.  0.
     999903    2    3    3    0    0 -0.77765125391E-02 -0.10236592605E+00 -0.76682416867E-01  0.12969673565E+00  0.20044780295E-01 0.  0.
         14    1    1    2    0    0  0.60020388097E-04 -0.22203864274E-01  0.20906277412E-02  0.22302150468E-01  0.00000000000E+00 0. -1.
     999901    1    3    3    0    0  0.77164921510E-02  0.12456979033E+00  0.74591789126E-01  0.89193111389E+00  0.88000000000E+00 0.  1.
        -11    1    4    4    0    0 -0.71871328428E-02 -0.16600225587E-01 -0.78630253423E-02  0.19730956808E-01  0.51100000000E-03 0.  1.
         11    1    4    4    0    0 -0.58937969633E-03 -0.85765700465E-01 -0.68819391525E-01  0.10996577884E+00  0.51100000000E-03 0. -1.
</event>
<event>
 8    1  0.1161271E+005  0.1043930E+01  0.7957747E-01            NaN
         13   -1    0    0    0    0  0.00000000000E+00  0.00000000000E+00  0.74505805969E-08  0.10566000000E+00  0.10566000000E+00 0.  1.
     999900   -1    0    0    0    0 -0.00000000000E+00 -0.00000000000E+00 -0.74505805969E-08  0.93827000000E+00  0.93827000000E+00 0.  1.
     999902    2    1    2    0    0  0.22996267844E-01 -0.56102174097E-02 -0.14872824087E-02  0.10202126038E+01  0.10199368814E+01 0.  0.
     999903    2    3    3    0    0  0.10794684087E+00  0.42733427965E-01  0.61711433140E-01  0.13254837360E+00  0.16795953245E-01 0.  0.
         14    1    1    2    0    0 -0.22996267844E-01  0.56102174097E-02  0.14872824087E-02  0.23717396213E-01  0.00000000000E+00 0. -1.
     999901    1    3    3    0    0 -0.84950573023E-01 -0.48343645375E-01 -0.63198715548E-01  0.88766423019E+00  0.88000000000E+00 0.  1.
        -11    1    4    4    0    0  0.53882082451E-01  0.27687677160E-01  0.38729016686E-01  0.71903297075E-01  0.51100000000E-03 0. -1.
         11    1    4    4    0    0  0.54064758415E-01  0.15045750805E-01  0.22982416453E-01  0.60645076526E-01  0.51100000000E-03 0.  1.
</event>
<event>
 8    1  0.1161271E+005  0.1043930E+01  0.7957747E-01            NaN
         13   -1    0    0    0    0  0.00000000000E+00  0.00000000000E+00  0.74505805969E-08  0.10566000000E+00  0.10566000000E+00 0. -1.
     999900   -1    0    0    0    0 -0.00000000000E+00 -0.00000000000E+00 -0.74505805969E-08  0.93827000000E+00  0.93827000000E+00 0. -1.
     999902    2    1    2    0    0  0.23139686666E-01  0.58792874719E-03 -0.47489781897E-02  0.10203007056E+01  0.10200270518E+01 0.  0.
     999903    2    3    3    0    0 -0.36401133528E-02 -0.12832453079E+00 -0.12075423284E-01  0.13047529762E+00  0.19938701428E-01 0.  0.
         14    1    1    2    0    0 -0.23139686666E-01 -0.58792874719E-03  0.47489781897E-02  0.23629294384E-01  0.00000000000E+00 0. -1.
     999901    1    3    3    0    0  0.26779800019E-01  0.12891245954E+00  0.73264450945E-02  0.88982540799E+00  0.88000000000E+00 0.  1.
        -11    1    4    4    0    0  0.54109393395E-02 -0.75764871786E-01 -0.81541677632E-03  0.75963939385E-01  0.51100000000E-03 0.  1.
         11    1    4    4    0    0 -0.90510526923E-02 -0.52559659004E-01 -0.11260006508E-01  0.54511358238E-01  0.51100000000E-03 0. -1.
</event>
<event>
 8    1  0.1161271E+005  0.1043930E+01  0.7957747E-01            NaN
         13   -1    0    0    0    0  0.00000000000E+00  0.00000000000E+00  0.74505805969E-08  0.10566000000E+00  0.10566000000E+00 0.  1.
     999900   -1    0    0    0    0 -0.00000000000E+00 -0.00000000000E+00 -0.74505805969E-08  0.93827000000E+00  0.93827000000E+00 0. -1.
     999902    2    1    2    0    0 -0.19274561112E-01 -0.15500138003E-01 -0.30093956347E-02  0.10190137514E+01  0.10187090880E+01 0.  0.
     999903    2    3    3    0    0 -0.90123025328E-02  0.93177512241E-01  0.84969476165E-01  0.12791531264E+00  0.19474212249E-01 0.  0.
         14    1    1    2    0    0  0.19274561112E-01  0.15500138003E-01  0.30093956347E-02  0.24916248639E-01  0.00000000000E+00 0. -1.
     999901    1    3    3    0    0 -0.10262258579E-01 -0.10867765024E+00 -0.87978871800E-01  0.89109843872E+00  0.88000000000E+00 0. -1.
        -11    1    4    4    0    0 -0.73025816583E-02  0.20019008807E-01  0.27912726678E-01  0.35120789344E-01  0.51100000000E-03 0.  1.
         11    1    4    4    0    0 -0.17097208745E-02  0.73158503434E-01  0.57056749487E-01  0.92794523293E-01  0.51100000000E-03 0. -1.
</event>
<event>
 8    1  0.1161271E+005  0.1043930E+01  0.7957747E-01            NaN
         13   -1    0    0    0    0  0.00000000000E+00  0.00000000000E+00  0.74505805969E-08  0.10566000000E+00  0.10566000000E+00 0.  1.
     999900   -1    0    0    0    0 -0.00000000000E+00 -0.00000000000E+00 -0.74505805969E-08  0.93827000000E+00  0.93827000000E+00 0. -1.
     999902    2    1    2    0    0  0.12390435826E-01 -0.18661888759E-01 -0.70946831802E-02  0.10204326912E+01  0.10201621213E+01 0.  0.
     999903    2    3    3    0    0  0.24574175494E-02  0.86980287974E-01  0.92470992542E-01  0.12848411748E+00  0.19638599388E-01 0.  0.
         14    1    1    2    0    0 -0.12390435826E-01  0.18661888759E-01  0.70946831802E-02  0.23497308812E-01  0.00000000000E+00 0.  1.
     999901    1    3    3    0    0  0.99330182762E-02 -0.10564217673E+00 -0.99565675722E-01  0.89194857371E+00  0.88000000000E+00 0. -1.
        -11    1    4    4    0    0  0.10934313991E-01  0.41969868391E-01  0.46502861512E-01  0.63590929582E-01  0.51100000000E-03 0. -1.
         11    1    4    4    0    0 -0.84768964412E-02  0.45010419583E-01  0.45968131029E-01  0.64893187899E-01  0.51100000000E-03 0.  1.
</event>
<event>
 8    1  0.1161271E+005  0.1043930E+01  0.7957747E-01            NaN
         13   -1    0    0    0    0  0.00000000000E+00  0.00000000000E+00  0.74505805969E-08  0.10566000000E+00  0.10566000000E+00 0. -1.
     999900   -1    0    0    0    0 -0.00000000000E+00 -0.00000000000E+00 -0.74505805969E-08  0.93827000000E+00  0.93827000000E+00 0. -1.
     999902    2    1    2    0    0 -0.73279474408E-02  0.20307077281E-01  0.69916266829E-02  0.10212372909E+01  0.10209851347E+01 0.  0.
     999903    2    3    3    0    0  0.70366172562E-01  0.34792177999E-01 -0.10283893228E+00  0.13089525210E+00  0.19895404970E-01 0.  0.
         14    1    1    2    0    0  0.73279474408E-02 -0.20307077281E-01 -0.69916266829E-02  0.22692709073E-01  0.00000000000E+00 0. -1.
     999901    1    3    3    0    0 -0.77694120003E-01 -0.14485100718E-01  0.10983055896E+00  0.89034203883E+00  0.88000000000E+00 0.  1.
        -11    1    4    4    0    0  0.38863573425E-01  0.89075791900E-02 -0.44955333685E-01  0.60091309306E-01  0.51100000000E-03 0. -1.
         11    1    4    4    0    0  0.31502599137E-01  0.25884598809E-01 -0.57883598591E-01  0.70803942791E-01  0.51100000000E-03 0.  1.
</event>
<event>
 8    1  0.1161271E+005  0.1043930E+01  0.7957747E-01            NaN
         13   -1    0    0    0    0  0.00000000000E+00  0.00000000000E+00  0.74505805969E-08  0.10566000000E+00  0.10566000000E+00 0. -1.
     999900   -1    0    0    0    0 -0.00000000000E+00 -0.00000000000E+00 -0.74505805969E-08  0.93827000000E+00  0.93827000000E+00 0. -1.
     999902    2    1    2    0    0  0.15009400297E-01 -0.66674460817E-02  0.16612622980E-01  0.10205694312E+01  0.10203020375E+01 0.  0.
     999903    2    3    3    0    0  0.17871715582E-01 -0.98527918565E-01 -0.81044839045E-01  0.13041016499E+00  0.20282905153E-01 0.  0.
         14    1    1    2    0    0 -0.15009400297E-01  0.66674460817E-02 -0.16612622980E-01  0.23360568846E-01  0.00000000000E+00 0.  1.
     999901    1    3    3    0    0 -0.28623152855E-02  0.91860472484E-01  0.97657462025E-01  0.89015926617E+00  0.88000000000E+00 0.  1.
        -11    1    4    4    0    0  0.12356437118E-01 -0.37332409041E-01 -0.42357317803E-01  0.57799600306E-01  0.51100000000E-03 0. -1.
         11    1    4    4    0    0  0.55152784642E-02 -0.61195509524E-01 -0.38687521242E-01  0.72610564681E-01  0.51100000000E-03 0.  1.
</event>
<event>
 8    1  0.1161271E+005  0.1043930E+01  0.7957747E-01            NaN
         13   -1    0    0    0    0  0.00000000000E+00  0.00000000000E+00  0.74505805969E-08  0.10566000000E+00  0.10566000000E+00 0. -1.
     999900   -1    0    0    0    0 -0.00000000000E+00 -0.00000000000E+00 -0.74505805969E-08  0.93827000000E+00  0.93827000000E+00 0. -1.
     999902    2    1    2    0    0 -0.18321191060E-01  0.13055428388E-01 -0.55590162013E-02  0.10207564609E+01  0.10204933805E+01 0.  0.
     999903    2    3    3    0    0 -0.10370827254E+00 -0.77287824774E-01 -0.22382749681E-01  0.13186057552E+00  0.12546323864E-01 0.  0.
         14    1    1    2    0    0  0.18321191060E-01 -0.13055428388E-01  0.55590162013E-02  0.23173539077E-01  0.00000000000E+00 0.  1.
     999901    1    3    3    0    0  0.85387081478E-01  0.90343253162E-01  0.16823733479E-01  0.88889588540E+00  0.88000000000E+00 0.  1.
        -11    1    4    4    0    0 -0.76814921752E-01 -0.63732063493E-01 -0.16394397942E-01  0.10115011382E+00  0.51100000000E-03 0. -1.
         11    1    4    4    0    0 -0.26893350786E-01 -0.13555761281E-01 -0.59883517383E-02  0.30710461702E-01  0.51100000000E-03 0.  1.
</event>
<event>
 8    1  0.1161271E+005  0.1043930E+01  0.7957747E-01            NaN
         13   -1    0    0    0    0  0.00000000000E+00  0.00000000000E+00  0.74505805969E-08  0.10566000000E+00  0.10566000000E+00 0. -1.
     999900   -1    0    0    0    0 -0.00000000000E+00 -0.00000000000E+00 -0.74505805969E-08  0.93827000000E+00  0.93827000000E+00 0.  1.
     999902    2    1    2    0    0  0.94972481858E-02 -0.15230088850E-01  0.18186731957E-01  0.10183778856E+01  0.10180572712E+01 0.  0.
     999903    2    3    3    0    0 -0.85383494842E-01  0.84258066761E-01  0.39330181969E-01  0.12745292022E+00  0.17539117831E-01 0.  0.
         14    1    1    2    0    0 -0.94972481858E-02  0.15230088850E-01 -0.18186731957E-01  0.25552114370E-01  0.00000000000E+00 0.  1.
     999901    1    3    3    0    0  0.94880743028E-01 -0.99488155611E-01 -0.21143450012E-01  0.89092496541E+00  0.88000000000E+00 0. -1.
        -11    1    4    4    0    0 -0.23249073492E-01  0.16699880951E-01  0.31929567002E-02  0.28807317395E-01  0.51100000000E-03 0. -1.
         11    1    4    4    0    0 -0.62134421350E-01  0.67558185810E-01  0.36137225269E-01  0.98645602830E-01  0.51100000000E-03 0.  1.
</event>
<event>
 8    1  0.1161271E+005  0.1043930E+01  0.7957747E-01            NaN
         13   -1    0    0    0    0  0.00000000000E+00  0.00000000000E+00  0.74505805969E-08  0.10566000000E+00  0.10566000000E+00 0. -1.
     999900   -1    0    0    0    0 -0.00000000000E+00 -0.00000000000E+00 -0.74505805969E-08  0.93827000000E+00  0.93827000000E+00 0.  1.
     999902    2    1    2    0    0 -0.10192245166E-01 -0.34513286377E-03  0.21400747574E-01  0.10202236090E+01  0.10199481454E+01 0.  0.
     999903    2    3    3    0    0  0.28073233980E-01  0.30306432810E-01 -0.11917464973E+00  0.12771859068E+00  0.20071246410E-01 0.  0.
         14    1    1    2    0    0  0.10192245166E-01  0.34513286377E-03 -0.21400747574E-01  0.23706391015E-01  0.00000000000E+00 0.  1.
     999901    1    3    3    0    0 -0.38265479147E-01 -0.30651565674E-01  0.14057539730E+00  0.89250501830E+00  0.88000000000E+00 0. -1.
        -11    1    4    4    0    0  0.16883342366E-01  0.30288159150E-01 -0.87523374985E-01  0.94143624978E-01  0.51100000000E-03 0.  1.
         11    1    4    4    0    0  0.11189891614E-01  0.18273660412E-04 -0.31651274740E-01  0.33574965703E-01  0.51100000000E-03 0. -1.
</event>
<event>
 8    1  0.1161271E+005  0.1043930E+01  0.7957747E-01            NaN
         13   -1    0    0    0    0  0.00000000000E+00  0.00000000000E+00  0.74505805969E-08  0.10566000000E+00  0.10566000000E+00 0. -1.
     999900   -1    0    0    0    0 -0.00000000000E+00 -0.00000000000E+00 -0.74505805969E-08  0.93827000000E+00  0.93827000000E+00 0.  1.
     999902    2    1    2    0    0 -0.23011363289E-01  0.19651721829E-02 -0.57826526617E-02  0.10201219380E+01  0.10198440786E+01 0.  0.
     999903    2    3    3    0    0  0.31273360569E-01 -0.74187659255E-01  0.98780706191E-01  0.12901050787E+00  0.20106003030E-01 0.  0.
         14    1    1    2    0    0  0.23011363289E-01 -0.19651721829E-02  0.57826526617E-02  0.23808061953E-01  0.00000000000E+00 0. -1.
     999901    1    3    3    0    0 -0.54284723858E-01  0.76152831438E-01 -0.10456335885E+00  0.89111143018E+00  0.88000000000E+00 0.  1.
        -11    1    4    4    0    0 -0.19891095976E-02 -0.20479854744E-02  0.10937345150E-02  0.30997060641E-02  0.51100000000E-03 0. -1.
         11    1    4    4    0    0  0.33262470166E-01 -0.72139673781E-01  0.97686971676E-01  0.12591080180E+00  0.51100000000E-03 0.  1.
</event>
<event>
 8    1  0.1161271E+005  0.1043930E+01  0.7957747E-01            NaN
         13   -1    0    0    0    0  0.00000000000E+00  0.00000000000E+00  0.74505805969E-08  0.10566000000E+00  0.10566000000E+00 0.  1.
     999900   -1    0    0    0    0 -0.00000000000E+00 -0.00000000000E+00 -0.74505805969E-08  0.93827000000E+00  0.93827000000E+00 0. -1.
     999902    2    1    2    0    0  0.17505165365E-01  0.69514803983E-02  0.11928818999E-01  0.10216353680E+01  0.10213920768E+01 0.  0.
     999903    2    3    3    0    0  0.87417864713E-01 -0.33984931082E-01 -0.90752113228E-01  0.13196860500E+00  0.19568036125E-01 0.  0.
         14    1    1    2    0    0 -0.17505165365E-01 -0.69514803983E-02 -0.11928818999E-01  0.22294632020E-01  0.00000000000E+00 0. -1.
     999901    1    3    3    0    0 -0.69912699348E-01  0.40936411480E-01  0.10268093223E+00  0.88966676298E+00  0.88000000000E+00 0.  1.
        -11    1    4    4    0    0  0.83634759321E-01 -0.27482579997E-01 -0.80900189351E-01  0.11956239763E+00  0.51100000000E-03 0.  1.
         11    1    4    4    0    0  0.37831053915E-02 -0.65023510851E-02 -0.98519238772E-02  0.12406207362E-01  0.51100000000E-03 0. -1.
</event>
<event>
 8    1  0.1161271E+005  0.1043930E+01  0.7957747E-01            NaN
         13   -1    0    0    0    0  0.00000000000E+00  0.00000000000E+00  0.74505805969E-08  0.10566000000E+00  0.10566000000E+00 0. -1.
     999900   -1    0    0    0    0 -0.00000000000E+00 -0.00000000000E+00 -0.74505805969E-08  0.93827000000E+00  0.93827000000E+00 0.  1.
     999902    2    1    2    0    0  0.55582805164E-02  0.23480060635E-01 -0.86547507245E-03  0.10197855021E+01  0.10194996388E+01 0.  0.
     999903    2    3    3    0    0  0.20966868377E-01  0.10871521685E+00 -0.70388718376E-01  0.13280413943E+00  0.20585427643E-01 0.  0.
         14    1    1    2    0    0 -0.55582805164E-02 -0.23480060635E-01  0.86547507245E-03  0.24144497858E-01  0.00000000000E+00 0.  1.
     999901    1    3    3    0    0 -0.15408587860E-01 -0.85235156215E-01  0.69523243303E-01  0.88698136271E+00  0.88000000000E+00 0. -1.
        -11    1    4    4    0    0  0.11746217994E-01  0.70912065243E-01 -0.56702259926E-01  0.91552728173E-01  0.51100000000E-03 0.  1.
         11    1    4    4    0    0  0.92206503826E-02  0.37803151608E-01 -0.13686458450E-01  0.41251411259E-01  0.51100000000E-03 0. -1.
</event>
<event>
 8    1  0.1161271E+005  0.1043930E+01  0.7957747E-01            NaN
         13   -1    0    0    0    0  0.00000000000E+00  0.00000000000E+00  0.74505805969E-08  0.10566000000E+00  0.10566000000E+00 0.  1.
     999900   -1    0    0    0    0 -0.00000000000E+00 -0.00000000000E+00 -0.74505805969E-08  0.93827000000E+00  0.93827000000E+00 0. -1.
     999902    2    1    2    0    0  0.14823653428E-01  0.24815584974E-01  0.65439126920E-02  0.10142925785E+01  0.10138594864E+01 0.  0.
     999903    2    3    3    0    0 -0.31086341131E-01 -0.44865635953E-01  0.10985071224E+00  0.12432881803E+00  0.20277823322E-01 0.  0.
         14    1    1    2    0    0 -0.14823653428E-01 -0.24815584974E-01 -0.65439126920E-02  0.29637421478E-01  0.00000000000E+00 0. -1.
     999901    1    3    3    0    0  0.45909994559E-01  0.69681220928E-01 -0.10330679955E+00  0.88996376049E+00  0.88000000000E+00 0. -1.
        -11    1    4    4    0    0 -0.10491386721E-01 -0.25318670414E-01  0.36307136814E-01  0.45492566112E-01  0.51100000000E-03 0.  1.
         11    1    4    4    0    0 -0.20594954410E-01 -0.19546965540E-01  0.73543575429E-01  0.78836251920E-01  0.51100000000E-03 0. -1.
</event>
<event>
 8    1  0.1161271E+005  0.1043930E+01  0.7957747E-01            NaN
         13   -1    0    0    0    0  0.00000000000E+00  0.00000000000E+00  0.74505805969E-08  0.10566000000E+00  0.10566000000E+00 0.  1.
     999900   -1    0    0    0    0 -0.00000000000E+00 -0.00000000000E+00 -0.74505805969E-08  0.93827000000E+00  0.93827000000E+00 0.  1.
     999902    2    1    2    0    0  0.13831912113E-01  0.64782904518E-02  0.18054892515E-01  0.10202811272E+01  0.10200070144E+01 0.  0.
     999903    2    3    3    0    0  0.12224769173E+00  0.46703425392E-01  0.88219337230E-02  0.13266787232E+00  0.19930623543E-01 0.  0.
         14    1    1    2    0    0 -0.13831912113E-01 -0.64782904518E-02 -0.18054892515E-01  0.23648872777E-01  0.00000000000E+00 0. -1.
     999901    1    3    3    0    0 -0.10841577962E+00 -0.40225134940E-01  0.92329587924E-02  0.88761325490E+00  0.88000000000E+00 0. -1.
        -11    1    4    4    0    0  0.74885265745E-01  0.29153277938E-01 -0.43089693674E-02  0.80476984153E-01  0.51100000000E-03 0. -1.
         11    1    4    4    0    0  0.47362425984E-01  0.17550147454E-01  0.13130903090E-01  0.52190888168E-01  0.51100000000E-03 0.  1.
</event>
<event>
 8    1  0.1161271E+005  0.1043930E+01  0.7957747E-01            NaN
         13   -1    0    0    0    0  0.00000000000E+00  0.00000000000E+00  0.74505805969E-08  0.10566000000E+00  0.10566000000E+00 0.  1.
     999900   -1    0    0    0    0 -0.00000000000E+00 -0.00000000000E+00 -0.74505805969E-08  0.93827000000E+00  0.93827000000E+00 0. -1.
     999902    2    1    2    0    0  0.13912519024E-01  0.15767200426E-01  0.72502266369E-02  0.10216875051E+01  0.10214453629E+01 0.  0.
     999903    2    3    3    0    0  0.12028374905E+00 -0.42685437250E-01 -0.30744794848E-01  0.13254456319E+00  0.18237104509E-01 0.  0.
         14    1    1    2    0    0 -0.13912519024E-01 -0.15767200426E-01 -0.72502266369E-02  0.22242494940E-01  0.00000000000E+00 0. -1.
     999901    1    3    3    0    0 -0.10637123003E+00  0.58452637676E-01  0.37995021485E-01  0.88914294188E+00  0.88000000000E+00 0.  1.
        -11    1    4    4    0    0  0.64340713446E-01 -0.20177998456E-01 -0.25198748705E-01  0.71986923019E-01  0.51100000000E-03 0.  1.
         11    1    4    4    0    0  0.55943035604E-01 -0.22507438794E-01 -0.55460461431E-02  0.60557640166E-01  0.51100000000E-03 0. -1.
</event>
<event>
 8    1  0.1161271E+005  0.1043930E+01  0.7957747E-01            NaN
         13   -1    0    0    0    0  0.00000000000E+00  0.00000000000E+00  0.74505805969E-08  0.10566000000E+00  0.10566000000E+00 0. -1.
     999900   -1    0    0    0    0 -0.00000000000E+00 -0.00000000000E+00 -0.74505805969E-08  0.93827000000E+00  0.93827000000E+00 0. -1.
     999902    2    1    2    0    0  0.91244878066E-02 -0.56858435701E-02  0.21028931604E-01  0.10203121877E+01  0.10200388028E+01 0.  0.
     999903    2    3    3    0    0 -0.12677135463E-02 -0.11544510412E+00 -0.56561633501E-01  0.13004515530E+00  0.19579194861E-01 0.  0.
         14    1    1    2    0    0 -0.91244878066E-02  0.56858435701E-02 -0.21028931604E-01  0.23617812330E-01  0.00000000000E+00 0.  1.
     999901    1    3    3    0    0  0.10392201353E-01  0.10975926055E+00  0.77590565105E-01  0.89026703237E+00  0.88000000000E+00 0.  1.
        -11    1    4    4    0    0  0.53185144910E-02 -0.62990202847E-01 -0.22249544121E-01  0.67017576692E-01  0.51100000000E-03 0.  1.
         11    1    4    4    0    0 -0.65862280373E-02 -0.52454901271E-01 -0.34312089380E-01  0.63027578612E-01  0.51100000000E-03 0. -1.
</event>
<event>
 8    1  0.1161271E+005  0.1043930E+01  0.7957747E-01            NaN
         13   -1    0    0    0    0  0.00000000000E+00  0.00000000000E+00  0.74505805969E-08  0.10566000000E+00  0.10566000000E+00 0.  1.
     999900   -1    0    0    0    0 -0.00000000000E+00 -0.00000000000E+00 -0.74505805969E-08  0.93827000000E+00  0.93827000000E+00 0. -1.
     999902    2    1    2    0    0  0.12402864522E-01 -0.19000660804E-01  0.16739420850E-02  0.10211778959E+01  0.10209244031E+01 0.  0.
     999903    2    3    3    0    0  0.75114731564E-01  0.21338179459E-01  0.10467288745E+00  0.13203854627E+00  0.19499321338E-01 0.  0.
         14    1    1    2    0    0 -0.12402864522E-01  0.19000660804E-01 -0.16739420850E-02  0.22752104110E-01  0.00000000000E+00 0. -1.
     999901    1    3    3    0    0 -0.62711867042E-01 -0.40338840263E-01 -0.10299894537E+00  0.88913934962E+00  0.88000000000E+00 0. -1.
        -11    1    4    4    0    0  0.51658369556E-01  0.19485447112E-01  0.59954133617E-01  0.81504779327E-01  0.51100000000E-03 0.  1.
         11    1    4    4    0    0  0.23456362007E-01  0.18527323475E-02  0.44718753833E-01  0.50533766940E-01  0.51100000000E-03 0. -1.
</event>
<event>
 8    1  0.1161271E+005  0.1043930E+01  0.7957747E-01            NaN
         13   -1    0    0    0    0  0.00000000000E+00  0.00000000000E+00  0.74505805969E-08  0.10566000000E+00  0.10566000000E+00 0.  1.
     999900   -1    0    0    0    0 -0.00000000000E+00 -0.00000000000E+00 -0.74505805969E-08  0.93827000000E+00  0.93827000000E+00 0. -1.
     999902    2    1    2    0    0 -0.14399913559E-01  0.60281158674E-02  0.18033877054E-01  0.10200780313E+01  0.10197991339E+01 0.  0.
     999903    2    3    3    0    0  0.49492323962E-01 -0.57757769907E-01 -0.10057337226E+00  0.12754313735E+00  0.19151985852E-01 0.  0.
         14    1    1    2    0    0  0.14399913559E-01 -0.60281158674E-02 -0.18033877054E-01  0.23851968745E-01  0.00000000000E+00 0. -1.
     999901    1    3    3    0    0 -0.63892237521E-01  0.63785885775E-01  0.11860724932E+00  0.89253489390E+00  0.88000000000E+00 0.  1.
        -11    1    4    4    0    0  0.23645755806E-01 -0.27522994475E-01 -0.63649602187E-01  0.73267796283E-01  0.51100000000E-03 0.  1.
         11    1    4    4    0    0  0.25846568156E-01 -0.30234775432E-01 -0.36923770076E-01  0.54275341072E-01  0.51100000000E-03 0. -1.
</event>
<event>
 8    1  0.1161271E+005  0.1043930E+01  0.7957747E-01            NaN
         13   -1    0    0    0    0  0.00000000000E+00  0.00000000000E+00  0.74505805969E-08  0.10566000000E+00  0.10566000000E+00 0.  1.
     999900   -1    0    0    0    0 -0.00000000000E+00 -0.00000000000E+00 -0.74505805969E-08  0.93827000000E+00  0.93827000000E+00 0.  1.
     999902    2    1    2    0    0  0.76794484089E-03  0.13713752787E-01  0.19062899270E-01  0.10204342369E+01  0.10201637030E+01 0.  0.
     999903    2    3    3    0    0 -0.70629511901E-01  0.10992212446E+00  0.50631876067E-02  0.13220586563E+00  0.19528278013E-01 0.  0.
         14    1    1    2    0    0 -0.76794484089E-03 -0.13713752787E-01 -0.19062899270E-01  0.23495763094E-01  0.00000000000E+00 0. -1.
     999901    1    3    3    0    0  0.71397456742E-01 -0.96208371671E-01  0.13999711663E-01  0.88822837127E+00  0.88000000000E+00 0.  1.
        -11    1    4    4    0    0 -0.22262662853E-01  0.37663640094E-01  0.10786594041E-01  0.45064261610E-01  0.51100000000E-03 0.  1.
         11    1    4    4    0    0 -0.48366849049E-01  0.72258484364E-01 -0.57234064345E-02  0.87141604023E-01  0.51100000000E-03 0. -1.
</event>
<event>
 8    1  0.1161271E+005  0.1043930E+01  0.7957747E-01            NaN
         13   -1    0    0    0    0  0.00000000000E+00  0.00000000000E+00  0.74505805969E-08  0.10566000000E+00  0.10566000000E+00 0.  1.
     999900   -1    0    0    0    0 -0.00000000000E+00 -0.00000000000E+00 -0.74505805969E-08  0.93827000000E+00  0.93827000000E+00 0. -1.
     999902    2    1    2    0    0  0.11869501387E-01  0.19446687772E-01 -0.60847112342E-02  0.10203485997E+01  0.10200760670E+01 0.  0.
     999903    2    3    3    0    0  0.92305364856E-01  0.90993274404E-01  0.22616074138E-01  0.13332403564E+00  0.21534978589E-01 0.  0.
         14    1    1    2    0    0 -0.11869501387E-01 -0.19446687772E-01  0.60847112342E-02  0.23581400282E-01  0.00000000000E+00 0. -1.
     999901    1    3    3    0    0 -0.80435863469E-01 -0.71546586632E-01 -0.28700785372E-01  0.88702456407E+00  0.88000000000E+00 0. -1.
        -11    1    4    4    0    0  0.51940013706E-01  0.36551667852E-01  0.13568979302E-01  0.64947423096E-01  0.51100000000E-03 0.  1.
         11    1    4    4    0    0  0.40365351150E-01  0.54441606553E-01  0.90470948358E-02  0.68376612547E-01  0.51100000000E-03 0. -1.
</event>
<event>
 8    1  0.1161271E+005  0.1043930E+01  0.7957747E-01            NaN
         13   -1    0    0    0    0  0.00000000000E+00  0.00000000000E+00  0.74505805969E-08  0.10566000000E+00  0.10566000000E+00 0.  1.
     999900   -1    0    0    0    0 -0.00000000000E+00 -0.00000000000E+00 -0.74505805969E-08  0.93827000000E+00  0.93827000000E+00 0. -1.
     999902    2    1    2    0    0  0.19654458686E-02 -0.15210507412E-01 -0.17895397943E-01  0.10203616360E+01  0.10200894081E+01 0.  0.
     999903    2    3    3    0    0 -0.54662760453E-01 -0.23411495036E-02 -0.11871439276E+00  0.13270356906E+00  0.22883003079E-01 0.  0.
         14    1    1    2    0    0 -0.19654458686E-02  0.15210507412E-01  0.17895397943E-01  0.23568363981E-01  0.00000000000E+00 0.  1.
     999901    1    3    3    0    0  0.56628206321E-01 -0.12869357909E-01  0.10081899482E+00  0.88765806696E+00  0.88000000000E+00 0.  1.
        -11    1    4    4    0    0 -0.13951905720E-01  0.88523336610E-02 -0.25757957994E-01  0.30606420985E-01  0.51100000000E-03 0.  1.
         11    1    4    4    0    0 -0.40710854733E-01 -0.11193483165E-01 -0.92956434771E-01  0.10209714807E+00  0.51100000000E-03 0. -1.
</event>
<event>
 8    1  0.1161271E+005  0.1043930E+01  0.7957747E-01            NaN
         13   -1    0    0    0    0  0.00000000000E+00  0.00000000000E+00  0.74505805969E-08  0.10566000000E+00  0.10566000000E+00 0.  1.
     999900   -1    0    0    0    0 -0.00000000000E+00 -0.00000000000E+00 -0.74505805969E-08  0.93827000000E+00  0.93827000000E+00 0. -1.
     999902    2    1    2    0    0  0.10329900769E-01 -0.14194025276E-01  0.15819957370E-01  0.10202984902E+01  0.10200247844E+01 0.  0.
     999903    2    3    3    0    0  0.12041443159E+00  0.45767812821E-01  0.10158520908E-01  0.13139687709E+00  0.23824687555E-01 0.  0.
         14    1    1    2    0    0 -0.10329900769E-01  0.14194025276E-01 -0.15819957370E-01  0.23631509783E-01  0.00000000000E+00 0. -1.
     999901    1    3    3    0    0 -0.11008453082E+00 -0.59961838097E-01  0.56614364620E-02  0.88890161313E+00  0.88000000000E+00 0.  1.
        -11    1    4    4    0    0  0.68471300505E-01  0.38343549265E-01  0.79014600228E-02  0.78874843611E-01  0.51100000000E-03 0.  1.
         11    1    4    4    0    0  0.51943131084E-01  0.74242635561E-02  0.22570608852E-02  0.52522033481E-01  0.51100000000E-03 0. -1.
</event>
<event>
 8    1  0.1161271E+005  0.1043930E+01  0.7957747E-01            NaN
         13   -1    0    0    0    0  0.00000000000E+00  0.00000000000E+00  0.74505805969E-08  0.10566000000E+00  0.10566000000E+00 0.  1.
     999900   -1    0    0    0    0 -0.00000000000E+00 -0.00000000000E+00 -0.74505805969E-08  0.93827000000E+00  0.93827000000E+00 0.  1.
     999902    2    1    2    0    0  0.20020332789E-01  0.12001147417E-01 -0.44389105049E-02  0.10201698403E+01  0.10198931110E+01 0.  0.
     999903    2    3    3    0    0  0.82977037687E-01 -0.95799422319E-01 -0.27096735214E-01  0.13107035958E+00  0.19557300463E-01 0.  0.
         14    1    1    2    0    0 -0.20020332789E-01 -0.12001147417E-01  0.44389105049E-02  0.23760159738E-01  0.00000000000E+00 0.  1.
     999901    1    3    3    0    0 -0.62956704898E-01  0.10780056974E+00  0.22657824709E-01  0.88909948068E+00  0.88000000000E+00 0.  1.
        -11    1    4    4    0    0  0.52400230179E-01 -0.50090126184E-01 -0.83691930553E-02  0.72973347034E-01  0.51100000000E-03 0. -1.
         11    1    4    4    0    0  0.30576807508E-01 -0.45709296135E-01 -0.18727542159E-01  0.58097012546E-01  0.51100000000E-03 0.  1.
</event>
<event>
 8    1  0.1161271E+005  0.1043930E+01  0.7957747E-01            NaN
         13   -1    0    0    0    0  0.00000000000E+00  0.00000000000E+00  0.74505805969E-08  0.10566000000E+00  0.10566000000E+00 0. -1.
     999900   -1    0    0    0    0 -0.00000000000E+00 -0.00000000000E+00 -0.74505805969E-08  0.93827000000E+00  0.93827000000E+00 0.  1.
     999902    2    1    2    0    0 -0.11981206823E-01 -0.16531819399E-01  0.99178209777E-02  0.10212316841E+01  0.10209794019E+01 0.  0.
     999903    2    3    3    0    0 -0.87595204882E-01  0.58268377618E-01  0.79136255215E-01  0.13212891291E+00  0.11286230102E-01 0.  0.
         14    1    1    2    0    0  0.11981206823E-01  0.16531819399E-01 -0.99178209777E-02  0.22698315852E-01  0.00000000000E+00 0.  1.
     999901    1    3    3    0    0  0.75613998059E-01 -0.74800197017E-01 -0.69218434238E-01  0.88910277123E+00  0.88000000000E+00 0.  1.
        -11    1    4    4    0    0 -0.35711094320E-01  0.22140642981E-01  0.38346863087E-01  0.56887901690E-01  0.51100000000E-03 0. -1.
         11    1    4    4    0    0 -0.51884110562E-01  0.36127734638E-01  0.40789392129E-01  0.75241011224E-01  0.51100000000E-03 0.  1.
</event>
<event>
 8    1  0.1161271E+005  0.1043930E+01  0.7957747E-01            NaN
         13   -1    0    0    0    0  0.00000000000E+00  0.00000000000E+00  0.74505805969E-08  0.10566000000E+00  0.10566000000E+00 0. -1.
     999900   -1    0    0    0    0 -0.00000000000E+00 -0.00000000000E+00 -0.74505805969E-08  0.93827000000E+00  0.93827000000E+00 0.  1.
     999902    2    1    2    0    0 -0.95234123504E-02  0.12709469286E-01 -0.16720109283E-01  0.10208694699E+01  0.10206089783E+01 0.  0.
     999903    2    3    3    0    0 -0.37166003423E-01 -0.11384359446E+00 -0.48675431545E-01  0.13081276758E+00  0.20025152091E-01 0.  0.
         14    1    1    2    0    0  0.95234123504E-02 -0.12709469286E-01  0.16720109283E-01  0.23060530063E-01  0.00000000000E+00 0. -1.
     999901    1    3    3    0    0  0.27642591072E-01  0.12655306375E+00  0.31955322262E-01  0.89005670235E+00  0.88000000000E+00 0. -1.
        -11    1    4    4    0    0 -0.25044685583E-01 -0.94468898324E-01 -0.45239610739E-01  0.10769629765E+00  0.51100000000E-03 0. -1.
         11    1    4    4    0    0 -0.12121317840E-01 -0.19374696138E-01 -0.34358208066E-02  0.23116469934E-01  0.51100000000E-03 0.  1.
</event>
<event>
 8    1  0.1161271E+005  0.1043930E+01  0.7957747E-01            NaN
         13   -1    0    0    0    0  0.00000000000E+00  0.00000000000E+00  0.74505805969E-08  0.10566000000E+00  0.10566000000E+00 0.  1.
     999900   -1    0    0    0    0 -0.00000000000E+00 -0.00000000000E+00 -0.74505805969E-08  0.93827000000E+00  0.93827000000E+00 0. -1.
     999902    2    1    2    0    0 -0.15544476269E-02  0.33055646885E-01  0.70063564205E-02  0.10101042535E+01  0.10095377268E+01 0.  0.
     999903    2    3    3    0    0  0.38915019557E-01 -0.10292628357E+00 -0.37073348020E-01  0.11765151885E+00  0.18953842771E-01 0.  0.
         14    1    1    2    0    0  0.15544476269E-02 -0.33055646885E-01 -0.70063564205E-02  0.33825746536E-01  0.00000000000E+00 0. -1.
     999901    1    3    3    0    0 -0.40469467184E-01  0.13598193046E+00  0.44079704441E-01  0.89245273462E+00  0.88000000000E+00 0.  1.
        -11    1    4    4    0    0  0.22150127528E-01 -0.72773475599E-01 -0.17786774249E-01  0.78123219080E-01  0.51100000000E-03 0.  1.
         11    1    4    4    0    0  0.16764892029E-01 -0.30152807974E-01 -0.19286573771E-01  0.39528299765E-01  0.51100000000E-03 0. -1.
</event>
<event>
 8    1  0.1161271E+005  0.1043930E+01  0.7957747E-01            NaN
         13   -1    0    0    0    0  0.00000000000E+00  0.00000000000E+00  0.74505805969E-08  0.10566000000E+00  0.10566000000E+00 0. -1.
     999900   -1    0    0    0    0 -0.00000000000E+00 -0.00000000000E+00 -0.74505805969E-08  0.93827000000E+00  0.93827000000E+00 0. -1.
     999902    2    1    2    0    0 -0.96105491519E-02  0.20181929374E-01  0.78035910383E-02  0.10202536624E+01  0.10199789050E+01 0.  0.
     999903    2    3    3    0    0  0.10173999877E-01 -0.86484670194E-01  0.93776813470E-01  0.12943348594E+00  0.19386286026E-01 0.  0.
         14    1    1    2    0    0  0.96105491519E-02 -0.20181929374E-01 -0.78035910383E-02  0.23676337583E-01  0.00000000000E+00 0.  1.
     999901    1    3    3    0    0 -0.19784549029E-01  0.10666659957E+00 -0.85973222432E-01  0.89082017648E+00  0.88000000000E+00 0. -1.
        -11    1    4    4    0    0 -0.13587402247E-02 -0.31970244226E-01  0.45970140779E-01  0.56013013266E-01  0.51100000000E-03 0. -1.
         11    1    4    4    0    0  0.11532740102E-01 -0.54514425968E-01  0.47806672691E-01  0.73420472674E-01  0.51100000000E-03 0.  1.
</event>
<event>
 8    1  0.1161271E+005  0.1043930E+01  0.7957747E-01            NaN
         13   -1    0    0    0    0  0.00000000000E+00  0.00000000000E+00  0.74505805969E-08  0.10566000000E+00  0.10566000000E+00 0.  1.
     999900   -1    0    0    0    0 -0.00000000000E+00 -0.00000000000E+00 -0.74505805969E-08  0.93827000000E+00  0.93827000000E+00 0.  1.
     999902    2    1    2    0    0  0.23761251301E-02  0.15530078966E-01  0.18361540897E-01  0.10197644148E+01  0.10194780460E+01 0.  0.
     999903    2    3    3    0    0 -0.27199926446E-01 -0.70242986478E-01 -0.10054908666E+00  0.12714383532E+00  0.19532610770E-01 0.  0.
         14    1    1    2    0    0 -0.23761251301E-02 -0.15530078966E-01 -0.18361540897E-01  0.24165585187E-01  0.00000000000E+00 0. -1.
     999901    1    3    3    0    0  0.29576051576E-01  0.85773065444E-01  0.11891062756E+00  0.89262057949E+00  0.88000000000E+00 0. -1.
        -11    1    4    4    0    0 -0.35479543119E-02 -0.33004871886E-01 -0.36140411738E-01  0.49074433564E-01  0.51100000000E-03 0.  1.
         11    1    4    4    0    0 -0.23651972134E-01 -0.37238114592E-01 -0.64408674927E-01  0.78069401759E-01  0.51100000000E-03 0. -1.
</event>
<event>
 8    1  0.1161271E+005  0.1043930E+01  0.7957747E-01            NaN
         13   -1    0    0    0    0  0.00000000000E+00  0.00000000000E+00  0.74505805969E-08  0.10566000000E+00  0.10566000000E+00 0.  1.
     999900   -1    0    0    0    0 -0.00000000000E+00 -0.00000000000E+00 -0.74505805969E-08  0.93827000000E+00  0.93827000000E+00 0.  1.
     999902    2    1    2    0    0 -0.18162613064E-01  0.20523976861E-02 -0.15263536696E-01  0.10201168019E+01  0.10198388212E+01 0.  0.
     999903    2    3    3    0    0 -0.10082224783E-01 -0.11033951418E+00 -0.67566896259E-01  0.13139137980E+00  0.20541411113E-01 0.  0.
         14    1    1    2    0    0  0.18162613064E-01 -0.20523976861E-02  0.15263536696E-01  0.23813198064E-01  0.00000000000E+00 0.  1.
     999901    1    3    3    0    0 -0.80803882801E-02  0.11239191186E+00  0.52303359564E-01  0.88872542213E+00  0.88000000000E+00 0. -1.
        -11    1    4    4    0    0 -0.14731422675E-01 -0.53415234808E-01 -0.36765316044E-01  0.66499260961E-01  0.51100000000E-03 0. -1.
         11    1    4    4    0    0  0.46491978912E-02 -0.56924279370E-01 -0.30801580215E-01  0.64892118840E-01  0.51100000000E-03 0.  1.
</event>
<event>
 8    1  0.1161271E+005  0.1043930E+01  0.7957747E-01            NaN
         13   -1    0    0    0    0  0.00000000000E+00  0.00000000000E+00  0.74505805969E-08  0.10566000000E+00  0.10566000000E+00 0. -1.
     999900   -1    0    0    0    0 -0.00000000000E+00 -0.00000000000E+00 -0.74505805969E-08  0.93827000000E+00  0.93827000000E+00 0.  1.
     999902    2    1    2    0    0 -0.21421888641E-01  0.89729187131E-02 -0.56877341147E-02  0.10200184776E+01  0.10197381692E+01 0.  0.
     999903    2    3    3    0    0  0.68264513128E-01  0.10325764426E+00 -0.34999356560E-01  0.12996655141E+00  0.18551675839E-01 0.  0.
         14    1    1    2    0    0  0.21421888641E-01 -0.89729187131E-02  0.56877341147E-02  0.23911522380E-01  0.00000000000E+00 0. -1.
     999901    1    3    3    0    0 -0.89686401769E-01 -0.94284725545E-01  0.29311622445E-01  0.89005192621E+00  0.88000000000E+00 0.  1.
        -11    1    4    4    0    0  0.17017303649E-01  0.18177052534E-01 -0.13552215061E-01  0.28353439234E-01  0.51100000000E-03 0. -1.
         11    1    4    4    0    0  0.51247209479E-01  0.85080591724E-01 -0.21447141500E-01  0.10161311218E+00  0.51100000000E-03 0.  1.
</event>
<event>
 8    1  0.1161271E+005  0.1043930E+01  0.7957747E-01            NaN
         13   -1    0    0    0    0  0.00000000000E+00  0.00000000000E+00  0.74505805969E-08  0.10566000000E+00  0.10566000000E+00 0. -1.
     999900   -1    0    0    0    0 -0.00000000000E+00 -0.00000000000E+00 -0.74505805969E-08  0.93827000000E+00  0.93827000000E+00 0. -1.
     999902    2    1    2    0    0  0.22227779985E-02 -0.20423909314E-01 -0.11249324110E-01  0.10205072737E+01  0.10202384386E+01 0.  0.
     999903    2    3    3    0    0 -0.45421186362E-01 -0.11019394189E+00  0.53675901711E-01  0.13228213838E+00  0.20289719314E-01 0.  0.
         14    1    1    2    0    0 -0.22227779985E-02  0.20423909314E-01  0.11249324110E-01  0.23422726285E-01  0.00000000000E+00 0. -1.
     999901    1    3    3    0    0  0.47643964360E-01  0.89770032579E-01 -0.64925225820E-01  0.88822513533E+00  0.88000000000E+00 0. -1.
        -11    1    4    4    0    0 -0.15038153289E-01 -0.58280771235E-01  0.33193827539E-01  0.68737803702E-01  0.51100000000E-03 0. -1.
         11    1    4    4    0    0 -0.30383033073E-01 -0.51913170658E-01  0.20482074172E-01  0.63544334680E-01  0.51100000000E-03 0.  1.
</event>
<event>
 8    1  0.1161271E+005  0.1043930E+01  0.7957747E-01            NaN
         13   -1    0    0    0    0  0.00000000000E+00  0.00000000000E+00  0.74505805969E-08  0.10566000000E+00  0.10566000000E+00 0.  1.
     999900   -1    0    0    0    0 -0.00000000000E+00 -0.00000000000E+00 -0.74505805969E-08  0.93827000000E+00  0.93827000000E+00 0.  1.
     999902    2    1    2    0    0 -0.58652451673E-02  0.20990144814E-01 -0.88549201065E-02  0.10204056107E+01  0.10201344095E+01 0.  0.
     999903    2    3    3    0    0  0.52676401469E-01  0.10060066427E+00 -0.65874399798E-01  0.13304087160E+00  0.21567105600E-01 0.  0.
         14    1    1    2    0    0  0.58652451673E-02 -0.20990144814E-01  0.88549201065E-02  0.23524389265E-01  0.00000000000E+00 0.  1.
     999901    1    3    3    0    0 -0.58541646637E-01 -0.79610519454E-01  0.57019479691E-01  0.88736473914E+00  0.88000000000E+00 0.  1.
        -11    1    4    4    0    0  0.36644567687E-01  0.58387927791E-01 -0.50056240094E-01  0.85193090953E-01  0.51100000000E-03 0.  1.
         11    1    4    4    0    0  0.16031833783E-01  0.42212736477E-01 -0.15818159704E-01  0.47847780646E-01  0.51100000000E-03 0. -1.
</event>
<event>
 8    1  0.1161271E+005  0.1043930E+01  0.7957747E-01            NaN
         13   -1    0    0    0    0  0.00000000000E+00  0.00000000000E+00  0.74505805969E-08  0.10566000000E+00  0.10566000000E+00 0. -1.
     999900   -1    0    0    0    0 -0.00000000000E+00 -0.00000000000E+00 -0.74505805969E-08  0.93827000000E+00  0.93827000000E+00 0.  1.
     999902    2    1    2    0    0 -0.20482622726E-01 -0.68180104979E-02  0.83080980722E-02  0.10207989042E+01  0.10205367975E+01 0.  0.
     999903    2    3    3    0    0 -0.31488922570E-01  0.75207017811E-02 -0.12488145655E+00  0.13059320054E+00  0.20275419510E-01 0.  0.
         14    1    1    2    0    0  0.20482622726E-01  0.68180104979E-02 -0.83080980722E-02  0.23131095834E-01  0.00000000000E+00 0. -1.
     999901    1    3    3    0    0  0.11006299844E-01 -0.14338712279E-01  0.13318955463E+00  0.89020570363E+00  0.88000000000E+00 0. -1.
        -11    1    4    4    0    0 -0.40786226558E-02 -0.62660592170E-02 -0.26189180999E-01  0.27240282364E-01  0.51100000000E-03 0.  1.
         11    1    4    4    0    0 -0.27410299915E-01  0.13786760998E-01 -0.98692275555E-01  0.10335291818E+00  0.51100000000E-03 0. -1.
</event>
<event>
 8    1  0.1161271E+005  0.1043930E+01  0.7957747E-01            NaN
         13   -1    0    0    0    0  0.00000000000E+00  0.00000000000E+00  0.74505805969E-08  0.10566000000E+00  0.10566000000E+00 0.  1.
     999900   -1    0    0    0    0 -0.00000000000E+00 -0.00000000000E+00 -0.74505805969E-08  0.93827000000E+00  0.93827000000E+00 0. -1.
     999902    2    1    2    0    0  0.11917611201E-01  0.11743809648E-01 -0.16659517632E-01  0.10203188575E+01  0.10200456289E+01 0.  0.
     999903    2    3    3    0    0 -0.50893692453E-01 -0.22113480936E-01 -0.11758250211E+00  0.13168112211E+00  0.20859030347E-01 0.  0.
         14    1    1    2    0    0 -0.11917611201E-01 -0.11743809648E-01  0.16659517632E-01  0.23611142487E-01  0.00000000000E+00 0.  1.
     999901    1    3    3    0    0  0.62811303655E-01  0.33857290584E-01  0.10092298448E+00  0.88863773541E+00  0.88000000000E+00 0.  1.
        -11    1    4    4    0    0 -0.28476951586E-01 -0.11880214286E-02 -0.52734060828E-01  0.59945729281E-01  0.51100000000E-03 0.  1.
         11    1    4    4    0    0 -0.22416740867E-01 -0.20925459507E-01 -0.64848441279E-01  0.71735392827E-01  0.51100000000E-03 0. -1.
</event>
<event>
 8    1  0.1161271E+005  0.1043930E+01  0.7957747E-01            NaN
         13   -1    0    0    0    0  0.00000000000E+00  0.00000000000E+00  0.74505805969E-08  0.10566000000E+00  0.10566000000E+00 0. -1.
     999900   -1    0    0    0    0 -0.00000000000E+00 -0.00000000000E+00 -0.74505805969E-08  0.93827000000E+00  0.93827000000E+00 0.  1.
     999902    2    1    2    0    0  0.17692142725E-01 -0.13310706736E-01 -0.83869932104E-02  0.10202545173E+01  0.10199797799E+01 0.  0.
     999903    2    3    3    0    0  0.74708230480E-01 -0.75603873352E-01  0.76145878310E-01  0.13217958841E+00  0.19390292480E-01 0.  0.
         14    1    1    2    0    0 -0.17692142725E-01  0.13310706736E-01  0.83869932104E-02  0.23675482743E-01  0.00000000000E+00 0. -1.
     999901    1    3    3    0    0 -0.57016087755E-01  0.62293166616E-01 -0.84532871521E-01  0.88807492884E+00  0.88000000000E+00 0.  1.
        -11    1    4    4    0    0  0.62867093816E-01 -0.54282246395E-01  0.64414266525E-01  0.10511085868E+00  0.51100000000E-03 0.  1.
         11    1    4    4    0    0  0.11841136664E-01 -0.21321626957E-01  0.11731611786E-01  0.27068729739E-01  0.51100000000E-03 0. -1.
</event>
<event>
 8    1  0.1161271E+005  0.1043930E+01  0.7957747E-01            NaN
         13   -1    0    0    0    0  0.00000000000E+00  0.00000000000E+00  0.74505805969E-08  0.10566000000E+00  0.10566000000E+00 0.  1.
     999900   -1    0    0    0    0 -0.00000000000E+00 -0.00000000000E+00 -0.74505805969E-08  0.93827000000E+00  0.93827000000E+00 0. -1.
     999902    2    1    2    0    0  0.23775528899E-01 -0.10274515785E-01  0.35479233997E-02  0.10177875210E+01  0.10174517230E+01 0.  0.
     999903    2    3    3    0    0 -0.42236554666E-01  0.11643143157E+00  0.14952069942E-01  0.12619229509E+00  0.18992791681E-01 0.  0.
         14    1    1    2    0    0 -0.23775528899E-01  0.10274515785E-01 -0.35479233997E-02  0.26142479024E-01  0.00000000000E+00 0.  1.
     999901    1    3    3    0    0  0.66012083565E-01 -0.12670594736E+00 -0.11404146542E-01  0.89159522589E+00  0.88000000000E+00 0.  1.
        -11    1    4    4    0    0 -0.19578353835E-01  0.66188868672E-01 -0.21426686295E-03  0.69025975591E-01  0.51100000000E-03 0.  1.
         11    1    4    4    0    0 -0.22658200832E-01  0.50242562899E-01  0.15166336805E-01  0.57166319495E-01  0.51100000000E-03 0. -1.
</event>
<event>
 8    1  0.1161271E+005  0.1043930E+01  0.7957747E-01            NaN
         13   -1    0    0    0    0  0.00000000000E+00  0.00000000000E+00  0.74505805969E-08  0.10566000000E+00  0.10566000000E+00 0.  1.
     999900   -1    0    0    0    0 -0.00000000000E+00 -0.00000000000E+00 -0.74505805969E-08  0.93827000000E+00  0.93827000000E+00 0. -1.
     999902    2    1    2    0    0  0.10396547574E-01 -0.58967561134E-02  0.20250771503E-01  0.10204150328E+01  0.10201440514E+01 0.  0.
     999903    2    3    3    0    0 -0.10615312852E+00  0.21718318545E-01  0.70385295401E-01  0.13088713006E+00  0.20908824722E-01 0.  0.
         14    1    1    2    0    0 -0.10396547574E-01  0.58967561134E-02 -0.20250771503E-01  0.23514967161E-01  0.00000000000E+00 0. -1.
     999901    1    3    3    0    0  0.11654967609E+00 -0.27615074659E-01 -0.50134523898E-01  0.88952790278E+00  0.88000000000E+00 0. -1.
        -11    1    4    4    0    0 -0.15271227224E-01  0.33420156295E-03  0.25836266134E-02  0.15500268356E-01  0.51100000000E-03 0. -1.
         11    1    4    4    0    0 -0.90881901292E-01  0.21384116982E-01  0.67801668787E-01  0.11538686170E+00  0.51100000000E-03 0.  1.
</event>
<event>
 8    1  0.1161271E+005  0.1043930E+01  0.7957747E-01            NaN
         13   -1    0    0    0    0  0.00000000000E+00  0.00000000000E+00  0.74505805969E-08  0.10566000000E+00  0.10566000000E+00 0.  1.
     999900   -1    0    0    0    0 -0.00000000000E+00 -0.00000000000E+00 -0.74505805969E-08  0.93827000000E+00  0.93827000000E+00 0. -1.
     999902    2    1    2    0    0 -0.12902295866E-01 -0.86577646272E-03  0.21470283951E-01  0.10188662433E+01  0.10185579168E+01 0.  0.
     999903    2    3    3    0    0  0.30857179246E-01  0.50373263719E-01  0.11553700216E+00  0.13129152622E+00  0.19975854963E-01 0.  0.
         14    1    1    2    0    0  0.12902295866E-01  0.86577646272E-03 -0.21470283951E-01  0.25063756710E-01  0.00000000000E+00 0. -1.
     999901    1    3    3    0    0 -0.43759475112E-01 -0.51239040182E-01 -0.94066718208E-01  0.88757471707E+00  0.88000000000E+00 0. -1.
        -11    1    4    4    0    0  0.84514216479E-02  0.30844769557E-01  0.50412083522E-01  0.59703145838E-01  0.51100000000E-03 0. -1.
         11    1    4    4    0    0  0.22405757598E-01  0.19528494162E-01  0.65124918637E-01  0.71588380386E-01  0.51100000000E-03 0.  1.
</event>
<event>
 8    1  0.1161271E+005  0.1043930E+01  0.7957747E-01            NaN
         13   -1    0    0    0    0  0.00000000000E+00  0.00000000000E+00  0.74505805969E-08  0.10566000000E+00  0.10566000000E+00 0.  1.
     999900   -1    0    0    0    0 -0.00000000000E+00 -0.00000000000E+00 -0.74505805969E-08  0.93827000000E+00  0.93827000000E+00 0. -1.
     999902    2    1    2    0    0 -0.52632876008E-02  0.19097885269E-01  0.74792920346E-02  0.10227552219E+01  0.10225360007E+01 0.  0.
     999903    2    3    3    0    0 -0.92559435900E-01 -0.80025782416E-01 -0.43703980512E-01  0.13142708570E+00  0.19790551199E-01 0.  0.
         14    1    1    2    0    0  0.52632876008E-02 -0.19097885269E-01 -0.74792920346E-02  0.21174778097E-01  0.00000000000E+00 0. -1.
     999901    1    3    3    0    0  0.87296148299E-01  0.99123667686E-01  0.51183272546E-01  0.89132813621E+00  0.88000000000E+00 0.  1.
        -11    1    4    4    0    0 -0.30326709806E-01 -0.34032944451E-01 -0.24240254767E-01  0.51631402343E-01  0.51100000000E-03 0. -1.
         11    1    4    4    0    0 -0.62232726094E-01 -0.45992837965E-01 -0.19463725745E-01  0.79795683355E-01  0.51100000000E-03 0.  1.
</event>
<event>
 8    1  0.1161271E+005  0.1043930E+01  0.7957747E-01            NaN
         13   -1    0    0    0    0  0.00000000000E+00  0.00000000000E+00  0.74505805969E-08  0.10566000000E+00  0.10566000000E+00 0. -1.
     999900   -1    0    0    0    0 -0.00000000000E+00 -0.00000000000E+00 -0.74505805969E-08  0.93827000000E+00  0.93827000000E+00 0.  1.
     999902    2    1    2    0    0  0.20453208296E-01 -0.11750389313E-01  0.37775106896E-02  0.10200411958E+01  0.10197614261E+01 0.  0.
     999903    2    3    3    0    0 -0.63977332547E-01 -0.76051936950E-01  0.81762799020E-01  0.13024070668E+00  0.20012250748E-01 0.  0.
         14    1    1    2    0    0 -0.20453208296E-01  0.11750389313E-01 -0.37775106896E-02  0.23888804190E-01  0.00000000000E+00 0. -1.
     999901    1    3    3    0    0  0.84430540843E-01  0.64301547637E-01 -0.77985288330E-01  0.88980048913E+00  0.88000000000E+00 0.  1.
        -11    1    4    4    0    0 -0.32124364538E-01 -0.33131769320E-01  0.25886568271E-01  0.52915635431E-01  0.51100000000E-03 0.  1.
         11    1    4    4    0    0 -0.31852968010E-01 -0.42920167629E-01  0.55876230748E-01  0.77325071251E-01  0.51100000000E-03 0. -1.
</event>
<event>
 7    1  0.1161271E+005  0.1043930E+01  0.7957747E-01            NaN
         13   -1    0    0    0    0  0.00000000000E+00  0.00000000000E+00  0.74505805969E-08  0.10566000000E+00  0.10566000000E+00 0.  1.
     999900   -1    0    0    0    0 -0.00000000000E+00 -0.00000000000E+00 -0.74505805969E-08  0.93827000000E+00  0.93827000000E+00 0. -1.
     999903    2    1    2    0    0 -0.11181261630E-01 -0.11546044129E+00  0.11395956734E-01  0.11823887768E+00  0.19860268122E-01 0.  0.
         14    1    1    2    0    0 -0.19550998196E-02  0.38324677148E-01  0.16517666701E-01  0.41778422744E-01  0.00000000000E+00 0. -1.
     999901    1    1    2    0    0  0.13136361450E-01  0.77135764143E-01 -0.27913623434E-01  0.88391269958E+00  0.88000000000E+00 0. -1.
        -11    1    3    3    0    0 -0.13841981341E-01 -0.49272391710E-01  0.10555710126E-02  0.51193206419E-01  0.51100000000E-03 0.  1.
         11    1    3    3    0    0  0.26607197110E-02 -0.66188049580E-01  0.10340385721E-01  0.67045671258E-01  0.51100000000E-03 0. -1.
</event>
<event>
 8    1  0.1161271E+005  0.1043930E+01  0.7957747E-01            NaN
         13   -1    0    0    0    0  0.00000000000E+00  0.00000000000E+00  0.74505805969E-08  0.10566000000E+00  0.10566000000E+00 0.  1.
     999900   -1    0    0    0    0 -0.00000000000E+00 -0.00000000000E+00 -0.74505805969E-08  0.93827000000E+00  0.93827000000E+00 0. -1.
     999902    2    1    2    0    0  0.18122945772E-01 -0.38097347173E-02  0.16446910605E-01  0.10191619538E+01  0.10188609483E+01 0.  0.
     999903    2    3    3    0    0  0.90947239355E-01  0.60511838022E-01  0.71752660455E-01  0.13208846849E+00  0.19126848599E-01 0.  0.
         14    1    1    2    0    0 -0.18122945772E-01  0.38097347173E-02 -0.16446910605E-01  0.24768046158E-01  0.00000000000E+00 0. -1.
     999901    1    3    3    0    0 -0.72824293583E-01 -0.64321572740E-01 -0.55305749850E-01  0.88707348536E+00  0.88000000000E+00 0. -1.
        -11    1    4    4    0    0  0.35413362166E-01  0.31980960533E-01  0.38721101272E-01  0.61453013443E-01  0.51100000000E-03 0.  1.
         11    1    4    4    0    0  0.55533877189E-01  0.28530877489E-01  0.33031559182E-01  0.70635455042E-01  0.51100000000E-03 0. -1.
</event>
<event>
 8    1  0.1161271E+005  0.1043930E+01  0.7957747E-01            NaN
         13   -1    0    0    0    0  0.00000000000E+00  0.00000000000E+00  0.74505805969E-08  0.10566000000E+00  0.10566000000E+00 0.  1.
     999900   -1    0    0    0    0 -0.00000000000E+00 -0.00000000000E+00 -0.74505805969E-08  0.93827000000E+00  0.93827000000E+00 0.  1.
     999902    2    1    2    0    0 -0.11120041316E-01  0.51230048522E-03  0.20699567868E-01  0.10204270240E+01  0.10201563221E+01 0.  0.
     999903    2    3    3    0    0  0.49205618972E-01 -0.98564362895E-01  0.69157020284E-01  0.13149311465E+00  0.19277426525E-01 0.  0.
         14    1    1    2    0    0  0.11120041316E-01 -0.51230048522E-03 -0.20699567868E-01  0.23502975994E-01  0.00000000000E+00 0. -1.
     999901    1    3    3    0    0 -0.60325660288E-01  0.99076663380E-01 -0.48457452415E-01  0.88893390936E+00  0.88000000000E+00 0.  1.
        -11    1    4    4    0    0  0.22890358658E-01 -0.59220937920E-01  0.48250461635E-01  0.79746198509E-01  0.51100000000E-03 0. -1.
         11    1    4    4    0    0  0.26315260314E-01 -0.39343424974E-01  0.20906558649E-01  0.51746916137E-01  0.51100000000E-03 0.  1.
</event>
<event>
 8    1  0.1161271E+005  0.1043930E+01  0.7957747E-01            NaN
         13   -1    0    0    0    0  0.00000000000E+00  0.00000000000E+00  0.74505805969E-08  0.10566000000E+00  0.10566000000E+00 0.  1.
     999900   -1    0    0    0    0 -0.00000000000E+00 -0.00000000000E+00 -0.74505805969E-08  0.93827000000E+00  0.93827000000E+00 0. -1.
     999902    2    1    2    0    0 -0.11367834456E-02 -0.21839511924E-01  0.93120900756E-02  0.10201608692E+01  0.10198839284E+01 0.  0.
     999903    2    3    3    0    0  0.10129570150E+00 -0.38687560524E-01 -0.69822973207E-01  0.13053250355E+00  0.20147963061E-01 0.  0.
         14    1    1    2    0    0  0.11367834456E-02  0.21839511924E-01 -0.93120900756E-02  0.23769130805E-01  0.00000000000E+00 0. -1.
     999901    1    3    3    0    0 -0.10243248494E+00  0.16848048600E-01  0.79135063283E-01  0.88962836564E+00  0.88000000000E+00 0.  1.
        -11    1    4    4    0    0  0.49894286030E-01 -0.10278175616E-01 -0.25613255071E-01  0.57020878884E-01  0.51100000000E-03 0.  1.
         11    1    4    4    0    0  0.51401415466E-01 -0.28409384908E-01 -0.44209718136E-01  0.73511624669E-01  0.51100000000E-03 0. -1.
</event>
<event>
 8    1  0.1161271E+005  0.1043930E+01  0.7957747E-01            NaN
         13   -1    0    0    0    0  0.00000000000E+00  0.00000000000E+00  0.74505805969E-08  0.10566000000E+00  0.10566000000E+00 0. -1.
     999900   -1    0    0    0    0 -0.00000000000E+00 -0.00000000000E+00 -0.74505805969E-08  0.93827000000E+00  0.93827000000E+00 0. -1.
     999902    2    1    2    0    0 -0.14817468489E-01  0.13159218795E-01 -0.12816454691E-01  0.10203294932E+01  0.10200565135E+01 0.  0.
     999903    2    3    3    0    0 -0.23802042058E-01 -0.11915436900E+00  0.38189832509E-01  0.12893213542E+00  0.20018276119E-01 0.  0.
         14    1    1    2    0    0  0.14817468489E-01 -0.13159218795E-01  0.12816454691E-01  0.23600506829E-01  0.00000000000E+00 0. -1.
     999901    1    3    3    0    0  0.89845735686E-02  0.13231358779E+00 -0.51006287199E-01  0.89139735775E+00  0.88000000000E+00 0.  1.
        -11    1    4    4    0    0 -0.24239086487E-01 -0.10614555622E+00  0.39539352268E-01  0.11583623750E+00  0.51100000000E-03 0.  1.
         11    1    4    4    0    0  0.43704442877E-03 -0.13008812779E-01 -0.13495197591E-02  0.13095897920E-01  0.51100000000E-03 0. -1.
</event>
<event>
 8    1  0.1161271E+005  0.1043930E+01  0.7957747E-01            NaN
         13   -1    0    0    0    0  0.00000000000E+00  0.00000000000E+00  0.74505805969E-08  0.10566000000E+00  0.10566000000E+00 0. -1.
     999900   -1    0    0    0    0 -0.00000000000E+00 -0.00000000000E+00 -0.74505805969E-08  0.93827000000E+00  0.93827000000E+00 0. -1.
     999902    2    1    2    0    0 -0.59955178377E-02 -0.21411902728E-01  0.85197716763E-02  0.10201181894E+01  0.10198402415E+01 0.  0.
     999903    2    3    3    0    0  0.28152546151E-01 -0.72789503148E-02  0.12601175364E+00  0.13154056400E+00  0.24050134072E-01 0.  0.
         14    1    1    2    0    0  0.59955178377E-02  0.21411902728E-01 -0.85197716763E-02  0.23811810557E-01  0.00000000000E+00 0.  1.
     999901    1    3    3    0    0 -0.34148063988E-01 -0.14132952413E-01 -0.11749198196E+00  0.88857762545E+00  0.88000000000E+00 0. -1.
        -11    1    4    4    0    0  0.10037120365E-01 -0.10537493124E-01  0.89196788268E-01  0.90377600682E-01  0.51100000000E-03 0.  1.
         11    1    4    4    0    0  0.18115425785E-01  0.32585428096E-02  0.36814965371E-01  0.41162963315E-01  0.51100000000E-03 0. -1.
</event>
<event>
 8    1  0.1161271E+005  0.1043930E+01  0.7957747E-01            NaN
         13   -1    0    0    0    0  0.00000000000E+00  0.00000000000E+00  0.74505805969E-08  0.10566000000E+00  0.10566000000E+00 0. -1.
     999900   -1    0    0    0    0 -0.00000000000E+00 -0.00000000000E+00 -0.74505805969E-08  0.93827000000E+00  0.93827000000E+00 0. -1.
     999902    2    1    2    0    0  0.91922860925E-02 -0.46584152194E-02 -0.19321456126E-01  0.10220321092E+01  0.10217974919E+01 0.  0.
     999903    2    3    3    0    0  0.12242331826E-01 -0.65256911237E-01 -0.11564318156E+00  0.13469938956E+00  0.19032628675E-01 0.  0.
         14    1    1    2    0    0 -0.91922860925E-02  0.46584152194E-02  0.19321456126E-01  0.21897890830E-01  0.00000000000E+00 0. -1.
     999901    1    3    3    0    0 -0.30500457339E-02  0.60598496017E-01  0.96321725434E-01  0.88733271961E+00  0.88000000000E+00 0.  1.
        -11    1    4    4    0    0 -0.31485360810E-02 -0.30135294187E-01 -0.58461310458E-01  0.65848577636E-01  0.51100000000E-03 0. -1.
         11    1    4    4    0    0  0.15390867907E-01 -0.35121617049E-01 -0.57181871101E-01  0.68850811925E-01  0.51100000000E-03 0.  1.
</event>
<event>
 8    1  0.1161271E+005  0.1043930E+01  0.7957747E-01            NaN
         13   -1    0    0    0    0  0.00000000000E+00  0.00000000000E+00  0.74505805969E-08  0.10566000000E+00  0.10566000000E+00 0.  1.
     999900   -1    0    0    0    0 -0.00000000000E+00 -0.00000000000E+00 -0.74505805969E-08  0.93827000000E+00  0.93827000000E+00 0. -1.
     999902    2    1    2    0    0  0.18775540381E-01  0.28028756306E-01 -0.81890173620E-02  0.10092141232E+01  0.10086168521E+01 0.  0.
     999903    2    3    3    0    0  0.61224607692E-01  0.71258728020E-01 -0.78859021330E-01  0.12430452147E+00  0.20164570587E-01 0.  0.
         14    1    1    2    0    0 -0.18775540381E-01 -0.28028756306E-01  0.81890173620E-02  0.34715876800E-01  0.00000000000E+00 0.  1.
     999901    1    3    3    0    0 -0.42449067311E-01 -0.43229971715E-01  0.70670003968E-01  0.88490960173E+00  0.88000000000E+00 0.  1.
        -11    1    4    4    0    0  0.49233484933E-01  0.64631581768E-01 -0.73574089413E-01  0.10961106310E+00  0.51100000000E-03 0. -1.
         11    1    4    4    0    0  0.11991122759E-01  0.66271462519E-02 -0.52849319177E-02  0.14693458369E-01  0.51100000000E-03 0.  1.
</event>
<event>
 8    1  0.1161271E+005  0.1043930E+01  0.7957747E-01            NaN
         13   -1    0    0    0    0  0.00000000000E+00  0.00000000000E+00  0.74505805969E-08  0.10566000000E+00  0.10566000000E+00 0. -1.
     999900   -1    0    0    0    0 -0.00000000000E+00 -0.00000000000E+00 -0.74505805969E-08  0.93827000000E+00  0.93827000000E+00 0. -1.
     999902    2    1    2    0    0  0.20851062129E-01  0.38991516372E-02 -0.69574990987E-02  0.10216056418E+01  0.10213616942E+01 0.  0.
     999903    2    3    3    0    0  0.87655646839E-01 -0.86110336342E-01  0.46940625634E-01  0.13285957665E+00  0.18701399019E-01 0.  0.
         14    1    1    2    0    0 -0.20851062129E-01 -0.38991516372E-02  0.69574990987E-02  0.22324358202E-01  0.00000000000E+00 0.  1.
     999901    1    3    3    0    0 -0.66804584709E-01  0.90009487980E-01 -0.53898124732E-01  0.88874606515E+00  0.88000000000E+00 0. -1.
        -11    1    4    4    0    0  0.80082740281E-01 -0.84211572380E-01  0.45979109189E-01  0.12497669309E+00  0.51100000000E-03 0. -1.
         11    1    4    4    0    0  0.75729065584E-02 -0.18987639628E-02  0.96151644511E-03  0.78828835589E-02  0.51100000000E-03 0.  1.
</event>
<event>
 8    1  0.1161271E+005  0.1043930E+01  0.7957747E-01            NaN
         13   -1    0    0    0    0  0.00000000000E+00  0.00000000000E+00  0.74505805969E-08  0.10566000000E+00  0.10566000000E+00 0. -1.
     999900   -1    0    0    0    0 -0.00000000000E+00 -0.00000000000E+00 -0.74505805969E-08  0.93827000000E+00  0.93827000000E+00 0.  1.
     999902    2    1    2    0    0  0.15242905012E-01 -0.15385010711E-02  0.18549731442E-01  0.10198716194E+01  0.10195878160E+01 0.  0.
     999903    2    3    3    0    0  0.57612373783E-01 -0.10546402022E+00  0.51132430712E-01  0.13214569456E+00  0.20152268977E-01 0.  0.
         14    1    1    2    0    0 -0.15242905012E-01  0.15385010711E-02 -0.18549731442E-01  0.24058380563E-01  0.00000000000E+00 0.  1.
     999901    1    3    3    0    0 -0.42369468771E-01  0.10392551915E+00 -0.32582699270E-01  0.88772592488E+00  0.88000000000E+00 0. -1.
        -11    1    4    4    0    0  0.13161851550E-01 -0.42988282061E-01  0.15140166562E-01  0.47441674668E-01  0.51100000000E-03 0.  1.
         11    1    4    4    0    0  0.44450522233E-01 -0.62475738160E-01  0.35992264150E-01  0.84704019888E-01  0.51100000000E-03 0. -1.
</event>
<event>
 8    1  0.1161271E+005  0.1043930E+01  0.7957747E-01            NaN
         13   -1    0    0    0    0  0.00000000000E+00  0.00000000000E+00  0.74505805969E-08  0.10566000000E+00  0.10566000000E+00 0. -1.
     999900   -1    0    0    0    0 -0.00000000000E+00 -0.00000000000E+00 -0.74505805969E-08  0.93827000000E+00  0.93827000000E+00 0.  1.
     999902    2    1    2    0    0  0.23700482923E-01 -0.35830778363E-02  0.81121207842E-02  0.10186247072E+01  0.10183103340E+01 0.  0.
     999903    2    3    3    0    0 -0.24031133175E-01 -0.10225430206E+00 -0.71008048375E-01  0.12830211468E+00  0.19643117065E-01 0.  0.
         14    1    1    2    0    0 -0.23700482923E-01  0.35830778363E-02 -0.81121207842E-02  0.25305292750E-01  0.00000000000E+00 0.  1.
     999901    1    3    3    0    0  0.47731616098E-01  0.98671224219E-01  0.79120169159E-01  0.89032259257E+00  0.88000000000E+00 0.  1.
        -11    1    4    4    0    0 -0.20948158134E-01 -0.54364180794E-01 -0.45689610177E-01  0.74041144519E-01  0.51100000000E-03 0.  1.
         11    1    4    4    0    0 -0.30829750418E-02 -0.47890121261E-01 -0.25318438199E-01  0.54260970165E-01  0.51100000000E-03 0. -1.
</event>
<event>
 8    1  0.1161271E+005  0.1043930E+01  0.7957747E-01            NaN
         13   -1    0    0    0    0  0.00000000000E+00  0.00000000000E+00  0.74505805969E-08  0.10566000000E+00  0.10566000000E+00 0. -1.
     999900   -1    0    0    0    0 -0.00000000000E+00 -0.00000000000E+00 -0.74505805969E-08  0.93827000000E+00  0.93827000000E+00 0.  1.
     999902    2    1    2    0    0 -0.40686976352E-02  0.21848825536E-01 -0.69837359240E-02  0.10206341196E+01  0.10203682218E+01 0.  0.
     999903    2    3    3    0    0  0.53229448215E-02  0.48498033131E-01 -0.12167806906E+00  0.13274157355E+00  0.20841782515E-01 0.  0.
         14    1    1    2    0    0  0.40686976352E-02 -0.21848825536E-01  0.69837359240E-02  0.23295880434E-01  0.00000000000E+00 0.  1.
     999901    1    3    3    0    0 -0.93916424567E-02 -0.26649207595E-01  0.11469433314E+00  0.88789254601E+00  0.88000000000E+00 0. -1.
        -11    1    4    4    0    0 -0.57517837628E-02  0.94408531550E-02 -0.15330870053E-01  0.18907919566E-01  0.51100000000E-03 0.  1.
         11    1    4    4    0    0  0.11074728584E-01  0.39057179976E-01 -0.10634719901E+00  0.11383365398E+00  0.51100000000E-03 0. -1.
</event>
<event>
 8    1  0.1161271E+005  0.1043930E+01  0.7957747E-01            NaN
         13   -1    0    0    0    0  0.00000000000E+00  0.00000000000E+00  0.74505805969E-08  0.10566000000E+00  0.10566000000E+00 0. -1.
     999900   -1    0    0    0    0 -0.00000000000E+00 -0.00000000000E+00 -0.74505805969E-08  0.93827000000E+00  0.93827000000E+00 0. -1.
     999902    2    1    2    0    0 -0.12298855530E-01 -0.13585093340E-01 -0.14115449163E-01  0.10207985817E+01  0.10205364677E+01 0.  0.
     999903    2    3    3    0    0 -0.43049206521E-01 -0.91916503530E-01  0.81312811027E-01  0.13164845558E+00  0.20436849445E-01 0.  0.
         14    1    1    2    0    0  0.12298855530E-01  0.13585093340E-01  0.14115449163E-01  0.23131418319E-01  0.00000000000E+00 0. -1.
     999901    1    3    3    0    0  0.30750350991E-01  0.78331410190E-01 -0.95428260190E-01  0.88915012610E+00  0.88000000000E+00 0. -1.
        -11    1    4    4    0    0 -0.13110807290E-01 -0.48661299338E-01  0.33154265381E-01  0.60326459825E-01  0.51100000000E-03 0.  1.
         11    1    4    4    0    0 -0.29938399231E-01 -0.43255204192E-01  0.48158545646E-01  0.71321995751E-01  0.51100000000E-03 0. -1.
</event>
<event>
 8    1  0.1161271E+005  0.1043930E+01  0.7957747E-01            NaN
         13   -1    0    0    0    0  0.00000000000E+00  0.00000000000E+00  0.74505805969E-08  0.10566000000E+00  0.10566000000E+00 0.  1.
     999900   -1    0    0    0    0 -0.00000000000E+00 -0.00000000000E+00 -0.74505805969E-08  0.93827000000E+00  0.93827000000E+00 0. -1.
     999902    2    1    2    0    0  0.92142715546E-02 -0.44331731776E-02 -0.21321858910E-01  0.10202830659E+01  0.10200089985E+01 0.  0.
     999903    2    3    3    0    0 -0.24869561628E-01 -0.13401732786E-01  0.12314276455E+00  0.12780776083E+00  0.19302376241E-01 0.  0.
         14    1    1    2    0    0 -0.92142715546E-02  0.44331731776E-02  0.21321858910E-01  0.23646934095E-01  0.00000000000E+00 0.  1.
     999901    1    3    3    0    0  0.34083833182E-01  0.89685596080E-02 -0.14446462346E+00  0.89247530508E+00  0.88000000000E+00 0. -1.
        -11    1    4    4    0    0 -0.14823146453E-01 -0.17856948220E-01  0.83694216661E-01  0.86853781115E-01  0.51100000000E-03 0. -1.
         11    1    4    4    0    0 -0.10046415175E-01  0.44552154341E-02  0.39448547891E-01  0.40953979710E-01  0.51100000000E-03 0.  1.
</event>
<event>
 8    1  0.1161271E+005  0.1043930E+01  0.7957747E-01            NaN
         13   -1    0    0    0    0  0.00000000000E+00  0.00000000000E+00  0.74505805969E-08  0.10566000000E+00  0.10566000000E+00 0.  1.
     999900   -1    0    0    0    0 -0.00000000000E+00 -0.00000000000E+00 -0.74505805969E-08  0.93827000000E+00  0.93827000000E+00 0. -1.
     999902    2    1    2    0    0  0.17454590576E-01  0.14681935073E-01 -0.42251453775E-02  0.10207335821E+01  0.10204699760E+01 0.  0.
     999903    2    3    3    0    0  0.97220134045E-01  0.49239629609E-01 -0.74639427890E-01  0.13365131571E+00  0.20379754833E-01 0.  0.
         14    1    1    2    0    0 -0.17454590576E-01 -0.14681935073E-01  0.42251453775E-02  0.23196417894E-01  0.00000000000E+00 0. -1.
     999901    1    3    3    0    0 -0.79765543469E-01 -0.34557694536E-01  0.70414282512E-01  0.88708226640E+00  0.88000000000E+00 0.  1.
        -11    1    4    4    0    0  0.90442802319E-01  0.39796721047E-01 -0.62961699184E-01  0.11716704393E+00  0.51100000000E-03 0.  1.
         11    1    4    4    0    0  0.67773317256E-02  0.94429085615E-02 -0.11677728706E-01  0.16484271781E-01  0.51100000000E-03 0. -1.
</event>
<event>
 8    1  0.1161271E+005  0.1043930E+01  0.7957747E-01            NaN
         13   -1    0    0    0    0  0.00000000000E+00  0.00000000000E+00  0.74505805969E-08  0.10566000000E+00  0.10566000000E+00 0. -1.
     999900   -1    0    0    0    0 -0.00000000000E+00 -0.00000000000E+00 -0.74505805969E-08  0.93827000000E+00  0.93827000000E+00 0. -1.
     999902    2    1    2    0    0  0.37873135276E-02  0.20323768021E-01 -0.11249271987E-01  0.10203939551E+01  0.10201224819E+01 0.  0.
     999903    2    3    3    0    0  0.71045533510E-01 -0.36725119237E-02  0.10671411930E+00  0.12965558087E+00  0.19018707026E-01 0.  0.
         14    1    1    2    0    0 -0.37873135276E-02 -0.20323768021E-01  0.11249271987E-01  0.23536044922E-01  0.00000000000E+00 0. -1.
     999901    1    3    3    0    0 -0.67258219982E-01  0.23996279945E-01 -0.11796339129E+00  0.89073837421E+00  0.88000000000E+00 0. -1.
        -11    1    4    4    0    0  0.38752399732E-01  0.46692881244E-02  0.45564159042E-01  0.59999203718E-01  0.51100000000E-03 0. -1.
         11    1    4    4    0    0  0.32293133778E-01 -0.83418000482E-02  0.61149960257E-01  0.69656377150E-01  0.51100000000E-03 0.  1.
</event>
<event>
 8    1  0.1161271E+005  0.1043930E+01  0.7957747E-01            NaN
         13   -1    0    0    0    0  0.00000000000E+00  0.00000000000E+00  0.74505805969E-08  0.10566000000E+00  0.10566000000E+00 0. -1.
     999900   -1    0    0    0    0 -0.00000000000E+00 -0.00000000000E+00 -0.74505805969E-08  0.93827000000E+00  0.93827000000E+00 0. -1.
     999902    2    1    2    0    0 -0.55904470341E-02  0.15245122405E-02  0.22694860414E-01  0.10205070641E+01  0.10202382241E+01 0.  0.
     999903    2    3    3    0    0  0.83741454625E-01  0.48320857634E-01 -0.82360770957E-01  0.12853914302E+00  0.19785807833E-01 0.  0.
         14    1    1    2    0    0  0.55904470341E-02 -0.15245122405E-02 -0.22694860414E-01  0.23422935871E-01  0.00000000000E+00 0.  1.
     999901    1    3    3    0    0 -0.89331901659E-01 -0.46796345394E-01  0.10505563137E+00  0.89196792110E+00  0.88000000000E+00 0.  1.
        -11    1    4    4    0    0  0.36808272185E-02  0.84444728688E-02 -0.70131432721E-02  0.11588913262E-01  0.51100000000E-03 0. -1.
         11    1    4    4    0    0  0.80060627407E-01  0.39876384765E-01 -0.75347627685E-01  0.11695022976E+00  0.51100000000E-03 0.  1.
</event>
<event>
 8    1  0.1161271E+005  0.1043930E+01  0.7957747E-01            NaN
         13   -1    0    0    0    0  0.00000000000E+00  0.00000000000E+00  0.74505805969E-08  0.10566000000E+00  0.10566000000E+00 0. -1.
     999900   -1    0    0    0    0 -0.00000000000E+00 -0.00000000000E+00 -0.74505805969E-08  0.93827000000E+00  0.93827000000E+00 0. -1.
     999902    2    1    2    0    0  0.22356462492E-02  0.57057550211E-02  0.22850585172E-01  0.10202719570E+01  0.10199976291E+01 0.  0.
     999903    2    3    3    0    0 -0.33468623942E-01  0.38426252915E-01 -0.11576141536E+00  0.12810677469E+00  0.20344894533E-01 0.  0.
         14    1    1    2    0    0 -0.22356462492E-02 -0.57057550211E-02 -0.22850585172E-01  0.23658042971E-01  0.00000000000E+00 0.  1.
     999901    1    3    3    0    0  0.35704270192E-01 -0.32720497894E-01  0.13861200053E+00  0.89216518234E+00  0.88000000000E+00 0.  1.
        -11    1    4    4    0    0 -0.15749900226E-01  0.18436347312E-01 -0.31776108910E-01  0.39974247683E-01  0.51100000000E-03 0.  1.
         11    1    4    4    0    0 -0.17718723716E-01  0.19989905603E-01 -0.83985306447E-01  0.88132527004E-01  0.51100000000E-03 0. -1.
</event>
<event>
 8    1  0.1161271E+005  0.1043930E+01  0.7957747E-01            NaN
         13   -1    0    0    0    0  0.00000000000E+00  0.00000000000E+00  0.74505805969E-08  0.10566000000E+00  0.10566000000E+00 0. -1.
     999900   -1    0    0    0    0 -0.00000000000E+00 -0.00000000000E+00 -0.74505805969E-08  0.93827000000E+00  0.93827000000E+00 0. -1.
     999902    2    1    2    0    0  0.23176550609E-01  0.49688589189E-04 -0.62623504492E-02  0.10199222512E+01  0.10196396553E+01 0.  0.
     999903    2    3    3    0    0 -0.42333466683E-01 -0.11132209954E+00 -0.47043263691E-01  0.12955248511E+00  0.19648040446E-01 0.  0.
         14    1    1    2    0    0 -0.23176550609E-01 -0.49688589189E-04  0.62623504492E-02  0.24007748754E-01  0.00000000000E+00 0.  1.
     999901    1    3    3    0    0  0.65510017292E-01  0.11137178813E+00  0.40780913242E-01  0.89036976613E+00  0.88000000000E+00 0. -1.
        -11    1    4    4    0    0 -0.13628782174E-01 -0.25363399459E-01 -0.19699691835E-01  0.34891040613E-01  0.51100000000E-03 0. -1.
         11    1    4    4    0    0 -0.28704684509E-01 -0.85958700080E-01 -0.27343571856E-01  0.94661444502E-01  0.51100000000E-03 0.  1.
</event>
<event>
 8    1  0.1161271E+005  0.1043930E+01  0.7957747E-01            NaN
         13   -1    0    0    0    0  0.00000000000E+00  0.00000000000E+00  0.74505805969E-08  0.10566000000E+00  0.10566000000E+00 0.  1.
     999900   -1    0    0    0    0 -0.00000000000E+00 -0.00000000000E+00 -0.74505805969E-08  0.93827000000E+00  0.93827000000E+00 0. -1.
     999902    2    1    2    0    0 -0.29509361795E-02  0.13844286541E-01  0.18437476092E-01  0.10206853701E+01  0.10204206544E+01 0.  0.
     999903    2    3    3    0    0  0.11063623722E+00  0.11611771236E-01 -0.63210290519E-01  0.12963352657E+00  0.20835070562E-01 0.  0.
         14    1    1    2    0    0  0.29509361795E-02 -0.13844286541E-01 -0.18437476092E-01  0.23244629891E-01  0.00000000000E+00 0. -1.
     999901    1    3    3    0    0 -0.11358717340E+00  0.22325153048E-02  0.81647766610E-01  0.89105184354E+00  0.88000000000E+00 0.  1.
        -11    1    4    4    0    0  0.80219174935E-01  0.69564744148E-02 -0.34696046918E-01  0.87678876340E-01  0.51100000000E-03 0. -1.
         11    1    4    4    0    0  0.30417062285E-01  0.46552968210E-02 -0.28514243601E-01  0.41954650228E-01  0.51100000000E-03 0.  1.
</event>
<event>
 8    1  0.1161271E+005  0.1043930E+01  0.7957747E-01            NaN
         13   -1    0    0    0    0  0.00000000000E+00  0.00000000000E+00  0.74505805969E-08  0.10566000000E+00  0.10566000000E+00 0. -1.
     999900   -1    0    0    0    0 -0.00000000000E+00 -0.00000000000E+00 -0.74505805969E-08  0.93827000000E+00  0.93827000000E+00 0. -1.
     999902    2    1    2    0    0 -0.56389999485E-02  0.58307950905E-02 -0.25453573746E-01  0.10172151931E+01  0.10168643312E+01 0.  0.
     999903    2    3    3    0    0  0.35739622931E-01 -0.29871256723E-01  0.11385012988E+00  0.12458293467E+00  0.19734307982E-01 0.  0.
         14    1    1    2    0    0  0.56389999485E-02 -0.58307950905E-02  0.25453573746E-01  0.26714806911E-01  0.00000000000E+00 0. -1.
     999901    1    3    3    0    0 -0.41378622879E-01  0.35702051813E-01 -0.13930370362E+00  0.89263225842E+00  0.88000000000E+00 0. -1.
        -11    1    4    4    0    0  0.50811283048E-02 -0.15751239906E-01  0.43730784446E-01  0.46760689181E-01  0.51100000000E-03 0. -1.
         11    1    4    4    0    0  0.30658494626E-01 -0.14120016817E-01  0.70119345431E-01  0.77822245485E-01  0.51100000000E-03 0.  1.
</event>
<event>
 8    1  0.1161271E+005  0.1043930E+01  0.7957747E-01            NaN
         13   -1    0    0    0    0  0.00000000000E+00  0.00000000000E+00  0.74505805969E-08  0.10566000000E+00  0.10566000000E+00 0.  1.
     999900   -1    0    0    0    0 -0.00000000000E+00 -0.00000000000E+00 -0.74505805969E-08  0.93827000000E+00  0.93827000000E+00 0.  1.
     999902    2    1    2    0    0 -0.83077724675E-02 -0.13522289557E-01  0.17854327918E-01  0.10200417513E+01  0.10197619948E+01 0.  0.
     999903    2    3    3    0    0  0.13601962493E-01 -0.13684263332E-01  0.12975419749E+00  0.13268520321E+00  0.19923326474E-01 0.  0.
         14    1    1    2    0    0  0.83077724675E-02  0.13522289557E-01 -0.17854327918E-01  0.23888248652E-01  0.00000000000E+00 0. -1.
     999901    1    3    3    0    0 -0.21909734960E-01  0.16197377482E-03 -0.11189986957E+00  0.88735654814E+00  0.88000000000E+00 0.  1.
        -11    1    4    4    0    0  0.18985321009E-02 -0.11841156765E-01  0.98980908068E-01  0.99706061504E-01  0.51100000000E-03 0. -1.
         11    1    4    4    0    0  0.11703430392E-01 -0.18431065669E-02  0.30773289419E-01  0.32979141703E-01  0.51100000000E-03 0.  1.
</event>
<event>
 8    1  0.1161271E+005  0.1043930E+01  0.7957747E-01            NaN
         13   -1    0    0    0    0  0.00000000000E+00  0.00000000000E+00  0.74505805969E-08  0.10566000000E+00  0.10566000000E+00 0.  1.
     999900   -1    0    0    0    0 -0.00000000000E+00 -0.00000000000E+00 -0.74505805969E-08  0.93827000000E+00  0.93827000000E+00 0.  1.
     999902    2    1    2    0    0  0.12850071443E-01  0.20991881152E-01 -0.20915443412E-02  0.10192286242E+01  0.10189292568E+01 0.  0.
     999903    2    3    3    0    0 -0.12313986278E+00  0.24846019270E-02 -0.29723088949E-01  0.12816224962E+00  0.19300289090E-01 0.  0.
         14    1    1    2    0    0 -0.12850071443E-01 -0.20991881152E-01  0.20915443412E-02  0.24701375835E-01  0.00000000000E+00 0.  1.
     999901    1    3    3    0    0  0.13598993422E+00  0.18507279225E-01  0.27631544608E-01  0.89106637455E+00  0.88000000000E+00 0. -1.
        -11    1    4    4    0    0 -0.18910511583E-01 -0.65304764761E-02 -0.36581058008E-02  0.20344469282E-01  0.51100000000E-03 0.  1.
         11    1    4    4    0    0 -0.10422935119E+00  0.90150784031E-02 -0.26064983148E-01  0.10781778033E+00  0.51100000000E-03 0. -1.
</event>
<event>
 8    1  0.1161271E+005  0.1043930E+01  0.7957747E-01            NaN
         13   -1    0    0    0    0  0.00000000000E+00  0.00000000000E+00  0.74505805969E-08  0.10566000000E+00  0.10566000000E+00 0.  1.
     999900   -1    0    0    0    0 -0.00000000000E+00 -0.00000000000E+00 -0.74505805969E-08  0.93827000000E+00  0.93827000000E+00 0. -1.
     999902    2    1    2    0    0 -0.18945807080E-01  0.13236951536E-01  0.29489559269E-02  0.10206307118E+01  0.10203647352E+01 0.  0.
     999903    2    3    3    0    0  0.87012463823E-01 -0.42187073302E-01 -0.81902459103E-01  0.12849914055E+00  0.21286105803E-01 0.  0.
         14    1    1    2    0    0  0.18945807080E-01 -0.13236951536E-01 -0.29489559269E-02  0.23299288250E-01  0.00000000000E+00 0. -1.
     999901    1    3    3    0    0 -0.10595827090E+00  0.55424024838E-01  0.84851415030E-01  0.89213157120E+00  0.88000000000E+00 0.  1.
        -11    1    4    4    0    0  0.21442488216E-01 -0.11123378912E-01 -0.93984215884E-02  0.25924916754E-01  0.51100000000E-03 0. -1.
         11    1    4    4    0    0  0.65569975607E-01 -0.31063694390E-01 -0.72504037515E-01  0.10257422380E+00  0.51100000000E-03 0.  1.
</event>
<event>
 8    1  0.1208772E+005  0.1043930E+01  0.7957747E-01            NaN
         13   -1    0    0    0    0  0.00000000000E+00  0.00000000000E+00  0.74505805969E-08  0.10566000000E+00  0.10566000000E+00 0.  1.
     999900   -1    0    0    0    0 -0.00000000000E+00 -0.00000000000E+00 -0.74505805969E-08  0.93827000000E+00  0.93827000000E+00 0.  1.
     999902    2    1    2    0    0 -0.10813778866E-01 -0.86437483718E-02 -0.19951059875E-01  0.10196463226E+01  0.10193571141E+01 0.  0.
     999903    2    3    3    0    0  0.10463221663E+00  0.10573719626E-01  0.69184084408E-01  0.12743437303E+00  0.19833748818E-01 0.  0.
         14    1    1    2    0    0  0.10813778866E-01  0.86437483718E-02  0.19951059875E-01  0.24283677427E-01  0.00000000000E+00 0.  1.
     999901    1    3    3    0    0 -0.11544599549E+00 -0.19217467998E-01 -0.89135144283E-01  0.89221194954E+00  0.88000000000E+00 0.  1.
        -11    1    4    4    0    0  0.39707308197E-01  0.13724132610E-01  0.27350131634E-01  0.50132952851E-01  0.51100000000E-03 0. -1.
         11    1    4    4    0    0  0.64924908431E-01 -0.31504129840E-02  0.41833952775E-01  0.77301420184E-01  0.51100000000E-03 0.  1.
</event>
<event>
 8    1  0.1161271E+005  0.1043930E+01  0.7957747E-01            NaN
         13   -1    0    0    0    0  0.00000000000E+00  0.00000000000E+00  0.74505805969E-08  0.10566000000E+00  0.10566000000E+00 0. -1.
     999900   -1    0    0    0    0 -0.00000000000E+00 -0.00000000000E+00 -0.74505805969E-08  0.93827000000E+00  0.93827000000E+00 0.  1.
     999902    2    1    2    0    0  0.17783503279E-01  0.14626895069E-01  0.47025776825E-02  0.10204286535E+01  0.10201579896E+01 0.  0.
     999903    2    3    3    0    0 -0.72509326955E-01  0.69677615587E-01 -0.79872983086E-01  0.13007119584E+00  0.20645821612E-01 0.  0.
         14    1    1    2    0    0 -0.17783503279E-01 -0.14626895069E-01 -0.47025776825E-02  0.23501346453E-01  0.00000000000E+00 0.  1.
     999901    1    3    3    0    0  0.90292830234E-01 -0.55050720518E-01  0.84575560768E-01  0.89035745771E+00  0.88000000000E+00 0. -1.
        -11    1    4    4    0    0 -0.45844353868E-01  0.30260924120E-01 -0.39479340390E-01  0.67648412759E-01  0.51100000000E-03 0.  1.
         11    1    4    4    0    0 -0.26664973087E-01  0.39416691467E-01 -0.40393642696E-01  0.62422783078E-01  0.51100000000E-03 0. -1.
</event>
<event>
 8    1  0.1161271E+005  0.1043930E+01  0.7957747E-01            NaN
         13   -1    0    0    0    0  0.00000000000E+00  0.00000000000E+00  0.74505805969E-08  0.10566000000E+00  0.10566000000E+00 0. -1.
     999900   -1    0    0    0    0 -0.00000000000E+00 -0.00000000000E+00 -0.74505805969E-08  0.93827000000E+00  0.93827000000E+00 0. -1.
     999902    2    1    2    0    0 -0.23320093794E-01  0.40932072265E-02 -0.14572379359E-03  0.10202529572E+01  0.10199781833E+01 0.  0.
     999903    2    3    3    0    0  0.10723185493E+00  0.11748037566E-01 -0.66028837913E-01  0.12815263075E+00  0.20654351419E-01 0.  0.
         14    1    1    2    0    0  0.23320093794E-01 -0.40932072265E-02  0.14572379359E-03  0.23677042792E-01  0.00000000000E+00 0.  1.
     999901    1    3    3    0    0 -0.13055194873E+00 -0.76548303394E-02  0.65883114119E-01  0.89210032646E+00  0.88000000000E+00 0.  1.
        -11    1    4    4    0    0  0.71698313857E-01  0.17431870963E-01 -0.42460666721E-01  0.85133352305E-01  0.51100000000E-03 0.  1.
         11    1    4    4    0    0  0.35533541076E-01 -0.56838333971E-02 -0.23568171191E-01  0.43019278443E-01  0.51100000000E-03 0. -1.
</event>
<event>
 8    1  0.1161271E+005  0.1043930E+01  0.7957747E-01            NaN
         13   -1    0    0    0    0  0.00000000000E+00  0.00000000000E+00  0.74505805969E-08  0.10566000000E+00  0.10566000000E+00 0.  1.
     999900   -1    0    0    0    0 -0.00000000000E+00 -0.00000000000E+00 -0.74505805969E-08  0.93827000000E+00  0.93827000000E+00 0.  1.
     999902    2    1    2    0    0  0.68351698129E-02  0.19890062273E-02 -0.16802649423E-01  0.10256815831E+01  0.10255192369E+01 0.  0.
     999903    2    3    3    0    0  0.16808551876E-01 -0.24785535219E-01  0.12863959123E+00  0.13328604871E+00  0.17893467423E-01 0.  0.
         14    1    1    2    0    0 -0.68351698129E-02 -0.19890062273E-02  0.16802649423E-01  0.18248416911E-01  0.00000000000E+00 0.  1.
     999901    1    3    3    0    0 -0.99733820630E-02  0.26774541447E-01 -0.14544224065E+00  0.89239553438E+00  0.88000000000E+00 0.  1.
        -11    1    4    4    0    0  0.66739605065E-02 -0.81789681670E-02  0.17410478794E-01  0.20367208006E-01  0.51100000000E-03 0.  1.
         11    1    4    4    0    0  0.10134591369E-01 -0.16606567052E-01  0.11122911243E+00  0.11291884070E+00  0.51100000000E-03 0. -1.
</event>
<event>
 8    1  0.1161271E+005  0.1043930E+01  0.7957747E-01            NaN
         13   -1    0    0    0    0  0.00000000000E+00  0.00000000000E+00  0.74505805969E-08  0.10566000000E+00  0.10566000000E+00 0.  1.
     999900   -1    0    0    0    0 -0.00000000000E+00 -0.00000000000E+00 -0.74505805969E-08  0.93827000000E+00  0.93827000000E+00 0.  1.
     999902    2    1    2    0    0  0.10215975675E-01  0.18422357135E-01  0.10325497497E-01  0.10204701343E+01  0.10202004360E+01 0.  0.
     999903    2    3    3    0    0 -0.81120939201E-01  0.53675385118E-01 -0.83915708940E-01  0.13003955697E+00  0.20168947076E-01 0.  0.
         14    1    1    2    0    0 -0.10215975675E-01 -0.18422357135E-01 -0.10325497497E-01  0.23459865727E-01  0.00000000000E+00 0. -1.
     999901    1    3    3    0    0  0.91336914876E-01 -0.35253027983E-01  0.94241206437E-01  0.89043057730E+00  0.88000000000E+00 0. -1.
        -11    1    4    4    0    0 -0.56963788122E-01  0.45406122351E-01 -0.53845720402E-01  0.90588143986E-01  0.51100000000E-03 0.  1.
         11    1    4    4    0    0 -0.24157151080E-01  0.82692627676E-02 -0.30069988538E-01  0.39451412987E-01  0.51100000000E-03 0. -1.
</event>
<event>
 8    1  0.1161271E+005  0.1043930E+01  0.7957747E-01            NaN
         13   -1    0    0    0    0  0.00000000000E+00  0.00000000000E+00  0.74505805969E-08  0.10566000000E+00  0.10566000000E+00 0. -1.
     999900   -1    0    0    0    0 -0.00000000000E+00 -0.00000000000E+00 -0.74505805969E-08  0.93827000000E+00  0.93827000000E+00 0. -1.
     999902    2    1    2    0    0  0.22703615338E-01 -0.46242946053E-02 -0.82305485306E-02  0.10193417878E+01  0.10190451904E+01 0.  0.
     999903    2    3    3    0    0  0.98841809844E-01 -0.79497850241E-01  0.30554958000E-01  0.13203835069E+00  0.20270891144E-01 0.  0.
         14    1    1    2    0    0 -0.22703615338E-01  0.46242946053E-02  0.82305485306E-02  0.24588212199E-01  0.00000000000E+00 0. -1.
     999901    1    3    3    0    0 -0.76138194506E-01  0.74873555636E-01 -0.38785506530E-01  0.88730343711E+00  0.88000000000E+00 0. -1.
        -11    1    4    4    0    0  0.58552170453E-01 -0.34269927054E-01  0.14589167933E-01  0.69396610198E-01  0.51100000000E-03 0.  1.
         11    1    4    4    0    0  0.40289639391E-01 -0.45227923187E-01  0.15965790066E-01  0.62641740489E-01  0.51100000000E-03 0. -1.
</event>
<event>
 8    1  0.1161271E+005  0.1043930E+01  0.7957747E-01            NaN
         13   -1    0    0    0    0  0.00000000000E+00  0.00000000000E+00  0.74505805969E-08  0.10566000000E+00  0.10566000000E+00 0.  1.
     999900   -1    0    0    0    0 -0.00000000000E+00 -0.00000000000E+00 -0.74505805969E-08  0.93827000000E+00  0.93827000000E+00 0. -1.
     999902    2    1    2    0    0  0.10737100936E-01  0.20853931254E-01 -0.55961378420E-02  0.10198159264E+01  0.10195307917E+01 0.  0.
     999903    2    3    3    0    0  0.74903671952E-01  0.80455539884E-01 -0.72168461750E-01  0.13296668620E+00  0.19702761182E-01 0.  0.
         14    1    1    2    0    0 -0.10737100936E-01 -0.20853931254E-01  0.55961378420E-02  0.24114073568E-01  0.00000000000E+00 0.  1.
     999901    1    3    3    0    0 -0.64166571016E-01 -0.59601608630E-01  0.66572323908E-01  0.88684924023E+00  0.88000000000E+00 0.  1.
        -11    1    4    4    0    0  0.39106761997E-01  0.54704316000E-01 -0.38541289973E-01  0.77508665171E-01  0.51100000000E-03 0. -1.
         11    1    4    4    0    0  0.35796909955E-01  0.25751223884E-01 -0.33627171777E-01  0.55458021030E-01  0.51100000000E-03 0.  1.
</event>
<event>
 8    1  0.1161271E+005  0.1043930E+01  0.7957747E-01            NaN
         13   -1    0    0    0    0  0.00000000000E+00  0.00000000000E+00  0.74505805969E-08  0.10566000000E+00  0.10566000000E+00 0.  1.
     999900   -1    0    0    0    0 -0.00000000000E+00 -0.00000000000E+00 -0.74505805969E-08  0.93827000000E+00  0.93827000000E+00 0.  1.
     999902    2    1    2    0    0 -0.47207687699E-02 -0.16072035407E-01  0.15312672878E-01  0.10212347597E+01  0.10209825467E+01 0.  0.
     999903    2    3    3    0    0  0.10599037383E+00 -0.21661512216E-01  0.73492426980E-01  0.13237420648E+00  0.20460040651E-01 0.  0.
         14    1    1    2    0    0  0.47207687699E-02  0.16072035407E-01 -0.15312672878E-01  0.22695240262E-01  0.00000000000E+00 0. -1.
     999901    1    3    3    0    0 -0.11071114260E+00  0.55894768094E-02 -0.58179754102E-01  0.88886055326E+00  0.88000000000E+00 0.  1.
        -11    1    4    4    0    0  0.12674393515E-01 -0.39234186885E-02  0.17990071898E-01  0.22359277114E-01  0.51100000000E-03 0.  1.
         11    1    4    4    0    0  0.93315980310E-01 -0.17738093528E-01  0.55502355082E-01  0.11001492937E+00  0.51100000000E-03 0. -1.
</event>
<event>
 8    1  0.1161271E+005  0.1043930E+01  0.7957747E-01            NaN
         13   -1    0    0    0    0  0.00000000000E+00  0.00000000000E+00  0.74505805969E-08  0.10566000000E+00  0.10566000000E+00 0. -1.
     999900   -1    0    0    0    0 -0.00000000000E+00 -0.00000000000E+00 -0.74505805969E-08  0.93827000000E+00  0.93827000000E+00 0. -1.
     999902    2    1    2    0    0  0.26577771015E-02  0.14403650765E-01 -0.21234044931E-01  0.10181343880E+01  0.10178075547E+01 0.  0.
     999903    2    3    3    0    0  0.11151006327E+00  0.84032336762E-02 -0.64245581081E-01  0.13036481347E+00  0.19036316763E-01 0.  0.
         14    1    1    2    0    0 -0.26577771015E-02 -0.14403650765E-01  0.21234044931E-01  0.25795612004E-01  0.00000000000E+00 0. -1.
     999901    1    3    3    0    0 -0.10885228617E+00  0.60004170891E-02  0.43011536149E-01  0.88776957452E+00  0.88000000000E+00 0.  1.
        -11    1    4    4    0    0  0.10568049093E+00  0.85387529700E-02 -0.65148315299E-01  0.12444211736E+00  0.51100000000E-03 0. -1.
         11    1    4    4    0    0  0.58295723430E-02 -0.13551929376E-03  0.90273421824E-03  0.59226961132E-02  0.51100000000E-03 0.  1.
</event>
<event>
 8    1  0.1161271E+005  0.1043930E+01  0.7957747E-01            NaN
         13   -1    0    0    0    0  0.00000000000E+00  0.00000000000E+00  0.74505805969E-08  0.10566000000E+00  0.10566000000E+00 0.  1.
     999900   -1    0    0    0    0 -0.00000000000E+00 -0.00000000000E+00 -0.74505805969E-08  0.93827000000E+00  0.93827000000E+00 0.  1.
     999902    2    1    2    0    0 -0.44509705259E-02 -0.67631578860E-04 -0.23629428318E-01  0.10198849258E+01  0.10196014399E+01 0.  0.
     999903    2    3    3    0    0  0.88057487278E-01 -0.59441645225E-01 -0.74155581672E-01  0.13160795294E+00  0.23112177136E-01 0.  0.
         14    1    1    2    0    0  0.44509705259E-02  0.67631578860E-04  0.23629428318E-01  0.24045074241E-01  0.00000000000E+00 0.  1.
     999901    1    3    3    0    0 -0.92508457804E-01  0.59374013646E-01  0.50526153354E-01  0.88827697282E+00  0.88000000000E+00 0. -1.
        -11    1    4    4    0    0  0.30741805497E-02 -0.28510885312E-02 -0.10424778002E-01  0.11247951336E-01  0.51100000000E-03 0. -1.
         11    1    4    4    0    0  0.84983306729E-01 -0.56590556694E-01 -0.63730803669E-01  0.12036000161E+00  0.51100000000E-03 0.  1.
</event>
<event>
 8    1  0.1161271E+005  0.1043930E+01  0.7957747E-01            NaN
         13   -1    0    0    0    0  0.00000000000E+00  0.00000000000E+00  0.74505805969E-08  0.10566000000E+00  0.10566000000E+00 0.  1.
     999900   -1    0    0    0    0 -0.00000000000E+00 -0.00000000000E+00 -0.74505805969E-08  0.93827000000E+00  0.93827000000E+00 0.  1.
     999902    2    1    2    0    0  0.72674290664E-02  0.70103402961E-02  0.22082089704E-01  0.10196487504E+01  0.10193596005E+01 0.  0.
     999903    2    3    3    0    0  0.63184364868E-01 -0.81355859949E-01  0.79181514852E-01  0.13161967801E+00  0.21047266672E-01 0.  0.
         14    1    1    2    0    0 -0.72674290664E-02 -0.70103402961E-02 -0.22082089704E-01  0.24281249597E-01  0.00000000000E+00 0. -1.
     999901    1    3    3    0    0 -0.55916935802E-01  0.88366200245E-01 -0.57099425148E-01  0.88802907239E+00  0.88000000000E+00 0.  1.
        -11    1    4    4    0    0  0.47862041897E-01 -0.54557118580E-01  0.44265978193E-01  0.85011717949E-01  0.51100000000E-03 0.  1.
         11    1    4    4    0    0  0.15322322971E-01 -0.26798741370E-01  0.34915536659E-01  0.46607960065E-01  0.51100000000E-03 0. -1.
</event>
<event>
 8    1  0.1161271E+005  0.1043930E+01  0.7957747E-01            NaN
         13   -1    0    0    0    0  0.00000000000E+00  0.00000000000E+00  0.74505805969E-08  0.10566000000E+00  0.10566000000E+00 0. -1.
     999900   -1    0    0    0    0 -0.00000000000E+00 -0.00000000000E+00 -0.74505805969E-08  0.93827000000E+00  0.93827000000E+00 0.  1.
     999902    2    1    2    0    0  0.12821746056E-01 -0.16102025438E-01  0.11000538665E-01  0.10205915286E+01  0.10203246464E+01 0.  0.
     999903    2    3    3    0    0 -0.18935544723E-01 -0.91373559941E-01  0.92989296355E-01  0.13301252605E+00  0.18374997679E-01 0.  0.
         14    1    1    2    0    0 -0.12821746056E-01  0.16102025438E-01 -0.11000538665E-01  0.23338471374E-01  0.00000000000E+00 0.  1.
     999901    1    3    3    0    0  0.31757290779E-01  0.75271534503E-01 -0.81988757689E-01  0.88757900257E+00  0.88000000000E+00 0.  1.
        -11    1    4    4    0    0 -0.11867363627E-01 -0.30757479134E-01  0.23272685784E-01  0.40357599863E-01  0.51100000000E-03 0. -1.
         11    1    4    4    0    0 -0.70681810965E-02 -0.60616080807E-01  0.69716610571E-01  0.92654926188E-01  0.51100000000E-03 0.  1.
</event>
<event>
 8    1  0.1161271E+005  0.1043930E+01  0.7957747E-01            NaN
         13   -1    0    0    0    0  0.00000000000E+00  0.00000000000E+00  0.74505805969E-08  0.10566000000E+00  0.10566000000E+00 0.  1.
     999900   -1    0    0    0    0 -0.00000000000E+00 -0.00000000000E+00 -0.74505805969E-08  0.93827000000E+00  0.93827000000E+00 0.  1.
     999902    2    1    2    0    0  0.44883803966E-02  0.79349313515E-02 -0.19794209633E-01  0.10221373538E+01  0.10219050105E+01 0.  0.
     999903    2    3    3    0    0  0.61316281442E-01 -0.11420332812E+00 -0.13382112408E-01  0.13186308158E+00  0.20166924078E-01 0.  0.
         14    1    1    2    0    0 -0.44883803966E-02 -0.79349313515E-02  0.19794209633E-01  0.21792646217E-01  0.00000000000E+00 0.  1.
     999901    1    3    3    0    0 -0.56827901045E-01  0.12213825947E+00 -0.64120972253E-02  0.89027427221E+00  0.88000000000E+00 0.  1.
        -11    1    4    4    0    0  0.16709124268E-01 -0.35843850625E-01  0.49233616798E-02  0.39855703139E-01  0.51100000000E-03 0.  1.
         11    1    4    4    0    0  0.44607157174E-01 -0.78359477494E-01 -0.18305474087E-01  0.92007378437E-01  0.51100000000E-03 0. -1.
</event>
<event>
 8    1  0.1161271E+005  0.1043930E+01  0.7957747E-01            NaN
         13   -1    0    0    0    0  0.00000000000E+00  0.00000000000E+00  0.74505805969E-08  0.10566000000E+00  0.10566000000E+00 0. -1.
     999900   -1    0    0    0    0 -0.00000000000E+00 -0.00000000000E+00 -0.74505805969E-08  0.93827000000E+00  0.93827000000E+00 0. -1.
     999902    2    1    2    0    0  0.17767732364E-01 -0.14650535593E-01  0.37507992608E-02  0.10205976405E+01  0.10203308996E+01 0.  0.
     999903    2    3    3    0    0  0.38112216342E-01 -0.98765445437E-01 -0.77470384783E-01  0.13263024420E+00  0.19543973784E-01 0.  0.
         14    1    1    2    0    0 -0.17767732364E-01  0.14650535593E-01 -0.37507992608E-02  0.23332359538E-01  0.00000000000E+00 0. -1.
     999901    1    3    3    0    0 -0.20344483977E-01  0.84114909844E-01  0.81221184044E-01  0.88796739626E+00  0.88000000000E+00 0. -1.
        -11    1    4    4    0    0  0.26739225637E-01 -0.54108590220E-01 -0.53641938532E-01  0.80749268812E-01  0.51100000000E-03 0.  1.
         11    1    4    4    0    0  0.11372990705E-01 -0.44656855217E-01 -0.23828446251E-01  0.51880975388E-01  0.51100000000E-03 0. -1.
</event>
<event>
 8    1  0.1161271E+005  0.1043930E+01  0.7957747E-01            NaN
         13   -1    0    0    0    0  0.00000000000E+00  0.00000000000E+00  0.74505805969E-08  0.10566000000E+00  0.10566000000E+00 0. -1.
     999900   -1    0    0    0    0 -0.00000000000E+00 -0.00000000000E+00 -0.74505805969E-08  0.93827000000E+00  0.93827000000E+00 0.  1.
     999902    2    1    2    0    0  0.72293997916E-02  0.22088701450E-01 -0.40491502874E-02  0.10203382521E+01  0.10200654773E+01 0.  0.
     999903    2    3    3    0    0  0.75307799754E-01 -0.98746109769E-01 -0.29000810925E-01  0.12912654572E+00  0.20262252493E-01 0.  0.
         14    1    1    2    0    0 -0.72293997916E-02 -0.22088701450E-01  0.40491502874E-02  0.23591747946E-01  0.00000000000E+00 0. -1.
     999901    1    3    3    0    0 -0.68078399962E-01  0.12083481122E+00  0.24951660637E-01  0.89121170634E+00  0.88000000000E+00 0.  1.
        -11    1    4    4    0    0  0.41351700005E-01 -0.64575055975E-01 -0.99693220285E-02  0.77327546516E-01  0.51100000000E-03 0.  1.
         11    1    4    4    0    0  0.33956099749E-01 -0.34171053794E-01 -0.19031488896E-01  0.51798999201E-01  0.51100000000E-03 0. -1.
</event>
<event>
 8    1  0.1161271E+005  0.1043930E+01  0.7957747E-01            NaN
         13   -1    0    0    0    0  0.00000000000E+00  0.00000000000E+00  0.74505805969E-08  0.10566000000E+00  0.10566000000E+00 0. -1.
     999900   -1    0    0    0    0 -0.00000000000E+00 -0.00000000000E+00 -0.74505805969E-08  0.93827000000E+00  0.93827000000E+00 0.  1.
     999902    2    1    2    0    0 -0.71549144908E-02  0.21414618942E-01  0.47220686548E-02  0.10208632135E+01  0.10206025789E+01 0.  0.
     999903    2    3    3    0    0  0.22876280763E-01  0.13010703036E+00 -0.14859703823E-02  0.13364596125E+00  0.20195823357E-01 0.  0.
         14    1    1    2    0    0  0.71549144908E-02 -0.21414618942E-01 -0.47220686548E-02  0.23066786473E-01  0.00000000000E+00 0.  1.
     999901    1    3    3    0    0 -0.30031195254E-01 -0.10869241141E+00  0.62080390372E-02  0.88721725228E+00  0.88000000000E+00 0. -1.
        -11    1    4    4    0    0  0.89929746834E-02  0.94795663833E-01  0.39935821941E-02  0.95306354956E-01  0.51100000000E-03 0.  1.
         11    1    4    4    0    0  0.13883306080E-01  0.35311366523E-01 -0.54795525765E-02  0.38339606295E-01  0.51100000000E-03 0. -1.
</event>
<event>
 8    1  0.1161271E+005  0.1043930E+01  0.7957747E-01            NaN
         13   -1    0    0    0    0  0.00000000000E+00  0.00000000000E+00  0.74505805969E-08  0.10566000000E+00  0.10566000000E+00 0.  1.
     999900   -1    0    0    0    0 -0.00000000000E+00 -0.00000000000E+00 -0.74505805969E-08  0.93827000000E+00  0.93827000000E+00 0.  1.
     999902    2    1    2    0    0 -0.16923398054E-01  0.16486012212E-01 -0.59443526168E-02  0.10195676247E+01  0.10192765160E+01 0.  0.
     999903    2    3    3    0    0  0.67004146528E-01 -0.32361086880E-01 -0.10337769131E+00  0.12888073962E+00  0.19659663996E-01 0.  0.
         14    1    1    2    0    0  0.16923398054E-01 -0.16486012212E-01  0.59443526168E-02  0.24362375261E-01  0.00000000000E+00 0. -1.
     999901    1    3    3    0    0 -0.83927544581E-01  0.48847099092E-01  0.97433338696E-01  0.89068688512E+00  0.88000000000E+00 0. -1.
        -11    1    4    4    0    0  0.22189955621E-01 -0.17983789160E-01 -0.27903711277E-01  0.39933557656E-01  0.51100000000E-03 0. -1.
         11    1    4    4    0    0  0.44814190907E-01 -0.14377297720E-01 -0.75473980035E-01  0.88947181966E-01  0.51100000000E-03 0.  1.
</event>
<event>
 8    1  0.1161271E+005  0.1043930E+01  0.7957747E-01            NaN
         13   -1    0    0    0    0  0.00000000000E+00  0.00000000000E+00  0.74505805969E-08  0.10566000000E+00  0.10566000000E+00 0. -1.
     999900   -1    0    0    0    0 -0.00000000000E+00 -0.00000000000E+00 -0.74505805969E-08  0.93827000000E+00  0.93827000000E+00 0. -1.
     999902    2    1    2    0    0 -0.12435500356E-01  0.68563071922E-03  0.19520049881E-01  0.10207752142E+01  0.10205125643E+01 0.  0.
     999903    2    3    3    0    0  0.17566493152E-01  0.90551939083E-01  0.93084363036E-01  0.13263796063E+00  0.20491329982E-01 0.  0.
         14    1    1    2    0    0  0.12435500356E-01 -0.68563071922E-03 -0.19520049881E-01  0.23154785811E-01  0.00000000000E+00 0. -1.
     999901    1    3    3    0    0 -0.30001993508E-01 -0.89866308364E-01 -0.73564313155E-01  0.88813725356E+00  0.88000000000E+00 0.  1.
        -11    1    4    4    0    0  0.13862743097E-01  0.83628988309E-01  0.76095694229E-01  0.11391575454E+00  0.51100000000E-03 0. -1.
         11    1    4    4    0    0  0.37037500548E-02  0.69229507740E-02  0.16988668807E-01  0.18722206086E-01  0.51100000000E-03 0.  1.
</event>
<event>
 8    1  0.1161271E+005  0.1043930E+01  0.7957747E-01            NaN
         13   -1    0    0    0    0  0.00000000000E+00  0.00000000000E+00  0.74505805969E-08  0.10566000000E+00  0.10566000000E+00 0.  1.
     999900   -1    0    0    0    0 -0.00000000000E+00 -0.00000000000E+00 -0.74505805969E-08  0.93827000000E+00  0.93827000000E+00 0. -1.
     999902    2    1    2    0    0  0.23194651717E-01 -0.63121668010E-02 -0.27026186245E-02  0.10197403438E+01  0.10194533974E+01 0.  0.
     999903    2    3    3    0    0 -0.74151433256E-01  0.74085432958E-01 -0.70747010517E-01  0.12812940089E+00  0.20613525787E-01 0.  0.
         14    1    1    2    0    0 -0.23194651717E-01  0.63121668010E-02  0.27026186245E-02  0.24189656166E-01  0.00000000000E+00 0.  1.
     999901    1    3    3    0    0  0.97346084972E-01 -0.80397599760E-01  0.68044391892E-01  0.89161094294E+00  0.88000000000E+00 0.  1.
        -11    1    4    4    0    0 -0.72033748143E-02  0.16122713653E-02 -0.93422283298E-02  0.11917482068E-01  0.51100000000E-03 0. -1.
         11    1    4    4    0    0 -0.66948058441E-01  0.72473161593E-01 -0.61404782187E-01  0.11621191882E+00  0.51100000000E-03 0.  1.
</event>
<event>
 7    1  0.1161271E+005  0.1043930E+01  0.7957747E-01            NaN
         13   -1    0    0    0    0  0.00000000000E+00  0.00000000000E+00  0.74505805969E-08  0.10566000000E+00  0.10566000000E+00 0.  1.
     999900   -1    0    0    0    0 -0.00000000000E+00 -0.00000000000E+00 -0.74505805969E-08  0.93827000000E+00  0.93827000000E+00 0.  1.
     999902    2    1    2    0    0  0.15695152500E-01 -0.13333727793E-01 -0.12705000907E-01  0.10197320010E+01  0.10194448541E+01 0.  0.
         14    1    1    2    0    0 -0.15695152500E-01  0.13333727793E-01  0.12705000907E-01  0.24197999027E-01  0.00000000000E+00 0.  1.
     999901    1    3    3    0    0  0.56267364440E-01  0.78523307581E-01 -0.87515875122E-01  0.88960157067E+00  0.88000000000E+00 0. -1.
        -11    1    3    3    0    0 -0.20297887014E-01 -0.57587833255E-01  0.64868513705E-01  0.89087305198E-01  0.51100000000E-03 0.  1.
         11    1    3    3    0    0 -0.20274324927E-01 -0.34269202120E-01  0.99423605104E-02  0.41043125108E-01  0.51100000000E-03 0. -1.
</event>
<event>
 8    1  0.1161271E+005  0.1043930E+01  0.7957747E-01            NaN
         13   -1    0    0    0    0  0.00000000000E+00  0.00000000000E+00  0.74505805969E-08  0.10566000000E+00  0.10566000000E+00 0. -1.
     999900   -1    0    0    0    0 -0.00000000000E+00 -0.00000000000E+00 -0.74505805969E-08  0.93827000000E+00  0.93827000000E+00 0.  1.
     999902    2    1    2    0    0 -0.19740573620E-01 -0.12945344436E-01  0.89965078746E-03  0.10203062501E+01  0.10200327261E+01 0.  0.
     999903    2    3    3    0    0 -0.11553083348E+00 -0.28891884939E-01 -0.56116889499E-01  0.13313042087E+00  0.19811339577E-01 0.  0.
         14    1    1    2    0    0  0.19740573620E-01  0.12945344436E-01 -0.89965078746E-03  0.23623749934E-01  0.00000000000E+00 0.  1.
     999901    1    3    3    0    0  0.95790259856E-01  0.15946540503E-01  0.57016540287E-01  0.88717582919E+00  0.88000000000E+00 0. -1.
        -11    1    4    4    0    0 -0.90340509503E-01 -0.13988996996E-01 -0.43846393893E-01  0.10138967932E+00  0.51100000000E-03 0. -1.
         11    1    4    4    0    0 -0.25190323973E-01 -0.14902887944E-01 -0.12270495606E-01  0.31740741553E-01  0.51100000000E-03 0.  1.
</event>
<event>
 8    1  0.1161271E+005  0.1043930E+01  0.7957747E-01            NaN
         13   -1    0    0    0    0  0.00000000000E+00  0.00000000000E+00  0.74505805969E-08  0.10566000000E+00  0.10566000000E+00 0.  1.
     999900   -1    0    0    0    0 -0.00000000000E+00 -0.00000000000E+00 -0.74505805969E-08  0.93827000000E+00  0.93827000000E+00 0. -1.
     999902    2    1    2    0    0  0.16372439189E-01 -0.47602686996E-02  0.18450804223E-01  0.10188073190E+01  0.10184975229E+01 0.  0.
     999903    2    3    3    0    0  0.59737290298E-01  0.11121421229E+00 -0.19834199091E-01  0.12931514253E+00  0.19795599690E-01 0.  0.
         14    1    1    2    0    0 -0.16372439189E-01  0.47602686996E-02 -0.18450804223E-01  0.25122680978E-01  0.00000000000E+00 0. -1.
     999901    1    3    3    0    0 -0.43364851110E-01 -0.11597448099E+00  0.38285003313E-01  0.88949217649E+00  0.88000000000E+00 0.  1.
        -11    1    4    4    0    0  0.39601251477E-01  0.86439563097E-01 -0.86080671299E-02  0.95469456517E-01  0.51100000000E-03 0.  1.
         11    1    4    4    0    0  0.20136038822E-01  0.24774649196E-01 -0.11226131961E-01  0.33845686018E-01  0.51100000000E-03 0. -1.
</event>
<event>
 8    1  0.1161271E+005  0.1043930E+01  0.7957747E-01            NaN
         13   -1    0    0    0    0  0.00000000000E+00  0.00000000000E+00  0.74505805969E-08  0.10566000000E+00  0.10566000000E+00 0. -1.
     999900   -1    0    0    0    0 -0.00000000000E+00 -0.00000000000E+00 -0.74505805969E-08  0.93827000000E+00  0.93827000000E+00 0.  1.
     999902    2    1    2    0    0  0.22607268989E-01 -0.66195131798E-02  0.46449891593E-02  0.10199199502E+01  0.10196372994E+01 0.  0.
     999903    2    3    3    0    0 -0.26558537609E-02  0.95147467406E-01  0.87119819567E-01  0.12986554663E+00  0.14666394481E-01 0.  0.
         14    1    1    2    0    0 -0.22607268989E-01  0.66195131798E-02 -0.46449891593E-02  0.24010049775E-01  0.00000000000E+00 0.  1.
     999901    1    3    3    0    0  0.25263122750E-01 -0.10176698059E+00 -0.82474830408E-01  0.89005440360E+00  0.88000000000E+00 0. -1.
        -11    1    4    4    0    0  0.33667114592E-02  0.16347803455E-01  0.20951070957E-01  0.26791676302E-01  0.51100000000E-03 0.  1.
         11    1    4    4    0    0 -0.60225652200E-02  0.78799663952E-01  0.66168748610E-01  0.10307387033E+00  0.51100000000E-03 0. -1.
</event>
<event>
 8    1  0.1161271E+005  0.1043930E+01  0.7957747E-01            NaN
         13   -1    0    0    0    0  0.00000000000E+00  0.00000000000E+00  0.74505805969E-08  0.10566000000E+00  0.10566000000E+00 0.  1.
     999900   -1    0    0    0    0 -0.00000000000E+00 -0.00000000000E+00 -0.74505805969E-08  0.93827000000E+00  0.93827000000E+00 0. -1.
     999902    2    1    2    0    0 -0.25691410254E-01  0.13531291635E-01  0.15112079005E-01  0.10111959299E+01  0.10106659633E+01 0.  0.
     999903    2    3    3    0    0 -0.21217333921E-01  0.57525695249E-01 -0.10378008509E+00  0.12210039419E+00  0.19463281531E-01 0.  0.
         14    1    1    2    0    0  0.25691410254E-01 -0.13531291635E-01 -0.15112079005E-01  0.32734070111E-01  0.00000000000E+00 0.  1.
     999901    1    3    3    0    0 -0.44740763334E-02 -0.43994403615E-01  0.11889216410E+00  0.88909553569E+00  0.88000000000E+00 0.  1.
        -11    1    4    4    0    0 -0.24932917545E-01  0.51476982603E-01 -0.93024988071E-01  0.10920366130E+00  0.51100000000E-03 0.  1.
         11    1    4    4    0    0  0.37155836240E-02  0.60487126461E-02 -0.10755097021E-01  0.12896732892E-01  0.51100000000E-03 0. -1.
</event>
<event>
 8    1  0.1161271E+005  0.1043930E+01  0.7957747E-01            NaN
         13   -1    0    0    0    0  0.00000000000E+00  0.00000000000E+00  0.74505805969E-08  0.10566000000E+00  0.10566000000E+00 0. -1.
     999900   -1    0    0    0    0 -0.00000000000E+00 -0.00000000000E+00 -0.74505805969E-08  0.93827000000E+00  0.93827000000E+00 0. -1.
     999902    2    1    2    0    0 -0.95911996585E-02  0.16621806604E-01 -0.14072569271E-01  0.10201326730E+01  0.10198550670E+01 0.  0.
     999903    2    3    3    0    0  0.42585204298E-01 -0.11885487956E+00  0.70924954782E-02  0.12798679392E+00  0.19756869831E-01 0.  0.
         14    1    1    2    0    0  0.95911996585E-02 -0.16621806604E-01  0.14072569271E-01  0.23797326983E-01  0.00000000000E+00 0. -1.
     999901    1    3    3    0    0 -0.52176403957E-01  0.13547668616E+00 -0.21165064749E-01  0.89214587910E+00  0.88000000000E+00 0.  1.
        -11    1    4    4    0    0  0.39041549828E-01 -0.87539983513E-01  0.97966676230E-02  0.96352099842E-01  0.51100000000E-03 0.  1.
         11    1    4    4    0    0  0.35436544700E-02 -0.31314896047E-01 -0.27041721448E-02  0.31634694078E-01  0.51100000000E-03 0. -1.
</event>
<event>
 8    1  0.1161271E+005  0.1043930E+01  0.7957747E-01            NaN
         13   -1    0    0    0    0  0.00000000000E+00  0.00000000000E+00  0.74505805969E-08  0.10566000000E+00  0.10566000000E+00 0.  1.
     999900   -1    0    0    0    0 -0.00000000000E+00 -0.00000000000E+00 -0.74505805969E-08  0.93827000000E+00  0.93827000000E+00 0. -1.
     999902    2    1    2    0    0 -0.19788132791E-01  0.83975958493E-02 -0.82470808353E-02  0.10209060091E+01  0.10206463517E+01 0.  0.
     999903    2    3    3    0    0  0.17992191481E-01  0.12586657275E+00  0.26755832796E-01  0.13160768040E+00  0.20942632617E-01 0.  0.
         14    1    1    2    0    0  0.19788132791E-01 -0.83975958493E-02  0.82470808353E-02  0.23023990916E-01  0.00000000000E+00 0.  1.
     999901    1    3    3    0    0 -0.37780324272E-01 -0.11746897690E+00 -0.35002913631E-01  0.88929832868E+00  0.88000000000E+00 0.  1.
        -11    1    4    4    0    0  0.74897702581E-02  0.73552797768E-01  0.53969149315E-02  0.74131629753E-01  0.51100000000E-03 0. -1.
         11    1    4    4    0    0  0.10502421223E-01  0.52313774985E-01  0.21358917865E-01  0.57476050648E-01  0.51100000000E-03 0.  1.
</event>
<event>
 8    1  0.1161271E+005  0.1043930E+01  0.7957747E-01            NaN
         13   -1    0    0    0    0  0.00000000000E+00  0.00000000000E+00  0.74505805969E-08  0.10566000000E+00  0.10566000000E+00 0. -1.
     999900   -1    0    0    0    0 -0.00000000000E+00 -0.00000000000E+00 -0.74505805969E-08  0.93827000000E+00  0.93827000000E+00 0.  1.
     999902    2    1    2    0    0 -0.22225409574E-02  0.16185196469E-01  0.16353634296E-01  0.10208141693E+01  0.10205524125E+01 0.  0.
     999903    2    3    3    0    0  0.13932291813E-01 -0.12387455856E-01  0.13010741226E+00  0.13288551392E+00  0.19572002183E-01 0.  0.
         14    1    1    2    0    0  0.22225409574E-02 -0.16185196469E-01 -0.16353634296E-01  0.23115830674E-01  0.00000000000E+00 0.  1.
     999901    1    3    3    0    0 -0.16154832771E-01  0.28572652325E-01 -0.11375377796E+00  0.88792865540E+00  0.88000000000E+00 0.  1.
        -11    1    4    4    0    0  0.10382807599E-01 -0.13297072985E-01  0.51585882140E-01  0.54276875378E-01  0.51100000000E-03 0. -1.
         11    1    4    4    0    0  0.35494842144E-02  0.90961712937E-03  0.78521530116E-01  0.78608638547E-01  0.51100000000E-03 0.  1.
</event>
<event>
 8    1  0.1161271E+005  0.1043930E+01  0.7957747E-01            NaN
         13   -1    0    0    0    0  0.00000000000E+00  0.00000000000E+00  0.74505805969E-08  0.10566000000E+00  0.10566000000E+00 0.  1.
     999900   -1    0    0    0    0 -0.00000000000E+00 -0.00000000000E+00 -0.74505805969E-08  0.93827000000E+00  0.93827000000E+00 0.  1.
     999902    2    1    2    0    0 -0.18879254338E-01  0.13487308212E-01  0.30566149182E-02  0.10205275082E+01  0.10202591428E+01 0.  0.
     999903    2    3    3    0    0 -0.13053007440E+00  0.15985315552E-01 -0.99513591468E-02  0.13337399666E+00  0.19898814037E-01 0.  0.
         14    1    1    2    0    0  0.18879254338E-01 -0.13487308212E-01 -0.30566149182E-02  0.23402491789E-01  0.00000000000E+00 0.  1.
     999901    1    3    3    0    0  0.11165082007E+00 -0.24980073393E-02  0.13007974065E-01  0.88715351155E+00  0.88000000000E+00 0. -1.
        -11    1    4    4    0    0 -0.78755272348E-01  0.17373707276E-01 -0.11995876463E-01  0.81537726239E-01  0.51100000000E-03 0. -1.
         11    1    4    4    0    0 -0.51774802055E-01 -0.13883917245E-02  0.20445173165E-02  0.51836270424E-01  0.51100000000E-03 0.  1.
</event>
<event>
 8    1  0.1161271E+005  0.1043930E+01  0.7957747E-01            NaN
         13   -1    0    0    0    0  0.00000000000E+00  0.00000000000E+00  0.74505805969E-08  0.10566000000E+00  0.10566000000E+00 0.  1.
     999900   -1    0    0    0    0 -0.00000000000E+00 -0.00000000000E+00 -0.74505805969E-08  0.93827000000E+00  0.93827000000E+00 0.  1.
     999902    2    1    2    0    0 -0.17008354073E-01  0.83525491042E-02  0.14666101796E-01  0.10199687036E+01  0.10196872131E+01 0.  0.
     999903    2    3    3    0    0 -0.12703620409E+00 -0.73024098896E-02 -0.28226983211E-01  0.13194222746E+00  0.20505278996E-01 0.  0.
         14    1    1    2    0    0  0.17008354073E-01 -0.83525491042E-02 -0.14666101796E-01  0.23961296432E-01  0.00000000000E+00 0. -1.
     999901    1    3    3    0    0  0.11002785002E+00  0.15654958994E-01  0.42893085007E-01  0.88802647610E+00  0.88000000000E+00 0. -1.
        -11    1    4    4    0    0 -0.75355730477E-01 -0.62080627018E-02 -0.26820252353E-01  0.80228506253E-01  0.51100000000E-03 0. -1.
         11    1    4    4    0    0 -0.51680473614E-01 -0.10943471878E-02 -0.14067308577E-02  0.51713721211E-01  0.51100000000E-03 0.  1.
</event>
<event>
 8    1  0.1161271E+005  0.1043930E+01  0.7957747E-01            NaN
         13   -1    0    0    0    0  0.00000000000E+00  0.00000000000E+00  0.74505805969E-08  0.10566000000E+00  0.10566000000E+00 0. -1.
     999900   -1    0    0    0    0 -0.00000000000E+00 -0.00000000000E+00 -0.74505805969E-08  0.93827000000E+00  0.93827000000E+00 0.  1.
     999902    2    1    2    0    0  0.12649475136E-01 -0.19755683959E-01  0.16394504028E-02  0.10204143867E+01  0.10201433902E+01 0.  0.
     999903    2    3    3    0    0  0.62753856760E-01  0.69173733073E-02 -0.11327374630E+00  0.13112987443E+00  0.19447513322E-01 0.  0.
         14    1    1    2    0    0 -0.12649475136E-01  0.19755683959E-01 -0.16394504028E-02  0.23515613272E-01  0.00000000000E+00 0. -1.
     999901    1    3    3    0    0 -0.50104381624E-01 -0.26673057266E-01  0.11491319670E+00  0.88928451230E+00  0.88000000000E+00 0. -1.
        -11    1    4    4    0    0  0.48240265795E-01  0.12939875144E-01 -0.91901340800E-01  0.10459771113E+00  0.51100000000E-03 0.  1.
         11    1    4    4    0    0  0.14513590965E-01 -0.60225018369E-02 -0.21372405501E-01  0.26532163293E-01  0.51100000000E-03 0. -1.
</event>
<event>
 8    1  0.1161271E+005  0.1043930E+01  0.7957747E-01            NaN
         13   -1    0    0    0    0  0.00000000000E+00  0.00000000000E+00  0.74505805969E-08  0.10566000000E+00  0.10566000000E+00 0. -1.
     999900   -1    0    0    0    0 -0.00000000000E+00 -0.00000000000E+00 -0.74505805969E-08  0.93827000000E+00  0.93827000000E+00 0.  1.
     999902    2    1    2    0    0  0.21096681772E-01 -0.37930033943E-02 -0.45099851974E-02  0.10220257350E+01  0.10217909797E+01 0.  0.
     999903    2    3    3    0    0  0.71067868281E-01  0.10697756476E+00  0.26400841029E-01  0.13313726205E+00  0.23101620634E-01 0.  0.
         14    1    1    2    0    0 -0.21096681772E-01  0.37930033943E-02  0.45099851974E-02  0.21904264950E-01  0.00000000000E+00 0. -1.
     999901    1    3    3    0    0 -0.49971186509E-01 -0.11077056815E+00 -0.30910826226E-01  0.88888847300E+00  0.88000000000E+00 0. -1.
        -11    1    4    4    0    0  0.29529964024E-01  0.59622165362E-01  0.54847580792E-02  0.66762003190E-01  0.51100000000E-03 0. -1.
         11    1    4    4    0    0  0.41537904257E-01  0.47355399397E-01  0.20916082949E-01  0.66375258862E-01  0.51100000000E-03 0.  1.
</event>
<event>
 8    1  0.1161271E+005  0.1043930E+01  0.7957747E-01            NaN
         13   -1    0    0    0    0  0.00000000000E+00  0.00000000000E+00  0.74505805969E-08  0.10566000000E+00  0.10566000000E+00 0. -1.
     999900   -1    0    0    0    0 -0.00000000000E+00 -0.00000000000E+00 -0.74505805969E-08  0.93827000000E+00  0.93827000000E+00 0. -1.
     999902    2    1    2    0    0  0.20095495046E-01 -0.68434960386E-02  0.80359998013E-02  0.10212311090E+01  0.10209788139E+01 0.  0.
     999903    2    3    3    0    0  0.55837126604E-01  0.47612420479E-01 -0.10717772594E+00  0.13133386008E+00  0.19411094104E-01 0.  0.
         14    1    1    2    0    0 -0.20095495046E-01  0.68434960386E-02 -0.80359998013E-02  0.22698890986E-01  0.00000000000E+00 0.  1.
     999901    1    3    3    0    0 -0.35741631557E-01 -0.54455916518E-01  0.11521372574E+00  0.88989724894E+00  0.88000000000E+00 0.  1.
        -11    1    4    4    0    0  0.16551834767E-01  0.41394868137E-02 -0.28725615366E-01  0.33414378408E-01  0.51100000000E-03 0. -1.
         11    1    4    4    0    0  0.39285291837E-01  0.43472933665E-01 -0.78452110569E-01  0.97919481667E-01  0.51100000000E-03 0.  1.
</event>
<event>
 8    1  0.1161271E+005  0.1043930E+01  0.7957747E-01            NaN
         13   -1    0    0    0    0  0.00000000000E+00  0.00000000000E+00  0.74505805969E-08  0.10566000000E+00  0.10566000000E+00 0.  1.
     999900   -1    0    0    0    0 -0.00000000000E+00 -0.00000000000E+00 -0.74505805969E-08  0.93827000000E+00  0.93827000000E+00 0. -1.
     999902    2    1    2    0    0  0.18658316684E-01  0.10655155907E-01  0.12577730440E-01  0.10190329232E+01  0.10187287343E+01 0.  0.
     999903    2    3    3    0    0 -0.46460530067E-01  0.39533711971E-02 -0.11616983506E+00  0.12725867279E+00  0.22915698217E-01 0.  0.
         14    1    1    2    0    0 -0.18658316684E-01 -0.10655155907E-01 -0.12577730440E-01  0.24897076775E-01  0.00000000000E+00 0. -1.
     999901    1    3    3    0    0  0.65118846751E-01  0.67017847101E-02  0.12874756550E+00  0.89177425044E+00  0.88000000000E+00 0.  1.
        -11    1    4    4    0    0 -0.27020703566E-01 -0.87539425789E-02 -0.70821317259E-01  0.76306421952E-01  0.51100000000E-03 0. -1.
         11    1    4    4    0    0 -0.19439826501E-01  0.12707313776E-01 -0.45348517798E-01  0.50952250836E-01  0.51100000000E-03 0.  1.
</event>
<event>
 8    1  0.1161271E+005  0.1043930E+01  0.7957747E-01            NaN
         13   -1    0    0    0    0  0.00000000000E+00  0.00000000000E+00  0.74505805969E-08  0.10566000000E+00  0.10566000000E+00 0.  1.
     999900   -1    0    0    0    0 -0.00000000000E+00 -0.00000000000E+00 -0.74505805969E-08  0.93827000000E+00  0.93827000000E+00 0. -1.
     999902    2    1    2    0    0  0.54818024224E-02 -0.59906118247E-02 -0.22207071278E-01  0.10202848821E+01  0.10200108573E+01 0.  0.
     999903    2    3    3    0    0  0.85251502202E-01 -0.10345149808E-01 -0.99866821838E-01  0.13325996478E+00  0.20248342110E-01 0.  0.
         14    1    1    2    0    0 -0.54818024224E-02  0.59906118247E-02  0.22207071278E-01  0.23645117944E-01  0.00000000000E+00 0.  1.
     999901    1    3    3    0    0 -0.79769699779E-01  0.43545379838E-02  0.77659750560E-01  0.88702491727E+00  0.88000000000E+00 0.  1.
        -11    1    4    4    0    0  0.59081862050E-01 -0.19237724040E-02 -0.55632819585E-01  0.81176591821E-01  0.51100000000E-03 0. -1.
         11    1    4    4    0    0  0.26169640151E-01 -0.84213774045E-02 -0.44234002252E-01  0.52083372964E-01  0.51100000000E-03 0.  1.
</event>
<event>
 8    1  0.1161271E+005  0.1043930E+01  0.7957747E-01            NaN
         13   -1    0    0    0    0  0.00000000000E+00  0.00000000000E+00  0.74505805969E-08  0.10566000000E+00  0.10566000000E+00 0. -1.
     999900   -1    0    0    0    0 -0.00000000000E+00 -0.00000000000E+00 -0.74505805969E-08  0.93827000000E+00  0.93827000000E+00 0.  1.
     999902    2    1    2    0    0 -0.14121990423E-01  0.13493167378E-01 -0.13011348171E-01  0.10204610554E+01  0.10201911459E+01 0.  0.
     999903    2    3    3    0    0  0.76608470779E-01 -0.99489767546E-01 -0.19079130243E-01  0.12859000073E+00  0.20107298079E-01 0.  0.
         14    1    1    2    0    0  0.14121990423E-01 -0.13493167378E-01  0.13011348171E-01  0.23468944600E-01  0.00000000000E+00 0.  1.
     999901    1    3    3    0    0 -0.90730461202E-01  0.11298293492E+00  0.60677820719E-02  0.89187105467E+00  0.88000000000E+00 0. -1.
        -11    1    4    4    0    0  0.34225952807E-01 -0.58275936917E-01 -0.15635616099E-01  0.69370269431E-01  0.51100000000E-03 0.  1.
         11    1    4    4    0    0  0.42382517972E-01 -0.41213830629E-01 -0.34435141447E-02  0.59219731302E-01  0.51100000000E-03 0. -1.
</event>
<event>
 8    1  0.1161271E+005  0.1043930E+01  0.7957747E-01            NaN
         13   -1    0    0    0    0  0.00000000000E+00  0.00000000000E+00  0.74505805969E-08  0.10566000000E+00  0.10566000000E+00 0. -1.
     999900   -1    0    0    0    0 -0.00000000000E+00 -0.00000000000E+00 -0.74505805969E-08  0.93827000000E+00  0.93827000000E+00 0. -1.
     999902    2    1    2    0    0 -0.13271260989E-01 -0.49352230435E-03  0.18870446500E-01  0.10208548254E+01  0.10205939990E+01 0.  0.
     999903    2    3    3    0    0 -0.11866153746E+00 -0.55500573004E-01 -0.50031067893E-02  0.13254022315E+00  0.19519364713E-01 0.  0.
         14    1    1    2    0    0  0.13271260989E-01  0.49352230435E-03 -0.18870446500E-01  0.23075174617E-01  0.00000000000E+00 0.  1.
     999901    1    3    3    0    0  0.10539027647E+00  0.55007050700E-01  0.23873553289E-01  0.88831460224E+00  0.88000000000E+00 0. -1.
        -11    1    4    4    0    0 -0.49150716976E-01 -0.30962645028E-01  0.42371868536E-02  0.58246830299E-01  0.51100000000E-03 0. -1.
         11    1    4    4    0    0 -0.69510820480E-01 -0.24537927976E-01 -0.92402936429E-02  0.74293392847E-01  0.51100000000E-03 0.  1.
</event>
<event>
 8    1  0.1161271E+005  0.1043930E+01  0.7957747E-01            NaN
         13   -1    0    0    0    0  0.00000000000E+00  0.00000000000E+00  0.74505805969E-08  0.10566000000E+00  0.10566000000E+00 0.  1.
     999900   -1    0    0    0    0 -0.00000000000E+00 -0.00000000000E+00 -0.74505805969E-08  0.93827000000E+00  0.93827000000E+00 0. -1.
     999902    2    1    2    0    0  0.15822731172E-01 -0.15500965757E-01  0.88161484975E-02  0.10200896301E+01  0.10198110071E+01 0.  0.
     999903    2    3    3    0    0 -0.87550090779E-01  0.34496876141E-01 -0.84033189073E-01  0.12778546450E+00  0.20309978165E-01 0.  0.
         14    1    1    2    0    0 -0.15822731172E-01  0.15500965757E-01 -0.88161484975E-02  0.23840369869E-01  0.00000000000E+00 0. -1.
     999901    1    3    3    0    0  0.10337282195E+00 -0.49997841899E-01  0.92849337571E-01  0.89230416563E+00  0.88000000000E+00 0.  1.
        -11    1    4    4    0    0 -0.11816690205E-01  0.98787457771E-04 -0.18196381400E-01  0.21702841828E-01  0.51100000000E-03 0. -1.
         11    1    4    4    0    0 -0.75733400574E-01  0.34398088684E-01 -0.65836807673E-01  0.10608262267E+00  0.51100000000E-03 0.  1.
</event>
<event>
 8    1  0.1161271E+005  0.1043930E+01  0.7957747E-01            NaN
         13   -1    0    0    0    0  0.00000000000E+00  0.00000000000E+00  0.74505805969E-08  0.10566000000E+00  0.10566000000E+00 0.  1.
     999900   -1    0    0    0    0 -0.00000000000E+00 -0.00000000000E+00 -0.74505805969E-08  0.93827000000E+00  0.93827000000E+00 0.  1.
     999902    2    1    2    0    0 -0.24907031203E-02  0.10500624327E-01  0.20633607709E-01  0.10206445436E+01  0.10203788864E+01 0.  0.
     999903    2    3    3    0    0 -0.53382490427E-01 -0.44540469977E-01 -0.10602416901E+00  0.12842165188E+00  0.20431654556E-01 0.  0.
         14    1    1    2    0    0  0.24907031203E-02 -0.10500624327E-01 -0.20633607709E-01  0.23285456413E-01  0.00000000000E+00 0. -1.
     999901    1    3    3    0    0  0.50891787306E-01  0.55041094304E-01  0.12665777672E+00  0.89222289170E+00  0.88000000000E+00 0. -1.
        -11    1    4    4    0    0 -0.44110459864E-01 -0.28423650884E-01 -0.66274753338E-01  0.84535440201E-01  0.51100000000E-03 0.  1.
         11    1    4    4    0    0 -0.92720305629E-02 -0.16116819093E-01 -0.39749415673E-01  0.43886211682E-01  0.51100000000E-03 0. -1.
</event>
<event>
 8    1  0.1161271E+005  0.1043930E+01  0.7957747E-01            NaN
         13   -1    0    0    0    0  0.00000000000E+00  0.00000000000E+00  0.74505805969E-08  0.10566000000E+00  0.10566000000E+00 0. -1.
     999900   -1    0    0    0    0 -0.00000000000E+00 -0.00000000000E+00 -0.74505805969E-08  0.93827000000E+00  0.93827000000E+00 0. -1.
     999902    2    1    2    0    0 -0.23508561285E-01 -0.43067183354E-02 -0.47802906133E-03  0.10200254233E+01  0.10197452796E+01 0.  0.
     999903    2    3    3    0    0  0.14862625818E-01 -0.79353222548E-01 -0.10043485158E+00  0.13036498684E+00  0.19749400186E-01 0.  0.
         14    1    1    2    0    0  0.23508561285E-01  0.43067183354E-02  0.47802906133E-03  0.23904576723E-01  0.00000000000E+00 0.  1.
     999901    1    3    3    0    0 -0.38371187103E-01  0.75046504213E-01  0.99956822515E-01  0.88966043644E+00  0.88000000000E+00 0.  1.
        -11    1    4    4    0    0  0.14640443665E-01 -0.26707383168E-01 -0.37393366968E-01  0.48230197186E-01  0.51100000000E-03 0.  1.
         11    1    4    4    0    0  0.22218215318E-03 -0.52645839380E-01 -0.63041484608E-01  0.82134789654E-01  0.51100000000E-03 0. -1.
</event>
<event>
 8    1  0.1161271E+005  0.1043930E+01  0.7957747E-01            NaN
         13   -1    0    0    0    0  0.00000000000E+00  0.00000000000E+00  0.74505805969E-08  0.10566000000E+00  0.10566000000E+00 0.  1.
     999900   -1    0    0    0    0 -0.00000000000E+00 -0.00000000000E+00 -0.74505805969E-08  0.93827000000E+00  0.93827000000E+00 0. -1.
     999902    2    1    2    0    0 -0.35270412001E-03 -0.22607853348E-01 -0.45849716103E-02  0.10208592090E+01  0.10205984828E+01 0.  0.
     999903    2    3    3    0    0 -0.10791419498E+00 -0.77323716254E-02 -0.72181348360E-01  0.13161232290E+00  0.20159202312E-01 0.  0.
         14    1    1    2    0    0  0.35270412001E-03  0.22607853348E-01  0.45849716103E-02  0.23070791010E-01  0.00000000000E+00 0.  1.
     999901    1    3    3    0    0  0.10756149086E+00 -0.14875481722E-01  0.67596376749E-01  0.88924688609E+00  0.88000000000E+00 0.  1.
        -11    1    4    4    0    0 -0.76889248283E-01 -0.14587346399E-01 -0.50409230806E-01  0.93091883899E-01  0.51100000000E-03 0. -1.
         11    1    4    4    0    0 -0.31024946700E-01  0.68549747739E-02 -0.21772117553E-01  0.38520438999E-01  0.51100000000E-03 0.  1.
</event>
<event>
 8    1  0.1161271E+005  0.1043930E+01  0.7957747E-01            NaN
         13   -1    0    0    0    0  0.00000000000E+00  0.00000000000E+00  0.74505805969E-08  0.10566000000E+00  0.10566000000E+00 0.  1.
     999900   -1    0    0    0    0 -0.00000000000E+00 -0.00000000000E+00 -0.74505805969E-08  0.93827000000E+00  0.93827000000E+00 0.  1.
     999902    2    1    2    0    0 -0.76070530997E-02 -0.22186476691E-01 -0.41594449080E-02  0.10201096728E+01  0.10198315236E+01 0.  0.
     999903    2    3    3    0    0 -0.30519003810E-01  0.70945804962E-01  0.10094259501E+00  0.12868103397E+00  0.20116763704E-01 0.  0.
         14    1    1    2    0    0  0.76070530997E-02  0.22186476691E-01  0.41594449080E-02  0.23820327176E-01  0.00000000000E+00 0. -1.
     999901    1    3    3    0    0  0.22911950710E-01 -0.93132281654E-01 -0.10510203992E+00  0.89142863885E+00  0.88000000000E+00 0.  1.
        -11    1    4    4    0    0 -0.32036332662E-01  0.71080088462E-01  0.97188975908E-01  0.12459800859E+00  0.51100000000E-03 0.  1.
         11    1    4    4    0    0  0.15173288523E-02 -0.13428349960E-03  0.37536190992E-02  0.40830253790E-02  0.51100000000E-03 0. -1.
</event>
<event>
 8    1  0.1161271E+005  0.1043930E+01  0.7957747E-01            NaN
         13   -1    0    0    0    0  0.00000000000E+00  0.00000000000E+00  0.74505805969E-08  0.10566000000E+00  0.10566000000E+00 0. -1.
     999900   -1    0    0    0    0 -0.00000000000E+00 -0.00000000000E+00 -0.74505805969E-08  0.93827000000E+00  0.93827000000E+00 0. -1.
     999902    2    1    2    0    0 -0.47358991723E-02 -0.12414158900E-01  0.18618542681E-01  0.10210566484E+01  0.10208004159E+01 0.  0.
     999903    2    3    3    0    0 -0.92318368461E-01 -0.22965109491E-01 -0.86685138186E-01  0.13039909541E+00  0.20965054056E-01 0.  0.
         14    1    1    2    0    0  0.47358991723E-02  0.12414158900E-01 -0.18618542681E-01  0.22873351607E-01  0.00000000000E+00 0.  1.
     999901    1    3    3    0    0  0.87582469289E-01  0.10550950591E-01  0.10530368087E+00  0.89065755299E+00  0.88000000000E+00 0.  1.
        -11    1    4    4    0    0 -0.61120309746E-01 -0.48122585421E-02 -0.53955844649E-01  0.81672176342E-01  0.51100000000E-03 0.  1.
         11    1    4    4    0    0 -0.31198058716E-01 -0.18152850949E-01 -0.32729293536E-01  0.48726919065E-01  0.51100000000E-03 0. -1.
</event>
<event>
 8    1  0.1161271E+005  0.1043930E+01  0.7957747E-01            NaN
         13   -1    0    0    0    0  0.00000000000E+00  0.00000000000E+00  0.74505805969E-08  0.10566000000E+00  0.10566000000E+00 0. -1.
     999900   -1    0    0    0    0 -0.00000000000E+00 -0.00000000000E+00 -0.74505805969E-08  0.93827000000E+00  0.93827000000E+00 0. -1.
     999902    2    1    2    0    0 -0.26830062266E-02  0.18731531712E-01  0.15095697231E-01  0.10197236191E+01  0.10194362709E+01 0.  0.
     999903    2    3    3    0    0 -0.76555687249E-01 -0.90406028318E-01 -0.44082098442E-01  0.12794439106E+00  0.19811930621E-01 0.  0.
         14    1    1    2    0    0  0.26830062266E-02 -0.18731531712E-01 -0.15095697231E-01  0.24206380927E-01  0.00000000000E+00 0.  1.
     999901    1    3    3    0    0  0.73872681022E-01  0.10913756003E+00  0.59177795673E-01  0.89177922801E+00  0.88000000000E+00 0. -1.
        -11    1    4    4    0    0 -0.57771364539E-01 -0.58285716104E-01 -0.37180112460E-01  0.90096487978E-01  0.51100000000E-03 0. -1.
         11    1    4    4    0    0 -0.18784322710E-01 -0.32120312214E-01 -0.69019859816E-02  0.37847903084E-01  0.51100000000E-03 0.  1.
</event>
<event>
 8    1  0.1161271E+005  0.1043930E+01  0.7957747E-01            NaN
         13   -1    0    0    0    0  0.00000000000E+00  0.00000000000E+00  0.74505805969E-08  0.10566000000E+00  0.10566000000E+00 0. -1.
     999900   -1    0    0    0    0 -0.00000000000E+00 -0.00000000000E+00 -0.74505805969E-08  0.93827000000E+00  0.93827000000E+00 0. -1.
     999902    2    1    2    0    0  0.37093427193E-02 -0.23347690263E-01  0.19269908433E-02  0.10202110802E+01  0.10199353219E+01 0.  0.
     999903    2    3    3    0    0  0.77781531162E-01 -0.85022811385E-01 -0.62518427009E-01  0.13260546868E+00  0.19920129607E-01 0.  0.
         14    1    1    2    0    0 -0.37093427193E-02  0.23347690263E-01 -0.19269908433E-02  0.23718919826E-01  0.00000000000E+00 0.  1.
     999901    1    3    3    0    0 -0.74072188443E-01  0.61675121122E-01  0.64445417852E-01  0.88760561149E+00  0.88000000000E+00 0. -1.
        -11    1    4    4    0    0  0.43705512732E-01 -0.61670671619E-01 -0.42096087612E-01  0.86520432814E-01  0.51100000000E-03 0.  1.
         11    1    4    4    0    0  0.34076018430E-01 -0.23352139765E-01 -0.20422339397E-01  0.46085035870E-01  0.51100000000E-03 0. -1.
</event>
<event>
 8    1  0.1161271E+005  0.1043930E+01  0.7957747E-01            NaN
         13   -1    0    0    0    0  0.00000000000E+00  0.00000000000E+00  0.74505805969E-08  0.10566000000E+00  0.10566000000E+00 0.  1.
     999900   -1    0    0    0    0 -0.00000000000E+00 -0.00000000000E+00 -0.74505805969E-08  0.93827000000E+00  0.93827000000E+00 0. -1.
     999902    2    1    2    0    0 -0.77782474988E-02 -0.14339912890E-01 -0.13770490501E-01  0.10225814487E+01  0.10223585763E+01 0.  0.
     999903    2    3    3    0    0 -0.12037667109E+00 -0.43902972800E-01  0.32151145228E-01  0.13372759333E+00  0.20769186621E-01 0.  0.
         14    1    1    2    0    0  0.77782474988E-02  0.14339912890E-01  0.13770490501E-01  0.21348551344E-01  0.00000000000E+00 0.  1.
     999901    1    3    3    0    0  0.11259842360E+00  0.29563059910E-01 -0.45921635729E-01  0.88885385533E+00  0.88000000000E+00 0. -1.
        -11    1    4    4    0    0 -0.48510415337E-01 -0.92453094364E-02  0.18728556741E-01  0.52818141783E-01  0.51100000000E-03 0. -1.
         11    1    4    4    0    0 -0.71866255757E-01 -0.34657663364E-01  0.13422588487E-01  0.80909451543E-01  0.51100000000E-03 0.  1.
</event>
<event>
 8    1  0.1161271E+005  0.1043930E+01  0.7957747E-01            NaN
         13   -1    0    0    0    0  0.00000000000E+00  0.00000000000E+00  0.74505805969E-08  0.10566000000E+00  0.10566000000E+00 0.  1.
     999900   -1    0    0    0    0 -0.00000000000E+00 -0.00000000000E+00 -0.74505805969E-08  0.93827000000E+00  0.93827000000E+00 0.  1.
     999902    2    1    2    0    0  0.39742349168E-02 -0.66434262392E-02 -0.23381982807E-01  0.10192997995E+01  0.10190021759E+01 0.  0.
     999903    2    3    3    0    0  0.16216522159E-01  0.55408307205E-01  0.11201715412E+00  0.12670066358E+00  0.13120946467E-01 0.  0.
         14    1    1    2    0    0 -0.39742349168E-02  0.66434262392E-02  0.23381982807E-01  0.24630200474E-01  0.00000000000E+00 0.  1.
     999901    1    3    3    0    0 -0.12242287242E-01 -0.62051733444E-01 -0.13539913692E+00  0.89259913595E+00  0.88000000000E+00 0.  1.
        -11    1    4    4    0    0  0.13060860082E-01  0.41999738625E-01  0.71969465687E-01  0.84347075959E-01  0.51100000000E-03 0. -1.
         11    1    4    4    0    0  0.31556620766E-02  0.13408568579E-01  0.40047688429E-01  0.42353587616E-01  0.51100000000E-03 0.  1.
</event>
<event>
 8    1  0.1161271E+005  0.1043930E+01  0.7957747E-01            NaN
         13   -1    0    0    0    0  0.00000000000E+00  0.00000000000E+00  0.74505805969E-08  0.10566000000E+00  0.10566000000E+00 0. -1.
     999900   -1    0    0    0    0 -0.00000000000E+00 -0.00000000000E+00 -0.74505805969E-08  0.93827000000E+00  0.93827000000E+00 0. -1.
     999902    2    1    2    0    0  0.17645499001E-01  0.67026872971E-03 -0.19280475533E-01  0.10177852179E+01  0.10174493600E+01 0.  0.
     999903    2    3    3    0    0 -0.10761635646E+00  0.51452949009E-01 -0.39277559112E-01  0.12724083583E+00  0.20465031477E-01 0.  0.
         14    1    1    2    0    0 -0.17645499001E-01 -0.67026872971E-03  0.19280475533E-01  0.26144782117E-01  0.00000000000E+00 0. -1.
     999901    1    3    3    0    0  0.12526185546E+00 -0.50782680279E-01  0.19997083578E-01  0.89054438205E+00  0.88000000000E+00 0. -1.
        -11    1    4    4    0    0 -0.32875735242E-01  0.89722986997E-02 -0.18563355512E-01  0.38809475654E-01  0.51100000000E-03 0. -1.
         11    1    4    4    0    0 -0.74740621221E-01  0.42480650309E-01 -0.20714203600E-01  0.88431360178E-01  0.51100000000E-03 0.  1.
</event>
<event>
 7    1  0.1991033E+005  0.1043930E+01  0.7957747E-01            NaN
         13   -1    0    0    0    0  0.00000000000E+00  0.00000000000E+00  0.74505805969E-08  0.10566000000E+00  0.10566000000E+00 0.  1.
     999900   -1    0    0    0    0 -0.00000000000E+00 -0.00000000000E+00 -0.74505805969E-08  0.93827000000E+00  0.93827000000E+00 0. -1.
     999903    2    1    2    0    0  0.32787553397E-01  0.53116104322E-01  0.87001821073E-01  0.10877825198E+00  0.19158471673E-01 0.  0.
         14    1    1    2    0    0 -0.45773089730E-01 -0.41904056561E-02 -0.22943265455E-01  0.51372450523E-01  0.00000000000E+00 0. -1.
     999901    1    1    2    0    0  0.12985536333E-01 -0.48925698666E-01 -0.64058555618E-01  0.88377929750E+00  0.88000000000E+00 0. -1.
        -11    1    3    3    0    0  0.13144603506E-01  0.33051243837E-01  0.60390989514E-01  0.70089214976E-01  0.51100000000E-03 0. -1.
         11    1    3    3    0    0  0.19642949891E-01  0.20064860485E-01  0.26610831559E-01  0.38689037000E-01  0.51100000000E-03 0.  1.
</event>
<event>
 8    1  0.1161271E+005  0.1043930E+01  0.7957747E-01            NaN
         13   -1    0    0    0    0  0.00000000000E+00  0.00000000000E+00  0.74505805969E-08  0.10566000000E+00  0.10566000000E+00 0.  1.
     999900   -1    0    0    0    0 -0.00000000000E+00 -0.00000000000E+00 -0.74505805969E-08  0.93827000000E+00  0.93827000000E+00 0.  1.
     999902    2    1    2    0    0  0.22059157839E-01 -0.48516665263E-02  0.46315795348E-02  0.10208736204E+01  0.10206132236E+01 0.  0.
     999903    2    3    3    0    0  0.55845500167E-01  0.19741754432E-01  0.11701482967E+00  0.13274280332E+00  0.20487184141E-01 0.  0.
         14    1    1    2    0    0 -0.22059157839E-01  0.48516665263E-02 -0.46315795348E-02  0.23056379630E-01  0.00000000000E+00 0. -1.
     999901    1    3    3    0    0 -0.33786342328E-01 -0.24593420958E-01 -0.11238325013E+00  0.88813081705E+00  0.88000000000E+00 0.  1.
        -11    1    4    4    0    0  0.52376210544E-01  0.14081965830E-01  0.91445144981E-01  0.10632048182E+00  0.51100000000E-03 0.  1.
         11    1    4    4    0    0  0.34692896232E-02  0.56597886017E-02  0.25569684689E-01  0.26422321503E-01  0.51100000000E-03 0. -1.
</event>
<event>
 8    1  0.1161271E+005  0.1043930E+01  0.7957747E-01            NaN
         13   -1    0    0    0    0  0.00000000000E+00  0.00000000000E+00  0.74505805969E-08  0.10566000000E+00  0.10566000000E+00 0. -1.
     999900   -1    0    0    0    0 -0.00000000000E+00 -0.00000000000E+00 -0.74505805969E-08  0.93827000000E+00  0.93827000000E+00 0.  1.
     999902    2    1    2    0    0 -0.77021553513E-02  0.10679684118E-01 -0.21017922598E-01  0.10191281468E+01  0.10188263089E+01 0.  0.
     999903    2    3    3    0    0 -0.87603514770E-01 -0.71146481566E-01  0.57335703163E-01  0.12827516273E+00  0.20759019160E-01 0.  0.
         14    1    1    2    0    0  0.77021553513E-02 -0.10679684118E-01  0.21017922598E-01  0.24801853161E-01  0.00000000000E+00 0. -1.
     999901    1    3    3    0    0  0.79901359419E-01  0.81826165684E-01 -0.78353625761E-01  0.89085298411E+00  0.88000000000E+00 0.  1.
        -11    1    4    4    0    0 -0.10307112388E-01 -0.17478031337E-02  0.23008625894E-02  0.10716644588E-01  0.51100000000E-03 0. -1.
         11    1    4    4    0    0 -0.77296402382E-01 -0.69398678433E-01  0.55034840574E-01  0.11755851814E+00  0.51100000000E-03 0.  1.
</event>
<event>
 8    1  0.1569816E+005  0.1043930E+01  0.7957747E-01            NaN
         13   -1    0    0    0    0  0.00000000000E+00  0.00000000000E+00  0.74505805969E-08  0.10566000000E+00  0.10566000000E+00 0.  1.
     999900   -1    0    0    0    0 -0.00000000000E+00 -0.00000000000E+00 -0.74505805969E-08  0.93827000000E+00  0.93827000000E+00 0. -1.
     999902    2    1    2    0    0  0.25873979913E-01  0.31393232330E-02  0.39150024033E-02  0.10175738730E+01  0.10172324914E+01 0.  0.
     999903    2    3    3    0    0 -0.78711032056E-01 -0.22723592885E-01 -0.93113973523E-01  0.12570979292E+00  0.20517108226E-01 0.  0.
         14    1    1    2    0    0 -0.25873979913E-01 -0.31393232330E-02 -0.39150024033E-02  0.26356127005E-01  0.00000000000E+00 0.  1.
     999901    1    3    3    0    0  0.10458501197E+00  0.25862916118E-01  0.97028975926E-01  0.89186408007E+00  0.88000000000E+00 0.  1.
        -11    1    4    4    0    0 -0.37446372555E-01 -0.19618883259E-01 -0.38449084999E-01  0.57146519196E-01  0.51100000000E-03 0. -1.
         11    1    4    4    0    0 -0.41264659500E-01 -0.31047096257E-02 -0.54664888523E-01  0.68563273724E-01  0.51100000000E-03 0.  1.
</event>
<event>
 8    1  0.1161271E+005  0.1043930E+01  0.7957747E-01            NaN
         13   -1    0    0    0    0  0.00000000000E+00  0.00000000000E+00  0.74505805969E-08  0.10566000000E+00  0.10566000000E+00 0.  1.
     999900   -1    0    0    0    0 -0.00000000000E+00 -0.00000000000E+00 -0.74505805969E-08  0.93827000000E+00  0.93827000000E+00 0. -1.
     999902    2    1    2    0    0  0.79587608406E-02  0.50347343010E-02 -0.20440831904E-01  0.10214240445E+01  0.10211760674E+01 0.  0.
     999903    2    3    3    0    0 -0.45502870246E-01  0.11489177229E+00 -0.43805403381E-01  0.13267626364E+00  0.20333396857E-01 0.  0.
         14    1    1    2    0    0 -0.79587608406E-02 -0.50347343010E-02  0.20440831904E-01  0.22505955490E-01  0.00000000000E+00 0.  1.
     999901    1    3    3    0    0  0.53461631086E-01 -0.10985703799E+00  0.23364571477E-01  0.88874778087E+00  0.88000000000E+00 0.  1.
        -11    1    4    4    0    0 -0.32361079177E-01  0.66583987434E-01 -0.17303363500E-01  0.76028510031E-01  0.51100000000E-03 0. -1.
         11    1    4    4    0    0 -0.13141791069E-01  0.48307784859E-01 -0.26502039881E-01  0.56647753613E-01  0.51100000000E-03 0.  1.
</event>
<event>
 8    1  0.1161271E+005  0.1043930E+01  0.7957747E-01            NaN
         13   -1    0    0    0    0  0.00000000000E+00  0.00000000000E+00  0.74505805969E-08  0.10566000000E+00  0.10566000000E+00 0.  1.
     999900   -1    0    0    0    0 -0.00000000000E+00 -0.00000000000E+00 -0.74505805969E-08  0.93827000000E+00  0.93827000000E+00 0.  1.
     999902    2    1    2    0    0  0.59773013362E-02  0.15576057313E-01 -0.17302487014E-01  0.10198942402E+01  0.10196109765E+01 0.  0.
     999903    2    3    3    0    0  0.98020135362E-01 -0.22095787594E-01 -0.82943251958E-01  0.13186284367E+00  0.20299155859E-01 0.  0.
         14    1    1    2    0    0 -0.59773013362E-02 -0.15576057313E-01  0.17302487014E-01  0.24035759808E-01  0.00000000000E+00 0. -1.
     999901    1    3    3    0    0 -0.92042834025E-01  0.37671844907E-01  0.65640764944E-01  0.88803139653E+00  0.88000000000E+00 0. -1.
        -11    1    4    4    0    0  0.47189991029E-01 -0.77796630481E-03 -0.42258551734E-01  0.63352559542E-01  0.51100000000E-03 0.  1.
         11    1    4    4    0    0  0.50830144333E-01 -0.21317821289E-01 -0.40684700224E-01  0.68510284124E-01  0.51100000000E-03 0. -1.
</event>
<event>
 8    1  0.1161271E+005  0.1043930E+01  0.7957747E-01            NaN
         13   -1    0    0    0    0  0.00000000000E+00  0.00000000000E+00  0.74505805969E-08  0.10566000000E+00  0.10566000000E+00 0. -1.
     999900   -1    0    0    0    0 -0.00000000000E+00 -0.00000000000E+00 -0.74505805969E-08  0.93827000000E+00  0.93827000000E+00 0. -1.
     999902    2    1    2    0    0 -0.82159164378E-02 -0.79197015438E-02 -0.20863692164E-01  0.10201494069E+01  0.10198721959E+01 0.  0.
     999903    2    3    3    0    0 -0.11708199180E-01 -0.10100988312E+00  0.77455769793E-01  0.12978729266E+00  0.22478137074E-01 0.  0.
         14    1    1    2    0    0  0.82159164378E-02  0.79197015438E-02  0.20863692164E-01  0.23780593057E-01  0.00000000000E+00 0. -1.
     999901    1    3    3    0    0  0.34922827418E-02  0.93090181578E-01 -0.98319461956E-01  0.89036211428E+00  0.88000000000E+00 0.  1.
        -11    1    4    4    0    0  0.31125382164E-02 -0.45068725233E-01  0.24767653236E-01  0.51522574238E-01  0.51100000000E-03 0. -1.
         11    1    4    4    0    0 -0.14820737396E-01 -0.55941157889E-01  0.52688116556E-01  0.78264718425E-01  0.51100000000E-03 0.  1.
</event>
<event>
 8    1  0.1161271E+005  0.1043930E+01  0.7957747E-01            NaN
         13   -1    0    0    0    0  0.00000000000E+00  0.00000000000E+00  0.74505805969E-08  0.10566000000E+00  0.10566000000E+00 0. -1.
     999900   -1    0    0    0    0 -0.00000000000E+00 -0.00000000000E+00 -0.74505805969E-08  0.93827000000E+00  0.93827000000E+00 0. -1.
     999902    2    1    2    0    0  0.17097114710E-01  0.54143083873E-02  0.15453684192E-01  0.10202563348E+01  0.10199816402E+01 0.  0.
     999903    2    3    3    0    0 -0.70630087137E-01 -0.59143562774E-01  0.89996244583E-01  0.13041344198E+00  0.20537078266E-01 0.  0.
         14    1    1    2    0    0 -0.17097114710E-01 -0.54143083873E-02 -0.15453684192E-01  0.23673665154E-01  0.00000000000E+00 0.  1.
     999901    1    3    3    0    0  0.87727201847E-01  0.64557871161E-01 -0.74542560390E-01  0.88984289286E+00  0.88000000000E+00 0. -1.
        -11    1    4    4    0    0 -0.23029385148E-01 -0.29940126341E-01  0.28342930477E-01  0.47226545233E-01  0.51100000000E-03 0.  1.
         11    1    4    4    0    0 -0.47600701988E-01 -0.29203436433E-01  0.61653314106E-01  0.83186896748E-01  0.51100000000E-03 0. -1.
</event>
<event>
 8    1  0.1161271E+005  0.1043930E+01  0.7957747E-01            NaN
         13   -1    0    0    0    0  0.00000000000E+00  0.00000000000E+00  0.74505805969E-08  0.10566000000E+00  0.10566000000E+00 0. -1.
     999900   -1    0    0    0    0 -0.00000000000E+00 -0.00000000000E+00 -0.74505805969E-08  0.93827000000E+00  0.93827000000E+00 0.  1.
     999902    2    1    2    0    0 -0.10255785788E-02  0.10746361817E-01 -0.21296676776E-01  0.10200535567E+01  0.10197740799E+01 0.  0.
     999903    2    3    3    0    0 -0.32977558990E-02  0.12718144908E+00  0.23876845861E-01  0.13123246136E+00  0.21583766181E-01 0.  0.
         14    1    1    2    0    0  0.10255785788E-02 -0.10746361817E-01  0.21296676776E-01  0.23876443316E-01  0.00000000000E+00 0. -1.
     999901    1    3    3    0    0  0.22721773202E-02 -0.11643508727E+00 -0.45173522638E-01  0.88882109532E+00  0.88000000000E+00 0. -1.
        -11    1    4    4    0    0  0.55898891665E-02  0.82121146071E-01  0.22274032791E-01  0.85273226459E-01  0.51100000000E-03 0.  1.
         11    1    4    4    0    0 -0.88876450655E-02  0.45060303012E-01  0.16028130701E-02  0.45959234906E-01  0.51100000000E-03 0. -1.
</event>
<event>
 8    1  0.1161271E+005  0.1043930E+01  0.7957747E-01            NaN
         13   -1    0    0    0    0  0.00000000000E+00  0.00000000000E+00  0.74505805969E-08  0.10566000000E+00  0.10566000000E+00 0. -1.
     999900   -1    0    0    0    0 -0.00000000000E+00 -0.00000000000E+00 -0.74505805969E-08  0.93827000000E+00  0.93827000000E+00 0. -1.
     999902    2    1    2    0    0  0.18520827308E-02  0.12106022456E-01 -0.21891502459E-01  0.10188456648E+01  0.10185368255E+01 0.  0.
     999903    2    3    3    0    0  0.68765267222E-01 -0.63362161538E-01 -0.88871870813E-01  0.13055562730E+00  0.20078269546E-01 0.  0.
         14    1    1    2    0    0 -0.18520827308E-02 -0.12106022456E-01  0.21891502459E-01  0.25084335153E-01  0.00000000000E+00 0. -1.
     999901    1    3    3    0    0 -0.66913184491E-01  0.75468183994E-01  0.66980368354E-01  0.88829003754E+00  0.88000000000E+00 0.  1.
        -11    1    4    4    0    0  0.16890065828E-01 -0.24549878177E-01 -0.37313727993E-01  0.47755065280E-01  0.51100000000E-03 0. -1.
         11    1    4    4    0    0  0.51875201394E-01 -0.38812283362E-01 -0.51558142820E-01  0.82800562023E-01  0.51100000000E-03 0.  1.
</event>
<event>
 8    1  0.1161271E+005  0.1043930E+01  0.7957747E-01            NaN
         13   -1    0    0    0    0  0.00000000000E+00  0.00000000000E+00  0.74505805969E-08  0.10566000000E+00  0.10566000000E+00 0.  1.
     999900   -1    0    0    0    0 -0.00000000000E+00 -0.00000000000E+00 -0.74505805969E-08  0.93827000000E+00  0.93827000000E+00 0.  1.
     999902    2    1    2    0    0  0.74645406133E-02 -0.23384804923E-01 -0.77677262635E-02  0.10181830383E+01  0.10178574524E+01 0.  0.
     999903    2    3    3    0    0  0.11383181703E+00 -0.57157049218E-01  0.22031250827E-01  0.13063442493E+00  0.18851157020E-01 0.  0.
         14    1    1    2    0    0 -0.74645406133E-02  0.23384804923E-01  0.77677262635E-02  0.25746961746E-01  0.00000000000E+00 0. -1.
     999901    1    3    3    0    0 -0.10636727641E+00  0.33772244295E-01 -0.29798977091E-01  0.88754861332E+00  0.88000000000E+00 0. -1.
        -11    1    4    4    0    0  0.63346469367E-01 -0.29508029511E-01  0.27858604897E-02  0.69939410396E-01  0.51100000000E-03 0.  1.
         11    1    4    4    0    0  0.50485347660E-01 -0.27649019707E-01  0.19245390338E-01  0.60695014534E-01  0.51100000000E-03 0. -1.
</event>
<event>
 8    1  0.1161271E+005  0.1043930E+01  0.7957747E-01            NaN
         13   -1    0    0    0    0  0.00000000000E+00  0.00000000000E+00  0.74505805969E-08  0.10566000000E+00  0.10566000000E+00 0.  1.
     999900   -1    0    0    0    0 -0.00000000000E+00 -0.00000000000E+00 -0.74505805969E-08  0.93827000000E+00  0.93827000000E+00 0. -1.
     999902    2    1    2    0    0 -0.17396302542E-01 -0.14942593919E-01 -0.19670823318E-03  0.10209963751E+01  0.10207387751E+01 0.  0.
     999903    2    3    3    0    0 -0.58945327730E-01 -0.21359886378E-02 -0.11651446856E+00  0.13227811157E+00  0.21041941646E-01 0.  0.
         14    1    1    2    0    0  0.17396302542E-01  0.14942593919E-01  0.19670823318E-03  0.22933624862E-01  0.00000000000E+00 0. -1.
     999901    1    3    3    0    0  0.41549025188E-01 -0.12806605281E-01  0.11631776033E+00  0.88871826357E+00  0.88000000000E+00 0.  1.
        -11    1    4    4    0    0 -0.46699619468E-01  0.71019905611E-02 -0.89879950605E-01  0.10153797009E+00  0.51100000000E-03 0. -1.
         11    1    4    4    0    0 -0.12245708262E-01 -0.92379791989E-02 -0.26634517954E-01  0.30740141479E-01  0.51100000000E-03 0.  1.
</event>
<event>
 8    1  0.1161271E+005  0.1043930E+01  0.7957747E-01            NaN
         13   -1    0    0    0    0  0.00000000000E+00  0.00000000000E+00  0.74505805969E-08  0.10566000000E+00  0.10566000000E+00 0. -1.
     999900   -1    0    0    0    0 -0.00000000000E+00 -0.00000000000E+00 -0.74505805969E-08  0.93827000000E+00  0.93827000000E+00 0.  1.
     999902    2    1    2    0    0 -0.10419616588E-01  0.19766391783E-01 -0.94958933062E-02  0.10196513954E+01  0.10193623092E+01 0.  0.
     999903    2    3    3    0    0  0.54257330465E-01  0.93586939506E-01 -0.72776428253E-01  0.13193691037E+00  0.20213031766E-01 0.  0.
         14    1    1    2    0    0  0.10419616588E-01 -0.19766391783E-01  0.94958933062E-02  0.24278604648E-01  0.00000000000E+00 0.  1.
     999901    1    3    3    0    0 -0.64676947053E-01 -0.73820547722E-01  0.63280534947E-01  0.88771448498E+00  0.88000000000E+00 0.  1.
        -11    1    4    4    0    0  0.33106728007E-01  0.74609330234E-01 -0.53613458909E-01  0.97658956038E-01  0.51100000000E-03 0. -1.
         11    1    4    4    0    0  0.21150602458E-01  0.18977609272E-01 -0.19162969344E-01  0.34277954330E-01  0.51100000000E-03 0.  1.
</event>
<event>
 8    1  0.1161271E+005  0.1043930E+01  0.7957747E-01            NaN
         13   -1    0    0    0    0  0.00000000000E+00  0.00000000000E+00  0.74505805969E-08  0.10566000000E+00  0.10566000000E+00 0. -1.
     999900   -1    0    0    0    0 -0.00000000000E+00 -0.00000000000E+00 -0.74505805969E-08  0.93827000000E+00  0.93827000000E+00 0.  1.
     999902    2    1    2    0    0  0.61376325197E-02  0.49938639271E-02 -0.22481078388E-01  0.10200970796E+01  0.10198186327E+01 0.  0.
     999903    2    3    3    0    0 -0.70530550487E-01  0.83216329601E-01 -0.71503354294E-01  0.13195297644E+00  0.19983549530E-01 0.  0.
         14    1    1    2    0    0 -0.61376325197E-02 -0.49938639271E-02  0.22481078388E-01  0.23832920412E-01  0.00000000000E+00 0. -1.
     999901    1    3    3    0    0  0.76668183006E-01 -0.78222465674E-01  0.49022275906E-01  0.88814410315E+00  0.88000000000E+00 0. -1.
        -11    1    4    4    0    0 -0.26496370473E-01  0.40888381194E-01 -0.22623626682E-01  0.53721568947E-01  0.51100000000E-03 0. -1.
         11    1    4    4    0    0 -0.44034180013E-01  0.42327948407E-01 -0.48879727612E-01  0.78231407492E-01  0.51100000000E-03 0.  1.
</event>
<event>
 8    1  0.1161271E+005  0.1043930E+01  0.7957747E-01            NaN
         13   -1    0    0    0    0  0.00000000000E+00  0.00000000000E+00  0.74505805969E-08  0.10566000000E+00  0.10566000000E+00 0. -1.
     999900   -1    0    0    0    0 -0.00000000000E+00 -0.00000000000E+00 -0.74505805969E-08  0.93827000000E+00  0.93827000000E+00 0. -1.
     999902    2    1    2    0    0 -0.17914275944E-01  0.17054751869E-02 -0.15364238506E-01  0.10202680104E+01  0.10199935898E+01 0.  0.
     999903    2    3    3    0    0 -0.56481593235E-01 -0.11679827968E+00 -0.72034949445E-02  0.13145015748E+00  0.19880770891E-01 0.  0.
         14    1    1    2    0    0  0.17914275944E-01 -0.17054751869E-02  0.15364238506E-01  0.23661989626E-01  0.00000000000E+00 0. -1.
     999901    1    3    3    0    0  0.38567317291E-01  0.11850375487E+00 -0.81607435611E-02  0.88881785289E+00  0.88000000000E+00 0.  1.
        -11    1    4    4    0    0 -0.41056165577E-01 -0.10129099517E+00 -0.76816311307E-02  0.10956615816E+00  0.51100000000E-03 0.  1.
         11    1    4    4    0    0 -0.15425427658E-01 -0.15507284510E-01  0.47813618622E-03  0.21883999327E-01  0.51100000000E-03 0. -1.
</event>
<event>
 8    1  0.1161271E+005  0.1043930E+01  0.7957747E-01            NaN
         13   -1    0    0    0    0  0.00000000000E+00  0.00000000000E+00  0.74505805969E-08  0.10566000000E+00  0.10566000000E+00 0.  1.
     999900   -1    0    0    0    0 -0.00000000000E+00 -0.00000000000E+00 -0.74505805969E-08  0.93827000000E+00  0.93827000000E+00 0.  1.
     999902    2    1    2    0    0 -0.42053963010E-02  0.14101874862E-01  0.18769521548E-01  0.10200795666E+01  0.10198007056E+01 0.  0.
     999903    2    3    3    0    0 -0.51256958315E-01  0.10474232886E+00 -0.55806235316E-01  0.13104014968E+00  0.21423204633E-01 0.  0.
         14    1    1    2    0    0  0.42053963010E-02 -0.14101874862E-01 -0.18769521548E-01  0.23850433367E-01  0.00000000000E+00 0. -1.
     999901    1    3    3    0    0  0.47051562014E-01 -0.90640453998E-01  0.74575756863E-01  0.88903941696E+00  0.88000000000E+00 0. -1.
        -11    1    4    4    0    0 -0.30185325071E-01  0.70477650829E-01 -0.25953794398E-01  0.80945127591E-01  0.51100000000E-03 0.  1.
         11    1    4    4    0    0 -0.21071633244E-01  0.34264678030E-01 -0.29852440918E-01  0.50095022087E-01  0.51100000000E-03 0. -1.
</event>
<event>
 8    1  0.1161271E+005  0.1043930E+01  0.7957747E-01            NaN
         13   -1    0    0    0    0  0.00000000000E+00  0.00000000000E+00  0.74505805969E-08  0.10566000000E+00  0.10566000000E+00 0. -1.
     999900   -1    0    0    0    0 -0.00000000000E+00 -0.00000000000E+00 -0.74505805969E-08  0.93827000000E+00  0.93827000000E+00 0. -1.
     999902    2    1    2    0    0 -0.97107247621E-02 -0.12530598536E-01  0.10569987143E-01  0.10248764254E+01  0.10246992967E+01 0.  0.
     999903    2    3    3    0    0  0.19454284278E-01 -0.13150869064E+00  0.22566035998E-01  0.13631000174E+00  0.19954591050E-01 0.  0.
         14    1    1    2    0    0  0.97107247621E-02  0.12530598536E-01 -0.10569987143E-01  0.19053574554E-01  0.00000000000E+00 0.  1.
     999901    1    3    3    0    0 -0.29165009040E-01  0.11897809210E+00 -0.11996048855E-01  0.88856642371E+00  0.88000000000E+00 0. -1.
        -11    1    4    4    0    0  0.19860624011E-01 -0.69332970721E-01  0.15067238752E-01  0.73680309579E-01  0.51100000000E-03 0. -1.
         11    1    4    4    0    0 -0.40633973292E-03 -0.62175719914E-01  0.74987972456E-02  0.62629692159E-01  0.51100000000E-03 0.  1.
</event>
<event>
 8    1  0.1161271E+005  0.1043930E+01  0.7957747E-01            NaN
         13   -1    0    0    0    0  0.00000000000E+00  0.00000000000E+00  0.74505805969E-08  0.10566000000E+00  0.10566000000E+00 0.  1.
     999900   -1    0    0    0    0 -0.00000000000E+00 -0.00000000000E+00 -0.74505805969E-08  0.93827000000E+00  0.93827000000E+00 0. -1.
     999902    2    1    2    0    0 -0.63620364659E-02  0.23428785176E-01  0.75589638841E-02  0.10185032146E+01  0.10181857771E+01 0.  0.
     999903    2    3    3    0    0  0.75747274608E-01 -0.98691206454E-01  0.81529174385E-02  0.12628374374E+00  0.20087559074E-01 0.  0.
         14    1    1    2    0    0  0.63620364659E-02 -0.23428785176E-01 -0.75589638841E-02  0.25426785440E-01  0.00000000000E+00 0. -1.
     999901    1    3    3    0    0 -0.82109311074E-01  0.12211999163E+00 -0.59395355440E-03  0.89221947082E+00  0.88000000000E+00 0. -1.
        -11    1    4    4    0    0  0.28537393268E-01 -0.31523646702E-01  0.11704058386E-01  0.44106339903E-01  0.51100000000E-03 0. -1.
         11    1    4    4    0    0  0.47209881340E-01 -0.67167559752E-01 -0.35511409474E-02  0.82177403842E-01  0.51100000000E-03 0.  1.
</event>
<event>
 7    1  0.1161271E+005  0.1043930E+01  0.7957747E-01            NaN
         13   -1    0    0    0    0  0.00000000000E+00  0.00000000000E+00  0.74505805969E-08  0.10566000000E+00  0.10566000000E+00 0. -1.
     999900   -1    0    0    0    0 -0.00000000000E+00 -0.00000000000E+00 -0.74505805969E-08  0.93827000000E+00  0.93827000000E+00 0.  1.
     999903    2    1    2    0    0  0.23596217730E-01 -0.10021608900E+00 -0.29668919849E-02  0.10494515502E+00  0.20115594147E-01 0.  0.
         14    1    1    2    0    0 -0.21110726735E-01 -0.39645627386E-01  0.16452340497E-01  0.47834277061E-01  0.00000000000E+00 0. -1.
     999901    1    1    2    0    0 -0.24854909954E-02  0.13986171639E+00 -0.13485448513E-01  0.89115056792E+00  0.88000000000E+00 0. -1.
        -11    1    3    3    0    0  0.40175478908E-02 -0.46508144124E-01 -0.87104636152E-02  0.47489803730E-01  0.51100000000E-03 0.  1.
         11    1    3    3    0    0  0.19578669839E-01 -0.53707944880E-01  0.57435716303E-02  0.57455351292E-01  0.51100000000E-03 0. -1.
</event>
<event>
 8    1  0.1161271E+005  0.1043930E+01  0.7957747E-01            NaN
         13   -1    0    0    0    0  0.00000000000E+00  0.00000000000E+00  0.74505805969E-08  0.10566000000E+00  0.10566000000E+00 0.  1.
     999900   -1    0    0    0    0 -0.00000000000E+00 -0.00000000000E+00 -0.74505805969E-08  0.93827000000E+00  0.93827000000E+00 0.  1.
     999902    2    1    2    0    0 -0.19741563047E-01 -0.13342409391E-01  0.13716580008E-02  0.10200630638E+01  0.10197838121E+01 0.  0.
     999903    2    3    3    0    0 -0.92882431314E-01 -0.10375312138E-01 -0.91290655653E-01  0.13217529233E+00  0.20038237065E-01 0.  0.
         14    1    1    2    0    0  0.19741563047E-01  0.13342409391E-01 -0.13716580008E-02  0.23866936242E-01  0.00000000000E+00 0.  1.
     999901    1    3    3    0    0  0.73140868267E-01 -0.29670972530E-02  0.92662313653E-01  0.88788777143E+00  0.88000000000E+00 0. -1.
        -11    1    4    4    0    0 -0.45917341389E-01 -0.79325903239E-02 -0.32154472580E-01  0.56617130423E-01  0.51100000000E-03 0. -1.
         11    1    4    4    0    0 -0.46965089925E-01 -0.24427218140E-02 -0.59136183073E-01  0.75558161908E-01  0.51100000000E-03 0.  1.
</event>
<event>
 8    1  0.1161271E+005  0.1043930E+01  0.7957747E-01            NaN
         13   -1    0    0    0    0  0.00000000000E+00  0.00000000000E+00  0.74505805969E-08  0.10566000000E+00  0.10566000000E+00 0.  1.
     999900   -1    0    0    0    0 -0.00000000000E+00 -0.00000000000E+00 -0.74505805969E-08  0.93827000000E+00  0.93827000000E+00 0. -1.
     999902    2    1    2    0    0 -0.89645724234E-02  0.12475585716E-01  0.18093772964E-01  0.10201941954E+01  0.10199180398E+01 0.  0.
     999903    2    3    3    0    0 -0.43674690789E-01  0.99704934882E-01 -0.66846918721E-01  0.13113363914E+00  0.29647396462E-01 0.  0.
         14    1    1    2    0    0  0.89645724234E-02 -0.12475585716E-01 -0.18093772964E-01  0.23735804553E-01  0.00000000000E+00 0. -1.
     999901    1    3    3    0    0  0.34710118366E-01 -0.87229349166E-01  0.84940691685E-01  0.88906055630E+00  0.88000000000E+00 0.  1.
        -11    1    4    4    0    0 -0.31113700357E-01  0.81069166321E-01 -0.38587791813E-01  0.95023948960E-01  0.51100000000E-03 0. -1.
         11    1    4    4    0    0 -0.12560990432E-01  0.18635768561E-01 -0.28259126909E-01  0.36109690183E-01  0.51100000000E-03 0.  1.
</event>
<event>
 8    1  0.1161271E+005  0.1043930E+01  0.7957747E-01            NaN
         13   -1    0    0    0    0  0.00000000000E+00  0.00000000000E+00  0.74505805969E-08  0.10566000000E+00  0.10566000000E+00 0.  1.
     999900   -1    0    0    0    0 -0.00000000000E+00 -0.00000000000E+00 -0.74505805969E-08  0.93827000000E+00  0.93827000000E+00 0.  1.
     999902    2    1    2    0    0 -0.10217429108E-01 -0.21510820051E-01  0.29263416374E-02  0.10199367778E+01  0.10196545278E+01 0.  0.
     999903    2    3    3    0    0 -0.57174531371E-02  0.15594098937E-01  0.12773233117E+00  0.13034498386E+00  0.19959989944E-01 0.  0.
         14    1    1    2    0    0  0.10217429108E-01  0.21510820051E-01 -0.29263416374E-02  0.23993222214E-01  0.00000000000E+00 0. -1.
     999901    1    3    3    0    0 -0.44999759705E-02 -0.37104918988E-01 -0.12480598954E+00  0.88959179393E+00  0.88000000000E+00 0.  1.
        -11    1    4    4    0    0 -0.13195047526E-01  0.10642445857E-01  0.80805970252E-01  0.82566560316E-01  0.51100000000E-03 0.  1.
         11    1    4    4    0    0  0.74775943893E-02  0.49516530800E-02  0.46926360921E-01  0.47778423544E-01  0.51100000000E-03 0. -1.
</event>
<event>
 8    1  0.1161271E+005  0.1043930E+01  0.7957747E-01            NaN
         13   -1    0    0    0    0  0.00000000000E+00  0.00000000000E+00  0.74505805969E-08  0.10566000000E+00  0.10566000000E+00 0. -1.
     999900   -1    0    0    0    0 -0.00000000000E+00 -0.00000000000E+00 -0.74505805969E-08  0.93827000000E+00  0.93827000000E+00 0. -1.
     999902    2    1    2    0    0  0.58140273400E-02  0.22689251705E-01 -0.54838855973E-02  0.10198742718E+01  0.10195905317E+01 0.  0.
     999903    2    3    3    0    0 -0.51114516714E-01 -0.99775611820E-01 -0.58326687516E-01  0.12800496321E+00  0.20381403233E-01 0.  0.
         14    1    1    2    0    0 -0.58140273400E-02 -0.22689251705E-01  0.54838855973E-02  0.24055728176E-01  0.00000000000E+00 0. -1.
     999901    1    3    3    0    0  0.56928544054E-01  0.12246486353E+00  0.52842801919E-01  0.89186930861E+00  0.88000000000E+00 0. -1.
        -11    1    4    4    0    0 -0.14965581462E-01 -0.42241367920E-01 -0.14318593818E-01  0.47048751760E-01  0.51100000000E-03 0.  1.
         11    1    4    4    0    0 -0.36148935252E-01 -0.57534243901E-01 -0.44008093698E-01  0.80956211454E-01  0.51100000000E-03 0. -1.
</event>
<event>
 8    1  0.1161271E+005  0.1043930E+01  0.7957747E-01            NaN
         13   -1    0    0    0    0  0.00000000000E+00  0.00000000000E+00  0.74505805969E-08  0.10566000000E+00  0.10566000000E+00 0.  1.
     999900   -1    0    0    0    0 -0.00000000000E+00 -0.00000000000E+00 -0.74505805969E-08  0.93827000000E+00  0.93827000000E+00 0. -1.
     999902    2    1    2    0    0 -0.23108836916E-01 -0.10683536355E-02 -0.38059337698E-02  0.10204854941E+01  0.10202161530E+01 0.  0.
     999903    2    3    3    0    0 -0.11463932896E+00  0.42294914019E-01  0.49123716165E-01  0.13309620426E+00  0.19246417881E-01 0.  0.
         14    1    1    2    0    0  0.23108836916E-01  0.10683536355E-02  0.38059337698E-02  0.23444505859E-01  0.00000000000E+00 0.  1.
     999901    1    3    3    0    0  0.91530492047E-01 -0.43363267654E-01 -0.52929649935E-01  0.88738928988E+00  0.88000000000E+00 0. -1.
        -11    1    4    4    0    0 -0.21271671275E-01  0.41674891659E-02  0.15984957696E-01  0.26937556651E-01  0.51100000000E-03 0.  1.
         11    1    4    4    0    0 -0.93367657688E-01  0.38127424853E-01  0.33138758469E-01  0.10615864761E+00  0.51100000000E-03 0. -1.
</event>
<event>
 8    1  0.1161271E+005  0.1043930E+01  0.7957747E-01            NaN
         13   -1    0    0    0    0  0.00000000000E+00  0.00000000000E+00  0.74505805969E-08  0.10566000000E+00  0.10566000000E+00 0.  1.
     999900   -1    0    0    0    0 -0.00000000000E+00 -0.00000000000E+00 -0.74505805969E-08  0.93827000000E+00  0.93827000000E+00 0. -1.
     999902    2    1    2    0    0 -0.36712739944E-03 -0.13117662168E-01 -0.18388355996E-01  0.10213393055E+01  0.10210894365E+01 0.  0.
     999903    2    3    3    0    0 -0.44491560204E-01 -0.21715329438E-01 -0.12347746924E+00  0.13394727982E+00  0.15624784763E-01 0.  0.
         14    1    1    2    0    0  0.36712739944E-03  0.13117662168E-01  0.18388355996E-01  0.22590694533E-01  0.00000000000E+00 0.  1.
     999901    1    3    3    0    0  0.44124432804E-01  0.85976672703E-02  0.10508911325E+00  0.88739202564E+00  0.88000000000E+00 0.  1.
        -11    1    4    4    0    0 -0.53951434457E-02  0.23841695004E-02 -0.12090498341E-01  0.13462284655E-01  0.51100000000E-03 0. -1.
         11    1    4    4    0    0 -0.39096416758E-01 -0.24099498939E-01 -0.11138697090E+00  0.12048499517E+00  0.51100000000E-03 0.  1.
</event>
<event>
 8    1  0.1161271E+005  0.1043930E+01  0.7957747E-01            NaN
         13   -1    0    0    0    0  0.00000000000E+00  0.00000000000E+00  0.74505805969E-08  0.10566000000E+00  0.10566000000E+00 0. -1.
     999900   -1    0    0    0    0 -0.00000000000E+00 -0.00000000000E+00 -0.74505805969E-08  0.93827000000E+00  0.93827000000E+00 0.  1.
     999902    2    1    2    0    0  0.15766333010E-01 -0.12888548384E-01  0.11278605250E-01  0.10206512785E+01  0.10203857768E+01 0.  0.
     999903    2    3    3    0    0  0.15624663522E-01 -0.12753341125E+00 -0.25707865726E-01  0.13244439742E+00  0.19280118035E-01 0.  0.
         14    1    1    2    0    0 -0.15766333010E-01  0.12888548384E-01 -0.11278605250E-01  0.23278721451E-01  0.00000000000E+00 0.  1.
     999901    1    3    3    0    0  0.14166948746E-03  0.11464486287E+00  0.36986470976E-01  0.88820688113E+00  0.88000000000E+00 0.  1.
        -11    1    4    4    0    0 -0.16129144655E-02 -0.56622765305E-01 -0.67807759558E-02  0.57052424027E-01  0.51100000000E-03 0. -1.
         11    1    4    4    0    0  0.17237577988E-01 -0.70910645947E-01 -0.18927089770E-01  0.75391973391E-01  0.51100000000E-03 0.  1.
</event>
<event>
 8    1  0.1161271E+005  0.1043930E+01  0.7957747E-01            NaN
         13   -1    0    0    0    0  0.00000000000E+00  0.00000000000E+00  0.74505805969E-08  0.10566000000E+00  0.10566000000E+00 0. -1.
     999900   -1    0    0    0    0 -0.00000000000E+00 -0.00000000000E+00 -0.74505805969E-08  0.93827000000E+00  0.93827000000E+00 0. -1.
     999902    2    1    2    0    0 -0.22873133877E-01 -0.10756297271E-03 -0.55640631555E-02  0.10203895960E+01  0.10201180211E+01 0.  0.
     999903    2    3    3    0    0 -0.48349293277E-01 -0.56231259028E-01  0.10598611662E+00  0.13120887949E+00  0.21979638000E-01 0.  0.
         14    1    1    2    0    0  0.22873133877E-01  0.10756297271E-03  0.55640631555E-02  0.23540404031E-01  0.00000000000E+00 0.  1.
     999901    1    3    3    0    0  0.25476159400E-01  0.56123696055E-01 -0.11155017978E+00  0.88918071648E+00  0.88000000000E+00 0. -1.
        -11    1    4    4    0    0 -0.18197947800E-01 -0.29584523867E-01  0.65408139772E-01  0.74060078491E-01  0.51100000000E-03 0.  1.
         11    1    4    4    0    0 -0.30151345477E-01 -0.26646735161E-01  0.40577976852E-01  0.57148800995E-01  0.51100000000E-03 0. -1.
</event>
<event>
 8    1  0.1161271E+005  0.1043930E+01  0.7957747E-01            NaN
         13   -1    0    0    0    0  0.00000000000E+00  0.00000000000E+00  0.74505805969E-08  0.10566000000E+00  0.10566000000E+00 0. -1.
     999900   -1    0    0    0    0 -0.00000000000E+00 -0.00000000000E+00 -0.74505805969E-08  0.93827000000E+00  0.93827000000E+00 0.  1.
     999902    2    1    2    0    0 -0.23374052145E-01  0.60021113704E-02  0.17759431688E-02  0.10197323632E+01  0.10194452250E+01 0.  0.
     999903    2    3    3    0    0  0.77478752799E-01  0.80932767268E-01  0.60260405051E-01  0.12888651581E+00  0.20672387073E-01 0.  0.
         14    1    1    2    0    0  0.23374052145E-01 -0.60021113704E-02 -0.17759431688E-02  0.24197636842E-01  0.00000000000E+00 0.  1.
     999901    1    3    3    0    0 -0.10085280494E+00 -0.74930655898E-01 -0.58484461883E-01  0.89084584735E+00  0.88000000000E+00 0.  1.
        -11    1    4    4    0    0  0.59282566523E-01  0.53471902216E-01  0.50723848212E-01  0.94587720760E-01  0.51100000000E-03 0.  1.
         11    1    4    4    0    0  0.18196186276E-01  0.27460865053E-01  0.95365568394E-02  0.34298795049E-01  0.51100000000E-03 0. -1.
</event>
<event>
 8    1  0.1161271E+005  0.1043930E+01  0.7957747E-01            NaN
         13   -1    0    0    0    0  0.00000000000E+00  0.00000000000E+00  0.74505805969E-08  0.10566000000E+00  0.10566000000E+00 0. -1.
     999900   -1    0    0    0    0 -0.00000000000E+00 -0.00000000000E+00 -0.74505805969E-08  0.93827000000E+00  0.93827000000E+00 0. -1.
     999902    2    1    2    0    0 -0.20461287554E-01  0.74662542748E-02 -0.70510457322E-02  0.10210361911E+01  0.10207794948E+01 0.  0.
     999903    2    3    3    0    0  0.77825832448E-01  0.23421657940E-01 -0.10020110723E+00  0.13053528326E+00  0.19843488282E-01 0.  0.
         14    1    1    2    0    0  0.20461287554E-01 -0.74662542748E-02  0.70510457322E-02  0.22893808927E-01  0.00000000000E+00 0. -1.
     999901    1    3    3    0    0 -0.98287120002E-01 -0.15955403666E-01  0.93150061501E-01  0.89050090782E+00  0.88000000000E+00 0.  1.
        -11    1    4    4    0    0  0.39909623880E-01  0.20397015853E-01 -0.45157819872E-01  0.63626300776E-01  0.51100000000E-03 0. -1.
         11    1    4    4    0    0  0.37916208569E-01  0.30246420873E-02 -0.55043287362E-01  0.66908982480E-01  0.51100000000E-03 0.  1.
</event>
<event>
 8    1  0.1161271E+005  0.1043930E+01  0.7957747E-01            NaN
         13   -1    0    0    0    0  0.00000000000E+00  0.00000000000E+00  0.74505805969E-08  0.10566000000E+00  0.10566000000E+00 0. -1.
     999900   -1    0    0    0    0 -0.00000000000E+00 -0.00000000000E+00 -0.74505805969E-08  0.93827000000E+00  0.93827000000E+00 0. -1.
     999902    2    1    2    0    0  0.78589952968E-02  0.15268247352E-01 -0.16181475683E-01  0.10203350145E+01  0.10200621640E+01 0.  0.
     999903    2    3    3    0    0 -0.19674551873E-01  0.53183326321E-01  0.11442625065E+00  0.12946239310E+00  0.21250651729E-01 0.  0.
         14    1    1    2    0    0 -0.78589952968E-02 -0.15268247352E-01  0.16181475683E-01  0.23594985475E-01  0.00000000000E+00 0. -1.
     999901    1    3    3    0    0  0.27533547170E-01 -0.37915078969E-01 -0.13060772633E+00  0.89087262143E+00  0.88000000000E+00 0. -1.
        -11    1    4    4    0    0 -0.15671805061E-01  0.53750288936E-01  0.10162775035E+00  0.11603085709E+00  0.51100000000E-03 0.  1.
         11    1    4    4    0    0 -0.40027468123E-02 -0.56696261480E-03  0.12798500297E-01  0.13431536006E-01  0.51100000000E-03 0. -1.
</event>
<event>
 8    1  0.1161271E+005  0.1043930E+01  0.7957747E-01            NaN
         13   -1    0    0    0    0  0.00000000000E+00  0.00000000000E+00  0.74505805969E-08  0.10566000000E+00  0.10566000000E+00 0.  1.
     999900   -1    0    0    0    0 -0.00000000000E+00 -0.00000000000E+00 -0.74505805969E-08  0.93827000000E+00  0.93827000000E+00 0.  1.
     999902    2    1    2    0    0 -0.10069676245E-01  0.56672983013E-02 -0.21507662464E-01  0.10195149187E+01  0.10192225337E+01 0.  0.
     999903    2    3    3    0    0  0.73725725023E-02 -0.57936987219E-01 -0.11651324094E+00  0.13194757078E+00  0.20585839961E-01 0.  0.
         14    1    1    2    0    0  0.10069676245E-01 -0.56672983013E-02  0.21507662464E-01  0.24415081290E-01  0.00000000000E+00 0.  1.
     999901    1    3    3    0    0 -0.17442248748E-01  0.63604285520E-01  0.95005578473E-01  0.88756734793E+00  0.88000000000E+00 0. -1.
        -11    1    4    4    0    0 -0.31770144897E-02 -0.21428592967E-03 -0.53581141484E-02  0.62537866733E-02  0.51100000000E-03 0.  1.
         11    1    4    4    0    0  0.10549586992E-01 -0.57722701289E-01 -0.11115512679E+00  0.12569378410E+00  0.51100000000E-03 0. -1.
</event>
<event>
 8    1  0.1161271E+005  0.1043930E+01  0.7957747E-01            NaN
         13   -1    0    0    0    0  0.00000000000E+00  0.00000000000E+00  0.74505805969E-08  0.10566000000E+00  0.10566000000E+00 0.  1.
     999900   -1    0    0    0    0 -0.00000000000E+00 -0.00000000000E+00 -0.74505805969E-08  0.93827000000E+00  0.93827000000E+00 0.  1.
     999902    2    1    2    0    0 -0.62512410979E-02  0.13692325276E-01 -0.18157181581E-01  0.10203452373E+01  0.10200726260E+01 0.  0.
     999903    2    3    3    0    0  0.33551270910E-01  0.68632663177E-01  0.10275920556E+00  0.12948977579E+00  0.19287754465E-01 0.  0.
         14    1    1    2    0    0  0.62512410979E-02 -0.13692325276E-01  0.18157181581E-01  0.23584762659E-01  0.00000000000E+00 0.  1.
     999901    1    3    3    0    0 -0.39802512007E-01 -0.54940337901E-01 -0.12091638714E+00  0.89085546155E+00  0.88000000000E+00 0.  1.
        -11    1    4    4    0    0  0.22874145292E-01  0.37114388920E-01  0.43897254559E-01  0.61870303592E-01  0.51100000000E-03 0. -1.
         11    1    4    4    0    0  0.10677125618E-01  0.31518274257E-01  0.58861951005E-01  0.67619472201E-01  0.51100000000E-03 0.  1.
</event>
<event>
 8    1  0.1161271E+005  0.1043930E+01  0.7957747E-01            NaN
         13   -1    0    0    0    0  0.00000000000E+00  0.00000000000E+00  0.74505805969E-08  0.10566000000E+00  0.10566000000E+00 0. -1.
     999900   -1    0    0    0    0 -0.00000000000E+00 -0.00000000000E+00 -0.74505805969E-08  0.93827000000E+00  0.93827000000E+00 0. -1.
     999902    2    1    2    0    0 -0.13014877968E-01  0.20329927879E-01  0.28430744211E-02  0.10196241141E+01  0.10193343701E+01 0.  0.
     999903    2    3    3    0    0  0.71634769774E-01  0.10699284102E+00 -0.15640552466E-01  0.13113232022E+00  0.19288604220E-01 0.  0.
         14    1    1    2    0    0  0.13014877968E-01 -0.20329927879E-01 -0.28430744211E-02  0.24305885877E-01  0.00000000000E+00 0.  1.
     999901    1    3    3    0    0 -0.84649647742E-01 -0.86662913145E-01  0.18483626887E-01  0.88849179391E+00  0.88000000000E+00 0.  1.
        -11    1    4    4    0    0  0.49370098650E-01  0.85529371963E-01 -0.69326266595E-02  0.99000012841E-01  0.51100000000E-03 0. -1.
         11    1    4    4    0    0  0.22264671124E-01  0.21463469062E-01 -0.87079258061E-02  0.32132307376E-01  0.51100000000E-03 0.  1.
</event>
<event>
 8    1  0.1161271E+005  0.1043930E+01  0.7957747E-01            NaN
         13   -1    0    0    0    0  0.00000000000E+00  0.00000000000E+00  0.74505805969E-08  0.10566000000E+00  0.10566000000E+00 0. -1.
     999900   -1    0    0    0    0 -0.00000000000E+00 -0.00000000000E+00 -0.74505805969E-08  0.93827000000E+00  0.93827000000E+00 0.  1.
     999902    2    1    2    0    0 -0.77293843214E-02 -0.17706474145E-01 -0.12193454416E-01  0.10210839295E+01  0.10208283147E+01 0.  0.
     999903    2    3    3    0    0  0.58898990584E-01 -0.11716409851E+00  0.54436746623E-02  0.13280344014E+00  0.20263342443E-01 0.  0.
         14    1    1    2    0    0  0.77293843214E-02  0.17706474145E-01  0.12193454416E-01  0.22846070543E-01  0.00000000000E+00 0. -1.
     999901    1    3    3    0    0 -0.66628374905E-01  0.99457624363E-01 -0.17637129078E-01  0.88828048932E+00  0.88000000000E+00 0.  1.
        -11    1    4    4    0    0  0.41963481800E-01 -0.67346642378E-01  0.10032513195E-01  0.79983851410E-01  0.51100000000E-03 0. -1.
         11    1    4    4    0    0  0.16935508784E-01 -0.49817456130E-01 -0.45888385324E-02  0.52819588726E-01  0.51100000000E-03 0.  1.
</event>
<event>
 8    1  0.1161271E+005  0.1043930E+01  0.7957747E-01            NaN
         13   -1    0    0    0    0  0.00000000000E+00  0.00000000000E+00  0.74505805969E-08  0.10566000000E+00  0.10566000000E+00 0.  1.
     999900   -1    0    0    0    0 -0.00000000000E+00 -0.00000000000E+00 -0.74505805969E-08  0.93827000000E+00  0.93827000000E+00 0. -1.
     999902    2    1    2    0    0 -0.17875932987E-01  0.16193333809E-01  0.27099558746E-02  0.10196582695E+01  0.10193693490E+01 0.  0.
     999903    2    3    3    0    0 -0.63424955693E-01  0.74559502146E-01 -0.86638890826E-01  0.13204093108E+00  0.18618961109E-01 0.  0.
         14    1    1    2    0    0  0.17875932987E-01 -0.16193333809E-01 -0.27099558746E-02  0.24271730487E-01  0.00000000000E+00 0. -1.
     999901    1    3    3    0    0  0.45549022706E-01 -0.58366168337E-01  0.89348846701E-01  0.88761733843E+00  0.88000000000E+00 0.  1.
        -11    1    4    4    0    0 -0.55889466075E-01  0.62914829933E-01 -0.65008341033E-01  0.10634027350E+00  0.51100000000E-03 0. -1.
         11    1    4    4    0    0 -0.75354896173E-02  0.11644672213E-01 -0.21630549793E-01  0.25700657580E-01  0.51100000000E-03 0.  1.
</event>
<event>
 8    1  0.1161271E+005  0.1043930E+01  0.7957747E-01            NaN
         13   -1    0    0    0    0  0.00000000000E+00  0.00000000000E+00  0.74505805969E-08  0.10566000000E+00  0.10566000000E+00 0.  1.
     999900   -1    0    0    0    0 -0.00000000000E+00 -0.00000000000E+00 -0.74505805969E-08  0.93827000000E+00  0.93827000000E+00 0. -1.
     999902    2    1    2    0    0  0.12852121960E-02 -0.20137005045E-01  0.10526621202E-01  0.10211712545E+01  0.10209176120E+01 0.  0.
     999903    2    3    3    0    0 -0.86263865244E-01  0.73271327697E-01 -0.58699187660E-01  0.12921712441E+00  0.21007824711E-01 0.  0.
         14    1    1    2    0    0 -0.12852121960E-02  0.20137005045E-01 -0.10526621202E-01  0.22758745494E-01  0.00000000000E+00 0.  1.
     999901    1    3    3    0    0  0.87549077440E-01 -0.93408332741E-01  0.69225808861E-01  0.89195413010E+00  0.88000000000E+00 0.  1.
        -11    1    4    4    0    0 -0.18592063317E-01  0.25747465746E-01 -0.10248630733E-01  0.33375026046E-01  0.51100000000E-03 0.  1.
         11    1    4    4    0    0 -0.67671801927E-01  0.47523861951E-01 -0.48450556927E-01  0.95842098361E-01  0.51100000000E-03 0. -1.
</event>
<event>
 8    1  0.1161271E+005  0.1043930E+01  0.7957747E-01            NaN
         13   -1    0    0    0    0  0.00000000000E+00  0.00000000000E+00  0.74505805969E-08  0.10566000000E+00  0.10566000000E+00 0. -1.
     999900   -1    0    0    0    0 -0.00000000000E+00 -0.00000000000E+00 -0.74505805969E-08  0.93827000000E+00  0.93827000000E+00 0. -1.
     999902    2    1    2    0    0  0.10393792471E-01  0.21114947339E-01  0.35229536941E-02  0.10201332959E+01  0.10198557046E+01 0.  0.
     999903    2    3    3    0    0 -0.92486924193E-02 -0.12578057634E+00 -0.54101519862E-02  0.12769622671E+00  0.19255255814E-01 0.  0.
         14    1    1    2    0    0 -0.10393792471E-01 -0.21114947339E-01 -0.35229536941E-02  0.23796704095E-01  0.00000000000E+00 0. -1.
     999901    1    3    3    0    0  0.19642484890E-01  0.14689552368E+00  0.89331056803E-02  0.89243706919E+00  0.88000000000E+00 0.  1.
        -11    1    4    4    0    0 -0.14330824615E-01 -0.75447422204E-01 -0.66851286481E-02  0.77088508335E-01  0.51100000000E-03 0. -1.
         11    1    4    4    0    0  0.50821321953E-02 -0.50333154136E-01  0.12749766619E-02  0.50607718378E-01  0.51100000000E-03 0.  1.
</event>
<event>
 8    1  0.1161271E+005  0.1043930E+01  0.7957747E-01            NaN
         13   -1    0    0    0    0  0.00000000000E+00  0.00000000000E+00  0.74505805969E-08  0.10566000000E+00  0.10566000000E+00 0.  1.
     999900   -1    0    0    0    0 -0.00000000000E+00 -0.00000000000E+00 -0.74505805969E-08  0.93827000000E+00  0.93827000000E+00 0.  1.
     999902    2    1    2    0    0 -0.74652460294E-02 -0.17056150026E-01 -0.12864084912E-01  0.10212997805E+01  0.10210490267E+01 0.  0.
     999903    2    3    3    0    0 -0.98462563825E-01  0.62677437896E-01 -0.57992761824E-01  0.13187606017E+00  0.20119570699E-01 0.  0.
         14    1    1    2    0    0  0.74652460294E-02  0.17056150026E-01  0.12864084912E-01  0.22630219456E-01  0.00000000000E+00 0.  1.
     999901    1    3    3    0    0  0.90997317796E-01 -0.79733587922E-01  0.45128676911E-01  0.88942372038E+00  0.88000000000E+00 0.  1.
        -11    1    4    4    0    0 -0.37285164234E-01  0.12638739740E-01 -0.20717347431E-01  0.44490345242E-01  0.51100000000E-03 0. -1.
         11    1    4    4    0    0 -0.61177399591E-01  0.50038698156E-01 -0.37275414393E-01  0.87385714926E-01  0.51100000000E-03 0.  1.
</event>
<event>
 8    1  0.1161271E+005  0.1043930E+01  0.7957747E-01            NaN
         13   -1    0    0    0    0  0.00000000000E+00  0.00000000000E+00  0.74505805969E-08  0.10566000000E+00  0.10566000000E+00 0.  1.
     999900   -1    0    0    0    0 -0.00000000000E+00 -0.00000000000E+00 -0.74505805969E-08  0.93827000000E+00  0.93827000000E+00 0.  1.
     999902    2    1    2    0    0  0.10488182185E-01  0.92416908344E-02 -0.18713651736E-01  0.10205716701E+01  0.10203043282E+01 0.  0.
     999903    2    3    3    0    0 -0.82152325943E-01 -0.42216426370E-01 -0.90958141148E-01  0.13127449376E+00  0.20697293486E-01 0.  0.
         14    1    1    2    0    0 -0.10488182185E-01 -0.92416908344E-02  0.18713651736E-01  0.23358329913E-01  0.00000000000E+00 0.  1.
     999901    1    3    3    0    0  0.92640508129E-01  0.51458117204E-01  0.72244489412E-01  0.88929717633E+00  0.88000000000E+00 0. -1.
        -11    1    4    4    0    0 -0.25292785271E-01 -0.28031397297E-02 -0.23379068849E-01  0.34560447919E-01  0.51100000000E-03 0. -1.
         11    1    4    4    0    0 -0.56859540672E-01 -0.39413286640E-01 -0.67579072299E-01  0.96714045842E-01  0.51100000000E-03 0.  1.
</event>
<event>
 8    1  0.1161271E+005  0.1043930E+01  0.7957747E-01            NaN
         13   -1    0    0    0    0  0.00000000000E+00  0.00000000000E+00  0.74505805969E-08  0.10566000000E+00  0.10566000000E+00 0.  1.
     999900   -1    0    0    0    0 -0.00000000000E+00 -0.00000000000E+00 -0.74505805969E-08  0.93827000000E+00  0.93827000000E+00 0. -1.
     999902    2    1    2    0    0 -0.37519165338E-02 -0.15340522073E-01 -0.17849565349E-01  0.10200969247E+01  0.10198184742E+01 0.  0.
     999903    2    3    3    0    0  0.99307682414E-01 -0.56362946753E-01 -0.62599033628E-01  0.13200535556E+00  0.21632783747E-01 0.  0.
         14    1    1    2    0    0  0.37519165338E-02  0.15340522073E-01  0.17849565349E-01  0.23833075301E-01  0.00000000000E+00 0.  1.
     999901    1    3    3    0    0 -0.10305959895E+00  0.41022424680E-01  0.44749468279E-01  0.88809156914E+00  0.88000000000E+00 0.  1.
        -11    1    4    4    0    0  0.69084963900E-01 -0.40680245130E-01 -0.32340683659E-01  0.86451116369E-01  0.51100000000E-03 0.  1.
         11    1    4    4    0    0  0.30222718514E-01 -0.15682701623E-01 -0.30258349969E-01  0.45554239192E-01  0.51100000000E-03 0. -1.
</event>
<event>
 8    1  0.1161271E+005  0.1043930E+01  0.7957747E-01            NaN
         13   -1    0    0    0    0  0.00000000000E+00  0.00000000000E+00  0.74505805969E-08  0.10566000000E+00  0.10566000000E+00 0. -1.
     999900   -1    0    0    0    0 -0.00000000000E+00 -0.00000000000E+00 -0.74505805969E-08  0.93827000000E+00  0.93827000000E+00 0.  1.
     999902    2    1    2    0    0  0.43161543028E-02  0.22570301415E-01 -0.14007975002E-02  0.10209080555E+01  0.10206484448E+01 0.  0.
     999903    2    3    3    0    0 -0.45487213260E-01 -0.10984934961E+00 -0.44331270622E-01  0.12857495352E+00  0.20743455308E-01 0.  0.
         14    1    1    2    0    0 -0.43161543028E-02 -0.22570301415E-01  0.14007975002E-02  0.23021944479E-01  0.00000000000E+00 0.  1.
     999901    1    3    3    0    0  0.49803367563E-01  0.13241965103E+00  0.42930473121E-01  0.89233310200E+00  0.88000000000E+00 0. -1.
        -11    1    4    4    0    0 -0.20711570019E-01 -0.67853344804E-01 -0.34254161613E-01  0.78782321892E-01  0.51100000000E-03 0. -1.
         11    1    4    4    0    0 -0.24775643240E-01 -0.41996004808E-01 -0.10077109008E-01  0.49792631632E-01  0.51100000000E-03 0.  1.
</event>
<event>
 8    1  0.1161271E+005  0.1043930E+01  0.7957747E-01            NaN
         13   -1    0    0    0    0  0.00000000000E+00  0.00000000000E+00  0.74505805969E-08  0.10566000000E+00  0.10566000000E+00 0. -1.
     999900   -1    0    0    0    0 -0.00000000000E+00 -0.00000000000E+00 -0.74505805969E-08  0.93827000000E+00  0.93827000000E+00 0.  1.
     999902    2    1    2    0    0  0.79250642284E-02  0.21083064946E-01  0.68665951527E-02  0.10203831871E+01  0.10201114626E+01 0.  0.
     999903    2    3    3    0    0  0.12821905970E+00 -0.14376245366E-01  0.88088936360E-02  0.13148961607E+00  0.23772228033E-01 0.  0.
         14    1    1    2    0    0 -0.79250642284E-02 -0.21083064946E-01 -0.68665951527E-02  0.23546812938E-01  0.00000000000E+00 0.  1.
     999901    1    3    3    0    0 -0.12029399547E+00  0.35459310312E-01 -0.19422984833E-02  0.88889357100E+00  0.88000000000E+00 0. -1.
        -11    1    4    4    0    0  0.64599657265E-01 -0.11582991748E-01  0.15556686211E-01  0.67450374525E-01  0.51100000000E-03 0.  1.
         11    1    4    4    0    0  0.63619402432E-01 -0.27932536180E-02 -0.67477925753E-02  0.64039241542E-01  0.51100000000E-03 0. -1.
</event>
<event>
 8    1  0.1161271E+005  0.1043930E+01  0.7957747E-01            NaN
         13   -1    0    0    0    0  0.00000000000E+00  0.00000000000E+00  0.74505805969E-08  0.10566000000E+00  0.10566000000E+00 0.  1.
     999900   -1    0    0    0    0 -0.00000000000E+00 -0.00000000000E+00 -0.74505805969E-08  0.93827000000E+00  0.93827000000E+00 0. -1.
     999902    2    1    2    0    0 -0.15301725396E-01 -0.26545138898E-02  0.17379317762E-01  0.10206227065E+01  0.10203565451E+01 0.  0.
     999903    2    3    3    0    0 -0.10197348133E+00 -0.27127946814E-01 -0.74995722802E-01  0.13121611202E+00  0.21419458975E-01 0.  0.
         14    1    1    2    0    0  0.15301725396E-01  0.26545138898E-02 -0.17379317762E-01  0.23307293493E-01  0.00000000000E+00 0. -1.
     999901    1    3    3    0    0  0.86671755932E-01  0.24473432924E-01  0.92375040565E-01  0.88940659449E+00  0.88000000000E+00 0.  1.
        -11    1    4    4    0    0 -0.33014672700E-01 -0.18828310140E-01 -0.22703622075E-01  0.44274026839E-01  0.51100000000E-03 0. -1.
         11    1    4    4    0    0 -0.68958808628E-01 -0.82996366743E-02 -0.52292100728E-01  0.86942085182E-01  0.51100000000E-03 0.  1.
</event>
<event>
 8    1  0.1161271E+005  0.1043930E+01  0.7957747E-01            NaN
         13   -1    0    0    0    0  0.00000000000E+00  0.00000000000E+00  0.74505805969E-08  0.10566000000E+00  0.10566000000E+00 0. -1.
     999900   -1    0    0    0    0 -0.00000000000E+00 -0.00000000000E+00 -0.74505805969E-08  0.93827000000E+00  0.93827000000E+00 0. -1.
     999902    2    1    2    0    0  0.12296137565E-01 -0.84790351479E-02  0.18012391362E-01  0.10205305282E+01  0.10202622329E+01 0.  0.
     999903    2    3    3    0    0 -0.75774798513E-01  0.87754869401E-02 -0.10074409101E+00  0.12802993417E+00  0.20578214397E-01 0.  0.
         14    1    1    2    0    0 -0.12296137565E-01  0.84790351479E-02 -0.18012391362E-01  0.23399471760E-01  0.00000000000E+00 0.  1.
     999901    1    3    3    0    0  0.88070936078E-01 -0.17254522088E-01  0.11875648238E+00  0.89250059407E+00  0.88000000000E+00 0.  1.
        -11    1    4    4    0    0 -0.50345019966E-02  0.64201479224E-02 -0.11901643829E-01  0.14438654942E-01  0.51100000000E-03 0. -1.
         11    1    4    4    0    0 -0.70740296516E-01  0.23553390178E-02 -0.88842447185E-01  0.11359127922E+00  0.51100000000E-03 0.  1.
</event>
<event>
 8    1  0.1161271E+005  0.1043930E+01  0.7957747E-01            NaN
         13   -1    0    0    0    0  0.00000000000E+00  0.00000000000E+00  0.74505805969E-08  0.10566000000E+00  0.10566000000E+00 0.  1.
     999900   -1    0    0    0    0 -0.00000000000E+00 -0.00000000000E+00 -0.74505805969E-08  0.93827000000E+00  0.93827000000E+00 0. -1.
     999902    2    1    2    0    0 -0.19310380890E-01  0.52619221023E-03  0.11780120401E-01  0.10213039326E+01  0.10210532718E+01 0.  0.
     999903    2    3    3    0    0  0.22970194143E-01  0.23035519295E-01  0.12691255276E+00  0.13251273453E+00  0.19863629994E-01 0.  0.
         14    1    1    2    0    0  0.19310380890E-01 -0.52619221023E-03 -0.11780120401E-01  0.22626067378E-01  0.00000000000E+00 0. -1.
     999901    1    3    3    0    0 -0.42280575032E-01 -0.22509327085E-01 -0.11513243236E+00  0.88879119809E+00  0.88000000000E+00 0. -1.
        -11    1    4    4    0    0  0.87202536040E-03  0.12876703749E-01  0.58346909375E-01  0.59759458517E-01  0.51100000000E-03 0.  1.
         11    1    4    4    0    0  0.22098168782E-01  0.10158815546E-01  0.68565643381E-01  0.72753276009E-01  0.51100000000E-03 0. -1.
</event>
<event>
 8    1  0.1161271E+005  0.1043930E+01  0.7957747E-01            NaN
         13   -1    0    0    0    0  0.00000000000E+00  0.00000000000E+00  0.74505805969E-08  0.10566000000E+00  0.10566000000E+00 0.  1.
     999900   -1    0    0    0    0 -0.00000000000E+00 -0.00000000000E+00 -0.74505805969E-08  0.93827000000E+00  0.93827000000E+00 0. -1.
     999902    2    1    2    0    0  0.69873196678E-02 -0.18027524677E-01 -0.16289639901E-01  0.10186482546E+01  0.10183344735E+01 0.  0.
     999903    2    3    3    0    0  0.82994658276E-01  0.95260656485E-01 -0.41658351844E-02  0.12805389455E+00  0.20438682719E-01 0.  0.
         14    1    1    2    0    0 -0.69873196678E-02  0.18027524677E-01  0.16289639901E-01  0.25281745396E-01  0.00000000000E+00 0.  1.
     999901    1    3    3    0    0 -0.76007338608E-01 -0.11328818116E+00 -0.12123804717E-01  0.89059436005E+00  0.88000000000E+00 0.  1.
        -11    1    4    4    0    0  0.27991364008E-01  0.30902093400E-01 -0.10976445118E-01  0.43118433459E-01  0.51100000000E-03 0.  1.
         11    1    4    4    0    0  0.55003294268E-01  0.64358563085E-01  0.68106099336E-02  0.84935461095E-01  0.51100000000E-03 0. -1.
</event>
<event>
 8    1  0.1161271E+005  0.1043930E+01  0.7957747E-01            NaN
         13   -1    0    0    0    0  0.00000000000E+00  0.00000000000E+00  0.74505805969E-08  0.10566000000E+00  0.10566000000E+00 0. -1.
     999900   -1    0    0    0    0 -0.00000000000E+00 -0.00000000000E+00 -0.74505805969E-08  0.93827000000E+00  0.93827000000E+00 0.  1.
     999902    2    1    2    0    0  0.24303537986E-02 -0.20828279529E-01 -0.10462396973E-01  0.10204952907E+01  0.10202261773E+01 0.  0.
     999903    2    3    3    0    0  0.12718927245E+00 -0.19125039501E-01 -0.17157551480E-01  0.13166880941E+00  0.22347609191E-01 0.  0.
         14    1    1    2    0    0 -0.24303537986E-02  0.20828279529E-01  0.10462396973E-01  0.23434709261E-01  0.00000000000E+00 0. -1.
     999901    1    3    3    0    0 -0.12475891866E+00 -0.17032400284E-02  0.66951545074E-02  0.88882648132E+00  0.88000000000E+00 0. -1.
        -11    1    4    4    0    0  0.11878703612E+00 -0.12140304949E-01 -0.17727790941E-01  0.12071571003E+00  0.51100000000E-03 0.  1.
         11    1    4    4    0    0  0.84022363331E-02 -0.69847345516E-02  0.57023946088E-03  0.10953099388E-01  0.51100000000E-03 0. -1.
</event>
<event>
 8    1  0.1161271E+005  0.1043930E+01  0.7957747E-01            NaN
         13   -1    0    0    0    0  0.00000000000E+00  0.00000000000E+00  0.74505805969E-08  0.10566000000E+00  0.10566000000E+00 0. -1.
     999900   -1    0    0    0    0 -0.00000000000E+00 -0.00000000000E+00 -0.74505805969E-08  0.93827000000E+00  0.93827000000E+00 0.  1.
     999902    2    1    2    0    0 -0.50942014806E-02  0.17891209782E-01  0.14276410116E-01  0.10204808601E+01  0.10202114113E+01 0.  0.
     999903    2    3    3    0    0  0.20532347613E-01  0.11626828513E-01 -0.12535246696E+00  0.12908185528E+00  0.19802119832E-01 0.  0.
         14    1    1    2    0    0  0.50942014806E-02 -0.17891209782E-01 -0.14276410116E-01  0.23449139899E-01  0.00000000000E+00 0.  1.
     999901    1    3    3    0    0 -0.25626549093E-01  0.62643812687E-02  0.13962887707E+00  0.89139900483E+00  0.88000000000E+00 0. -1.
        -11    1    4    4    0    0  0.21992139009E-01  0.37444771815E-02 -0.81492418325E-01  0.84492311207E-01  0.51100000000E-03 0. -1.
         11    1    4    4    0    0 -0.14597913963E-02  0.78823513317E-02 -0.43860048630E-01  0.44589544069E-01  0.51100000000E-03 0.  1.
</event>
