<event>
 8    1  0.1074844E+005  0.1043930E+01  0.7957747E-01            NaN
         13   -1    0    0    0    0  0.00000000000E+00  0.00000000000E+00  0.74505805969E-08  0.10566000000E+00  0.10566000000E+00 0.  1.
     999900   -1    0    0    0    0 -0.00000000000E+00 -0.00000000000E+00 -0.74505805969E-08  0.93827000000E+00  0.93827000000E+00 0.  1.
     999902    2    1    2    0    0 -0.11447448843E-01 -0.12879275110E-01 -0.22463242556E-02  0.10265528373E+01  0.10264057492E+01 0.  0.
     999903    2    3    3    0    0  0.10700913477E+00 -0.54300531640E-01  0.59598238789E-01  0.13550152971E+00  0.20228984838E-01 0.  0.
         14    1    1    2    0    0  0.11447448843E-01  0.12879275110E-01  0.22463242556E-02  0.17377162744E-01  0.00000000000E+00 0.  1.
     999901    1    3    3    0    0 -0.11845658361E+00  0.41421256531E-01 -0.61844563044E-01  0.89105130754E+00  0.88000000000E+00 0.  1.
        -11    1    4    4    0    0  0.41753167625E-01 -0.25223376120E-01  0.14019574257E-01  0.50757810167E-01  0.51100000000E-03 0. -1.
         11    1    4    4    0    0  0.65255967146E-01 -0.29077155520E-01  0.45578664532E-01  0.84743719548E-01  0.51100000000E-03 0.  1.
</event>
<event>
 8    1  0.1074844E+005  0.1043930E+01  0.7957747E-01            NaN
         13   -1    0    0    0    0  0.00000000000E+00  0.00000000000E+00  0.74505805969E-08  0.10566000000E+00  0.10566000000E+00 0.  1.
     999900   -1    0    0    0    0 -0.00000000000E+00 -0.00000000000E+00 -0.74505805969E-08  0.93827000000E+00  0.93827000000E+00 0.  1.
     999902    2    1    2    0    0  0.60166475357E-02 -0.18154293825E-01 -0.14164135183E-01  0.10201308160E+01  0.10198531662E+01 0.  0.
     999903    2    3    3    0    0 -0.78861084669E-01 -0.81424624571E-01  0.61762464366E-01  0.13053977927E+00  0.19416276818E-01 0.  0.
         14    1    1    2    0    0 -0.60166475357E-02  0.18154293825E-01  0.14164135183E-01  0.23799183963E-01  0.00000000000E+00 0.  1.
     999901    1    3    3    0    0  0.84877732205E-01  0.63270330746E-01 -0.75926599549E-01  0.88959103677E+00  0.88000000000E+00 0.  1.
        -11    1    4    4    0    0 -0.41680465449E-01 -0.33244177494E-01  0.21073978589E-01  0.57330709326E-01  0.51100000000E-03 0.  1.
         11    1    4    4    0    0 -0.37180619221E-01 -0.48180447077E-01  0.40688485778E-01  0.73209069944E-01  0.51100000000E-03 0. -1.
</event>
<event>
 8    1  0.1074844E+005  0.1043930E+01  0.7957747E-01            NaN
         13   -1    0    0    0    0  0.00000000000E+00  0.00000000000E+00  0.74505805969E-08  0.10566000000E+00  0.10566000000E+00 0. -1.
     999900   -1    0    0    0    0 -0.00000000000E+00 -0.00000000000E+00 -0.74505805969E-08  0.93827000000E+00  0.93827000000E+00 0.  1.
     999902    2    1    2    0    0  0.23021272949E-01  0.40619988847E-02 -0.48112500312E-02  0.10200631408E+01  0.10197838909E+01 0.  0.
     999903    2    3    3    0    0 -0.13915947128E-02  0.11489280466E+00  0.58853375996E-01  0.13049434622E+00  0.19046297002E-01 0.  0.
         14    1    1    2    0    0 -0.23021272949E-01 -0.40619988847E-02  0.48112500312E-02  0.23866859240E-01  0.00000000000E+00 0. -1.
     999901    1    3    3    0    0  0.24412867662E-01 -0.11083080578E+00 -0.63664626027E-01  0.88956879454E+00  0.88000000000E+00 0.  1.
        -11    1    4    4    0    0  0.45271465293E-02  0.99455576140E-02  0.89529974566E-02  0.14135998600E-01  0.51100000000E-03 0.  1.
         11    1    4    4    0    0 -0.59187412421E-02  0.10494724705E+00  0.49900378540E-01  0.11635834762E+00  0.51100000000E-03 0. -1.
</event>
<event>
 8    1  0.1074844E+005  0.1043930E+01  0.7957747E-01            NaN
         13   -1    0    0    0    0  0.00000000000E+00  0.00000000000E+00  0.74505805969E-08  0.10566000000E+00  0.10566000000E+00 0. -1.
     999900   -1    0    0    0    0 -0.00000000000E+00 -0.00000000000E+00 -0.74505805969E-08  0.93827000000E+00  0.93827000000E+00 0. -1.
     999902    2    1    2    0    0 -0.86591391464E-02 -0.22124154457E-01 -0.22849462154E-03  0.10201705574E+01  0.10198938450E+01 0.  0.
     999903    2    3    3    0    0 -0.45027139954E-01 -0.11923193503E+00  0.35323507927E-01  0.13336928465E+00  0.17202273469E-01 0.  0.
         14    1    1    2    0    0  0.86591391464E-02  0.22124154457E-01  0.22849462154E-03  0.23759442565E-01  0.00000000000E+00 0.  1.
     999901    1    3    3    0    0  0.36368000808E-01  0.97107780571E-01 -0.35552002548E-01  0.88680127279E+00  0.88000000000E+00 0.  1.
        -11    1    4    4    0    0 -0.25844525050E-01 -0.89737581420E-01  0.26991058262E-01  0.97208802797E-01  0.51100000000E-03 0.  1.
         11    1    4    4    0    0 -0.19182614904E-01 -0.29494353608E-01  0.83324496644E-02  0.36160481851E-01  0.51100000000E-03 0. -1.
</event>
<event>
 8    1  0.1074844E+005  0.1043930E+01  0.7957747E-01            NaN
         13   -1    0    0    0    0  0.00000000000E+00  0.00000000000E+00  0.74505805969E-08  0.10566000000E+00  0.10566000000E+00 0.  1.
     999900   -1    0    0    0    0 -0.00000000000E+00 -0.00000000000E+00 -0.74505805969E-08  0.93827000000E+00  0.93827000000E+00 0.  1.
     999902    2    1    2    0    0 -0.12902415134E-01  0.50788081684E-02 -0.19636796713E-01  0.10198910650E+01  0.10196077256E+01 0.  0.
     999903    2    3    3    0    0  0.28960499390E-01 -0.11370424455E+00 -0.53278276612E-01  0.13028797018E+00  0.19209754317E-01 0.  0.
         14    1    1    2    0    0  0.12902415134E-01 -0.50788081684E-02  0.19636796713E-01  0.24038934957E-01  0.00000000000E+00 0.  1.
     999901    1    3    3    0    0 -0.41862914524E-01  0.11878305272E+00  0.33641479898E-01  0.88960309487E+00  0.88000000000E+00 0.  1.
        -11    1    4    4    0    0  0.26466086400E-01 -0.10335542344E+00 -0.41698964370E-01  0.11455069635E+00  0.51100000000E-03 0.  1.
         11    1    4    4    0    0  0.24944129896E-02 -0.10348821106E-01 -0.11579312241E-01  0.15737273825E-01  0.51100000000E-03 0. -1.
</event>
<event>
 8    1  0.1074844E+005  0.1043930E+01  0.7957747E-01            NaN
         13   -1    0    0    0    0  0.00000000000E+00  0.00000000000E+00  0.74505805969E-08  0.10566000000E+00  0.10566000000E+00 0.  1.
     999900   -1    0    0    0    0 -0.00000000000E+00 -0.00000000000E+00 -0.74505805969E-08  0.93827000000E+00  0.93827000000E+00 0. -1.
     999902    2    1    2    0    0  0.16078491197E-01  0.16042551820E-01  0.80717216403E-02  0.10198253524E+01  0.10195404432E+01 0.  0.
     999903    2    3    3    0    0  0.12634797107E+00  0.15767485985E-01 -0.28699453068E-01  0.13218153125E+00  0.20877624105E-01 0.  0.
         14    1    1    2    0    0 -0.16078491197E-01 -0.16042551820E-01 -0.80717216403E-02  0.24104647649E-01  0.00000000000E+00 0. -1.
     999901    1    3    3    0    0 -0.11026947988E+00  0.27506583502E-03  0.36771174709E-01  0.88764382110E+00  0.88000000000E+00 0.  1.
        -11    1    4    4    0    0  0.79638829006E-01  0.84661002975E-03 -0.13044402092E-01  0.80706117369E-01  0.51100000000E-03 0. -1.
         11    1    4    4    0    0  0.46709142067E-01  0.14920875955E-01 -0.15655050977E-01  0.51475413878E-01  0.51100000000E-03 0.  1.
</event>
<event>
 8    1  0.1093312E+005  0.1043930E+01  0.7957747E-01            NaN
         13   -1    0    0    0    0  0.00000000000E+00  0.00000000000E+00  0.74505805969E-08  0.10566000000E+00  0.10566000000E+00 0.  1.
     999900   -1    0    0    0    0 -0.00000000000E+00 -0.00000000000E+00 -0.74505805969E-08  0.93827000000E+00  0.93827000000E+00 0.  1.
     999902    2    1    2    0    0 -0.15773030443E-01 -0.10700672247E-01 -0.14668222908E-01  0.10198790200E+01  0.10195953932E+01 0.  0.
     999903    2    3    3    0    0 -0.20871122702E-01 -0.32768794508E-01 -0.12541886045E+00  0.13264810514E+00  0.18874098212E-01 0.  0.
         14    1    1    2    0    0  0.15773030443E-01  0.10700672247E-01  0.14668222908E-01  0.24050980004E-01  0.00000000000E+00 0.  1.
     999901    1    3    3    0    0  0.50980922598E-02  0.22068122261E-01  0.11075063754E+00  0.88723091486E+00  0.88000000000E+00 0. -1.
        -11    1    4    4    0    0 -0.16036414072E-01 -0.12344642311E-01 -0.41947734203E-01  0.46577143491E-01  0.51100000000E-03 0. -1.
         11    1    4    4    0    0 -0.48347086308E-02 -0.20424152197E-01 -0.83471126248E-01  0.86070961646E-01  0.51100000000E-03 0.  1.
</event>
<event>
 8    1  0.1074844E+005  0.1043930E+01  0.7957747E-01            NaN
         13   -1    0    0    0    0  0.00000000000E+00  0.00000000000E+00  0.74505805969E-08  0.10566000000E+00  0.10566000000E+00 0. -1.
     999900   -1    0    0    0    0 -0.00000000000E+00 -0.00000000000E+00 -0.74505805969E-08  0.93827000000E+00  0.93827000000E+00 0.  1.
     999902    2    1    2    0    0 -0.21860974807E-01 -0.60497633079E-02 -0.71479652175E-02  0.10201477532E+01  0.10198705031E+01 0.  0.
     999903    2    3    3    0    0 -0.11373985949E+00  0.45424521557E-01  0.45855577856E-01  0.13228475306E+00  0.19909271115E-01 0.  0.
         14    1    1    2    0    0  0.21860974807E-01  0.60497633079E-02  0.71479652175E-02  0.23782246789E-01  0.00000000000E+00 0. -1.
     999901    1    3    3    0    0  0.91878884686E-01 -0.51474284865E-01 -0.53003543073E-01  0.88786300015E+00  0.88000000000E+00 0.  1.
        -11    1    4    4    0    0 -0.94550445833E-01  0.33628872001E-01  0.30027958183E-01  0.10475030899E+00  0.51100000000E-03 0. -1.
         11    1    4    4    0    0 -0.19189413660E-01  0.11795649556E-01  0.15827619672E-01  0.27534444076E-01  0.51100000000E-03 0.  1.
</event>
<event>
 8    1  0.1074844E+005  0.1043930E+01  0.7957747E-01            NaN
         13   -1    0    0    0    0  0.00000000000E+00  0.00000000000E+00  0.74505805969E-08  0.10566000000E+00  0.10566000000E+00 0.  1.
     999900   -1    0    0    0    0 -0.00000000000E+00 -0.00000000000E+00 -0.74505805969E-08  0.93827000000E+00  0.93827000000E+00 0. -1.
     999902    2    1    2    0    0  0.18305945058E-01  0.11362751555E-01 -0.76931236031E-02  0.10210519778E+01  0.10207956395E+01 0.  0.
     999903    2    3    3    0    0  0.30499952447E-01 -0.12719759624E-01 -0.12719463827E+00  0.13256490806E+00  0.17405156123E-01 0.  0.
         14    1    1    2    0    0 -0.18305945058E-01 -0.11362751555E-01  0.76931236031E-02  0.22878022164E-01  0.00000000000E+00 0.  1.
     999901    1    3    3    0    0 -0.12194007389E-01  0.24082511179E-01  0.11950151466E+00  0.88848706978E+00  0.88000000000E+00 0.  1.
        -11    1    4    4    0    0  0.17585197043E-02 -0.56919693226E-02 -0.40957215748E-01  0.41391370467E-01  0.51100000000E-03 0.  1.
         11    1    4    4    0    0  0.28741432742E-01 -0.70277903013E-02 -0.86237422519E-01  0.91173537588E-01  0.51100000000E-03 0. -1.
</event>
<event>
 8    1  0.1074844E+005  0.1043930E+01  0.7957747E-01            NaN
         13   -1    0    0    0    0  0.00000000000E+00  0.00000000000E+00  0.74505805969E-08  0.10566000000E+00  0.10566000000E+00 0.  1.
     999900   -1    0    0    0    0 -0.00000000000E+00 -0.00000000000E+00 -0.74505805969E-08  0.93827000000E+00  0.93827000000E+00 0. -1.
     999902    2    1    2    0    0 -0.10742628129E-01  0.29338994913E-02  0.18627163493E-01  0.10222278562E+01  0.10219974594E+01 0.  0.
     999903    2    3    3    0    0 -0.51150062215E-01 -0.11544055417E+00  0.37188420182E-01  0.13318916624E+00  0.20335314011E-01 0.  0.
         14    1    1    2    0    0  0.10742628129E-01 -0.29338994913E-02 -0.18627163493E-01  0.21702143791E-01  0.00000000000E+00 0. -1.
     999901    1    3    3    0    0  0.40407434086E-01  0.11837445366E+00 -0.18561256690E-01  0.88903868997E+00  0.88000000000E+00 0. -1.
        -11    1    4    4    0    0 -0.20207327538E-01 -0.41291688493E-01  0.36369973051E-02  0.46117550838E-01  0.51100000000E-03 0. -1.
         11    1    4    4    0    0 -0.30942734677E-01 -0.74148865680E-01  0.33551422877E-01  0.87071615403E-01  0.51100000000E-03 0.  1.
</event>
<event>
 8    1  0.1074844E+005  0.1043930E+01  0.7957747E-01            NaN
         13   -1    0    0    0    0  0.00000000000E+00  0.00000000000E+00  0.74505805969E-08  0.10566000000E+00  0.10566000000E+00 0. -1.
     999900   -1    0    0    0    0 -0.00000000000E+00 -0.00000000000E+00 -0.74505805969E-08  0.93827000000E+00  0.93827000000E+00 0.  1.
     999902    2    1    2    0    0 -0.23652100198E-01 -0.25988606443E-02  0.10324975118E-02  0.10201131578E+01  0.10198350910E+01 0.  0.
     999903    2    3    3    0    0 -0.21525474435E-01 -0.86832980092E-01  0.94030747697E-01  0.13121013501E+00  0.19261503992E-01 0.  0.
         14    1    1    2    0    0  0.23652100198E-01  0.25988606443E-02 -0.10324975118E-02  0.23816842182E-01  0.00000000000E+00 0. -1.
     999901    1    3    3    0    0 -0.21266257626E-02  0.84234119448E-01 -0.92998250185E-01  0.88890302281E+00  0.88000000000E+00 0.  1.
        -11    1    4    4    0    0 -0.10148793360E-01 -0.59681061303E-01  0.51497150080E-01  0.79479838150E-01  0.51100000000E-03 0. -1.
         11    1    4    4    0    0 -0.11376681075E-01 -0.27151918789E-01  0.42533597617E-01  0.51730296863E-01  0.51100000000E-03 0.  1.
</event>
<event>
 8    1  0.1074844E+005  0.1043930E+01  0.7957747E-01            NaN
         13   -1    0    0    0    0  0.00000000000E+00  0.00000000000E+00  0.74505805969E-08  0.10566000000E+00  0.10566000000E+00 0. -1.
     999900   -1    0    0    0    0 -0.00000000000E+00 -0.00000000000E+00 -0.74505805969E-08  0.93827000000E+00  0.93827000000E+00 0.  1.
     999902    2    1    2    0    0  0.12024032112E-01  0.20289036882E-02  0.20588526204E-01  0.10200013308E+01  0.10197206155E+01 0.  0.
     999903    2    3    3    0    0 -0.40160901459E-01  0.14904965778E-01  0.12342796832E+00  0.13238372669E+00  0.21352557683E-01 0.  0.
         14    1    1    2    0    0 -0.12024032112E-01 -0.20289036882E-02 -0.20588526204E-01  0.23928669200E-01  0.00000000000E+00 0.  1.
     999901    1    3    3    0    0  0.52184933571E-01 -0.12876062089E-01 -0.10283944211E+00  0.88761760411E+00  0.88000000000E+00 0.  1.
        -11    1    4    4    0    0 -0.58477809636E-02  0.77459691923E-02  0.51003972988E-01  0.51921700305E-01  0.51100000000E-03 0. -1.
         11    1    4    4    0    0 -0.34313120496E-01  0.71589965853E-02  0.72423995328E-01  0.80462026388E-01  0.51100000000E-03 0.  1.
</event>
<event>
 8    1  0.1074844E+005  0.1043930E+01  0.7957747E-01            NaN
         13   -1    0    0    0    0  0.00000000000E+00  0.00000000000E+00  0.74505805969E-08  0.10566000000E+00  0.10566000000E+00 0. -1.
     999900   -1    0    0    0    0 -0.00000000000E+00 -0.00000000000E+00 -0.74505805969E-08  0.93827000000E+00  0.93827000000E+00 0.  1.
     999902    2    1    2    0    0 -0.53630805409E-02 -0.22473553354E-01  0.64935712491E-02  0.10199302146E+01  0.10196478083E+01 0.  0.
     999903    2    3    3    0    0  0.89094039642E-01  0.67013412489E-01 -0.59437984145E-01  0.12792290820E+00  0.20071151710E-01 0.  0.
         14    1    1    2    0    0  0.53630805409E-02  0.22473553354E-01 -0.64935712491E-02  0.23999785432E-01  0.00000000000E+00 0.  1.
     999901    1    3    3    0    0 -0.94457120183E-01 -0.89486965843E-01  0.65931555395E-01  0.89200730636E+00  0.88000000000E+00 0.  1.
        -11    1    4    4    0    0  0.37824832281E-01  0.40232546343E-01 -0.32901694610E-01  0.64281866428E-01  0.51100000000E-03 0. -1.
         11    1    4    4    0    0  0.51269207362E-01  0.26780866146E-01 -0.26536289536E-01  0.63641041776E-01  0.51100000000E-03 0.  1.
</event>
<event>
 8    1  0.1074844E+005  0.1043930E+01  0.7957747E-01            NaN
         13   -1    0    0    0    0  0.00000000000E+00  0.00000000000E+00  0.74505805969E-08  0.10566000000E+00  0.10566000000E+00 0.  1.
     999900   -1    0    0    0    0 -0.00000000000E+00 -0.00000000000E+00 -0.74505805969E-08  0.93827000000E+00  0.93827000000E+00 0.  1.
     999902    2    1    2    0    0 -0.80629581123E-02  0.29814939736E-01  0.10274032775E-01  0.10113800741E+01  0.10108561503E+01 0.  0.
     999903    2    3    3    0    0  0.24083191823E-01 -0.79521983264E-01 -0.82966604285E-01  0.11914593777E+00  0.20212647249E-01 0.  0.
         14    1    1    2    0    0  0.80629581123E-02 -0.29814939736E-01 -0.10274032775E-01  0.32549925874E-01  0.00000000000E+00 0. -1.
     999901    1    3    3    0    0 -0.32146149936E-01  0.10933692300E+00  0.93240637060E-01  0.89223413636E+00  0.88000000000E+00 0. -1.
        -11    1    4    4    0    0  0.13337842556E-01 -0.26080084605E-01 -0.18196757567E-01  0.34488432321E-01  0.51100000000E-03 0. -1.
         11    1    4    4    0    0  0.10745349268E-01 -0.53441898660E-01 -0.64769846718E-01  0.84657505445E-01  0.51100000000E-03 0.  1.
</event>
<event>
 8    1  0.1074844E+005  0.1043930E+01  0.7957747E-01            NaN
         13   -1    0    0    0    0  0.00000000000E+00  0.00000000000E+00  0.74505805969E-08  0.10566000000E+00  0.10566000000E+00 0. -1.
     999900   -1    0    0    0    0 -0.00000000000E+00 -0.00000000000E+00 -0.74505805969E-08  0.93827000000E+00  0.93827000000E+00 0.  1.
     999902    2    1    2    0    0  0.22785202420E-01  0.24621753408E-02  0.49014202623E-02  0.10204938809E+01  0.10202247347E+01 0.  0.
     999903    2    3    3    0    0  0.23905901270E-04  0.19311121065E-01  0.12894992135E+00  0.13134260346E+00  0.15807507677E-01 0.  0.
         14    1    1    2    0    0 -0.22785202420E-01 -0.24621753408E-02 -0.49014202623E-02  0.23436119075E-01  0.00000000000E+00 0. -1.
     999901    1    3    3    0    0  0.22761296519E-01 -0.16848945725E-01 -0.12404850109E+00  0.88915127746E+00  0.88000000000E+00 0.  1.
        -11    1    4    4    0    0  0.46970137979E-02  0.13145708979E-02  0.49596025645E-01  0.49837906417E-01  0.51100000000E-03 0. -1.
         11    1    4    4    0    0 -0.46731078966E-02  0.17996550168E-01  0.79353895708E-01  0.81504697045E-01  0.51100000000E-03 0.  1.
</event>
<event>
 8    1  0.1074844E+005  0.1043930E+01  0.7957747E-01            NaN
         13   -1    0    0    0    0  0.00000000000E+00  0.00000000000E+00  0.74505805969E-08  0.10566000000E+00  0.10566000000E+00 0. -1.
     999900   -1    0    0    0    0 -0.00000000000E+00 -0.00000000000E+00 -0.74505805969E-08  0.93827000000E+00  0.93827000000E+00 0. -1.
     999902    2    1    2    0    0 -0.12819260653E-01  0.17999979006E-01 -0.10211156384E-01  0.10195866148E+01  0.10192959652E+01 0.  0.
     999903    2    3    3    0    0 -0.26227565307E-02  0.11864693210E+00  0.53013212370E-01  0.13153757412E+00  0.20193052565E-01 0.  0.
         14    1    1    2    0    0  0.12819260653E-01 -0.17999979006E-01  0.10211156384E-01  0.24343385192E-01  0.00000000000E+00 0. -1.
     999901    1    3    3    0    0 -0.10196504123E-01 -0.10064695309E+00 -0.63224368754E-01  0.88804904069E+00  0.88000000000E+00 0. -1.
        -11    1    4    4    0    0 -0.59077324616E-02  0.96907346013E-02  0.55886571699E-02  0.12661194648E-01  0.51100000000E-03 0.  1.
         11    1    4    4    0    0  0.32849759308E-02  0.10895619749E+00  0.47424555200E-01  0.11887637947E+00  0.51100000000E-03 0. -1.
</event>
<event>
 7    1  0.1074844E+005  0.1043930E+01  0.7957747E-01            NaN
         13   -1    0    0    0    0  0.00000000000E+00  0.00000000000E+00  0.74505805969E-08  0.10566000000E+00  0.10566000000E+00 0.  1.
     999900   -1    0    0    0    0 -0.00000000000E+00 -0.00000000000E+00 -0.74505805969E-08  0.93827000000E+00  0.93827000000E+00 0. -1.
     999903    2    1    2    0    0 -0.62694279681E-01 -0.20033434212E-01 -0.66359870640E-01  0.96196857060E-01  0.22766020420E-01 0.  0.
         14    1    1    2    0    0 -0.23311942054E-01  0.27027751119E-01 -0.43995324237E-01  0.56652753928E-01  0.00000000000E+00 0.  1.
     999901    1    1    2    0    0  0.86006221735E-01 -0.69943169073E-02  0.11035519488E+00  0.89108038901E+00  0.88000000000E+00 0.  1.
        -11    1    3    3    0    0 -0.25017062455E-01  0.18558324296E-02 -0.32229080772E-01  0.40844489178E-01  0.51100000000E-03 0.  1.
         11    1    3    3    0    0 -0.37677217227E-01 -0.21889266641E-01 -0.34130789869E-01  0.55352367882E-01  0.51100000000E-03 0. -1.
</event>
<event>
 8    1  0.1074844E+005  0.1043930E+01  0.7957747E-01            NaN
         13   -1    0    0    0    0  0.00000000000E+00  0.00000000000E+00  0.74505805969E-08  0.10566000000E+00  0.10566000000E+00 0.  1.
     999900   -1    0    0    0    0 -0.00000000000E+00 -0.00000000000E+00 -0.74505805969E-08  0.93827000000E+00  0.93827000000E+00 0. -1.
     999902    2    1    2    0    0  0.72043924725E-02 -0.20821414583E-01  0.19164780754E-01  0.10147285720E+01  0.10143083118E+01 0.  0.
     999903    2    3    3    0    0 -0.12158400932E+00 -0.21466144595E-01 -0.57799753044E-03  0.12513504380E+00  0.20371019083E-01 0.  0.
         14    1    1    2    0    0 -0.72043924725E-02  0.20821414583E-01 -0.19164780754E-01  0.29201428004E-01  0.00000000000E+00 0. -1.
     999901    1    3    3    0    0  0.12878840180E+00  0.64473001196E-03  0.19742778284E-01  0.88959352820E+00  0.88000000000E+00 0. -1.
        -11    1    4    4    0    0 -0.10423142203E+00 -0.13085664645E-01  0.46757039951E-02  0.10515487286E+00  0.51100000000E-03 0. -1.
         11    1    4    4    0    0 -0.17352587291E-01 -0.83804799501E-02 -0.52537015256E-02  0.19980170935E-01  0.51100000000E-03 0.  1.
</event>
<event>
 8    1  0.1074844E+005  0.1043930E+01  0.7957747E-01            NaN
         13   -1    0    0    0    0  0.00000000000E+00  0.00000000000E+00  0.74505805969E-08  0.10566000000E+00  0.10566000000E+00 0.  1.
     999900   -1    0    0    0    0 -0.00000000000E+00 -0.00000000000E+00 -0.74505805969E-08  0.93827000000E+00  0.93827000000E+00 0.  1.
     999902    2    1    2    0    0 -0.14137061067E-01  0.20101485693E-01  0.16794978237E-01  0.10141642896E+01  0.10137273838E+01 0.  0.
     999903    2    3    3    0    0  0.66946414565E-01 -0.87049140373E-01  0.52325312633E-01  0.12325565715E+00  0.19865633989E-01 0.  0.
         14    1    1    2    0    0  0.14137061067E-01 -0.20101485693E-01 -0.16794978237E-01  0.29765710417E-01  0.00000000000E+00 0. -1.
     999901    1    3    3    0    0 -0.81083475632E-01  0.10715062607E+00 -0.35530334396E-01  0.89090863244E+00  0.88000000000E+00 0. -1.
        -11    1    4    4    0    0  0.64054895571E-01 -0.83764457021E-01  0.44878282271E-01  0.11460294607E+00  0.51100000000E-03 0. -1.
         11    1    4    4    0    0  0.28915189937E-02 -0.32846833512E-02  0.74470303620E-02  0.86527110793E-02  0.51100000000E-03 0.  1.
</event>
<event>
 8    1  0.1074844E+005  0.1043930E+01  0.7957747E-01            NaN
         13   -1    0    0    0    0  0.00000000000E+00  0.00000000000E+00  0.74505805969E-08  0.10566000000E+00  0.10566000000E+00 0.  1.
     999900   -1    0    0    0    0 -0.00000000000E+00 -0.00000000000E+00 -0.74505805969E-08  0.93827000000E+00  0.93827000000E+00 0. -1.
     999902    2    1    2    0    0 -0.19119783503E-02  0.16880177180E-01  0.17385469054E-01  0.10196225819E+01  0.10193328008E+01 0.  0.
     999903    2    3    3    0    0  0.58469403607E-01  0.11645190098E+00  0.23948302557E-03  0.13178564620E+00  0.19689662041E-01 0.  0.
         14    1    1    2    0    0  0.19119783503E-02 -0.16880177180E-01 -0.17385469054E-01  0.24307418149E-01  0.00000000000E+00 0.  1.
     999901    1    3    3    0    0 -0.60381381958E-01 -0.99571723805E-01  0.17145986029E-01  0.88783693565E+00  0.88000000000E+00 0.  1.
        -11    1    4    4    0    0  0.32477340755E-02  0.14375902316E-01 -0.51052685228E-02  0.15605743549E-01  0.51100000000E-03 0. -1.
         11    1    4    4    0    0  0.55221669532E-01  0.10207599867E+00  0.53447515484E-02  0.11617990265E+00  0.51100000000E-03 0.  1.
</event>
<event>
 8    1  0.1074844E+005  0.1043930E+01  0.7957747E-01            NaN
         13   -1    0    0    0    0  0.00000000000E+00  0.00000000000E+00  0.74505805969E-08  0.10566000000E+00  0.10566000000E+00 0.  1.
     999900   -1    0    0    0    0 -0.00000000000E+00 -0.00000000000E+00 -0.74505805969E-08  0.93827000000E+00  0.93827000000E+00 0. -1.
     999902    2    1    2    0    0  0.17613176435E-01  0.44107702298E-02  0.15387381148E-01  0.10201297820E+01  0.10198521078E+01 0.  0.
     999903    2    3    3    0    0 -0.11720372790E+00 -0.20942739523E-01 -0.41498032745E-01  0.12768687152E+00  0.20162794049E-01 0.  0.
         14    1    1    2    0    0 -0.17613176435E-01 -0.44107702298E-02 -0.15387381148E-01  0.23800217998E-01  0.00000000000E+00 0. -1.
     999901    1    3    3    0    0  0.13481690434E+00  0.25353509753E-01  0.56885413893E-01  0.89244291048E+00  0.88000000000E+00 0.  1.
        -11    1    4    4    0    0 -0.93809943339E-01 -0.13741217296E-01 -0.40734512512E-01  0.10319248109E+00  0.51100000000E-03 0.  1.
         11    1    4    4    0    0 -0.23393784566E-01 -0.72015222272E-02 -0.76352023313E-03  0.24494390437E-01  0.51100000000E-03 0. -1.
</event>
<event>
 8    1  0.1074844E+005  0.1043930E+01  0.7957747E-01            NaN
         13   -1    0    0    0    0  0.00000000000E+00  0.00000000000E+00  0.74505805969E-08  0.10566000000E+00  0.10566000000E+00 0.  1.
     999900   -1    0    0    0    0 -0.00000000000E+00 -0.00000000000E+00 -0.74505805969E-08  0.93827000000E+00  0.93827000000E+00 0.  1.
     999902    2    1    2    0    0  0.20206038897E-01 -0.12679570789E-01  0.17877425208E-02  0.10200082202E+01  0.10197276685E+01 0.  0.
     999903    2    3    3    0    0 -0.31789209042E-01  0.16383514161E-01  0.12314039472E+00  0.12968545017E+00  0.19385196059E-01 0.  0.
         14    1    1    2    0    0 -0.20206038897E-01  0.12679570789E-01 -0.17877425208E-02  0.23921779755E-01  0.00000000000E+00 0. -1.
     999901    1    3    3    0    0  0.51995247940E-01 -0.29063084950E-01 -0.12135265220E+00  0.89032277007E+00  0.88000000000E+00 0.  1.
        -11    1    4    4    0    0 -0.30934186882E-01  0.18647283957E-01  0.98388866520E-01  0.10481066402E+00  0.51100000000E-03 0. -1.
         11    1    4    4    0    0 -0.85502215989E-03 -0.22637697960E-02  0.24751528201E-01  0.24874786147E-01  0.51100000000E-03 0.  1.
</event>
<event>
 8    1  0.1264086E+005  0.1043930E+01  0.7957747E-01            NaN
         13   -1    0    0    0    0  0.00000000000E+00  0.00000000000E+00  0.74505805969E-08  0.10566000000E+00  0.10566000000E+00 0. -1.
     999900   -1    0    0    0    0 -0.00000000000E+00 -0.00000000000E+00 -0.74505805969E-08  0.93827000000E+00  0.93827000000E+00 0.  1.
     999902    2    1    2    0    0 -0.18205173725E-01 -0.11708323844E-01 -0.12227788561E-01  0.10190697504E+01  0.10187664718E+01 0.  0.
     999903    2    3    3    0    0  0.86990182531E-01  0.60451532833E-01 -0.68897282708E-01  0.12806776416E+00  0.20804734423E-01 0.  0.
         14    1    1    2    0    0  0.18205173725E-01  0.11708323844E-01  0.12227788561E-01  0.24860249610E-01  0.00000000000E+00 0. -1.
     999901    1    3    3    0    0 -0.10519535626E+00 -0.72159856677E-01  0.56669494147E-01  0.89100198623E+00  0.88000000000E+00 0. -1.
        -11    1    4    4    0    0  0.39344960088E-01  0.39961945584E-01 -0.36519327868E-01  0.66924624826E-01  0.51100000000E-03 0. -1.
         11    1    4    4    0    0  0.47645222443E-01  0.20489587249E-01 -0.32377954841E-01  0.61143139337E-01  0.51100000000E-03 0.  1.
</event>
<event>
 8    1  0.1074844E+005  0.1043930E+01  0.7957747E-01            NaN
         13   -1    0    0    0    0  0.00000000000E+00  0.00000000000E+00  0.74505805969E-08  0.10566000000E+00  0.10566000000E+00 0.  1.
     999900   -1    0    0    0    0 -0.00000000000E+00 -0.00000000000E+00 -0.74505805969E-08  0.93827000000E+00  0.93827000000E+00 0.  1.
     999902    2    1    2    0    0  0.15896284953E-01  0.16775689344E-02 -0.17157232143E-01  0.10204805495E+01  0.10202110935E+01 0.  0.
     999903    2    3    3    0    0  0.11103120779E+00 -0.30235208561E-01  0.60231442425E-01  0.13140345171E+00  0.19923441568E-01 0.  0.
         14    1    1    2    0    0 -0.15896284953E-01 -0.16775689344E-02  0.17157232143E-01  0.23449450476E-01  0.00000000000E+00 0.  1.
     999901    1    3    3    0    0 -0.95134922837E-01  0.31912777496E-01 -0.77388674568E-01  0.88907709782E+00  0.88000000000E+00 0.  1.
        -11    1    4    4    0    0  0.77692923267E-01 -0.18360080764E-01  0.31531254394E-01  0.85835680321E-01  0.51100000000E-03 0. -1.
         11    1    4    4    0    0  0.33338284523E-01 -0.11875127797E-01  0.28700188030E-01  0.45567771386E-01  0.51100000000E-03 0.  1.
</event>
<event>
 8    1  0.1074844E+005  0.1043930E+01  0.7957747E-01            NaN
         13   -1    0    0    0    0  0.00000000000E+00  0.00000000000E+00  0.74505805969E-08  0.10566000000E+00  0.10566000000E+00 0. -1.
     999900   -1    0    0    0    0 -0.00000000000E+00 -0.00000000000E+00 -0.74505805969E-08  0.93827000000E+00  0.93827000000E+00 0. -1.
     999902    2    1    2    0    0  0.17550041045E-01 -0.14972535013E-01  0.26228622379E-02  0.10207123310E+01  0.10204482361E+01 0.  0.
     999903    2    3    3    0    0 -0.65155583535E-01  0.82423550322E-01 -0.71133320643E-01  0.12843087753E+00  0.19890934708E-01 0.  0.
         14    1    1    2    0    0 -0.17550041045E-01  0.14972535013E-01 -0.26228622379E-02  0.23217668955E-01  0.00000000000E+00 0. -1.
     999901    1    3    3    0    0  0.82705624580E-01 -0.97396085335E-01  0.73756182881E-01  0.89228145352E+00  0.88000000000E+00 0.  1.
        -11    1    4    4    0    0 -0.22353346606E-01  0.31181689303E-01 -0.37573279535E-01  0.53702721610E-01  0.51100000000E-03 0.  1.
         11    1    4    4    0    0 -0.42802236930E-01  0.51241861019E-01 -0.33560041108E-01  0.74728155919E-01  0.51100000000E-03 0. -1.
</event>
<event>
 8    1  0.1074844E+005  0.1043930E+01  0.7957747E-01            NaN
         13   -1    0    0    0    0  0.00000000000E+00  0.00000000000E+00  0.74505805969E-08  0.10566000000E+00  0.10566000000E+00 0.  1.
     999900   -1    0    0    0    0 -0.00000000000E+00 -0.00000000000E+00 -0.74505805969E-08  0.93827000000E+00  0.93827000000E+00 0. -1.
     999902    2    1    2    0    0  0.10329161252E-01  0.12294217186E-01 -0.16487365026E-01  0.10209153839E+01  0.10206559403E+01 0.  0.
     999903    2    3    3    0    0  0.87240055156E-01 -0.75618634371E-01 -0.60805249887E-01  0.13209142497E+00  0.20539256269E-01 0.  0.
         14    1    1    2    0    0 -0.10329161252E-01 -0.12294217186E-01  0.16487365026E-01  0.23014616092E-01  0.00000000000E+00 0.  1.
     999901    1    3    3    0    0 -0.76910893903E-01  0.87912851557E-01  0.44317884861E-01  0.88882395894E+00  0.88000000000E+00 0. -1.
        -11    1    4    4    0    0  0.46218199015E-01 -0.31645711182E-01 -0.38399882761E-01  0.67914542430E-01  0.51100000000E-03 0.  1.
         11    1    4    4    0    0  0.41021856141E-01 -0.43972923189E-01 -0.22405367125E-01  0.64176882536E-01  0.51100000000E-03 0. -1.
</event>
<event>
 8    1  0.1074844E+005  0.1043930E+01  0.7957747E-01            NaN
         13   -1    0    0    0    0  0.00000000000E+00  0.00000000000E+00  0.74505805969E-08  0.10566000000E+00  0.10566000000E+00 0.  1.
     999900   -1    0    0    0    0 -0.00000000000E+00 -0.00000000000E+00 -0.74505805969E-08  0.93827000000E+00  0.93827000000E+00 0. -1.
     999902    2    1    2    0    0 -0.27694903056E-02  0.97995626756E-02  0.23620446056E-01  0.10182078893E+01  0.10178829397E+01 0.  0.
     999903    2    3    3    0    0  0.89674682584E-01  0.89406374683E-01 -0.14270874144E-01  0.12898411448E+00  0.19954834226E-01 0.  0.
         14    1    1    2    0    0  0.27694903056E-02 -0.97995626756E-02 -0.23620446056E-01  0.25722110666E-01  0.00000000000E+00 0. -1.
     999901    1    3    3    0    0 -0.92444172890E-01 -0.79606812007E-01  0.37891320200E-01  0.88922377485E+00  0.88000000000E+00 0.  1.
        -11    1    4    4    0    0  0.62804296805E-01  0.49064099958E-01 -0.99424535741E-02  0.80316742376E-01  0.51100000000E-03 0.  1.
         11    1    4    4    0    0  0.26870385779E-01  0.40342274725E-01 -0.43284205696E-02  0.48667372104E-01  0.51100000000E-03 0. -1.
</event>
<event>
 8    1  0.1074844E+005  0.1043930E+01  0.7957747E-01            NaN
         13   -1    0    0    0    0  0.00000000000E+00  0.00000000000E+00  0.74505805969E-08  0.10566000000E+00  0.10566000000E+00 0.  1.
     999900   -1    0    0    0    0 -0.00000000000E+00 -0.00000000000E+00 -0.74505805969E-08  0.93827000000E+00  0.93827000000E+00 0.  1.
     999902    2    1    2    0    0 -0.33003865011E-03 -0.17064069133E-01  0.16860644603E-01  0.10199389034E+01  0.10196567039E+01 0.  0.
     999903    2    3    3    0    0 -0.50542088754E-01  0.10613134470E+00  0.50281096323E-01  0.12931255829E+00  0.19369667503E-01 0.  0.
         14    1    1    2    0    0  0.33003865011E-03  0.17064069133E-01 -0.16860644603E-01  0.23991096626E-01  0.00000000000E+00 0. -1.
     999901    1    3    3    0    0  0.50212050104E-01 -0.12319541384E+00 -0.33420451720E-01  0.89062634509E+00  0.88000000000E+00 0. -1.
        -11    1    4    4    0    0 -0.95767444970E-02  0.41026007554E-01  0.20094957197E-01  0.46678857706E-01  0.51100000000E-03 0.  1.
         11    1    4    4    0    0 -0.40965344258E-01  0.65105337151E-01  0.30186139126E-01  0.82633700583E-01  0.51100000000E-03 0. -1.
</event>
<event>
 8    1  0.1074844E+005  0.1043930E+01  0.7957747E-01            NaN
         13   -1    0    0    0    0  0.00000000000E+00  0.00000000000E+00  0.74505805969E-08  0.10566000000E+00  0.10566000000E+00 0.  1.
     999900   -1    0    0    0    0 -0.00000000000E+00 -0.00000000000E+00 -0.74505805969E-08  0.93827000000E+00  0.93827000000E+00 0. -1.
     999902    2    1    2    0    0  0.17203256714E-01 -0.19371729570E-02  0.11502232242E-01  0.10231452453E+01  0.10229341069E+01 0.  0.
     999903    2    3    3    0    0  0.12099430024E+00 -0.56782954984E-01 -0.29126243602E-02  0.13523284614E+00  0.20384175932E-01 0.  0.
         14    1    1    2    0    0 -0.17203256714E-01  0.19371729570E-02 -0.11502232242E-01  0.20784754681E-01  0.00000000000E+00 0. -1.
     999901    1    3    3    0    0 -0.10379104352E+00  0.54845782027E-01  0.14414856602E-01  0.88791239918E+00  0.88000000000E+00 0. -1.
        -11    1    4    4    0    0  0.92011782874E-01 -0.41411653285E-01 -0.10825433665E-01  0.10148174393E+00  0.51100000000E-03 0. -1.
         11    1    4    4    0    0  0.28982517362E-01 -0.15371301699E-01  0.79128093048E-02  0.33751102214E-01  0.51100000000E-03 0.  1.
</event>
<event>
 8    1  0.1074844E+005  0.1043930E+01  0.7957747E-01            NaN
         13   -1    0    0    0    0  0.00000000000E+00  0.00000000000E+00  0.74505805969E-08  0.10566000000E+00  0.10566000000E+00 0.  1.
     999900   -1    0    0    0    0 -0.00000000000E+00 -0.00000000000E+00 -0.74505805969E-08  0.93827000000E+00  0.93827000000E+00 0.  1.
     999902    2    1    2    0    0  0.18337313359E-01  0.99270142993E-02  0.10610787964E-01  0.10205336008E+01  0.10202653767E+01 0.  0.
     999903    2    3    3    0    0 -0.93489576624E-01  0.37827928525E-01  0.80123087382E-01  0.13030010665E+00  0.19676268660E-01 0.  0.
         14    1    1    2    0    0 -0.18337313359E-01 -0.99270142993E-02 -0.10610787964E-01  0.23396399196E-01  0.00000000000E+00 0. -1.
     999901    1    3    3    0    0  0.11182688998E+00 -0.27900914225E-01 -0.69512299418E-01  0.89023349415E+00  0.88000000000E+00 0. -1.
        -11    1    4    4    0    0 -0.38559289534E-01  0.25219191234E-01  0.41144235541E-01  0.61773260033E-01  0.51100000000E-03 0.  1.
         11    1    4    4    0    0 -0.54930287090E-01  0.12608737291E-01  0.38978851841E-01  0.68526846621E-01  0.51100000000E-03 0. -1.
</event>
<event>
 8    1  0.1074844E+005  0.1043930E+01  0.7957747E-01            NaN
         13   -1    0    0    0    0  0.00000000000E+00  0.00000000000E+00  0.74505805969E-08  0.10566000000E+00  0.10566000000E+00 0.  1.
     999900   -1    0    0    0    0 -0.00000000000E+00 -0.00000000000E+00 -0.74505805969E-08  0.93827000000E+00  0.93827000000E+00 0.  1.
     999902    2    1    2    0    0  0.40376566963E-02  0.65081215514E-02  0.22599585339E-01  0.10200679051E+01  0.10197887680E+01 0.  0.
     999903    2    3    3    0    0 -0.98680705476E-01  0.59295727474E-01  0.60978435154E-01  0.13169268625E+00  0.19254327537E-01 0.  0.
         14    1    1    2    0    0 -0.40376566963E-02 -0.65081215514E-02 -0.22599585339E-01  0.23862094946E-01  0.00000000000E+00 0. -1.
     999901    1    3    3    0    0  0.10271836217E+00 -0.52787605923E-01 -0.38378849815E-01  0.88837521880E+00  0.88000000000E+00 0.  1.
        -11    1    4    4    0    0 -0.70426062263E-01  0.51891733968E-01  0.44394287325E-01  0.98100439184E-01  0.51100000000E-03 0.  1.
         11    1    4    4    0    0 -0.28254643213E-01  0.74039935060E-02  0.16584147829E-01  0.33592247069E-01  0.51100000000E-03 0. -1.
</event>
<event>
 8    1  0.1074844E+005  0.1043930E+01  0.7957747E-01            NaN
         13   -1    0    0    0    0  0.00000000000E+00  0.00000000000E+00  0.74505805969E-08  0.10566000000E+00  0.10566000000E+00 0.  1.
     999900   -1    0    0    0    0 -0.00000000000E+00 -0.00000000000E+00 -0.74505805969E-08  0.93827000000E+00  0.93827000000E+00 0.  1.
     999902    2    1    2    0    0 -0.22858469900E-02 -0.18357773580E-02 -0.22120377920E-01  0.10216161860E+01  0.10213724714E+01 0.  0.
     999903    2    3    3    0    0 -0.51000626915E-01 -0.83691200130E-01  0.83219219872E-01  0.13022969808E+00  0.20713637560E-01 0.  0.
         14    1    1    2    0    0  0.22858469900E-02  0.18357773580E-02  0.22120377920E-01  0.22313813979E-01  0.00000000000E+00 0.  1.
     999901    1    3    3    0    0  0.48714779924E-01  0.81855422772E-01 -0.10533959779E+00  0.89138648794E+00  0.88000000000E+00 0.  1.
        -11    1    4    4    0    0 -0.35807380848E-01 -0.52567036346E-01  0.41242483974E-01  0.75806763806E-01  0.51100000000E-03 0. -1.
         11    1    4    4    0    0 -0.15193246066E-01 -0.31124163784E-01  0.41976735898E-01  0.54422934274E-01  0.51100000000E-03 0.  1.
</event>
<event>
 8    1  0.1074844E+005  0.1043930E+01  0.7957747E-01            NaN
         13   -1    0    0    0    0  0.00000000000E+00  0.00000000000E+00  0.74505805969E-08  0.10566000000E+00  0.10566000000E+00 0. -1.
     999900   -1    0    0    0    0 -0.00000000000E+00 -0.00000000000E+00 -0.74505805969E-08  0.93827000000E+00  0.93827000000E+00 0. -1.
     999902    2    1    2    0    0  0.22157291248E-01 -0.12861736027E-01 -0.47843142392E-02  0.10178673932E+01  0.10175336706E+01 0.  0.
     999903    2    3    3    0    0 -0.11042566786E+00  0.12251816191E-01 -0.56011963634E-01  0.12610890372E+00  0.20547029107E-01 0.  0.
         14    1    1    2    0    0 -0.22157291248E-01  0.12861736027E-01  0.47843142392E-02  0.26062606773E-01  0.00000000000E+00 0. -1.
     999901    1    3    3    0    0  0.13258295910E+00 -0.25113552217E-01  0.51227649395E-01  0.89175848951E+00  0.88000000000E+00 0.  1.
        -11    1    4    4    0    0 -0.88684902928E-01  0.14612429232E-02 -0.43213739172E-01  0.98665270548E-01  0.51100000000E-03 0.  1.
         11    1    4    4    0    0 -0.21740764929E-01  0.10790573267E-01 -0.12798224463E-01  0.27443633169E-01  0.51100000000E-03 0. -1.
</event>
<event>
 8    1  0.1074844E+005  0.1043930E+01  0.7957747E-01            NaN
         13   -1    0    0    0    0  0.00000000000E+00  0.00000000000E+00  0.74505805969E-08  0.10566000000E+00  0.10566000000E+00 0.  1.
     999900   -1    0    0    0    0 -0.00000000000E+00 -0.00000000000E+00 -0.74505805969E-08  0.93827000000E+00  0.93827000000E+00 0.  1.
     999902    2    1    2    0    0  0.21011470864E-01 -0.96795083588E-02  0.29793699038E-02  0.10206050898E+01  0.10203385212E+01 0.  0.
     999903    2    3    3    0    0 -0.56338454132E-01  0.11367471955E+00 -0.67586907377E-02  0.12858821427E+00  0.19831431374E-01 0.  0.
         14    1    1    2    0    0 -0.21011470864E-01  0.96795083588E-02 -0.29793699038E-02  0.23324910181E-01  0.00000000000E+00 0. -1.
     999901    1    3    3    0    0  0.77349924996E-01 -0.12335422791E+00  0.97380606415E-02  0.89201687555E+00  0.88000000000E+00 0.  1.
        -11    1    4    4    0    0 -0.78379322273E-02  0.11125407309E-01  0.50701859105E-02  0.14531888231E-01  0.51100000000E-03 0.  1.
         11    1    4    4    0    0 -0.48500521905E-01  0.10254931224E+00 -0.11828876648E-01  0.11405632604E+00  0.51100000000E-03 0. -1.
</event>
<event>
 8    1  0.1074844E+005  0.1043930E+01  0.7957747E-01            NaN
         13   -1    0    0    0    0  0.00000000000E+00  0.00000000000E+00  0.74505805969E-08  0.10566000000E+00  0.10566000000E+00 0.  1.
     999900   -1    0    0    0    0 -0.00000000000E+00 -0.00000000000E+00 -0.74505805969E-08  0.93827000000E+00  0.93827000000E+00 0. -1.
     999902    2    1    2    0    0 -0.62563763024E-02  0.12028613702E-02  0.21989008005E-01  0.10210366474E+01  0.10207799615E+01 0.  0.
     999903    2    3    3    0    0  0.27602325729E-01  0.12662450196E+00  0.57914865790E-02  0.13135166983E+00  0.20592886291E-01 0.  0.
         14    1    1    2    0    0  0.62563763024E-02 -0.12028613702E-02 -0.21989008005E-01  0.22893352593E-01  0.00000000000E+00 0. -1.
     999901    1    3    3    0    0 -0.33858702031E-01 -0.12542164059E+00  0.16197521426E-01  0.88968497758E+00  0.88000000000E+00 0.  1.
        -11    1    4    4    0    0  0.15789060180E-01  0.50151425391E-01 -0.65672655218E-02  0.52989149715E-01  0.51100000000E-03 0. -1.
         11    1    4    4    0    0  0.11813265549E-01  0.76473076574E-01  0.12358752101E-01  0.78362520111E-01  0.51100000000E-03 0.  1.
</event>
<event>
 8    1  0.1074844E+005  0.1043930E+01  0.7957747E-01            NaN
         13   -1    0    0    0    0  0.00000000000E+00  0.00000000000E+00  0.74505805969E-08  0.10566000000E+00  0.10566000000E+00 0.  1.
     999900   -1    0    0    0    0 -0.00000000000E+00 -0.00000000000E+00 -0.74505805969E-08  0.93827000000E+00  0.93827000000E+00 0.  1.
     999902    2    1    2    0    0  0.18605101012E-01 -0.15932948107E-01 -0.75975043653E-02  0.10182837392E+01  0.10179607276E+01 0.  0.
     999903    2    3    3    0    0 -0.50531646630E-01 -0.69773864657E-02  0.11464001613E+00  0.12710356475E+00  0.20269475608E-01 0.  0.
         14    1    1    2    0    0 -0.18605101012E-01  0.15932948107E-01  0.75975043653E-02  0.25646260773E-01  0.00000000000E+00 0. -1.
     999901    1    3    3    0    0  0.69136747642E-01 -0.89555616416E-02 -0.12223752050E+00  0.89118017447E+00  0.88000000000E+00 0.  1.
        -11    1    4    4    0    0 -0.30197717645E-01 -0.39845431674E-02  0.89982151046E-01  0.94999091380E-01  0.51100000000E-03 0. -1.
         11    1    4    4    0    0 -0.20333928986E-01 -0.29928432983E-02  0.24657865084E-01  0.32104473372E-01  0.51100000000E-03 0.  1.
</event>
<event>
 8    1  0.1074844E+005  0.1043930E+01  0.7957747E-01            NaN
         13   -1    0    0    0    0  0.00000000000E+00  0.00000000000E+00  0.74505805969E-08  0.10566000000E+00  0.10566000000E+00 0.  1.
     999900   -1    0    0    0    0 -0.00000000000E+00 -0.00000000000E+00 -0.74505805969E-08  0.93827000000E+00  0.93827000000E+00 0. -1.
     999902    2    1    2    0    0 -0.38243154720E-03  0.32775635822E-01 -0.51455486358E-02  0.10107507109E+01  0.10102059861E+01 0.  0.
     999903    2    3    3    0    0 -0.25125266301E-01  0.11068003173E+00 -0.50454477908E-01  0.12580201073E+00  0.19978566872E-01 0.  0.
         14    1    1    2    0    0  0.38243154720E-03 -0.32775635822E-01  0.51455486358E-02  0.33179289145E-01  0.00000000000E+00 0. -1.
     999901    1    3    3    0    0  0.24742834754E-01 -0.77904395905E-01  0.45308929272E-01  0.88494870012E+00  0.88000000000E+00 0.  1.
        -11    1    4    4    0    0 -0.13436726583E-01  0.86894002622E-01 -0.44858878874E-01  0.98710148656E-01  0.51100000000E-03 0.  1.
         11    1    4    4    0    0 -0.11688539719E-01  0.23786029105E-01 -0.55955990332E-02  0.27091862078E-01  0.51100000000E-03 0. -1.
</event>
<event>
 8    1  0.1074844E+005  0.1043930E+01  0.7957747E-01            NaN
         13   -1    0    0    0    0  0.00000000000E+00  0.00000000000E+00  0.74505805969E-08  0.10566000000E+00  0.10566000000E+00 0. -1.
     999900   -1    0    0    0    0 -0.00000000000E+00 -0.00000000000E+00 -0.74505805969E-08  0.93827000000E+00  0.93827000000E+00 0.  1.
     999902    2    1    2    0    0  0.23365159604E-02 -0.24948956561E-01  0.21135693357E-01  0.10111484919E+01  0.10106169627E+01 0.  0.
     999903    2    3    3    0    0  0.46760087026E-01 -0.17313580580E-02  0.11421282904E+00  0.12482131543E+00  0.18608791733E-01 0.  0.
         14    1    1    2    0    0 -0.23365159604E-02  0.24948956561E-01 -0.21135693357E-01  0.32781508111E-01  0.00000000000E+00 0.  1.
     999901    1    3    3    0    0 -0.44423571065E-01 -0.23217598503E-01 -0.93077135678E-01  0.88632717646E+00  0.88000000000E+00 0.  1.
        -11    1    4    4    0    0  0.25633553314E-02  0.49560589869E-02  0.11043901014E-01  0.12383948556E-01  0.51100000000E-03 0. -1.
         11    1    4    4    0    0  0.44196731694E-01 -0.66874170448E-02  0.10316892802E+00  0.11243736687E+00  0.51100000000E-03 0.  1.
</event>
<event>
 8    1  0.1074844E+005  0.1043930E+01  0.7957747E-01            NaN
         13   -1    0    0    0    0  0.00000000000E+00  0.00000000000E+00  0.74505805969E-08  0.10566000000E+00  0.10566000000E+00 0. -1.
     999900   -1    0    0    0    0 -0.00000000000E+00 -0.00000000000E+00 -0.74505805969E-08  0.93827000000E+00  0.93827000000E+00 0. -1.
     999902    2    1    2    0    0 -0.73719529793E-02  0.22466731323E-01 -0.44456407084E-03  0.10202805318E+01  0.10200064050E+01 0.  0.
     999903    2    3    3    0    0  0.69200927340E-02 -0.73570728659E-01  0.10368533895E+00  0.12883760434E+00  0.19696166588E-01 0.  0.
         14    1    1    2    0    0  0.73719529793E-02 -0.22466731323E-01  0.44456407084E-03  0.23649468161E-01  0.00000000000E+00 0. -1.
     999901    1    3    3    0    0 -0.14292045713E-01  0.96037459982E-01 -0.10412990302E+00  0.89144292750E+00  0.88000000000E+00 0. -1.
        -11    1    4    4    0    0 -0.57472716484E-02 -0.39461929087E-01  0.49493430772E-01  0.63562062499E-01  0.51100000000E-03 0. -1.
         11    1    4    4    0    0  0.12667364382E-01 -0.34108799573E-01  0.54191908183E-01  0.65275541837E-01  0.51100000000E-03 0.  1.
</event>
<event>
 7    1  0.1074844E+005  0.1043930E+01  0.7957747E-01            NaN
         13   -1    0    0    0    0  0.00000000000E+00  0.00000000000E+00  0.74505805969E-08  0.10566000000E+00  0.10566000000E+00 0.  1.
     999900   -1    0    0    0    0 -0.00000000000E+00 -0.00000000000E+00 -0.74505805969E-08  0.93827000000E+00  0.93827000000E+00 0.  1.
     999903    2    1    2    0    0 -0.90403790492E-01  0.83211328745E-02 -0.71017090774E-01  0.11693439514E+00  0.19701243531E-01 0.  0.
         14    1    1    2    0    0  0.29470850436E-01 -0.16544346478E-01  0.27852073732E-01  0.43794799200E-01  0.00000000000E+00 0.  1.
     999901    1    1    2    0    0  0.60932940056E-01  0.82232136040E-02  0.43165017043E-01  0.88320080566E+00  0.88000000000E+00 0. -1.
        -11    1    3    3    0    0 -0.34926378092E-01  0.34178743847E-02 -0.15742786461E-01  0.38465961556E-01  0.51100000000E-03 0. -1.
         11    1    3    3    0    0 -0.55477412400E-01  0.49032584898E-02 -0.55274304313E-01  0.78468433581E-01  0.51100000000E-03 0.  1.
</event>
<event>
 8    1  0.1074844E+005  0.1043930E+01  0.7957747E-01            NaN
         13   -1    0    0    0    0  0.00000000000E+00  0.00000000000E+00  0.74505805969E-08  0.10566000000E+00  0.10566000000E+00 0.  1.
     999900   -1    0    0    0    0 -0.00000000000E+00 -0.00000000000E+00 -0.74505805969E-08  0.93827000000E+00  0.93827000000E+00 0. -1.
     999902    2    1    2    0    0 -0.14494061380E-02 -0.67817994843E-02  0.23079355825E-01  0.10198312397E+01  0.10195464713E+01 0.  0.
     999903    2    3    3    0    0 -0.12533325321E+00 -0.23580647382E-02  0.31193082088E-01  0.13110596745E+00  0.22400479899E-01 0.  0.
         14    1    1    2    0    0  0.14494061380E-02  0.67817994843E-02 -0.23079355825E-01  0.24098760294E-01  0.00000000000E+00 0. -1.
     999901    1    3    3    0    0  0.12388384708E+00 -0.44237347460E-02 -0.81137262630E-02  0.88872527226E+00  0.88000000000E+00 0.  1.
        -11    1    4    4    0    0 -0.72590453445E-01 -0.98935229115E-02  0.25260497819E-01  0.77495868264E-01  0.51100000000E-03 0.  1.
         11    1    4    4    0    0 -0.52742799770E-01  0.75354581732E-02  0.59325842694E-02  0.53610099185E-01  0.51100000000E-03 0. -1.
</event>
<event>
 8    1  0.1074844E+005  0.1043930E+01  0.7957747E-01            NaN
         13   -1    0    0    0    0  0.00000000000E+00  0.00000000000E+00  0.74505805969E-08  0.10566000000E+00  0.10566000000E+00 0. -1.
     999900   -1    0    0    0    0 -0.00000000000E+00 -0.00000000000E+00 -0.74505805969E-08  0.93827000000E+00  0.93827000000E+00 0.  1.
     999902    2    1    2    0    0 -0.73699832393E-02  0.16786367345E-01 -0.17669532484E-01  0.10184680449E+01  0.10181497175E+01 0.  0.
     999903    2    3    3    0    0 -0.10510903539E+00 -0.66074708676E-01  0.27628646390E-01  0.12803511350E+00  0.14692574341E-01 0.  0.
         14    1    1    2    0    0  0.73699832393E-02 -0.16786367345E-01  0.17669532484E-01  0.25461955145E-01  0.00000000000E+00 0. -1.
     999901    1    3    3    0    0  0.97739052148E-01  0.82861076021E-01 -0.45298178874E-01  0.89043293136E+00  0.88000000000E+00 0. -1.
        -11    1    4    4    0    0 -0.69167308143E-01 -0.35999464763E-01  0.13974205736E-01  0.79218795282E-01  0.51100000000E-03 0. -1.
         11    1    4    4    0    0 -0.35941727244E-01 -0.30075243912E-01  0.13654440654E-01  0.48816318217E-01  0.51100000000E-03 0.  1.
</event>
<event>
 8    1  0.1074844E+005  0.1043930E+01  0.7957747E-01            NaN
         13   -1    0    0    0    0  0.00000000000E+00  0.00000000000E+00  0.74505805969E-08  0.10566000000E+00  0.10566000000E+00 0.  1.
     999900   -1    0    0    0    0 -0.00000000000E+00 -0.00000000000E+00 -0.74505805969E-08  0.93827000000E+00  0.93827000000E+00 0.  1.
     999902    2    1    2    0    0 -0.15190401774E-01  0.16030814778E-01 -0.67833749087E-02  0.10208269806E+01  0.10205655172E+01 0.  0.
     999903    2    3    3    0    0  0.68565163129E-01  0.63706672861E-01  0.88455048125E-01  0.13045720391E+00  0.20858205827E-01 0.  0.
         14    1    1    2    0    0  0.15190401774E-01 -0.16030814778E-01  0.67833749087E-02  0.23103019362E-01  0.00000000000E+00 0. -1.
     999901    1    3    3    0    0 -0.83755564902E-01 -0.47675858083E-01 -0.95238423034E-01  0.89036977673E+00  0.88000000000E+00 0. -1.
        -11    1    4    4    0    0  0.51519482282E-01  0.55370702142E-01  0.61459130750E-01  0.97455926366E-01  0.51100000000E-03 0. -1.
         11    1    4    4    0    0  0.17045680847E-01  0.83359707185E-02  0.26995917375E-01  0.33001277540E-01  0.51100000000E-03 0.  1.
</event>
<event>
 8    1  0.1074844E+005  0.1043930E+01  0.7957747E-01            NaN
         13   -1    0    0    0    0  0.00000000000E+00  0.00000000000E+00  0.74505805969E-08  0.10566000000E+00  0.10566000000E+00 0.  1.
     999900   -1    0    0    0    0 -0.00000000000E+00 -0.00000000000E+00 -0.74505805969E-08  0.93827000000E+00  0.93827000000E+00 0. -1.
     999902    2    1    2    0    0 -0.26288243967E-02 -0.22894017348E-01  0.30092421693E-02  0.10206898992E+01  0.10204252878E+01 0.  0.
     999903    2    3    3    0    0 -0.44059550107E-01 -0.11937062214E+00 -0.35435307968E-01  0.13361480441E+00  0.20165949583E-01 0.  0.
         14    1    1    2    0    0  0.26288243967E-02  0.22894017348E-01 -0.30092421693E-02  0.23240100827E-01  0.00000000000E+00 0. -1.
     999901    1    3    3    0    0  0.41430725710E-01  0.96476604791E-01  0.38444550138E-01  0.88707509476E+00  0.88000000000E+00 0. -1.
        -11    1    4    4    0    0 -0.22595427324E-01 -0.82638167941E-01 -0.17500288258E-01  0.87442217188E-01  0.51100000000E-03 0.  1.
         11    1    4    4    0    0 -0.21464122783E-01 -0.36732454197E-01 -0.17935019710E-01  0.46172587226E-01  0.51100000000E-03 0. -1.
</event>
<event>
 8    1  0.1074844E+005  0.1043930E+01  0.7957747E-01            NaN
         13   -1    0    0    0    0  0.00000000000E+00  0.00000000000E+00  0.74505805969E-08  0.10566000000E+00  0.10566000000E+00 0.  1.
     999900   -1    0    0    0    0 -0.00000000000E+00 -0.00000000000E+00 -0.74505805969E-08  0.93827000000E+00  0.93827000000E+00 0.  1.
     999902    2    1    2    0    0 -0.10657331580E-01  0.13981180097E-01 -0.17497538753E-01  0.10191264524E+01  0.10188245727E+01 0.  0.
     999903    2    3    3    0    0  0.58470953315E-01  0.37234074525E-01  0.10525632377E+00  0.12761765956E+00  0.20053544563E-01 0.  0.
         14    1    1    2    0    0  0.10657331580E-01 -0.13981180097E-01  0.17497538753E-01  0.24803547644E-01  0.00000000000E+00 0.  1.
     999901    1    3    3    0    0 -0.69128284895E-01 -0.23252894428E-01 -0.12275386253E+00  0.89150879280E+00  0.88000000000E+00 0.  1.
        -11    1    4    4    0    0  0.53070922032E-01  0.26160086110E-01  0.79922058712E-01  0.99441789306E-01  0.51100000000E-03 0. -1.
         11    1    4    4    0    0  0.54000312827E-02  0.11073988416E-01  0.25334265060E-01  0.28175870251E-01  0.51100000000E-03 0.  1.
</event>
<event>
 8    1  0.1074844E+005  0.1043930E+01  0.7957747E-01            NaN
         13   -1    0    0    0    0  0.00000000000E+00  0.00000000000E+00  0.74505805969E-08  0.10566000000E+00  0.10566000000E+00 0. -1.
     999900   -1    0    0    0    0 -0.00000000000E+00 -0.00000000000E+00 -0.74505805969E-08  0.93827000000E+00  0.93827000000E+00 0. -1.
     999902    2    1    2    0    0  0.13892880756E-01 -0.10278030814E-01  0.15794468825E-01  0.10205181377E+01  0.10202495548E+01 0.  0.
     999903    2    3    3    0    0  0.84204422060E-01  0.93024245785E-01 -0.29972329201E-01  0.13051270340E+00  0.19782068489E-01 0.  0.
         14    1    1    2    0    0 -0.13892880756E-01  0.10278030814E-01 -0.15794468825E-01  0.23411862348E-01  0.00000000000E+00 0.  1.
     999901    1    3    3    0    0 -0.70311541303E-01 -0.10330227660E+00  0.45766798026E-01  0.89000543425E+00  0.88000000000E+00 0.  1.
        -11    1    4    4    0    0  0.25757209347E-01  0.41742673265E-01 -0.15303360107E-01  0.51384224780E-01  0.51100000000E-03 0.  1.
         11    1    4    4    0    0  0.58447212713E-01  0.51281572519E-01 -0.14668969093E-01  0.79128478623E-01  0.51100000000E-03 0. -1.
</event>
<event>
 8    1  0.1074844E+005  0.1043930E+01  0.7957747E-01            NaN
         13   -1    0    0    0    0  0.00000000000E+00  0.00000000000E+00  0.74505805969E-08  0.10566000000E+00  0.10566000000E+00 0.  1.
     999900   -1    0    0    0    0 -0.00000000000E+00 -0.00000000000E+00 -0.74505805969E-08  0.93827000000E+00  0.93827000000E+00 0.  1.
     999902    2    1    2    0    0 -0.98686105048E-03  0.14980252301E-01  0.11831867132E-01  0.10248152169E+01  0.10246369376E+01 0.  0.
     999903    2    3    3    0    0 -0.97369206723E-02 -0.74687524585E-01  0.10993237850E+00  0.13479241713E+00  0.20269038437E-01 0.  0.
         14    1    1    2    0    0  0.98686105048E-03 -0.14980252301E-01 -0.11831867132E-01  0.19114783116E-01  0.00000000000E+00 0. -1.
     999901    1    3    3    0    0  0.87500596218E-02  0.89667776886E-01 -0.98100511371E-01  0.89002279976E+00  0.88000000000E+00 0.  1.
        -11    1    4    4    0    0 -0.10023261283E-02 -0.14715693972E-01  0.37797060817E-01  0.40576289063E-01  0.51100000000E-03 0. -1.
         11    1    4    4    0    0 -0.87345945440E-02 -0.59971830612E-01  0.72135317686E-01  0.94216128064E-01  0.51100000000E-03 0.  1.
</event>
<event>
 8    1  0.1074844E+005  0.1043930E+01  0.7957747E-01            NaN
         13   -1    0    0    0    0  0.00000000000E+00  0.00000000000E+00  0.74505805969E-08  0.10566000000E+00  0.10566000000E+00 0. -1.
     999900   -1    0    0    0    0 -0.00000000000E+00 -0.00000000000E+00 -0.74505805969E-08  0.93827000000E+00  0.93827000000E+00 0.  1.
     999902    2    1    2    0    0  0.22564360344E-01 -0.38955348179E-02  0.99255769769E-02  0.10189731847E+01  0.10186675162E+01 0.  0.
     999903    2    3    3    0    0 -0.59990689802E-01 -0.10680766137E+00 -0.31605482179E-01  0.12816957509E+00  0.20537139157E-01 0.  0.
         14    1    1    2    0    0 -0.22564360344E-01  0.38955348179E-02 -0.99255769769E-02  0.24956815253E-01  0.00000000000E+00 0. -1.
     999901    1    3    3    0    0  0.82555050146E-01  0.10291212656E+00  0.41531059156E-01  0.89080360965E+00  0.88000000000E+00 0. -1.
        -11    1    4    4    0    0 -0.20256170138E-01 -0.56944645069E-01 -0.14618158113E-01  0.62184859076E-01  0.51100000000E-03 0.  1.
         11    1    4    4    0    0 -0.39734519664E-01 -0.49863016305E-01 -0.16987324066E-01  0.65984716017E-01  0.51100000000E-03 0. -1.
</event>
<event>
 8    1  0.1074844E+005  0.1043930E+01  0.7957747E-01            NaN
         13   -1    0    0    0    0  0.00000000000E+00  0.00000000000E+00  0.74505805969E-08  0.10566000000E+00  0.10566000000E+00 0.  1.
     999900   -1    0    0    0    0 -0.00000000000E+00 -0.00000000000E+00 -0.74505805969E-08  0.93827000000E+00  0.93827000000E+00 0. -1.
     999902    2    1    2    0    0 -0.31882959938E-02  0.55267639896E-02  0.22852606676E-01  0.10202033908E+01  0.10199274517E+01 0.  0.
     999903    2    3    3    0    0  0.10769343976E+00 -0.53671854121E-01  0.47800907827E-01  0.13092185303E+00  0.19418030821E-01 0.  0.
         14    1    1    2    0    0  0.31882959938E-02 -0.55267639896E-02 -0.22852606676E-01  0.23726609185E-01  0.00000000000E+00 0. -1.
     999901    1    3    3    0    0 -0.11088173575E+00  0.59198618110E-01 -0.24948301151E-01  0.88928153778E+00  0.88000000000E+00 0.  1.
        -11    1    4    4    0    0  0.43478023251E-01 -0.29107239417E-01  0.28137225212E-01  0.59409885170E-01  0.51100000000E-03 0.  1.
         11    1    4    4    0    0  0.64215416507E-01 -0.24564614703E-01  0.19663682615E-01  0.71511967863E-01  0.51100000000E-03 0. -1.
</event>
<event>
 8    1  0.1074844E+005  0.1043930E+01  0.7957747E-01            NaN
         13   -1    0    0    0    0  0.00000000000E+00  0.00000000000E+00  0.74505805969E-08  0.10566000000E+00  0.10566000000E+00 0. -1.
     999900   -1    0    0    0    0 -0.00000000000E+00 -0.00000000000E+00 -0.74505805969E-08  0.93827000000E+00  0.93827000000E+00 0. -1.
     999902    2    1    2    0    0  0.11547014110E-01  0.20108358208E-01 -0.35671012623E-02  0.10204693134E+01  0.10201995960E+01 0.  0.
     999903    2    3    3    0    0  0.15158570265E-01  0.13092954393E+00 -0.40967327872E-02  0.13351122022E+00  0.20883844932E-01 0.  0.
         14    1    1    2    0    0 -0.11547014110E-01 -0.20108358208E-01  0.35671012623E-02  0.23460686607E-01  0.00000000000E+00 0. -1.
     999901    1    3    3    0    0 -0.36115561543E-02 -0.11082118572E+00  0.52963152499E-03  0.88695809318E+00  0.88000000000E+00 0. -1.
        -11    1    4    4    0    0  0.15883819585E-01  0.89802873357E-01 -0.10788984450E-01  0.91834171714E-01  0.51100000000E-03 0.  1.
         11    1    4    4    0    0 -0.72524931994E-03  0.41126670568E-01  0.66922516629E-02  0.41677048503E-01  0.51100000000E-03 0. -1.
</event>
<event>
 8    1  0.1074844E+005  0.1043930E+01  0.7957747E-01            NaN
         13   -1    0    0    0    0  0.00000000000E+00  0.00000000000E+00  0.74505805969E-08  0.10566000000E+00  0.10566000000E+00 0.  1.
     999900   -1    0    0    0    0 -0.00000000000E+00 -0.00000000000E+00 -0.74505805969E-08  0.93827000000E+00  0.93827000000E+00 0.  1.
     999902    2    1    2    0    0  0.54286573599E-02  0.23230553801E-01  0.40565935683E-02  0.10197311384E+01  0.10194439709E+01 0.  0.
     999903    2    3    3    0    0  0.63687760857E-01 -0.71572665908E-01 -0.83179291964E-01  0.12844449915E+00  0.20010431335E-01 0.  0.
         14    1    1    2    0    0 -0.54286573599E-02 -0.23230553801E-01 -0.40565935683E-02  0.24198861585E-01  0.00000000000E+00 0.  1.
     999901    1    3    3    0    0 -0.58259103497E-01  0.94803219709E-01  0.87235885532E-01  0.89128663926E+00  0.88000000000E+00 0. -1.
        -11    1    4    4    0    0  0.44520542118E-01 -0.35203676248E-01 -0.48303972683E-01  0.74531284638E-01  0.51100000000E-03 0.  1.
         11    1    4    4    0    0  0.19167218738E-01 -0.36368989660E-01 -0.34875319281E-01  0.53913214512E-01  0.51100000000E-03 0. -1.
</event>
<event>
 8    1  0.1074844E+005  0.1043930E+01  0.7957747E-01            NaN
         13   -1    0    0    0    0  0.00000000000E+00  0.00000000000E+00  0.74505805969E-08  0.10566000000E+00  0.10566000000E+00 0.  1.
     999900   -1    0    0    0    0 -0.00000000000E+00 -0.00000000000E+00 -0.74505805969E-08  0.93827000000E+00  0.93827000000E+00 0. -1.
     999902    2    1    2    0    0 -0.23351568625E-01  0.15353764370E-02  0.31558059499E-02  0.10203161852E+01  0.10200428940E+01 0.  0.
     999903    2    3    3    0    0 -0.10955947915E+00 -0.71810365171E-01 -0.11218177746E-01  0.13295041335E+00  0.19747325882E-01 0.  0.
         14    1    1    2    0    0  0.23351568625E-01 -0.15353764370E-02 -0.31558059499E-02  0.23613814796E-01  0.00000000000E+00 0. -1.
     999901    1    3    3    0    0  0.86207910530E-01  0.73345741608E-01  0.14373983696E-01  0.88736577185E+00  0.88000000000E+00 0.  1.
        -11    1    4    4    0    0 -0.11754018930E-01 -0.52729314893E-02 -0.67957180194E-02  0.14574075336E-01  0.51100000000E-03 0.  1.
         11    1    4    4    0    0 -0.97805460224E-01 -0.66537433681E-01 -0.44224597263E-02  0.11837633801E+00  0.51100000000E-03 0. -1.
</event>
<event>
 8    1  0.1074844E+005  0.1043930E+01  0.7957747E-01            NaN
         13   -1    0    0    0    0  0.00000000000E+00  0.00000000000E+00  0.74505805969E-08  0.10566000000E+00  0.10566000000E+00 0.  1.
     999900   -1    0    0    0    0 -0.00000000000E+00 -0.00000000000E+00 -0.74505805969E-08  0.93827000000E+00  0.93827000000E+00 0. -1.
     999902    2    1    2    0    0  0.18521959708E-01 -0.11272778957E-01 -0.46188164872E-02  0.10217608322E+01  0.10215203014E+01 0.  0.
     999903    2    3    3    0    0 -0.33994965974E-01 -0.51339112819E-01  0.11436614342E+00  0.13129985083E+00  0.19200881527E-01 0.  0.
         14    1    1    2    0    0 -0.18521959708E-01  0.11272778957E-01  0.46188164872E-02  0.22169167837E-01  0.00000000000E+00 0.  1.
     999901    1    3    3    0    0  0.52516925681E-01  0.40066333862E-01 -0.11898495990E+00  0.89046098133E+00  0.88000000000E+00 0. -1.
        -11    1    4    4    0    0 -0.19032432472E-01 -0.12804025932E-01  0.46035476914E-01  0.51436395884E-01  0.51100000000E-03 0.  1.
         11    1    4    4    0    0 -0.14962533501E-01 -0.38535086887E-01  0.68330666504E-01  0.79863454947E-01  0.51100000000E-03 0. -1.
</event>
<event>
 8    1  0.1074844E+005  0.1043930E+01  0.7957747E-01            NaN
         13   -1    0    0    0    0  0.00000000000E+00  0.00000000000E+00  0.74505805969E-08  0.10566000000E+00  0.10566000000E+00 0. -1.
     999900   -1    0    0    0    0 -0.00000000000E+00 -0.00000000000E+00 -0.74505805969E-08  0.93827000000E+00  0.93827000000E+00 0. -1.
     999902    2    1    2    0    0  0.17827103522E-02 -0.73016867302E-02  0.22647139607E-01  0.10200681975E+01  0.10197890674E+01 0.  0.
     999903    2    3    3    0    0 -0.50731471128E-01  0.76979000389E-01  0.91248954805E-01  0.13182995103E+00  0.23522660806E-01 0.  0.
         14    1    1    2    0    0 -0.17827103522E-02  0.73016867302E-02 -0.22647139607E-01  0.23861802482E-01  0.00000000000E+00 0.  1.
     999901    1    3    3    0    0  0.52514181481E-01 -0.84280687119E-01 -0.68601815198E-01  0.88823824649E+00  0.88000000000E+00 0. -1.
        -11    1    4    4    0    0 -0.34897186173E-01  0.38059290913E-01  0.61711014169E-01  0.80466350845E-01  0.51100000000E-03 0. -1.
         11    1    4    4    0    0 -0.15834284956E-01  0.38919709476E-01  0.29537940637E-01  0.51363600183E-01  0.51100000000E-03 0.  1.
</event>
<event>
 8    1  0.1074844E+005  0.1043930E+01  0.7957747E-01            NaN
         13   -1    0    0    0    0  0.00000000000E+00  0.00000000000E+00  0.74505805969E-08  0.10566000000E+00  0.10566000000E+00 0.  1.
     999900   -1    0    0    0    0 -0.00000000000E+00 -0.00000000000E+00 -0.74505805969E-08  0.93827000000E+00  0.93827000000E+00 0. -1.
     999902    2    1    2    0    0 -0.15974228756E-01  0.91497554046E-02  0.10593619540E-01  0.10226904430E+01  0.10224698643E+01 0.  0.
     999903    2    3    3    0    0  0.73489504458E-01  0.95357823558E-01 -0.49994282281E-01  0.13190063362E+00  0.20112859310E-01 0.  0.
         14    1    1    2    0    0  0.15974228756E-01 -0.91497554046E-02 -0.10593619540E-01  0.21239557040E-01  0.00000000000E+00 0. -1.
     999901    1    3    3    0    0 -0.89463733213E-01 -0.86208068154E-01  0.60587901820E-01  0.89078980934E+00  0.88000000000E+00 0.  1.
        -11    1    4    4    0    0  0.53892613101E-01  0.54153318881E-01 -0.32632548454E-01  0.83079119111E-01  0.51100000000E-03 0. -1.
         11    1    4    4    0    0  0.19596891356E-01  0.41204504678E-01 -0.17361733826E-01  0.48821514510E-01  0.51100000000E-03 0.  1.
</event>
<event>
 8    1  0.1074844E+005  0.1043930E+01  0.7957747E-01            NaN
         13   -1    0    0    0    0  0.00000000000E+00  0.00000000000E+00  0.74505805969E-08  0.10566000000E+00  0.10566000000E+00 0.  1.
     999900   -1    0    0    0    0 -0.00000000000E+00 -0.00000000000E+00 -0.74505805969E-08  0.93827000000E+00  0.93827000000E+00 0.  1.
     999902    2    1    2    0    0 -0.13488480257E-02 -0.24010694782E-01 -0.35954868101E-02  0.10196141537E+01  0.10193241693E+01 0.  0.
     999903    2    3    3    0    0 -0.47156147321E-01 -0.86268103687E-01  0.85419761203E-01  0.13175267353E+00  0.19908375962E-01 0.  0.
         14    1    1    2    0    0  0.13488480257E-02  0.24010694782E-01  0.35954868101E-02  0.24315846280E-01  0.00000000000E+00 0.  1.
     999901    1    3    3    0    0  0.45807299296E-01  0.62257408906E-01 -0.89015248013E-01  0.88786148019E+00  0.88000000000E+00 0.  1.
        -11    1    4    4    0    0 -0.24655587107E-01 -0.48116518444E-01  0.33934601979E-01  0.63835066032E-01  0.51100000000E-03 0.  1.
         11    1    4    4    0    0 -0.22500560214E-01 -0.38151585243E-01  0.51485159224E-01  0.67917607495E-01  0.51100000000E-03 0. -1.
</event>
<event>
 8    1  0.1074844E+005  0.1043930E+01  0.7957747E-01            NaN
         13   -1    0    0    0    0  0.00000000000E+00  0.00000000000E+00  0.74505805969E-08  0.10566000000E+00  0.10566000000E+00 0.  1.
     999900   -1    0    0    0    0 -0.00000000000E+00 -0.00000000000E+00 -0.74505805969E-08  0.93827000000E+00  0.93827000000E+00 0. -1.
     999902    2    1    2    0    0 -0.19637694275E-01  0.12979379170E-01  0.18621424313E-02  0.10203170609E+01  0.10200437901E+01 0.  0.
     999903    2    3    3    0    0 -0.60666429943E-01 -0.11342151234E+00 -0.19477037734E-02  0.13033107364E+00  0.20917457401E-01 0.  0.
         14    1    1    2    0    0  0.19637694275E-01 -0.12979379170E-01 -0.18621424313E-02  0.23612939133E-01  0.00000000000E+00 0. -1.
     999901    1    3    3    0    0  0.41028735669E-01  0.12640089151E+00  0.38098462047E-02  0.88998598722E+00  0.88000000000E+00 0. -1.
        -11    1    4    4    0    0 -0.33250501069E-01 -0.82706375176E-01 -0.15525057199E-02  0.89154987024E-01  0.51100000000E-03 0.  1.
         11    1    4    4    0    0 -0.27415928874E-01 -0.30715137162E-01 -0.39519805350E-03  0.41176086621E-01  0.51100000000E-03 0. -1.
</event>
<event>
 8    1  0.1074844E+005  0.1043930E+01  0.7957747E-01            NaN
         13   -1    0    0    0    0  0.00000000000E+00  0.00000000000E+00  0.74505805969E-08  0.10566000000E+00  0.10566000000E+00 0. -1.
     999900   -1    0    0    0    0 -0.00000000000E+00 -0.00000000000E+00 -0.74505805969E-08  0.93827000000E+00  0.93827000000E+00 0.  1.
     999902    2    1    2    0    0  0.21994621896E-01 -0.95961953437E-03 -0.11713144820E-01  0.10189924375E+01  0.10186872462E+01 0.  0.
     999903    2    3    3    0    0  0.59784196689E-01 -0.20759225002E-01  0.11134941277E+00  0.12940575290E+00  0.18494906396E-01 0.  0.
         14    1    1    2    0    0 -0.21994621896E-01  0.95961953437E-03  0.11713144820E-01  0.24937562502E-01  0.00000000000E+00 0. -1.
     999901    1    3    3    0    0 -0.37789574793E-01  0.19799605467E-01 -0.12306255759E+00  0.88958668460E+00  0.88000000000E+00 0.  1.
        -11    1    4    4    0    0  0.56288440608E-01 -0.14948715104E-01  0.10515649299E+00  0.12020816015E+00  0.51100000000E-03 0.  1.
         11    1    4    4    0    0  0.34957560803E-02 -0.58105098974E-02  0.61929197818E-02  0.91975927430E-02  0.51100000000E-03 0. -1.
</event>
<event>
 8    1  0.1074844E+005  0.1043930E+01  0.7957747E-01            NaN
         13   -1    0    0    0    0  0.00000000000E+00  0.00000000000E+00  0.74505805969E-08  0.10566000000E+00  0.10566000000E+00 0.  1.
     999900   -1    0    0    0    0 -0.00000000000E+00 -0.00000000000E+00 -0.74505805969E-08  0.93827000000E+00  0.93827000000E+00 0. -1.
     999902    2    1    2    0    0  0.93790877883E-03 -0.22254278320E-01  0.59778783797E-02  0.10208677450E+01  0.10206072139E+01 0.  0.
     999903    2    3    3    0    0 -0.58551762661E-01  0.92776775018E-01 -0.64184356388E-01  0.12862680027E+00  0.19732796283E-01 0.  0.
         14    1    1    2    0    0 -0.93790877883E-03  0.22254278320E-01 -0.59778783797E-02  0.23062255014E-01  0.00000000000E+00 0. -1.
     999901    1    3    3    0    0  0.59489671440E-01 -0.11503105334E+00  0.70162234768E-01  0.89224094472E+00  0.88000000000E+00 0.  1.
        -11    1    4    4    0    0 -0.33937562670E-01  0.62521514129E-01 -0.50689084011E-01  0.87351830249E-01  0.51100000000E-03 0.  1.
         11    1    4    4    0    0 -0.24614199991E-01  0.30255260889E-01 -0.13495272377E-01  0.41274970021E-01  0.51100000000E-03 0. -1.
</event>
<event>
 8    1  0.1074844E+005  0.1043930E+01  0.7957747E-01            NaN
         13   -1    0    0    0    0  0.00000000000E+00  0.00000000000E+00  0.74505805969E-08  0.10566000000E+00  0.10566000000E+00 0. -1.
     999900   -1    0    0    0    0 -0.00000000000E+00 -0.00000000000E+00 -0.74505805969E-08  0.93827000000E+00  0.93827000000E+00 0.  1.
     999902    2    1    2    0    0  0.99996738215E-02  0.16404436793E-01 -0.11295361121E-01  0.10216435870E+01  0.10214004771E+01 0.  0.
     999903    2    3    3    0    0 -0.38365946434E-01  0.87692215690E-01 -0.91249126533E-01  0.13382953817E+00  0.20544382559E-01 0.  0.
         14    1    1    2    0    0 -0.99996738215E-02 -0.16404436793E-01  0.11295361121E-01  0.22286413033E-01  0.00000000000E+00 0. -1.
     999901    1    3    3    0    0  0.48365620255E-01 -0.71287778897E-01  0.79953765412E-01  0.88781404880E+00  0.88000000000E+00 0. -1.
        -11    1    4    4    0    0 -0.14060337874E-01  0.56704355868E-01 -0.51712090735E-01  0.78022295049E-01  0.51100000000E-03 0. -1.
         11    1    4    4    0    0 -0.24305608559E-01  0.30987859822E-01 -0.39537035798E-01  0.55807243118E-01  0.51100000000E-03 0.  1.
</event>
<event>
 8    1  0.1074844E+005  0.1043930E+01  0.7957747E-01            NaN
         13   -1    0    0    0    0  0.00000000000E+00  0.00000000000E+00  0.74505805969E-08  0.10566000000E+00  0.10566000000E+00 0.  1.
     999900   -1    0    0    0    0 -0.00000000000E+00 -0.00000000000E+00 -0.74505805969E-08  0.93827000000E+00  0.93827000000E+00 0.  1.
     999902    2    1    2    0    0 -0.89745304237E-02  0.17426352994E-02  0.17964537238E-01  0.10237730267E+01  0.10235745731E+01 0.  0.
     999903    2    3    3    0    0  0.42774345522E-01 -0.15689383478E-01  0.12605033631E+00  0.13548007875E+00  0.19757607780E-01 0.  0.
         14    1    1    2    0    0  0.89745304237E-02 -0.17426352994E-02 -0.17964537238E-01  0.20156973291E-01  0.00000000000E+00 0. -1.
     999901    1    3    3    0    0 -0.51748875946E-01  0.17432018777E-01 -0.10808579907E+00  0.88829294796E+00  0.88000000000E+00 0.  1.
        -11    1    4    4    0    0  0.19886211036E-01 -0.62908949181E-02  0.85205998703E-01  0.87723201516E-01  0.51100000000E-03 0.  1.
         11    1    4    4    0    0  0.22888134486E-01 -0.93984885596E-02  0.40844337603E-01  0.47756877230E-01  0.51100000000E-03 0. -1.
</event>
<event>
 8    1  0.1074844E+005  0.1043930E+01  0.7957747E-01            NaN
         13   -1    0    0    0    0  0.00000000000E+00  0.00000000000E+00  0.74505805969E-08  0.10566000000E+00  0.10566000000E+00 0.  1.
     999900   -1    0    0    0    0 -0.00000000000E+00 -0.00000000000E+00 -0.74505805969E-08  0.93827000000E+00  0.93827000000E+00 0.  1.
     999902    2    1    2    0    0 -0.54903695658E-02 -0.13869741371E-01 -0.83005820852E-02  0.10268591609E+01  0.10267172555E+01 0.  0.
     999903    2    3    3    0    0 -0.50855512573E-01  0.47071943187E-01  0.11370331421E+00  0.13519956454E+00  0.23418531011E-01 0.  0.
         14    1    1    2    0    0  0.54903695658E-02  0.13869741371E-01  0.83005820852E-02  0.17070839072E-01  0.00000000000E+00 0. -1.
     999901    1    3    3    0    0  0.45365143007E-01 -0.60941684559E-01 -0.12200389630E+00  0.89165959639E+00  0.88000000000E+00 0.  1.
        -11    1    4    4    0    0 -0.31723863620E-01  0.37875575790E-01  0.61814672936E-01  0.79134554245E-01  0.51100000000E-03 0. -1.
         11    1    4    4    0    0 -0.19131648953E-01  0.91963673973E-02  0.51888641276E-01  0.56065010296E-01  0.51100000000E-03 0.  1.
</event>
<event>
 8    1  0.1074844E+005  0.1043930E+01  0.7957747E-01            NaN
         13   -1    0    0    0    0  0.00000000000E+00  0.00000000000E+00  0.74505805969E-08  0.10566000000E+00  0.10566000000E+00 0. -1.
     999900   -1    0    0    0    0 -0.00000000000E+00 -0.00000000000E+00 -0.74505805969E-08  0.93827000000E+00  0.93827000000E+00 0. -1.
     999902    2    1    2    0    0  0.10516508798E-01  0.18602082689E-01 -0.64236671481E-02  0.10216163733E+01  0.10213726628E+01 0.  0.
     999903    2    3    3    0    0 -0.45003314671E-01 -0.11666891491E+00  0.24679555314E-01  0.12900889850E+00  0.19931919210E-01 0.  0.
         14    1    1    2    0    0 -0.10516508798E-01 -0.18602082689E-01  0.64236671481E-02  0.22313626718E-01  0.00000000000E+00 0. -1.
     999901    1    3    3    0    0  0.55519823469E-01  0.13527099760E+00 -0.31103222462E-01  0.89260747478E+00  0.88000000000E+00 0.  1.
        -11    1    4    4    0    0 -0.79104937916E-02 -0.45138138523E-01  0.12610199830E-01  0.47532154613E-01  0.51100000000E-03 0.  1.
         11    1    4    4    0    0 -0.37092820879E-01 -0.71530776389E-01  0.12069355484E-01  0.81476743887E-01  0.51100000000E-03 0. -1.
</event>
<event>
 8    1  0.1074844E+005  0.1043930E+01  0.7957747E-01            NaN
         13   -1    0    0    0    0  0.00000000000E+00  0.00000000000E+00  0.74505805969E-08  0.10566000000E+00  0.10566000000E+00 0. -1.
     999900   -1    0    0    0    0 -0.00000000000E+00 -0.00000000000E+00 -0.74505805969E-08  0.93827000000E+00  0.93827000000E+00 0. -1.
     999902    2    1    2    0    0 -0.10094564175E-01 -0.97166225372E-02  0.18563758494E-01  0.10206721818E+01  0.10204071621E+01 0.  0.
     999903    2    3    3    0    0  0.55163237907E-01  0.64316017122E-01 -0.93611309590E-01  0.12807896066E+00  0.21485111271E-01 0.  0.
         14    1    1    2    0    0  0.10094564175E-01  0.97166225372E-02 -0.18563758494E-01  0.23257818231E-01  0.00000000000E+00 0.  1.
     999901    1    3    3    0    0 -0.65257802081E-01 -0.74032639660E-01  0.11217506808E+00  0.89259322111E+00  0.88000000000E+00 0.  1.
        -11    1    4    4    0    0  0.33195002556E-01  0.24420461332E-01 -0.36695997257E-01  0.55182646385E-01  0.51100000000E-03 0.  1.
         11    1    4    4    0    0  0.21968235351E-01  0.39895555790E-01 -0.56915312333E-01  0.72896314277E-01  0.51100000000E-03 0. -1.
</event>
<event>
 8    1  0.1074844E+005  0.1043930E+01  0.7957747E-01            NaN
         13   -1    0    0    0    0  0.00000000000E+00  0.00000000000E+00  0.74505805969E-08  0.10566000000E+00  0.10566000000E+00 0. -1.
     999900   -1    0    0    0    0 -0.00000000000E+00 -0.00000000000E+00 -0.74505805969E-08  0.93827000000E+00  0.93827000000E+00 0. -1.
     999902    2    1    2    0    0 -0.36042156835E-03 -0.30860189150E-02  0.23346583944E-01  0.10203775819E+01  0.10201057265E+01 0.  0.
     999903    2    3    3    0    0 -0.57641118298E-01 -0.79105677532E-01  0.87702846590E-01  0.13290826116E+00  0.19814384883E-01 0.  0.
         14    1    1    2    0    0  0.36042156835E-03  0.30860189150E-02 -0.23346583944E-01  0.23552418099E-01  0.00000000000E+00 0.  1.
     999901    1    3    3    0    0  0.57280696730E-01  0.76019658617E-01 -0.64356262646E-01  0.88746932074E+00  0.88000000000E+00 0. -1.
        -11    1    4    4    0    0 -0.15363212451E-01 -0.32750343018E-01  0.41085233144E-01  0.54743682449E-01  0.51100000000E-03 0.  1.
         11    1    4    4    0    0 -0.42277905847E-01 -0.46355334514E-01  0.46617613446E-01  0.78164578712E-01  0.51100000000E-03 0. -1.
</event>
<event>
 8    1  0.1074844E+005  0.1043930E+01  0.7957747E-01            NaN
         13   -1    0    0    0    0  0.00000000000E+00  0.00000000000E+00  0.74505805969E-08  0.10566000000E+00  0.10566000000E+00 0.  1.
     999900   -1    0    0    0    0 -0.00000000000E+00 -0.00000000000E+00 -0.74505805969E-08  0.93827000000E+00  0.93827000000E+00 0. -1.
     999902    2    1    2    0    0  0.19600187284E-01  0.80748854315E-02 -0.10585141698E-01  0.10202357741E+01  0.10199605965E+01 0.  0.
     999903    2    3    3    0    0  0.69028690984E-02  0.12555540965E+00 -0.36157962186E-01  0.13196956141E+00  0.17226619402E-01 0.  0.
         14    1    1    2    0    0 -0.19600187284E-01 -0.80748854315E-02  0.10585141698E-01  0.23694225901E-01  0.00000000000E+00 0.  1.
     999901    1    3    3    0    0  0.12697318185E-01 -0.11748052421E+00  0.25572820488E-01  0.88826621269E+00  0.88000000000E+00 0. -1.
        -11    1    4    4    0    0  0.77276783634E-02  0.57487045191E-01 -0.24199853693E-01  0.62851980219E-01  0.51100000000E-03 0.  1.
         11    1    4    4    0    0 -0.82480926498E-03  0.68068364454E-01 -0.11958108492E-01  0.69117581190E-01  0.51100000000E-03 0. -1.
</event>
<event>
 8    1  0.1074844E+005  0.1043930E+01  0.7957747E-01            NaN
         13   -1    0    0    0    0  0.00000000000E+00  0.00000000000E+00  0.74505805969E-08  0.10566000000E+00  0.10566000000E+00 0. -1.
     999900   -1    0    0    0    0 -0.00000000000E+00 -0.00000000000E+00 -0.74505805969E-08  0.93827000000E+00  0.93827000000E+00 0. -1.
     999902    2    1    2    0    0  0.13512357432E-01  0.17246618707E-01  0.10265280431E-01  0.10197348426E+01  0.10194477640E+01 0.  0.
     999903    2    3    3    0    0 -0.14033070545E-01 -0.44856182682E-01  0.11992914228E+00  0.13032960809E+00  0.19844479936E-01 0.  0.
         14    1    1    2    0    0 -0.13512357432E-01 -0.17246618707E-01 -0.10265280431E-01  0.24195157419E-01  0.00000000000E+00 0.  1.
     999901    1    3    3    0    0  0.27545427977E-01  0.62102801389E-01 -0.10966386185E+00  0.88940523449E+00  0.88000000000E+00 0.  1.
        -11    1    4    4    0    0 -0.14660988738E-01 -0.16672014363E-01  0.42995262532E-01  0.48391676711E-01  0.51100000000E-03 0. -1.
         11    1    4    4    0    0  0.62791819316E-03 -0.28184168319E-01  0.76933879747E-01  0.81937931381E-01  0.51100000000E-03 0.  1.
</event>
<event>
 8    1  0.1074844E+005  0.1043930E+01  0.7957747E-01            NaN
         13   -1    0    0    0    0  0.00000000000E+00  0.00000000000E+00  0.74505805969E-08  0.10566000000E+00  0.10566000000E+00 0.  1.
     999900   -1    0    0    0    0 -0.00000000000E+00 -0.00000000000E+00 -0.74505805969E-08  0.93827000000E+00  0.93827000000E+00 0.  1.
     999902    2    1    2    0    0 -0.11744091582E-01  0.70155707128E-02  0.19546012400E-01  0.10200723279E+01  0.10197932955E+01 0.  0.
     999903    2    3    3    0    0  0.91361630594E-02  0.92204049665E-01 -0.87845478488E-01  0.12921544019E+00  0.19868206835E-01 0.  0.
         14    1    1    2    0    0  0.11744091582E-01 -0.70155707128E-02 -0.19546012400E-01  0.23857672147E-01  0.00000000000E+00 0.  1.
     999901    1    3    3    0    0 -0.20880254641E-01 -0.85188478953E-01  0.10739149089E+00  0.89085688766E+00  0.88000000000E+00 0. -1.
        -11    1    4    4    0    0  0.11438005179E-01  0.71175746728E-01 -0.76843647837E-01  0.10536613412E+00  0.51100000000E-03 0.  1.
         11    1    4    4    0    0 -0.23018421196E-02  0.21028302937E-01 -0.11001830651E-01  0.23849306074E-01  0.51100000000E-03 0. -1.
</event>
<event>
 8    1  0.1074844E+005  0.1043930E+01  0.7957747E-01            NaN
         13   -1    0    0    0    0  0.00000000000E+00  0.00000000000E+00  0.74505805969E-08  0.10566000000E+00  0.10566000000E+00 0. -1.
     999900   -1    0    0    0    0 -0.00000000000E+00 -0.00000000000E+00 -0.74505805969E-08  0.93827000000E+00  0.93827000000E+00 0. -1.
     999902    2    1    2    0    0  0.20709259451E-01 -0.20056409422E-02 -0.11797460910E-01  0.10200118875E+01  0.10197314227E+01 0.  0.
     999903    2    3    3    0    0  0.85684506826E-01  0.19159871138E-01 -0.98001393904E-01  0.13316303918E+00  0.20474042679E-01 0.  0.
         14    1    1    2    0    0 -0.20709259451E-01  0.20056409422E-02  0.11797460910E-01  0.23918112520E-01  0.00000000000E+00 0. -1.
     999901    1    3    3    0    0 -0.64975247375E-01 -0.21165512080E-01  0.86203932994E-01  0.88684884830E+00  0.88000000000E+00 0.  1.
        -11    1    4    4    0    0  0.54212012685E-01  0.34608418149E-02 -0.67173161670E-01  0.86391055759E-01  0.51100000000E-03 0. -1.
         11    1    4    4    0    0  0.31472494142E-01  0.15699029323E-01 -0.30828232234E-01  0.46771983418E-01  0.51100000000E-03 0.  1.
</event>
<event>
 8    1  0.1074844E+005  0.1043930E+01  0.7957747E-01            NaN
         13   -1    0    0    0    0  0.00000000000E+00  0.00000000000E+00  0.74505805969E-08  0.10566000000E+00  0.10566000000E+00 0.  1.
     999900   -1    0    0    0    0 -0.00000000000E+00 -0.00000000000E+00 -0.74505805969E-08  0.93827000000E+00  0.93827000000E+00 0.  1.
     999902    2    1    2    0    0  0.59773881591E-02  0.22451263768E-01  0.24344632623E-02  0.10205694558E+01  0.10203020627E+01 0.  0.
     999903    2    3    3    0    0  0.18330717823E-01  0.13023799072E+00  0.14159698817E-01  0.13382932227E+00  0.20293865705E-01 0.  0.
         14    1    1    2    0    0 -0.59773881591E-02 -0.22451263768E-01 -0.24344632623E-02  0.23360544201E-01  0.00000000000E+00 0.  1.
     999901    1    3    3    0    0 -0.12353329664E-01 -0.10778672695E+00 -0.11725235555E-01  0.88674013353E+00  0.88000000000E+00 0. -1.
        -11    1    4    4    0    0  0.34400667870E-02  0.88183614317E-01  0.12949645816E-01  0.89197187968E-01  0.51100000000E-03 0. -1.
         11    1    4    4    0    0  0.14890651036E-01  0.42054376406E-01  0.12100530014E-02  0.44632134303E-01  0.51100000000E-03 0.  1.
</event>
<event>
 8    1  0.1074844E+005  0.1043930E+01  0.7957747E-01            NaN
         13   -1    0    0    0    0  0.00000000000E+00  0.00000000000E+00  0.74505805969E-08  0.10566000000E+00  0.10566000000E+00 0.  1.
     999900   -1    0    0    0    0 -0.00000000000E+00 -0.00000000000E+00 -0.74505805969E-08  0.93827000000E+00  0.93827000000E+00 0. -1.
     999902    2    1    2    0    0  0.16455775581E-01 -0.15223416967E-01  0.79210972983E-02  0.10201541981E+01  0.10198771000E+01 0.  0.
     999903    2    3    3    0    0  0.89968740367E-01 -0.80855822503E-01 -0.50428795666E-01  0.13273294600E+00  0.21045979332E-01 0.  0.
         14    1    1    2    0    0 -0.16455775581E-01  0.15223416967E-01 -0.79210972983E-02  0.23775801911E-01  0.00000000000E+00 0. -1.
     999901    1    3    3    0    0 -0.73512964786E-01  0.65632405536E-01  0.58349892964E-01  0.88742125209E+00  0.88000000000E+00 0.  1.
        -11    1    4    4    0    0  0.58070174693E-01 -0.40140924454E-01 -0.34745056166E-01  0.78682393544E-01  0.51100000000E-03 0.  1.
         11    1    4    4    0    0  0.31898565674E-01 -0.40714898049E-01 -0.15683739500E-01  0.54050552457E-01  0.51100000000E-03 0. -1.
</event>
<event>
 8    1  0.1074844E+005  0.1043930E+01  0.7957747E-01            NaN
         13   -1    0    0    0    0  0.00000000000E+00  0.00000000000E+00  0.74505805969E-08  0.10566000000E+00  0.10566000000E+00 0.  1.
     999900   -1    0    0    0    0 -0.00000000000E+00 -0.00000000000E+00 -0.74505805969E-08  0.93827000000E+00  0.93827000000E+00 0. -1.
     999902    2    1    2    0    0  0.25635867067E-02  0.23865137359E-01 -0.39070499075E-02  0.10196116572E+01  0.10193216125E+01 0.  0.
     999903    2    3    3    0    0 -0.91129910614E-01 -0.36231540788E-01 -0.81683208492E-01  0.12919646583E+00  0.20054801838E-01 0.  0.
         14    1    1    2    0    0 -0.25635867067E-02 -0.23865137359E-01  0.39070499075E-02  0.24318342809E-01  0.00000000000E+00 0.  1.
     999901    1    3    3    0    0  0.93693497321E-01  0.60096678147E-01  0.77776158585E-01  0.89041519136E+00  0.88000000000E+00 0. -1.
        -11    1    4    4    0    0 -0.40782690963E-01 -0.26776512203E-01 -0.42394192570E-01  0.64635425060E-01  0.51100000000E-03 0.  1.
         11    1    4    4    0    0 -0.50347219651E-01 -0.94550285848E-02 -0.39289015922E-01  0.64561040770E-01  0.51100000000E-03 0. -1.
</event>
<event>
 8    1  0.1074844E+005  0.1043930E+01  0.7957747E-01            NaN
         13   -1    0    0    0    0  0.00000000000E+00  0.00000000000E+00  0.74505805969E-08  0.10566000000E+00  0.10566000000E+00 0.  1.
     999900   -1    0    0    0    0 -0.00000000000E+00 -0.00000000000E+00 -0.74505805969E-08  0.93827000000E+00  0.93827000000E+00 0. -1.
     999902    2    1    2    0    0  0.68854030456E-02 -0.20595276836E-01  0.96266149719E-02  0.10201761389E+01  0.10198995580E+01 0.  0.
     999903    2    3    3    0    0  0.91504774444E-01 -0.68200770349E-01 -0.62767420059E-01  0.13188135821E+00  0.20699632854E-01 0.  0.
         14    1    1    2    0    0 -0.68854030456E-02  0.20595276836E-01 -0.96266149719E-02  0.23753861136E-01  0.00000000000E+00 0. -1.
     999901    1    3    3    0    0 -0.84619371399E-01  0.47605493514E-01  0.72394035031E-01  0.88829478065E+00  0.88000000000E+00 0.  1.
        -11    1    4    4    0    0  0.30789543456E-01 -0.31812597635E-01 -0.32360016640E-01  0.54840397085E-01  0.51100000000E-03 0. -1.
         11    1    4    4    0    0  0.60715230988E-01 -0.36388172714E-01 -0.30407403419E-01  0.77040961125E-01  0.51100000000E-03 0.  1.
</event>
<event>
 8    1  0.1074844E+005  0.1043930E+01  0.7957747E-01            NaN
         13   -1    0    0    0    0  0.00000000000E+00  0.00000000000E+00  0.74505805969E-08  0.10566000000E+00  0.10566000000E+00 0.  1.
     999900   -1    0    0    0    0 -0.00000000000E+00 -0.00000000000E+00 -0.74505805969E-08  0.93827000000E+00  0.93827000000E+00 0.  1.
     999902    2    1    2    0    0  0.34428878101E-03 -0.22106778614E-01 -0.87309370351E-02  0.10201590628E+01  0.10198820794E+01 0.  0.
     999903    2    3    3    0    0 -0.34575275177E-01  0.47589644694E-01 -0.11457185220E+00  0.13039546119E+00  0.20397133295E-01 0.  0.
         14    1    1    2    0    0 -0.34428878101E-03  0.22106778614E-01  0.87309370351E-02  0.23770937233E-01  0.00000000000E+00 0.  1.
     999901    1    3    3    0    0  0.34919563958E-01 -0.69696423308E-01  0.10584091516E+00  0.88976360158E+00  0.88000000000E+00 0.  1.
        -11    1    4    4    0    0 -0.62372866265E-03  0.14427732124E-02 -0.18232219974E-01  0.18306982225E-01  0.51100000000E-03 0. -1.
         11    1    4    4    0    0 -0.33951546514E-01  0.46146871482E-01 -0.96339632225E-01  0.11208847896E+00  0.51100000000E-03 0.  1.
</event>
<event>
 8    1  0.1074844E+005  0.1043930E+01  0.7957747E-01            NaN
         13   -1    0    0    0    0  0.00000000000E+00  0.00000000000E+00  0.74505805969E-08  0.10566000000E+00  0.10566000000E+00 0.  1.
     999900   -1    0    0    0    0 -0.00000000000E+00 -0.00000000000E+00 -0.74505805969E-08  0.93827000000E+00  0.93827000000E+00 0.  1.
     999902    2    1    2    0    0  0.80269037669E-02 -0.15666551288E-01  0.15864748567E-01  0.10202326951E+01  0.10199574451E+01 0.  0.
     999903    2    3    3    0    0  0.67095753329E-01 -0.11223331531E+00 -0.94670054632E-02  0.13262018578E+00  0.20008305849E-01 0.  0.
         14    1    1    2    0    0 -0.80269037669E-02  0.15666551288E-01 -0.15864748567E-01  0.23697304919E-01  0.00000000000E+00 0. -1.
     999901    1    3    3    0    0 -0.59068849563E-01  0.96566764026E-01  0.25331754030E-01  0.88761250930E+00  0.88000000000E+00 0. -1.
        -11    1    4    4    0    0  0.17025664414E-01 -0.43982788995E-01  0.19431911243E-02  0.47205890408E-01  0.51100000000E-03 0. -1.
         11    1    4    4    0    0  0.50070088916E-01 -0.68250526319E-01 -0.11410196587E-01  0.85414295373E-01  0.51100000000E-03 0.  1.
</event>
<event>
 8    1  0.1074844E+005  0.1043930E+01  0.7957747E-01            NaN
         13   -1    0    0    0    0  0.00000000000E+00  0.00000000000E+00  0.74505805969E-08  0.10566000000E+00  0.10566000000E+00 0. -1.
     999900   -1    0    0    0    0 -0.00000000000E+00 -0.00000000000E+00 -0.74505805969E-08  0.93827000000E+00  0.93827000000E+00 0. -1.
     999902    2    1    2    0    0  0.12812366566E-01  0.22240313283E-03 -0.21908629527E-01  0.10185490180E+01  0.10182327375E+01 0.  0.
     999903    2    3    3    0    0  0.28862460887E-01  0.12177250906E+00 -0.28869505403E-01  0.13002187289E+00  0.20264586779E-01 0.  0.
         14    1    1    2    0    0 -0.12812366566E-01 -0.22240313283E-03  0.21908629527E-01  0.25380982012E-01  0.00000000000E+00 0. -1.
     999901    1    3    3    0    0 -0.16050094321E-01 -0.12155010593E+00  0.69608758760E-02  0.88852714510E+00  0.88000000000E+00 0.  1.
        -11    1    4    4    0    0  0.18336575012E-01  0.55568283759E-01 -0.22454276047E-01  0.62677905013E-01  0.51100000000E-03 0.  1.
         11    1    4    4    0    0  0.10525885875E-01  0.66204225300E-01 -0.64152293560E-02  0.67343967879E-01  0.51100000000E-03 0. -1.
</event>
<event>
 8    1  0.1074844E+005  0.1043930E+01  0.7957747E-01            NaN
         13   -1    0    0    0    0  0.00000000000E+00  0.00000000000E+00  0.74505805969E-08  0.10566000000E+00  0.10566000000E+00 0.  1.
     999900   -1    0    0    0    0 -0.00000000000E+00 -0.00000000000E+00 -0.74505805969E-08  0.93827000000E+00  0.93827000000E+00 0. -1.
     999902    2    1    2    0    0  0.10127184183E-01 -0.39210536462E-02  0.18796847158E-01  0.10222215688E+01  0.10219910370E+01 0.  0.
     999903    2    3    3    0    0  0.35481551794E-01  0.12380793104E+00 -0.19349101128E-01  0.13182129318E+00  0.20374526131E-01 0.  0.
         14    1    1    2    0    0 -0.10127184183E-01  0.39210536462E-02 -0.18796847158E-01  0.21708431179E-01  0.00000000000E+00 0. -1.
     999901    1    3    3    0    0 -0.25354367610E-01 -0.12772898469E+00  0.38145948286E-01  0.89040027564E+00  0.88000000000E+00 0.  1.
        -11    1    4    4    0    0  0.42013609506E-02  0.47715022754E-01 -0.34522931987E-02  0.48026599709E-01  0.51100000000E-03 0.  1.
         11    1    4    4    0    0  0.31280190843E-01  0.76092908289E-01 -0.15896807929E-01  0.83794693474E-01  0.51100000000E-03 0. -1.
</event>
<event>
 8    1  0.1074844E+005  0.1043930E+01  0.7957747E-01            NaN
         13   -1    0    0    0    0  0.00000000000E+00  0.00000000000E+00  0.74505805969E-08  0.10566000000E+00  0.10566000000E+00 0. -1.
     999900   -1    0    0    0    0 -0.00000000000E+00 -0.00000000000E+00 -0.74505805969E-08  0.93827000000E+00  0.93827000000E+00 0.  1.
     999902    2    1    2    0    0  0.10970828458E-01 -0.97248205040E-02 -0.17780353101E-01  0.10208849969E+01  0.10206248600E+01 0.  0.
     999903    2    3    3    0    0 -0.31755157342E-01  0.95362259478E-01 -0.82114492953E-01  0.13127402250E+00  0.19690822237E-01 0.  0.
         14    1    1    2    0    0 -0.10970828458E-01  0.97248205040E-02  0.17780353101E-01  0.23045003088E-01  0.00000000000E+00 0. -1.
     999901    1    3    3    0    0  0.42725985800E-01 -0.10508707998E+00  0.64334139851E-01  0.88961097441E+00  0.88000000000E+00 0. -1.
        -11    1    4    4    0    0 -0.10057000269E-01  0.57604261268E-01 -0.52691668213E-01  0.78715101415E-01  0.51100000000E-03 0.  1.
         11    1    4    4    0    0 -0.21698157073E-01  0.37757998209E-01 -0.29422824740E-01  0.52558921087E-01  0.51100000000E-03 0. -1.
</event>
<event>
 8    1  0.1074844E+005  0.1043930E+01  0.7957747E-01            NaN
         13   -1    0    0    0    0  0.00000000000E+00  0.00000000000E+00  0.74505805969E-08  0.10566000000E+00  0.10566000000E+00 0. -1.
     999900   -1    0    0    0    0 -0.00000000000E+00 -0.00000000000E+00 -0.74505805969E-08  0.93827000000E+00  0.93827000000E+00 0. -1.
     999902    2    1    2    0    0  0.17022616623E-01  0.82168250955E-02  0.16775384992E-01  0.10186575005E+01  0.10183439517E+01 0.  0.
     999903    2    3    3    0    0  0.12908572686E+00  0.14036688066E-01 -0.12898694414E-02  0.13134787868E+00  0.19759756586E-01 0.  0.
         14    1    1    2    0    0 -0.17022616623E-01 -0.82168250955E-02 -0.16775384992E-01  0.25272499539E-01  0.00000000000E+00 0.  1.
     999901    1    3    3    0    0 -0.11206311024E+00 -0.58198629705E-02  0.18065254433E-01  0.88730962178E+00  0.88000000000E+00 0. -1.
        -11    1    4    4    0    0  0.83106262648E-01  0.18495329417E-01 -0.44253045084E-03  0.85142146178E-01  0.51100000000E-03 0.  1.
         11    1    4    4    0    0  0.45979464212E-01 -0.44586413510E-02 -0.84733899052E-03  0.46205732505E-01  0.51100000000E-03 0. -1.
</event>
<event>
 8    1  0.1074844E+005  0.1043930E+01  0.7957747E-01            NaN
         13   -1    0    0    0    0  0.00000000000E+00  0.00000000000E+00  0.74505805969E-08  0.10566000000E+00  0.10566000000E+00 0.  1.
     999900   -1    0    0    0    0 -0.00000000000E+00 -0.00000000000E+00 -0.74505805969E-08  0.93827000000E+00  0.93827000000E+00 0.  1.
     999902    2    1    2    0    0 -0.13522576076E-03  0.11327657598E-01  0.19814296497E-01  0.10211058799E+01  0.10208507616E+01 0.  0.
     999903    2    3    3    0    0  0.18043988602E-01  0.10553169145E+00  0.77742848651E-01  0.13399788141E+00  0.21188635669E-01 0.  0.
         14    1    1    2    0    0  0.13522576076E-03 -0.11327657598E-01 -0.19814296497E-01  0.22824120099E-01  0.00000000000E+00 0. -1.
     999901    1    3    3    0    0 -0.18179214363E-01 -0.94204033852E-01 -0.57928552154E-01  0.88710799849E+00  0.88000000000E+00 0. -1.
        -11    1    4    4    0    0  0.14206876491E-02  0.10164169469E-01  0.74294942678E-03  0.10302513734E-01  0.51100000000E-03 0.  1.
         11    1    4    4    0    0  0.16623300953E-01  0.95367521980E-01  0.76999899224E-01  0.12369536768E+00  0.51100000000E-03 0. -1.
</event>
<event>
 8    1  0.1074844E+005  0.1043930E+01  0.7957747E-01            NaN
         13   -1    0    0    0    0  0.00000000000E+00  0.00000000000E+00  0.74505805969E-08  0.10566000000E+00  0.10566000000E+00 0.  1.
     999900   -1    0    0    0    0 -0.00000000000E+00 -0.00000000000E+00 -0.74505805969E-08  0.93827000000E+00  0.93827000000E+00 0.  1.
     999902    2    1    2    0    0 -0.14462999166E-01  0.11266013967E-01  0.15005322989E-01  0.10202390495E+01  0.10199639489E+01 0.  0.
     999903    2    3    3    0    0 -0.29693140003E-01 -0.10691005050E+00  0.66258511201E-01  0.13073107954E+00  0.19722661811E-01 0.  0.
         14    1    1    2    0    0  0.14462999166E-01 -0.11266013967E-01 -0.15005322989E-01  0.23690950457E-01  0.00000000000E+00 0. -1.
     999901    1    3    3    0    0  0.15230140837E-01  0.11817606447E+00 -0.51253188212E-01  0.88950797001E+00  0.88000000000E+00 0. -1.
        -11    1    4    4    0    0 -0.16996165126E-01 -0.30323793607E-01  0.16174575099E-01  0.38344231487E-01  0.51100000000E-03 0.  1.
         11    1    4    4    0    0 -0.12696974877E-01 -0.76586256894E-01  0.50083936102E-01  0.92386848049E-01  0.51100000000E-03 0. -1.
</event>
<event>
 8    1  0.1074844E+005  0.1043930E+01  0.7957747E-01            NaN
         13   -1    0    0    0    0  0.00000000000E+00  0.00000000000E+00  0.74505805969E-08  0.10566000000E+00  0.10566000000E+00 0. -1.
     999900   -1    0    0    0    0 -0.00000000000E+00 -0.00000000000E+00 -0.74505805969E-08  0.93827000000E+00  0.93827000000E+00 0.  1.
     999902    2    1    2    0    0 -0.15368177140E-01  0.11805291069E-01  0.14382291398E-01  0.10197971164E+01  0.10195115313E+01 0.  0.
     999903    2    3    3    0    0 -0.29636463713E-01 -0.64765996767E-01 -0.10484723168E+00  0.12834749622E+00  0.20178787742E-01 0.  0.
         14    1    1    2    0    0  0.15368177140E-01 -0.11805291069E-01 -0.14382291398E-01  0.24132883617E-01  0.00000000000E+00 0.  1.
     999901    1    3    3    0    0  0.14268286573E-01  0.76571287836E-01  0.11922952308E+00  0.89144962017E+00  0.88000000000E+00 0. -1.
        -11    1    4    4    0    0 -0.21679643946E-01 -0.57898782852E-01 -0.97726688244E-01  0.11564187275E+00  0.51100000000E-03 0. -1.
         11    1    4    4    0    0 -0.79568197665E-02 -0.68672139150E-02 -0.71205434384E-02  0.12705623464E-01  0.51100000000E-03 0.  1.
</event>
<event>
 8    1  0.1074844E+005  0.1043930E+01  0.7957747E-01            NaN
         13   -1    0    0    0    0  0.00000000000E+00  0.00000000000E+00  0.74505805969E-08  0.10566000000E+00  0.10566000000E+00 0.  1.
     999900   -1    0    0    0    0 -0.00000000000E+00 -0.00000000000E+00 -0.74505805969E-08  0.93827000000E+00  0.93827000000E+00 0.  1.
     999902    2    1    2    0    0  0.91903373739E-03  0.20383674387E-01  0.12298307186E-01  0.10201059121E+01  0.10198276740E+01 0.  0.
     999903    2    3    3    0    0 -0.48757288256E-02 -0.56606606054E-01 -0.11285562704E+00  0.12790381066E+00  0.19872384023E-01 0.  0.
         14    1    1    2    0    0 -0.91903373739E-03 -0.20383674387E-01 -0.12298307186E-01  0.23824087898E-01  0.00000000000E+00 0. -1.
     999901    1    3    3    0    0  0.57947625630E-02  0.76990280441E-01  0.12515393423E+00  0.89220210144E+00  0.88000000000E+00 0. -1.
        -11    1    4    4    0    0 -0.10497843947E-01 -0.20227688239E-01 -0.52037733418E-01  0.56811538611E-01  0.51100000000E-03 0.  1.
         11    1    4    4    0    0  0.56221151216E-02 -0.36378917815E-01 -0.60817893625E-01  0.71092272054E-01  0.51100000000E-03 0. -1.
</event>
<event>
 8    1  0.1074844E+005  0.1043930E+01  0.7957747E-01            NaN
         13   -1    0    0    0    0  0.00000000000E+00  0.00000000000E+00  0.74505805969E-08  0.10566000000E+00  0.10566000000E+00 0.  1.
     999900   -1    0    0    0    0 -0.00000000000E+00 -0.00000000000E+00 -0.74505805969E-08  0.93827000000E+00  0.93827000000E+00 0.  1.
     999902    2    1    2    0    0  0.12051268673E-01  0.14017859265E-01  0.15242895017E-01  0.10199700479E+01  0.10196885894E+01 0.  0.
     999903    2    3    3    0    0 -0.92766477535E-01 -0.57798356801E-01 -0.62548256017E-01  0.12744789582E+00  0.19606438127E-01 0.  0.
         14    1    1    2    0    0 -0.12051268673E-01 -0.14017859265E-01 -0.15242895017E-01  0.23959952076E-01  0.00000000000E+00 0. -1.
     999901    1    3    3    0    0  0.10481774621E+00  0.71816216066E-01  0.77791151033E-01  0.89252215210E+00  0.88000000000E+00 0.  1.
        -11    1    4    4    0    0 -0.15498410876E-01 -0.55536158613E-02 -0.16912077886E-01  0.23607687058E-01  0.51100000000E-03 0. -1.
         11    1    4    4    0    0 -0.77268066659E-01 -0.52244740940E-01 -0.45636178130E-01  0.10384020877E+00  0.51100000000E-03 0.  1.
</event>
<event>
 8    1  0.1074844E+005  0.1043930E+01  0.7957747E-01            NaN
         13   -1    0    0    0    0  0.00000000000E+00  0.00000000000E+00  0.74505805969E-08  0.10566000000E+00  0.10566000000E+00 0. -1.
     999900   -1    0    0    0    0 -0.00000000000E+00 -0.00000000000E+00 -0.74505805969E-08  0.93827000000E+00  0.93827000000E+00 0. -1.
     999902    2    1    2    0    0  0.10553230168E-01 -0.86107480648E-02 -0.19347031730E-01  0.10202694149E+01  0.10199950273E+01 0.  0.
     999903    2    3    3    0    0 -0.27647154444E-01 -0.12230951335E+00 -0.37463115578E-01  0.13194803665E+00  0.16817168080E-01 0.  0.
         14    1    1    2    0    0 -0.10553230168E-01  0.86107480648E-02  0.19347031730E-01  0.23660585073E-01  0.00000000000E+00 0. -1.
     999901    1    3    3    0    0  0.38200384612E-01  0.11369876528E+00  0.18116083848E-01  0.88832137828E+00  0.88000000000E+00 0.  1.
        -11    1    4    4    0    0 -0.20898393489E-01 -0.54508966023E-01 -0.17120569170E-01  0.60838682078E-01  0.51100000000E-03 0.  1.
         11    1    4    4    0    0 -0.67487609555E-02 -0.67800547326E-01 -0.20342546407E-01  0.71109354571E-01  0.51100000000E-03 0. -1.
</event>
<event>
 8    1  0.1074844E+005  0.1043930E+01  0.7957747E-01            NaN
         13   -1    0    0    0    0  0.00000000000E+00  0.00000000000E+00  0.74505805969E-08  0.10566000000E+00  0.10566000000E+00 0. -1.
     999900   -1    0    0    0    0 -0.00000000000E+00 -0.00000000000E+00 -0.74505805969E-08  0.93827000000E+00  0.93827000000E+00 0. -1.
     999902    2    1    2    0    0 -0.33693773741E-02  0.59672247189E-02  0.21652720408E-01  0.10212187522E+01  0.10209661792E+01 0.  0.
     999903    2    3    3    0    0  0.73626804661E-01 -0.44671108868E-01  0.99679928905E-01  0.13297278508E+00  0.18145495661E-01 0.  0.
         14    1    1    2    0    0  0.33693773741E-02 -0.59672247189E-02 -0.21652720408E-01  0.22711247782E-01  0.00000000000E+00 0.  1.
     999901    1    3    3    0    0 -0.76996182035E-01  0.50638333587E-01 -0.78027208497E-01  0.88824596714E+00  0.88000000000E+00 0. -1.
        -11    1    4    4    0    0  0.13762822592E-01 -0.89822812103E-03  0.17236293506E-01  0.22081056005E-01  0.51100000000E-03 0. -1.
         11    1    4    4    0    0  0.59863982068E-01 -0.43772880747E-01  0.82443635399E-01  0.11089172907E+00  0.51100000000E-03 0.  1.
</event>
<event>
 8    1  0.1074844E+005  0.1043930E+01  0.7957747E-01            NaN
         13   -1    0    0    0    0  0.00000000000E+00  0.00000000000E+00  0.74505805969E-08  0.10566000000E+00  0.10566000000E+00 0. -1.
     999900   -1    0    0    0    0 -0.00000000000E+00 -0.00000000000E+00 -0.74505805969E-08  0.93827000000E+00  0.93827000000E+00 0. -1.
     999902    2    1    2    0    0  0.14491937394E-01 -0.17221937696E-01  0.78710000929E-02  0.10200854193E+01  0.10198066967E+01 0.  0.
     999903    2    3    3    0    0 -0.48816301670E-01  0.34510210114E-01 -0.11173222493E+00  0.12823953590E+00  0.19680004310E-01 0.  0.
         14    1    1    2    0    0 -0.14491937394E-01  0.17221937696E-01 -0.78710000929E-02  0.23844580724E-01  0.00000000000E+00 0.  1.
     999901    1    3    3    0    0  0.63308239064E-01 -0.51732147810E-01  0.11960322503E+00  0.89184588337E+00  0.88000000000E+00 0.  1.
        -11    1    4    4    0    0 -0.27384805048E-01  0.17020877703E-01 -0.40150675520E-01  0.51497336737E-01  0.51100000000E-03 0.  1.
         11    1    4    4    0    0 -0.21431496622E-01  0.17489332411E-01 -0.71581549413E-01  0.76742199167E-01  0.51100000000E-03 0. -1.
</event>
<event>
 8    1  0.1074844E+005  0.1043930E+01  0.7957747E-01            NaN
         13   -1    0    0    0    0  0.00000000000E+00  0.00000000000E+00  0.74505805969E-08  0.10566000000E+00  0.10566000000E+00 0. -1.
     999900   -1    0    0    0    0 -0.00000000000E+00 -0.00000000000E+00 -0.74505805969E-08  0.93827000000E+00  0.93827000000E+00 0. -1.
     999902    2    1    2    0    0 -0.41796115772E-02 -0.47621598341E-02  0.21695483367E-01  0.10213282010E+01  0.10210780836E+01 0.  0.
     999903    2    3    3    0    0 -0.11558451478E-01  0.90498268826E-01 -0.89251640847E-01  0.12923052647E+00  0.20276565689E-01 0.  0.
         14    1    1    2    0    0  0.41796115772E-02  0.47621598341E-02 -0.21695483367E-01  0.22601798994E-01  0.00000000000E+00 0.  1.
     999901    1    3    3    0    0  0.73788399011E-02 -0.95260428660E-01  0.11094712421E+00  0.89209767454E+00  0.88000000000E+00 0.  1.
        -11    1    4    4    0    0 -0.83835468985E-02  0.69604653428E-01 -0.55557179298E-01  0.89453635645E-01  0.51100000000E-03 0. -1.
         11    1    4    4    0    0 -0.31749045798E-02  0.20893615397E-01 -0.33694461548E-01  0.39776890822E-01  0.51100000000E-03 0.  1.
</event>
<event>
 8    1  0.1074844E+005  0.1043930E+01  0.7957747E-01            NaN
         13   -1    0    0    0    0  0.00000000000E+00  0.00000000000E+00  0.74505805969E-08  0.10566000000E+00  0.10566000000E+00 0.  1.
     999900   -1    0    0    0    0 -0.00000000000E+00 -0.00000000000E+00 -0.74505805969E-08  0.93827000000E+00  0.93827000000E+00 0.  1.
     999902    2    1    2    0    0  0.10934606414E-01 -0.16315983815E-01  0.13562899039E-01  0.10200609997E+01  0.10197816991E+01 0.  0.
     999903    2    3    3    0    0 -0.66218375274E-01  0.19261379939E-01 -0.10596658405E+00  0.12792556787E+00  0.19497692091E-01 0.  0.
         14    1    1    2    0    0 -0.10934606414E-01  0.16315983815E-01 -0.13562899039E-01  0.23869000307E-01  0.00000000000E+00 0. -1.
     999901    1    3    3    0    0  0.77152981689E-01 -0.35577363754E-01  0.11952948309E+00  0.89213543183E+00  0.88000000000E+00 0. -1.
        -11    1    4    4    0    0 -0.48707491015E-01  0.48143306262E-02 -0.71309724698E-01  0.86492400925E-01  0.51100000000E-03 0.  1.
         11    1    4    4    0    0 -0.17510884259E-01  0.14447049312E-01 -0.34656859354E-01  0.41433166940E-01  0.51100000000E-03 0. -1.
</event>
<event>
 8    1  0.1074844E+005  0.1043930E+01  0.7957747E-01            NaN
         13   -1    0    0    0    0  0.00000000000E+00  0.00000000000E+00  0.74505805969E-08  0.10566000000E+00  0.10566000000E+00 0.  1.
     999900   -1    0    0    0    0 -0.00000000000E+00 -0.00000000000E+00 -0.74505805969E-08  0.93827000000E+00  0.93827000000E+00 0.  1.
     999902    2    1    2    0    0 -0.14954218429E-01 -0.14703826461E-01 -0.11324433142E-01  0.10200956981E+01  0.10198172186E+01 0.  0.
     999903    2    3    3    0    0  0.99793514042E-01  0.63236386124E-01  0.39556342713E-01  0.12777816930E+00  0.28371998963E-01 0.  0.
         14    1    1    2    0    0  0.14954218429E-01  0.14703826461E-01  0.11324433142E-01  0.23834301907E-01  0.00000000000E+00 0. -1.
     999901    1    3    3    0    0 -0.11474773247E+00 -0.77940212585E-01 -0.50880775855E-01  0.89231752880E+00  0.88000000000E+00 0.  1.
        -11    1    4    4    0    0  0.88891626024E-01  0.60542412053E-01  0.26928491726E-01  0.11087159069E+00  0.51100000000E-03 0. -1.
         11    1    4    4    0    0  0.10901888018E-01  0.26939740715E-02  0.12627850987E-01  0.16906578608E-01  0.51100000000E-03 0.  1.
</event>
<event>
 8    1  0.1074844E+005  0.1043930E+01  0.7957747E-01            NaN
         13   -1    0    0    0    0  0.00000000000E+00  0.00000000000E+00  0.74505805969E-08  0.10566000000E+00  0.10566000000E+00 0. -1.
     999900   -1    0    0    0    0 -0.00000000000E+00 -0.00000000000E+00 -0.74505805969E-08  0.93827000000E+00  0.93827000000E+00 0.  1.
     999902    2    1    2    0    0  0.40810707728E-02 -0.74644367022E-02 -0.21743425310E-01  0.10205815633E+01  0.10203144504E+01 0.  0.
     999903    2    3    3    0    0 -0.56577788728E-02  0.93373151142E-01 -0.91019108449E-01  0.13206471784E+00  0.20150825804E-01 0.  0.
         14    1    1    2    0    0 -0.40810707728E-02  0.74644367022E-02  0.21743425310E-01  0.23348436739E-01  0.00000000000E+00 0. -1.
     999901    1    3    3    0    0  0.97388496455E-02 -0.10083758784E+00  0.69275683139E-01  0.88851684542E+00  0.88000000000E+00 0. -1.
        -11    1    4    4    0    0 -0.11744857718E-01  0.79508424481E-01 -0.73624477642E-01  0.10899704618E+00  0.51100000000E-03 0.  1.
         11    1    4    4    0    0  0.60870788453E-02  0.13864726661E-01 -0.17394630807E-01  0.23067671668E-01  0.51100000000E-03 0. -1.
</event>
<event>
 8    1  0.1074844E+005  0.1043930E+01  0.7957747E-01            NaN
         13   -1    0    0    0    0  0.00000000000E+00  0.00000000000E+00  0.74505805969E-08  0.10566000000E+00  0.10566000000E+00 0.  1.
     999900   -1    0    0    0    0 -0.00000000000E+00 -0.00000000000E+00 -0.74505805969E-08  0.93827000000E+00  0.93827000000E+00 0.  1.
     999902    2    1    2    0    0  0.31765954206E-02  0.16568655571E-01  0.16949542538E-01  0.10200156090E+01  0.10197352325E+01 0.  0.
     999903    2    3    3    0    0 -0.12508385336E+00 -0.27051836749E-01  0.91990443058E-03  0.12950427307E+00  0.19817625391E-01 0.  0.
         14    1    1    2    0    0 -0.31765954206E-02 -0.16568655571E-01 -0.16949542538E-01  0.23914391026E-01  0.00000000000E+00 0.  1.
     999901    1    3    3    0    0  0.12826044878E+00  0.43620492320E-01  0.16029638107E-01  0.89051133590E+00  0.88000000000E+00 0.  1.
        -11    1    4    4    0    0 -0.55719970302E-01 -0.41579540570E-02 -0.56558707290E-02  0.56162742696E-01  0.51100000000E-03 0. -1.
         11    1    4    4    0    0 -0.69363883061E-01 -0.22893882692E-01  0.65757751596E-02  0.73341530376E-01  0.51100000000E-03 0.  1.
</event>
<event>
 8    1  0.1074844E+005  0.1043930E+01  0.7957747E-01            NaN
         13   -1    0    0    0    0  0.00000000000E+00  0.00000000000E+00  0.74505805969E-08  0.10566000000E+00  0.10566000000E+00 0. -1.
     999900   -1    0    0    0    0 -0.00000000000E+00 -0.00000000000E+00 -0.74505805969E-08  0.93827000000E+00  0.93827000000E+00 0. -1.
     999902    2    1    2    0    0 -0.96719504303E-02 -0.21296376177E-01 -0.38355017841E-02  0.10202278200E+01  0.10199524554E+01 0.  0.
     999903    2    3    3    0    0  0.31620858579E-01  0.38499008298E-01  0.11748630579E+00  0.12893686577E+00  0.18429079401E-01 0.  0.
         14    1    1    2    0    0  0.96719504303E-02  0.21296376177E-01  0.38355017841E-02  0.23702180012E-01  0.00000000000E+00 0.  1.
     999901    1    3    3    0    0 -0.41292809009E-01 -0.59795384475E-01 -0.12132180758E+00  0.89129095422E+00  0.88000000000E+00 0. -1.
        -11    1    4    4    0    0  0.87592141949E-02  0.20378950042E-01  0.34974931887E-01  0.41418986222E-01  0.51100000000E-03 0. -1.
         11    1    4    4    0    0  0.22861644384E-01  0.18120058256E-01  0.82511373907E-01  0.87517879546E-01  0.51100000000E-03 0.  1.
</event>
<event>
 8    1  0.1074844E+005  0.1043930E+01  0.7957747E-01            NaN
         13   -1    0    0    0    0  0.00000000000E+00  0.00000000000E+00  0.74505805969E-08  0.10566000000E+00  0.10566000000E+00 0. -1.
     999900   -1    0    0    0    0 -0.00000000000E+00 -0.00000000000E+00 -0.74505805969E-08  0.93827000000E+00  0.93827000000E+00 0.  1.
     999902    2    1    2    0    0 -0.92791270437E-02  0.58727421956E-02  0.20036445189E-01  0.10210815770E+01  0.10208259089E+01 0.  0.
     999903    2    3    3    0    0 -0.16424052119E-01 -0.10962324428E+00  0.69253865442E-01  0.13214247483E+00  0.19455862860E-01 0.  0.
         14    1    1    2    0    0  0.92791270437E-02 -0.58727421956E-02 -0.20036445189E-01  0.22848423040E-01  0.00000000000E+00 0. -1.
     999901    1    3    3    0    0  0.71449250754E-02  0.11549598648E+00 -0.49217420253E-01  0.88893910213E+00  0.88000000000E+00 0.  1.
        -11    1    4    4    0    0 -0.79286674873E-02 -0.36468016910E-01  0.34012495376E-01  0.50496445303E-01  0.51100000000E-03 0. -1.
         11    1    4    4    0    0 -0.84953846318E-02 -0.73155227372E-01  0.35241370066E-01  0.81646029523E-01  0.51100000000E-03 0.  1.
</event>
<event>
 8    1  0.1074844E+005  0.1043930E+01  0.7957747E-01            NaN
         13   -1    0    0    0    0  0.00000000000E+00  0.00000000000E+00  0.74505805969E-08  0.10566000000E+00  0.10566000000E+00 0. -1.
     999900   -1    0    0    0    0 -0.00000000000E+00 -0.00000000000E+00 -0.74505805969E-08  0.93827000000E+00  0.93827000000E+00 0. -1.
     999902    2    1    2    0    0 -0.12266002708E-01  0.13533505382E-01 -0.15950718827E-01  0.10196805460E+01  0.10193921619E+01 0.  0.
     999903    2    3    3    0    0  0.82150704306E-01  0.22183135088E-01 -0.97508809051E-01  0.13083801055E+00  0.19229858629E-01 0.  0.
         14    1    1    2    0    0  0.12266002708E-01 -0.13533505382E-01  0.15950718827E-01  0.24249454045E-01  0.00000000000E+00 0.  1.
     999901    1    3    3    0    0 -0.94416707014E-01 -0.86496297060E-02  0.81558090224E-01  0.88884253540E+00  0.88000000000E+00 0.  1.
        -11    1    4    4    0    0  0.45697851317E-01  0.14072082786E-01 -0.68540292518E-01  0.83572423372E-01  0.51100000000E-03 0. -1.
         11    1    4    4    0    0  0.36452852989E-01  0.81110523019E-02 -0.28968516533E-01  0.47265587182E-01  0.51100000000E-03 0.  1.
</event>
<event>
 8    1  0.1074844E+005  0.1043930E+01  0.7957747E-01            NaN
         13   -1    0    0    0    0  0.00000000000E+00  0.00000000000E+00  0.74505805969E-08  0.10566000000E+00  0.10566000000E+00 0. -1.
     999900   -1    0    0    0    0 -0.00000000000E+00 -0.00000000000E+00 -0.74505805969E-08  0.93827000000E+00  0.93827000000E+00 0. -1.
     999902    2    1    2    0    0 -0.93977211613E-02  0.10370282501E-01 -0.13244819431E-01  0.10246612387E+01  0.10244800480E+01 0.  0.
     999903    2    3    3    0    0 -0.30842126717E-01 -0.12717830489E+00  0.14574754169E-01  0.13328398681E+00  0.20655257603E-01 0.  0.
         14    1    1    2    0    0  0.93977211613E-02 -0.10370282501E-01  0.13244819431E-01  0.19268761349E-01  0.00000000000E+00 0.  1.
     999901    1    3    3    0    0  0.21444405556E-01  0.13754858739E+00 -0.27819573599E-01  0.89137725184E+00  0.88000000000E+00 0. -1.
        -11    1    4    4    0    0 -0.29791991279E-01 -0.11527846811E+00  0.73059418839E-02  0.11929092950E+00  0.51100000000E-03 0.  1.
         11    1    4    4    0    0 -0.10501354380E-02 -0.11899836780E-01  0.72688122847E-02  0.13993057309E-01  0.51100000000E-03 0. -1.
</event>
<event>
 8    1  0.1074844E+005  0.1043930E+01  0.7957747E-01            NaN
         13   -1    0    0    0    0  0.00000000000E+00  0.00000000000E+00  0.74505805969E-08  0.10566000000E+00  0.10566000000E+00 0. -1.
     999900   -1    0    0    0    0 -0.00000000000E+00 -0.00000000000E+00 -0.74505805969E-08  0.93827000000E+00  0.93827000000E+00 0.  1.
     999902    2    1    2    0    0 -0.26362620468E-01 -0.17470459033E-02  0.24495936442E-01  0.10079009724E+01  0.10072568090E+01 0.  0.
     999903    2    3    3    0    0 -0.11404337601E+00 -0.11887346305E-01 -0.34882074084E-01  0.12149446931E+00  0.19923512921E-01 0.  0.
         14    1    1    2    0    0  0.26362620468E-01  0.17470459033E-02 -0.24495936442E-01  0.36029027596E-01  0.00000000000E+00 0.  1.
     999901    1    3    3    0    0  0.87680755545E-01  0.10140300401E-01  0.59378010526E-01  0.88640650309E+00  0.88000000000E+00 0. -1.
        -11    1    4    4    0    0 -0.41371161295E-01 -0.13066175928E-01 -0.17331818810E-01  0.46722061219E-01  0.51100000000E-03 0.  1.
         11    1    4    4    0    0 -0.72672214718E-01  0.11788296234E-02 -0.17550255275E-01  0.74772408096E-01  0.51100000000E-03 0. -1.
</event>
<event>
 8    1  0.1134272E+005  0.1043930E+01  0.7957747E-01            NaN
         13   -1    0    0    0    0  0.00000000000E+00  0.00000000000E+00  0.74505805969E-08  0.10566000000E+00  0.10566000000E+00 0.  1.
     999900   -1    0    0    0    0 -0.00000000000E+00 -0.00000000000E+00 -0.74505805969E-08  0.93827000000E+00  0.93827000000E+00 0.  1.
     999902    2    1    2    0    0  0.19059549910E-01  0.86965772374E-02 -0.11850282854E-01  0.10198608060E+01  0.10195767442E+01 0.  0.
     999903    2    3    3    0    0 -0.25286909870E-01 -0.12448324977E+00 -0.23347666308E-02  0.12868516677E+00  0.20467382083E-01 0.  0.
         14    1    1    2    0    0 -0.19059549910E-01 -0.86965772374E-02  0.11850282854E-01  0.24069194049E-01  0.00000000000E+00 0.  1.
     999901    1    3    3    0    0  0.44346459780E-01  0.13317982700E+00 -0.95155162235E-02  0.89117563918E+00  0.88000000000E+00 0. -1.
        -11    1    4    4    0    0 -0.30948555386E-02 -0.65236797015E-01 -0.35021962022E-02  0.65405996015E-01  0.51100000000E-03 0.  1.
         11    1    4    4    0    0 -0.22192054331E-01 -0.59246452751E-01  0.11674295714E-02  0.63279170758E-01  0.51100000000E-03 0. -1.
</event>
<event>
 8    1  0.1074844E+005  0.1043930E+01  0.7957747E-01            NaN
         13   -1    0    0    0    0  0.00000000000E+00  0.00000000000E+00  0.74505805969E-08  0.10566000000E+00  0.10566000000E+00 0.  1.
     999900   -1    0    0    0    0 -0.00000000000E+00 -0.00000000000E+00 -0.74505805969E-08  0.93827000000E+00  0.93827000000E+00 0.  1.
     999902    2    1    2    0    0 -0.20219866344E-01 -0.11110303085E-01  0.19062093239E-02  0.10207801520E+01  0.10205176153E+01 0.  0.
     999903    2    3    3    0    0 -0.53425997034E-01  0.10141593672E+00 -0.59742229138E-01  0.13085581152E+00  0.20361239815E-01 0.  0.
         14    1    1    2    0    0  0.20219866344E-01  0.11110303085E-01 -0.19062093239E-02  0.23149848025E-01  0.00000000000E+00 0.  1.
     999901    1    3    3    0    0  0.33206130690E-01 -0.11252623981E+00  0.61648438462E-01  0.88992434045E+00  0.88000000000E+00 0. -1.
        -11    1    4    4    0    0 -0.66445941141E-02  0.26610921956E-01 -0.80113648064E-02  0.28578573886E-01  0.51100000000E-03 0.  1.
         11    1    4    4    0    0 -0.46781402920E-01  0.74805014768E-01 -0.51730864332E-01  0.10227723764E+00  0.51100000000E-03 0. -1.
</event>
<event>
 8    1  0.1074844E+005  0.1043930E+01  0.7957747E-01            NaN
         13   -1    0    0    0    0  0.00000000000E+00  0.00000000000E+00  0.74505805969E-08  0.10566000000E+00  0.10566000000E+00 0. -1.
     999900   -1    0    0    0    0 -0.00000000000E+00 -0.00000000000E+00 -0.74505805969E-08  0.93827000000E+00  0.93827000000E+00 0.  1.
     999902    2    1    2    0    0 -0.21368332116E-01 -0.71762676775E-02  0.35098434923E-02  0.10211172089E+01  0.10208623467E+01 0.  0.
     999903    2    3    3    0    0  0.20549273295E-01  0.80261403843E-01  0.98987377293E-01  0.13065755711E+00  0.20217091484E-01 0.  0.
         14    1    1    2    0    0  0.21368332116E-01  0.71762676775E-02 -0.35098434923E-02  0.22812791073E-01  0.00000000000E+00 0.  1.
     999901    1    3    3    0    0 -0.41917605411E-01 -0.87437671520E-01 -0.95477533801E-01  0.89045965181E+00  0.88000000000E+00 0.  1.
        -11    1    4    4    0    0 -0.13858430885E-02  0.31495800122E-01  0.31719209791E-01  0.44724438254E-01  0.51100000000E-03 0. -1.
         11    1    4    4    0    0  0.21935116383E-01  0.48765603721E-01  0.67268167503E-01  0.85933118861E-01  0.51100000000E-03 0.  1.
</event>
<event>
 8    1  0.1074844E+005  0.1043930E+01  0.7957747E-01            NaN
         13   -1    0    0    0    0  0.00000000000E+00  0.00000000000E+00  0.74505805969E-08  0.10566000000E+00  0.10566000000E+00 0.  1.
     999900   -1    0    0    0    0 -0.00000000000E+00 -0.00000000000E+00 -0.74505805969E-08  0.93827000000E+00  0.93827000000E+00 0.  1.
     999902    2    1    2    0    0 -0.20140813341E-01  0.32192425919E-02  0.12846681005E-01  0.10198249570E+01  0.10195400384E+01 0.  0.
     999903    2    3    3    0    0  0.65632715564E-01  0.97788713429E-01  0.50915945179E-01  0.12979700691E+00  0.19609785904E-01 0.  0.
         14    1    1    2    0    0  0.20140813341E-01 -0.32192425919E-02 -0.12846681005E-01  0.24105042994E-01  0.00000000000E+00 0. -1.
     999901    1    3    3    0    0 -0.85773528905E-01 -0.94569470837E-01 -0.38069264174E-01  0.89002795009E+00  0.88000000000E+00 0. -1.
        -11    1    4    4    0    0  0.31819702781E-01  0.55353718550E-01  0.18024868320E-01  0.66345193054E-01  0.51100000000E-03 0.  1.
         11    1    4    4    0    0  0.33813012783E-01  0.42434994879E-01  0.32891076859E-01  0.63451813857E-01  0.51100000000E-03 0. -1.
</event>
<event>
 8    1  0.1074844E+005  0.1043930E+01  0.7957747E-01            NaN
         13   -1    0    0    0    0  0.00000000000E+00  0.00000000000E+00  0.74505805969E-08  0.10566000000E+00  0.10566000000E+00 0. -1.
     999900   -1    0    0    0    0 -0.00000000000E+00 -0.00000000000E+00 -0.74505805969E-08  0.93827000000E+00  0.93827000000E+00 0.  1.
     999902    2    1    2    0    0  0.62327865622E-02 -0.11196750870E-01 -0.19700852326E-01  0.10204281184E+01  0.10201574419E+01 0.  0.
     999903    2    3    3    0    0  0.45410697868E-01  0.10437090256E+00 -0.61742082688E-01  0.13101356018E+00  0.19926148460E-01 0.  0.
         14    1    1    2    0    0 -0.62327865622E-02  0.11196750870E-01  0.19700852326E-01  0.23501881643E-01  0.00000000000E+00 0. -1.
     999901    1    3    3    0    0 -0.39177911306E-01 -0.11556765343E+00  0.42041230362E-01  0.88941455818E+00  0.88000000000E+00 0.  1.
        -11    1    4    4    0    0  0.12316959006E-01  0.13161827311E-01 -0.54541992056E-02  0.18840132358E-01  0.51100000000E-03 0. -1.
         11    1    4    4    0    0  0.33093738862E-01  0.91209075252E-01 -0.56287883483E-01  0.11217342782E+00  0.51100000000E-03 0.  1.
</event>
<event>
 8    1  0.1074844E+005  0.1043930E+01  0.7957747E-01            NaN
         13   -1    0    0    0    0  0.00000000000E+00  0.00000000000E+00  0.74505805969E-08  0.10566000000E+00  0.10566000000E+00 0.  1.
     999900   -1    0    0    0    0 -0.00000000000E+00 -0.00000000000E+00 -0.74505805969E-08  0.93827000000E+00  0.93827000000E+00 0.  1.
     999902    2    1    2    0    0 -0.14206485206E-01  0.24039883209E-02 -0.18705479242E-01  0.10203185973E+01  0.10200453626E+01 0.  0.
     999903    2    3    3    0    0  0.15315677567E-01  0.31685372396E-01 -0.12645259760E+00  0.13277231739E+00  0.19992399079E-01 0.  0.
         14    1    1    2    0    0  0.14206485206E-01 -0.24039883209E-02  0.18705479242E-01  0.23611402657E-01  0.00000000000E+00 0.  1.
     999901    1    3    3    0    0 -0.29522162773E-01 -0.29281384075E-01  0.10774711836E+00  0.88754627996E+00  0.88000000000E+00 0. -1.
        -11    1    4    4    0    0  0.45473804850E-02  0.25796636969E-01 -0.64579050310E-01  0.69691175970E-01  0.51100000000E-03 0. -1.
         11    1    4    4    0    0  0.10768297082E-01  0.58887354266E-02 -0.61873547292E-01  0.63081141417E-01  0.51100000000E-03 0.  1.
</event>
<event>
 7    1  0.1074844E+005  0.1043930E+01  0.7957747E-01            NaN
         13   -1    0    0    0    0  0.00000000000E+00  0.00000000000E+00  0.74505805969E-08  0.10566000000E+00  0.10566000000E+00 0.  1.
     999900   -1    0    0    0    0 -0.00000000000E+00 -0.00000000000E+00 -0.74505805969E-08  0.93827000000E+00  0.93827000000E+00 0.  1.
     999903    2    1    2    0    0  0.79854144144E-01 -0.42768231024E-01  0.34347945796E-02  0.92599241360E-01  0.18894860800E-01 0.  0.
         14    1    1    2    0    0 -0.62245515307E-02  0.58212391717E-01 -0.33796571984E-01  0.67599081865E-01  0.00000000000E+00 0. -1.
     999901    1    1    2    0    0 -0.73629592614E-01 -0.15444160692E-01  0.30361777405E-01  0.88373167677E+00  0.88000000000E+00 0.  1.
        -11    1    3    3    0    0  0.62668754740E-01 -0.33103511817E-01  0.10497380374E-01  0.71649643621E-01  0.51100000000E-03 0. -1.
         11    1    3    3    0    0  0.17185389404E-01 -0.96647192072E-02 -0.70625857939E-02  0.20949597739E-01  0.51100000000E-03 0.  1.
</event>
<event>
 8    1  0.1074844E+005  0.1043930E+01  0.7957747E-01            NaN
         13   -1    0    0    0    0  0.00000000000E+00  0.00000000000E+00  0.74505805969E-08  0.10566000000E+00  0.10566000000E+00 0. -1.
     999900   -1    0    0    0    0 -0.00000000000E+00 -0.00000000000E+00 -0.74505805969E-08  0.93827000000E+00  0.93827000000E+00 0. -1.
     999902    2    1    2    0    0 -0.20648042404E-02 -0.74291857066E-02  0.22391982752E-01  0.10202475781E+01  0.10199726778E+01 0.  0.
     999903    2    3    3    0    0 -0.12255702228E+00 -0.26919871412E-01  0.34737258440E-01  0.13173721388E+00  0.20077679414E-01 0.  0.
         14    1    1    2    0    0  0.20648042404E-02  0.74291857066E-02 -0.22391982752E-01  0.23682421928E-01  0.00000000000E+00 0.  1.
     999901    1    3    3    0    0  0.12049221804E+00  0.19490685705E-01 -0.12345275688E-01  0.88851036419E+00  0.88000000000E+00 0.  1.
        -11    1    4    4    0    0 -0.19896111840E-01  0.19122780161E-02  0.96040310482E-02  0.22181312110E-01  0.51100000000E-03 0. -1.
         11    1    4    4    0    0 -0.10266091044E+00 -0.28832149428E-01  0.25133227392E-01  0.10955590177E+00  0.51100000000E-03 0.  1.
</event>
<event>
 8    1  0.1074844E+005  0.1043930E+01  0.7957747E-01            NaN
         13   -1    0    0    0    0  0.00000000000E+00  0.00000000000E+00  0.74505805969E-08  0.10566000000E+00  0.10566000000E+00 0. -1.
     999900   -1    0    0    0    0 -0.00000000000E+00 -0.00000000000E+00 -0.74505805969E-08  0.93827000000E+00  0.93827000000E+00 0. -1.
     999902    2    1    2    0    0 -0.21170418294E-01  0.93966208455E-02 -0.67879294158E-02  0.10197937393E+01  0.10195080734E+01 0.  0.
     999903    2    3    3    0    0  0.67767347152E-01 -0.10407425868E+00 -0.22784678969E-01  0.12791848872E+00  0.20497158385E-01 0.  0.
         14    1    1    2    0    0  0.21170418294E-01 -0.93966208455E-02  0.67879294158E-02  0.24136260684E-01  0.00000000000E+00 0.  1.
     999901    1    3    3    0    0 -0.88937765446E-01  0.11347087953E+00  0.15996749553E-01  0.89187525059E+00  0.88000000000E+00 0. -1.
        -11    1    4    4    0    0  0.28208064751E-01 -0.44959824934E-01  0.47412517440E-03  0.53080756313E-01  0.51100000000E-03 0.  1.
         11    1    4    4    0    0  0.39559282401E-01 -0.59114433746E-01 -0.23258804144E-01  0.74837732411E-01  0.51100000000E-03 0. -1.
</event>
<event>
 8    1  0.1074844E+005  0.1043930E+01  0.7957747E-01            NaN
         13   -1    0    0    0    0  0.00000000000E+00  0.00000000000E+00  0.74505805969E-08  0.10566000000E+00  0.10566000000E+00 0.  1.
     999900   -1    0    0    0    0 -0.00000000000E+00 -0.00000000000E+00 -0.74505805969E-08  0.93827000000E+00  0.93827000000E+00 0. -1.
     999902    2    1    2    0    0  0.57476757625E-02 -0.23292122002E-01 -0.61111782649E-03  0.10199314128E+01  0.10196490350E+01 0.  0.
     999903    2    3    3    0    0  0.63268365847E-02 -0.11202595792E+00  0.68119026661E-01  0.13280241323E+00  0.20160234554E-01 0.  0.
         14    1    1    2    0    0 -0.57476757625E-02  0.23292122002E-01  0.61111782649E-03  0.23998587230E-01  0.00000000000E+00 0.  1.
     999901    1    3    3    0    0 -0.57916082219E-03  0.88733835919E-01 -0.68730144487E-01  0.88712899954E+00  0.88000000000E+00 0.  1.
        -11    1    4    4    0    0  0.94336218832E-02 -0.77704440184E-01  0.37918924127E-01  0.86977463599E-01  0.51100000000E-03 0. -1.
         11    1    4    4    0    0 -0.31067852985E-02 -0.34321517737E-01  0.30200102534E-01  0.45824949631E-01  0.51100000000E-03 0.  1.
</event>
<event>
 8    1  0.1074844E+005  0.1043930E+01  0.7957747E-01            NaN
         13   -1    0    0    0    0  0.00000000000E+00  0.00000000000E+00  0.74505805969E-08  0.10566000000E+00  0.10566000000E+00 0.  1.
     999900   -1    0    0    0    0 -0.00000000000E+00 -0.00000000000E+00 -0.74505805969E-08  0.93827000000E+00  0.93827000000E+00 0. -1.
     999902    2    1    2    0    0 -0.14564941567E-01 -0.12083758233E-01 -0.18584608316E-01  0.10174056263E+01  0.10170598143E+01 0.  0.
     999903    2    3    3    0    0 -0.11244243814E+00  0.26916242458E-01 -0.55794628167E-01  0.13033990718E+00  0.22531419611E-01 0.  0.
         14    1    1    2    0    0  0.14564941567E-01  0.12083758233E-01  0.18584608316E-01  0.26524373737E-01  0.00000000000E+00 0.  1.
     999901    1    3    3    0    0  0.97877496571E-01 -0.39000000691E-01  0.37210019851E-01  0.88706571908E+00  0.88000000000E+00 0.  1.
        -11    1    4    4    0    0 -0.44828847437E-01  0.18381925854E-01 -0.14176162723E-01  0.50485101478E-01  0.51100000000E-03 0. -1.
         11    1    4    4    0    0 -0.67613590701E-01  0.85343166041E-02 -0.41618465444E-01  0.79854805706E-01  0.51100000000E-03 0.  1.
</event>
<event>
 8    1  0.1074844E+005  0.1043930E+01  0.7957747E-01            NaN
         13   -1    0    0    0    0  0.00000000000E+00  0.00000000000E+00  0.74505805969E-08  0.10566000000E+00  0.10566000000E+00 0.  1.
     999900   -1    0    0    0    0 -0.00000000000E+00 -0.00000000000E+00 -0.74505805969E-08  0.93827000000E+00  0.93827000000E+00 0. -1.
     999902    2    1    2    0    0  0.15530923910E-01  0.50768267908E-02 -0.16468263090E-01  0.10207311324E+01  0.10204674700E+01 0.  0.
     999903    2    3    3    0    0  0.12890145893E+00  0.25122986230E-01  0.37308945066E-02  0.13300215763E+00  0.20709992995E-01 0.  0.
         14    1    1    2    0    0 -0.15530923910E-01 -0.50768267908E-02  0.16468263090E-01  0.23198867579E-01  0.00000000000E+00 0.  1.
     999901    1    3    3    0    0 -0.11337053501E+00 -0.20046159439E-01 -0.20199157596E-01  0.88772897479E+00  0.88000000000E+00 0. -1.
        -11    1    4    4    0    0  0.95551770194E-01  0.26450730746E-01 -0.18225642017E-02  0.99163323893E-01  0.51100000000E-03 0. -1.
         11    1    4    4    0    0  0.33349688731E-01 -0.13277445160E-02  0.55534587083E-02  0.33838833736E-01  0.51100000000E-03 0.  1.
</event>
<event>
 8    1  0.1074844E+005  0.1043930E+01  0.7957747E-01            NaN
         13   -1    0    0    0    0  0.00000000000E+00  0.00000000000E+00  0.74505805969E-08  0.10566000000E+00  0.10566000000E+00 0.  1.
     999900   -1    0    0    0    0 -0.00000000000E+00 -0.00000000000E+00 -0.74505805969E-08  0.93827000000E+00  0.93827000000E+00 0. -1.
     999902    2    1    2    0    0 -0.11718562164E-01 -0.17275182458E-01  0.11636413453E-01  0.10200309886E+01  0.10197509769E+01 0.  0.
     999903    2    3    3    0    0  0.32738650988E-01 -0.19108264350E-01 -0.12165745286E+00  0.12888169763E+00  0.19313495567E-01 0.  0.
         14    1    1    2    0    0  0.11718562164E-01  0.17275182458E-01 -0.11636413453E-01  0.23899011406E-01  0.00000000000E+00 0.  1.
     999901    1    3    3    0    0 -0.44457213152E-01  0.18330818920E-02  0.13329386632E+00  0.89114929097E+00  0.88000000000E+00 0.  1.
        -11    1    4    4    0    0  0.33316035986E-01 -0.18918902384E-01 -0.98196143203E-01  0.10540695794E+00  0.51100000000E-03 0.  1.
         11    1    4    4    0    0 -0.57738499727E-03 -0.18936196579E-03 -0.23461309662E-01  0.23474739689E-01  0.51100000000E-03 0. -1.
</event>
<event>
 8    1  0.1074844E+005  0.1043930E+01  0.7957747E-01            NaN
         13   -1    0    0    0    0  0.00000000000E+00  0.00000000000E+00  0.74505805969E-08  0.10566000000E+00  0.10566000000E+00 0. -1.
     999900   -1    0    0    0    0 -0.00000000000E+00 -0.00000000000E+00 -0.74505805969E-08  0.93827000000E+00  0.93827000000E+00 0.  1.
     999902    2    1    2    0    0  0.20752337659E-01 -0.89189371624E-02  0.54434351601E-02  0.10206955871E+01  0.10204311067E+01 0.  0.
     999903    2    3    3    0    0  0.68288492723E-02 -0.75987652942E-01 -0.10482490155E+00  0.13117257879E+00  0.19930601060E-01 0.  0.
         14    1    1    2    0    0 -0.20752337659E-01  0.89189371624E-02 -0.54434351601E-02  0.23234412942E-01  0.00000000000E+00 0. -1.
     999901    1    3    3    0    0  0.13923488387E-01  0.67068715780E-01  0.11026833671E+00  0.88952300827E+00  0.88000000000E+00 0.  1.
        -11    1    4    4    0    0  0.10717196982E-01 -0.52151255046E-01 -0.83041183984E-01  0.98644366654E-01  0.51100000000E-03 0. -1.
         11    1    4    4    0    0 -0.38883477101E-02 -0.23836397896E-01 -0.21783717564E-01  0.32528212132E-01  0.51100000000E-03 0.  1.
</event>
<event>
 8    1  0.1074844E+005  0.1043930E+01  0.7957747E-01            NaN
         13   -1    0    0    0    0  0.00000000000E+00  0.00000000000E+00  0.74505805969E-08  0.10566000000E+00  0.10566000000E+00 0.  1.
     999900   -1    0    0    0    0 -0.00000000000E+00 -0.00000000000E+00 -0.74505805969E-08  0.93827000000E+00  0.93827000000E+00 0.  1.
     999902    2    1    2    0    0  0.15969557014E-01  0.14169279058E-01  0.88070274288E-02  0.10208354346E+01  0.10205741646E+01 0.  0.
     999903    2    3    3    0    0 -0.26345411108E-01  0.65917501466E-01  0.11005056837E+00  0.13251190700E+00  0.20225731465E-01 0.  0.
         14    1    1    2    0    0 -0.15969557014E-01 -0.14169279058E-01 -0.88070274288E-02  0.23094565430E-01  0.00000000000E+00 0.  1.
     999901    1    3    3    0    0  0.42314968122E-01 -0.51748222408E-01 -0.10124354094E+00  0.88832352757E+00  0.88000000000E+00 0.  1.
        -11    1    4    4    0    0 -0.65956245794E-02  0.11514045566E-01  0.37000518536E-01  0.39311257953E-01  0.51100000000E-03 0.  1.
         11    1    4    4    0    0 -0.19749786529E-01  0.54403455900E-01  0.73050049831E-01  0.93200649049E-01  0.51100000000E-03 0. -1.
</event>
<event>
 8    1  0.1074844E+005  0.1043930E+01  0.7957747E-01            NaN
         13   -1    0    0    0    0  0.00000000000E+00  0.00000000000E+00  0.74505805969E-08  0.10566000000E+00  0.10566000000E+00 0. -1.
     999900   -1    0    0    0    0 -0.00000000000E+00 -0.00000000000E+00 -0.74505805969E-08  0.93827000000E+00  0.93827000000E+00 0. -1.
     999902    2    1    2    0    0 -0.44133295014E-02  0.16582055009E-01  0.16214861049E-01  0.10203214476E+01  0.10200482796E+01 0.  0.
     999903    2    3    3    0    0  0.70548653131E-01  0.89358431908E-02  0.10960631733E+00  0.13217746860E+00  0.20009414165E-01 0.  0.
         14    1    1    2    0    0  0.44133295014E-02 -0.16582055009E-01 -0.16214861049E-01  0.23608552358E-01  0.00000000000E+00 0. -1.
     999901    1    3    3    0    0 -0.74961982632E-01  0.76462118183E-02 -0.93391456282E-01  0.88814397904E+00  0.88000000000E+00 0. -1.
        -11    1    4    4    0    0  0.61011049438E-01  0.12085898530E-01  0.82893001772E-01  0.10363362370E+00  0.51100000000E-03 0. -1.
         11    1    4    4    0    0  0.95376036929E-02 -0.31500553387E-02  0.26713315560E-01  0.28543844906E-01  0.51100000000E-03 0.  1.
</event>
<event>
 8    1  0.1074844E+005  0.1043930E+01  0.7957747E-01            NaN
         13   -1    0    0    0    0  0.00000000000E+00  0.00000000000E+00  0.74505805969E-08  0.10566000000E+00  0.10566000000E+00 0.  1.
     999900   -1    0    0    0    0 -0.00000000000E+00 -0.00000000000E+00 -0.74505805969E-08  0.93827000000E+00  0.93827000000E+00 0.  1.
     999902    2    1    2    0    0 -0.19243465970E-02  0.19047975956E-01  0.20872296057E-01  0.10156071958E+01  0.10152121920E+01 0.  0.
     999903    2    3    3    0    0 -0.10687926071E-01 -0.10037601639E+00  0.72476345769E-01  0.12599949107E+00  0.20820053428E-01 0.  0.
         14    1    1    2    0    0  0.19243465970E-02 -0.19047975956E-01 -0.20872296057E-01  0.28322804250E-01  0.00000000000E+00 0. -1.
     999901    1    3    3    0    0  0.87635794743E-02  0.11942399235E+00 -0.51604049711E-01  0.88960770468E+00  0.88000000000E+00 0.  1.
        -11    1    4    4    0    0 -0.45964486785E-03 -0.29324110479E-01  0.32707644522E-01  0.43933652933E-01  0.51100000000E-03 0. -1.
         11    1    4    4    0    0 -0.10228281203E-01 -0.71051905911E-01  0.39768701246E-01  0.82065838141E-01  0.51100000000E-03 0.  1.
</event>
<event>
 8    1  0.1074844E+005  0.1043930E+01  0.7957747E-01            NaN
         13   -1    0    0    0    0  0.00000000000E+00  0.00000000000E+00  0.74505805969E-08  0.10566000000E+00  0.10566000000E+00 0.  1.
     999900   -1    0    0    0    0 -0.00000000000E+00 -0.00000000000E+00 -0.74505805969E-08  0.93827000000E+00  0.93827000000E+00 0. -1.
     999902    2    1    2    0    0  0.12589041034E-02  0.10412617947E-01 -0.19767650713E-01  0.10215521657E+01  0.10213070350E+01 0.  0.
     999903    2    3    3    0    0  0.12239978820E+00  0.24026624264E-01 -0.41446152203E-01  0.13288439181E+00  0.19531800458E-01 0.  0.
         14    1    1    2    0    0 -0.12589041034E-02 -0.10412617947E-01  0.19767650713E-01  0.22377834273E-01  0.00000000000E+00 0.  1.
     999901    1    3    3    0    0 -0.12114088410E+00 -0.13614006318E-01  0.21678501491E-01  0.88866777392E+00  0.88000000000E+00 0.  1.
        -11    1    4    4    0    0  0.99926527739E-01  0.14881394739E-01 -0.39711615416E-01  0.10855431993E+00  0.51100000000E-03 0. -1.
         11    1    4    4    0    0  0.22473260464E-01  0.91452295259E-02 -0.17345367876E-02  0.24330071883E-01  0.51100000000E-03 0.  1.
</event>
<event>
 8    1  0.1074844E+005  0.1043930E+01  0.7957747E-01            NaN
         13   -1    0    0    0    0  0.00000000000E+00  0.00000000000E+00  0.74505805969E-08  0.10566000000E+00  0.10566000000E+00 0.  1.
     999900   -1    0    0    0    0 -0.00000000000E+00 -0.00000000000E+00 -0.74505805969E-08  0.93827000000E+00  0.93827000000E+00 0. -1.
     999902    2    1    2    0    0  0.35000019442E-02 -0.21193753157E-01  0.10864125223E-01  0.10198581408E+01  0.10195740155E+01 0.  0.
     999903    2    3    3    0    0  0.66745218649E-01 -0.99962316049E-01  0.53270818454E-01  0.13306460705E+00  0.20518789183E-01 0.  0.
         14    1    1    2    0    0 -0.35000019442E-02  0.21193753157E-01 -0.10864125223E-01  0.24071859158E-01  0.00000000000E+00 0. -1.
     999901    1    3    3    0    0 -0.63245216705E-01  0.78768562892E-01 -0.42406693232E-01  0.88679353379E+00  0.88000000000E+00 0. -1.
        -11    1    4    4    0    0  0.21887602023E-01 -0.48666644213E-01  0.17897450389E-01  0.56285781798E-01  0.51100000000E-03 0. -1.
         11    1    4    4    0    0  0.44857616626E-01 -0.51295671836E-01  0.35373368066E-01  0.76778825256E-01  0.51100000000E-03 0.  1.
</event>
<event>
 8    1  0.1074844E+005  0.1043930E+01  0.7957747E-01            NaN
         13   -1    0    0    0    0  0.00000000000E+00  0.00000000000E+00  0.74505805969E-08  0.10566000000E+00  0.10566000000E+00 0. -1.
     999900   -1    0    0    0    0 -0.00000000000E+00 -0.00000000000E+00 -0.74505805969E-08  0.93827000000E+00  0.93827000000E+00 0. -1.
     999902    2    1    2    0    0  0.76568670501E-02  0.81231576693E-02  0.22494000494E-01  0.10188183819E+01  0.10185088620E+01 0.  0.
     999903    2    3    3    0    0  0.27311966758E-02  0.36210302533E-01  0.12541433607E+00  0.13236153278E+00  0.21729570294E-01 0.  0.
         14    1    1    2    0    0 -0.76568670501E-02 -0.81231576693E-02 -0.22494000494E-01  0.25111618063E-01  0.00000000000E+00 0.  1.
     999901    1    3    3    0    0  0.49256703743E-02 -0.28087144864E-01 -0.10292033557E+00  0.88645684915E+00  0.88000000000E+00 0. -1.
        -11    1    4    4    0    0 -0.75700884030E-02  0.45956448929E-02  0.31899042708E-01  0.33109458423E-01  0.51100000000E-03 0.  1.
         11    1    4    4    0    0  0.10301285079E-01  0.31614657641E-01  0.93515293358E-01  0.99252074361E-01  0.51100000000E-03 0. -1.
</event>
<event>
 8    1  0.1074844E+005  0.1043930E+01  0.7957747E-01            NaN
         13   -1    0    0    0    0  0.00000000000E+00  0.00000000000E+00  0.74505805969E-08  0.10566000000E+00  0.10566000000E+00 0. -1.
     999900   -1    0    0    0    0 -0.00000000000E+00 -0.00000000000E+00 -0.74505805969E-08  0.93827000000E+00  0.93827000000E+00 0. -1.
     999902    2    1    2    0    0 -0.17975109400E-01 -0.11938550309E-01  0.89443231225E-02  0.10205711803E+01  0.10203038271E+01 0.  0.
     999903    2    3    3    0    0  0.51255110746E-01 -0.97368053367E-02  0.11842442179E+00  0.13108618152E+00  0.20912951795E-01 0.  0.
         14    1    1    2    0    0  0.17975109400E-01  0.11938550309E-01 -0.89443231225E-02  0.23358819695E-01  0.00000000000E+00 0.  1.
     999901    1    3    3    0    0 -0.69230220146E-01 -0.22017449721E-02 -0.10948009867E+00  0.88948499879E+00  0.88000000000E+00 0.  1.
        -11    1    4    4    0    0  0.10010305811E-01  0.59905826213E-02  0.18988332471E-01  0.22291504965E-01  0.51100000000E-03 0. -1.
         11    1    4    4    0    0  0.41244804934E-01 -0.15727387958E-01  0.99436089319E-01  0.10879467655E+00  0.51100000000E-03 0.  1.
</event>
<event>
 8    1  0.1074844E+005  0.1043930E+01  0.7957747E-01            NaN
         13   -1    0    0    0    0  0.00000000000E+00  0.00000000000E+00  0.74505805969E-08  0.10566000000E+00  0.10566000000E+00 0.  1.
     999900   -1    0    0    0    0 -0.00000000000E+00 -0.00000000000E+00 -0.74505805969E-08  0.93827000000E+00  0.93827000000E+00 0. -1.
     999902    2    1    2    0    0 -0.89363376123E-02 -0.21753497549E-01 -0.45469883733E-02  0.10199769649E+01  0.10196956708E+01 0.  0.
     999903    2    3    3    0    0 -0.40715033172E-01  0.54542307910E-01  0.10741903253E+00  0.12904075776E+00  0.21910986602E-01 0.  0.
         14    1    1    2    0    0  0.89363376123E-02  0.21753497549E-01  0.45469883733E-02  0.23953035064E-01  0.00000000000E+00 0.  1.
     999901    1    3    3    0    0  0.31778695560E-01 -0.76295805459E-01 -0.11196602091E+00  0.89093620718E+00  0.88000000000E+00 0. -1.
        -11    1    4    4    0    0 -0.31771835751E-01  0.46116816105E-01  0.69962279558E-01  0.89616917803E-01  0.51100000000E-03 0. -1.
         11    1    4    4    0    0 -0.89431974209E-02  0.84254918056E-02  0.37456752976E-01  0.39423839955E-01  0.51100000000E-03 0.  1.
</event>
<event>
 8    1  0.1074844E+005  0.1043930E+01  0.7957747E-01            NaN
         13   -1    0    0    0    0  0.00000000000E+00  0.00000000000E+00  0.74505805969E-08  0.10566000000E+00  0.10566000000E+00 0.  1.
     999900   -1    0    0    0    0 -0.00000000000E+00 -0.00000000000E+00 -0.74505805969E-08  0.93827000000E+00  0.93827000000E+00 0.  1.
     999902    2    1    2    0    0 -0.27880954205E-02 -0.15411857266E-01  0.18237866888E-01  0.10198900622E+01  0.10196066989E+01 0.  0.
     999903    2    3    3    0    0  0.27222801675E-01 -0.35022328059E-01 -0.11889541387E+00  0.12854794988E+00  0.20513692672E-01 0.  0.
         14    1    1    2    0    0  0.27880954205E-02  0.15411857266E-01 -0.18237866888E-01  0.24039937793E-01  0.00000000000E+00 0. -1.
     999901    1    3    3    0    0 -0.30010897096E-01  0.19610470793E-01  0.13713328076E+00  0.89134211232E+00  0.88000000000E+00 0. -1.
        -11    1    4    4    0    0  0.17104899341E-01 -0.15700229871E-01 -0.85961059345E-01  0.89042909005E-01  0.51100000000E-03 0. -1.
         11    1    4    4    0    0  0.10117902334E-01 -0.19322098188E-01 -0.32934354523E-01  0.39505040879E-01  0.51100000000E-03 0.  1.
</event>
<event>
 8    1  0.1074844E+005  0.1043930E+01  0.7957747E-01            NaN
         13   -1    0    0    0    0  0.00000000000E+00  0.00000000000E+00  0.74505805969E-08  0.10566000000E+00  0.10566000000E+00 0. -1.
     999900   -1    0    0    0    0 -0.00000000000E+00 -0.00000000000E+00 -0.74505805969E-08  0.93827000000E+00  0.93827000000E+00 0. -1.
     999902    2    1    2    0    0  0.16535243275E-01 -0.60286796920E-02 -0.16373751667E-01  0.10198913022E+01  0.10196079684E+01 0.  0.
     999903    2    3    3    0    0  0.55028088833E-01 -0.11752009275E+00 -0.19586568686E-01  0.13201611020E+00  0.14337256360E-01 0.  0.
         14    1    1    2    0    0 -0.16535243275E-01  0.60286796920E-02  0.16373751667E-01  0.24038697815E-01  0.00000000000E+00 0.  1.
     999901    1    3    3    0    0 -0.38492845558E-01  0.11149141306E+00  0.32128170194E-02  0.88787519198E+00  0.88000000000E+00 0. -1.
        -11    1    4    4    0    0  0.43269352836E-01 -0.85856774351E-01 -0.20138183629E-01  0.98231513058E-01  0.51100000000E-03 0. -1.
         11    1    4    4    0    0  0.11758735997E-01 -0.31663318398E-01  0.55161494232E-03  0.33784597145E-01  0.51100000000E-03 0.  1.
</event>
<event>
 8    1  0.1074844E+005  0.1043930E+01  0.7957747E-01            NaN
         13   -1    0    0    0    0  0.00000000000E+00  0.00000000000E+00  0.74505805969E-08  0.10566000000E+00  0.10566000000E+00 0.  1.
     999900   -1    0    0    0    0 -0.00000000000E+00 -0.00000000000E+00 -0.74505805969E-08  0.93827000000E+00  0.93827000000E+00 0.  1.
     999902    2    1    2    0    0  0.37047421403E-02 -0.21501405262E-01 -0.92803577689E-02  0.10202200742E+01  0.10199445275E+01 0.  0.
     999903    2    3    3    0    0 -0.13287504925E-02  0.12427935426E+00 -0.27393006962E-01  0.12802870795E+00  0.13922993754E-01 0.  0.
         14    1    1    2    0    0 -0.37047421403E-02  0.21501405262E-01  0.92803577689E-02  0.23709925831E-01  0.00000000000E+00 0.  1.
     999901    1    3    3    0    0  0.50334926328E-02 -0.14578075953E+00  0.18112649193E-01  0.89219136622E+00  0.88000000000E+00 0.  1.
        -11    1    4    4    0    0 -0.71162148303E-02  0.51650625224E-01 -0.13417438047E-01  0.53839728494E-01  0.51100000000E-03 0. -1.
         11    1    4    4    0    0  0.57874643378E-02  0.72628729038E-01 -0.13975568915E-01  0.74188979456E-01  0.51100000000E-03 0.  1.
</event>
<event>
 8    1  0.1074844E+005  0.1043930E+01  0.7957747E-01            NaN
         13   -1    0    0    0    0  0.00000000000E+00  0.00000000000E+00  0.74505805969E-08  0.10566000000E+00  0.10566000000E+00 0.  1.
     999900   -1    0    0    0    0 -0.00000000000E+00 -0.00000000000E+00 -0.74505805969E-08  0.93827000000E+00  0.93827000000E+00 0.  1.
     999902    2    1    2    0    0  0.64171252253E-02  0.24551736148E-01 -0.58069004505E-02  0.10178975714E+01  0.10175646312E+01 0.  0.
     999903    2    3    3    0    0 -0.36337464762E-02 -0.12328080926E+00 -0.11801842087E-01  0.12548991749E+00  0.19926712474E-01 0.  0.
         14    1    1    2    0    0 -0.64171252253E-02 -0.24551736148E-01  0.58069004505E-02  0.26032428563E-01  0.00000000000E+00 0. -1.
     999901    1    3    3    0    0  0.10050871702E-01  0.14783254540E+00  0.59949416366E-02  0.89240765395E+00  0.88000000000E+00 0. -1.
        -11    1    4    4    0    0  0.37919595294E-02 -0.98514128264E-01 -0.13810636649E-01  0.99551028273E-01  0.51100000000E-03 0.  1.
         11    1    4    4    0    0 -0.74257060056E-02 -0.24766680993E-01  0.20087945620E-02  0.25938889214E-01  0.51100000000E-03 0. -1.
</event>
<event>
 8    1  0.1074844E+005  0.1043930E+01  0.7957747E-01            NaN
         13   -1    0    0    0    0  0.00000000000E+00  0.00000000000E+00  0.74505805969E-08  0.10566000000E+00  0.10566000000E+00 0.  1.
     999900   -1    0    0    0    0 -0.00000000000E+00 -0.00000000000E+00 -0.74505805969E-08  0.93827000000E+00  0.93827000000E+00 0. -1.
     999902    2    1    2    0    0 -0.63995223068E-02 -0.19464093590E-01 -0.12143627762E-01  0.10201125165E+01  0.10198344345E+01 0.  0.
     999903    2    3    3    0    0  0.66384181146E-01  0.97092529926E-01 -0.48299075504E-01  0.12871466460E+00  0.20021121704E-01 0.  0.
         14    1    1    2    0    0  0.63995223068E-02  0.19464093590E-01  0.12143627762E-01  0.23817483499E-01  0.00000000000E+00 0.  1.
     999901    1    3    3    0    0 -0.72783703453E-01 -0.11655662352E+00  0.36155447742E-01  0.89139785190E+00  0.88000000000E+00 0.  1.
        -11    1    4    4    0    0  0.13155793922E-01  0.33735942083E-01 -0.10253573198E-01  0.37637555530E-01  0.51100000000E-03 0.  1.
         11    1    4    4    0    0  0.53228387224E-01  0.63356587843E-01 -0.38045502306E-01  0.91077109069E-01  0.51100000000E-03 0. -1.
</event>
<event>
 8    1  0.1074844E+005  0.1043930E+01  0.7957747E-01            NaN
         13   -1    0    0    0    0  0.00000000000E+00  0.00000000000E+00  0.74505805969E-08  0.10566000000E+00  0.10566000000E+00 0.  1.
     999900   -1    0    0    0    0 -0.00000000000E+00 -0.00000000000E+00 -0.74505805969E-08  0.93827000000E+00  0.93827000000E+00 0.  1.
     999902    2    1    2    0    0  0.11598400297E-01  0.95318854116E-02  0.18297148107E-01  0.10202621873E+01  0.10199876301E+01 0.  0.
     999903    2    3    3    0    0  0.10950919153E+00 -0.56205186953E-01 -0.38364792908E-01  0.13058895444E+00  0.20744435775E-01 0.  0.
         14    1    1    2    0    0 -0.11598400297E-01 -0.95318854116E-02 -0.18297148107E-01  0.23667812696E-01  0.00000000000E+00 0. -1.
     999901    1    3    3    0    0 -0.97910791233E-01  0.65737072365E-01  0.56661941016E-01  0.88967323287E+00  0.88000000000E+00 0. -1.
        -11    1    4    4    0    0  0.97956849961E-01 -0.46535019931E-01 -0.39625720115E-01  0.11546216415E+00  0.51100000000E-03 0.  1.
         11    1    4    4    0    0  0.11552341569E-01 -0.96701670224E-02  0.12609272061E-02  0.15126790287E-01  0.51100000000E-03 0. -1.
</event>
<event>
 8    1  0.1074844E+005  0.1043930E+01  0.7957747E-01            NaN
         13   -1    0    0    0    0  0.00000000000E+00  0.00000000000E+00  0.74505805969E-08  0.10566000000E+00  0.10566000000E+00 0. -1.
     999900   -1    0    0    0    0 -0.00000000000E+00 -0.00000000000E+00 -0.74505805969E-08  0.93827000000E+00  0.93827000000E+00 0. -1.
     999902    2    1    2    0    0 -0.30008912973E-02  0.18079506789E-01 -0.15919782139E-01  0.10196542224E+01  0.10193652044E+01 0.  0.
     999903    2    3    3    0    0  0.74220390100E-01  0.76711889385E-01 -0.75735012924E-01  0.13231057735E+00  0.19414335347E-01 0.  0.
         14    1    1    2    0    0  0.30008912973E-02 -0.18079506789E-01  0.15919782139E-01  0.24275777591E-01  0.00000000000E+00 0.  1.
     999901    1    3    3    0    0 -0.77221281397E-01 -0.58632382595E-01  0.59815230785E-01  0.88734364506E+00  0.88000000000E+00 0.  1.
        -11    1    4    4    0    0  0.18904379036E-01  0.32254080642E-01 -0.23052862681E-01  0.43924900268E-01  0.51100000000E-03 0.  1.
         11    1    4    4    0    0  0.55316011064E-01  0.44457808743E-01 -0.52682150243E-01  0.88385677083E-01  0.51100000000E-03 0. -1.
</event>
<event>
 8    1  0.1074844E+005  0.1043930E+01  0.7957747E-01            NaN
         13   -1    0    0    0    0  0.00000000000E+00  0.00000000000E+00  0.74505805969E-08  0.10566000000E+00  0.10566000000E+00 0. -1.
     999900   -1    0    0    0    0 -0.00000000000E+00 -0.00000000000E+00 -0.74505805969E-08  0.93827000000E+00  0.93827000000E+00 0.  1.
     999902    2    1    2    0    0 -0.13959830217E-02  0.11210354663E-01  0.20172482339E-01  0.10208096656E+01  0.10205478056E+01 0.  0.
     999903    2    3    3    0    0 -0.62920607715E-01 -0.54204935993E-01  0.10133649730E+00  0.13252365475E+00  0.19906165449E-01 0.  0.
         14    1    1    2    0    0  0.13959830217E-02 -0.11210354663E-01 -0.20172482339E-01  0.23120334426E-01  0.00000000000E+00 0.  1.
     999901    1    3    3    0    0  0.61524624693E-01  0.65415290655E-01 -0.81164014962E-01  0.88828601082E+00  0.88000000000E+00 0.  1.
        -11    1    4    4    0    0 -0.61465859677E-02 -0.43343470562E-02  0.21680179600E-02  0.78440108578E-02  0.51100000000E-03 0. -1.
         11    1    4    4    0    0 -0.56774021747E-01 -0.49870588936E-01  0.99168479341E-01  0.12467964390E+00  0.51100000000E-03 0.  1.
</event>
<event>
 8    1  0.1074844E+005  0.1043930E+01  0.7957747E-01            NaN
         13   -1    0    0    0    0  0.00000000000E+00  0.00000000000E+00  0.74505805969E-08  0.10566000000E+00  0.10566000000E+00 0.  1.
     999900   -1    0    0    0    0 -0.00000000000E+00 -0.00000000000E+00 -0.74505805969E-08  0.93827000000E+00  0.93827000000E+00 0.  1.
     999902    2    1    2    0    0  0.11870034555E-02  0.18076627272E-01  0.15220619722E-01  0.10202690470E+01  0.10199946508E+01 0.  0.
     999903    2    3    3    0    0 -0.37685776927E-01 -0.11506482955E+00  0.40412332523E-01  0.12904945402E+00  0.18986104924E-01 0.  0.
         14    1    1    2    0    0 -0.11870034555E-02 -0.18076627272E-01 -0.15220619722E-01  0.23660952970E-01  0.00000000000E+00 0. -1.
     999901    1    3    3    0    0  0.38872780382E-01  0.13314145682E+00 -0.25191712801E-01  0.89121959301E+00  0.88000000000E+00 0.  1.
        -11    1    4    4    0    0 -0.22314014802E-01 -0.43010145333E-01  0.21310354072E-01  0.52935622881E-01  0.51100000000E-03 0.  1.
         11    1    4    4    0    0 -0.15371762125E-01 -0.72054684216E-01  0.19101978451E-01  0.76113831135E-01  0.51100000000E-03 0. -1.
</event>
<event>
 8    1  0.1074844E+005  0.1043930E+01  0.7957747E-01            NaN
         13   -1    0    0    0    0  0.00000000000E+00  0.00000000000E+00  0.74505805969E-08  0.10566000000E+00  0.10566000000E+00 0.  1.
     999900   -1    0    0    0    0 -0.00000000000E+00 -0.00000000000E+00 -0.74505805969E-08  0.93827000000E+00  0.93827000000E+00 0. -1.
     999902    2    1    2    0    0  0.14019951897E-01  0.21069820264E-01 -0.14809701826E-02  0.10185786756E+01  0.10182631431E+01 0.  0.
     999903    2    3    3    0    0 -0.10111307015E+00  0.46556303223E-01  0.61336983505E-01  0.12849369712E+00  0.18896092934E-01 0.  0.
         14    1    1    2    0    0 -0.14019951897E-01 -0.21069820264E-01  0.14809701826E-02  0.25351324420E-01  0.00000000000E+00 0.  1.
     999901    1    3    3    0    0  0.11513302205E+00 -0.25486482958E-01 -0.62817953687E-01  0.89008497846E+00  0.88000000000E+00 0. -1.
        -11    1    4    4    0    0 -0.71772859969E-01  0.32308511828E-01  0.33244577103E-01  0.85443820095E-01  0.51100000000E-03 0.  1.
         11    1    4    4    0    0 -0.29340210182E-01  0.14247791394E-01  0.28092406402E-01  0.43049877022E-01  0.51100000000E-03 0. -1.
</event>
<event>
 8    1  0.1074844E+005  0.1043930E+01  0.7957747E-01            NaN
         13   -1    0    0    0    0  0.00000000000E+00  0.00000000000E+00  0.74505805969E-08  0.10566000000E+00  0.10566000000E+00 0.  1.
     999900   -1    0    0    0    0 -0.00000000000E+00 -0.00000000000E+00 -0.74505805969E-08  0.93827000000E+00  0.93827000000E+00 0.  1.
     999902    2    1    2    0    0  0.18719589763E-01 -0.13423236598E-01  0.10817847936E-01  0.10184813820E+01  0.10181633923E+01 0.  0.
     999903    2    3    3    0    0 -0.25908389234E-01  0.78194189994E-01  0.96480628017E-01  0.12846816796E+00  0.20248027423E-01 0.  0.
         14    1    1    2    0    0 -0.18719589763E-01  0.13423236598E-01 -0.10817847936E-01  0.25448617951E-01  0.00000000000E+00 0. -1.
     999901    1    3    3    0    0  0.44627978997E-01 -0.91617426591E-01 -0.85662780081E-01  0.89001321409E+00  0.88000000000E+00 0.  1.
        -11    1    4    4    0    0 -0.15885793895E-01  0.60506655774E-01  0.59886149066E-01  0.86602689402E-01  0.51100000000E-03 0.  1.
         11    1    4    4    0    0 -0.10022595338E-01  0.17687534220E-01  0.36594478950E-01  0.41865478556E-01  0.51100000000E-03 0. -1.
</event>
<event>
 8    1  0.1145557E+005  0.1043930E+01  0.7957747E-01            NaN
         13   -1    0    0    0    0  0.00000000000E+00  0.00000000000E+00  0.74505805969E-08  0.10566000000E+00  0.10566000000E+00 0. -1.
     999900   -1    0    0    0    0 -0.00000000000E+00 -0.00000000000E+00 -0.74505805969E-08  0.93827000000E+00  0.93827000000E+00 0. -1.
     999902    2    1    2    0    0  0.23830741735E-01  0.13115730698E-02 -0.37112279445E-02  0.10197763732E+01  0.10194902911E+01 0.  0.
     999903    2    3    3    0    0  0.19611246404E-01  0.11309473535E+00  0.58990404849E-01  0.13048183577E+00  0.19251531192E-01 0.  0.
         14    1    1    2    0    0 -0.23830741735E-01 -0.13115730698E-02  0.37112279445E-02  0.24153626817E-01  0.00000000000E+00 0. -1.
     999901    1    3    3    0    0  0.42194953308E-02 -0.11178316228E+00 -0.62701632793E-01  0.88929453741E+00  0.88000000000E+00 0. -1.
        -11    1    4    4    0    0  0.21208851298E-01  0.69154436343E-01  0.38994863900E-01  0.82176711853E-01  0.51100000000E-03 0.  1.
         11    1    4    4    0    0 -0.15976048933E-02  0.43940299007E-01  0.19995540949E-01  0.48305123921E-01  0.51100000000E-03 0. -1.
</event>
<event>
 8    1  0.1074844E+005  0.1043930E+01  0.7957747E-01            NaN
         13   -1    0    0    0    0  0.00000000000E+00  0.00000000000E+00  0.74505805969E-08  0.10566000000E+00  0.10566000000E+00 0.  1.
     999900   -1    0    0    0    0 -0.00000000000E+00 -0.00000000000E+00 -0.74505805969E-08  0.93827000000E+00  0.93827000000E+00 0. -1.
     999902    2    1    2    0    0  0.20788416218E-01 -0.56184394439E-02 -0.10353545974E-01  0.10200360463E+01  0.10197561545E+01 0.  0.
     999903    2    3    3    0    0 -0.17902520108E-01 -0.18407854930E-01 -0.12748191118E+00  0.13134059133E+00  0.18421832212E-01 0.  0.
         14    1    1    2    0    0 -0.20788416218E-01  0.56184394439E-02  0.10353545974E-01  0.23893953730E-01  0.00000000000E+00 0. -1.
     999901    1    3    3    0    0  0.38690936326E-01  0.12789415486E-01  0.11712836521E+00  0.88869545494E+00  0.88000000000E+00 0.  1.
        -11    1    4    4    0    0 -0.11062042059E-01 -0.47507619735E-02 -0.90891066234E-01  0.91686343345E-01  0.51100000000E-03 0.  1.
         11    1    4    4    0    0 -0.68404780491E-02 -0.13657092957E-01 -0.36590844947E-01  0.39654247980E-01  0.51100000000E-03 0. -1.
</event>
<event>
 8    1  0.1074844E+005  0.1043930E+01  0.7957747E-01            NaN
         13   -1    0    0    0    0  0.00000000000E+00  0.00000000000E+00  0.74505805969E-08  0.10566000000E+00  0.10566000000E+00 0.  1.
     999900   -1    0    0    0    0 -0.00000000000E+00 -0.00000000000E+00 -0.74505805969E-08  0.93827000000E+00  0.93827000000E+00 0. -1.
     999902    2    1    2    0    0 -0.21086203930E-01  0.47237538218E-02  0.11512495869E-01  0.10194457314E+01  0.10191516668E+01 0.  0.
     999903    2    3    3    0    0 -0.90577256732E-01  0.73595302941E-01  0.60046520412E-01  0.13269444260E+00  0.19537718184E-01 0.  0.
         14    1    1    2    0    0  0.21086203930E-01 -0.47237538218E-02 -0.11512495869E-01  0.24484268571E-01  0.00000000000E+00 0.  1.
     999901    1    3    3    0    0  0.69491052802E-01 -0.68871549119E-01 -0.48534024543E-01  0.88675128883E+00  0.88000000000E+00 0. -1.
        -11    1    4    4    0    0 -0.19242462939E-01  0.75781704245E-02  0.62883850759E-02  0.21621886014E-01  0.51100000000E-03 0.  1.
         11    1    4    4    0    0 -0.71334793792E-01  0.66017132516E-01  0.53758135336E-01  0.11107255659E+00  0.51100000000E-03 0. -1.
</event>
<event>
 8    1  0.1074844E+005  0.1043930E+01  0.7957747E-01            NaN
         13   -1    0    0    0    0  0.00000000000E+00  0.00000000000E+00  0.74505805969E-08  0.10566000000E+00  0.10566000000E+00 0.  1.
     999900   -1    0    0    0    0 -0.00000000000E+00 -0.00000000000E+00 -0.74505805969E-08  0.93827000000E+00  0.93827000000E+00 0. -1.
     999902    2    1    2    0    0 -0.75893507774E-02  0.30545262194E-02  0.22214347076E-01  0.10202571127E+01  0.10199824364E+01 0.  0.
     999903    2    3    3    0    0  0.54117017340E-01 -0.34535874237E-01  0.11424429304E+00  0.13251265343E+00  0.19658755052E-01 0.  0.
         14    1    1    2    0    0  0.75893507774E-02 -0.30545262194E-02 -0.22214347076E-01  0.23672887269E-01  0.00000000000E+00 0. -1.
     999901    1    3    3    0    0 -0.61706368117E-01  0.37590400456E-01 -0.92029945967E-01  0.88774445931E+00  0.88000000000E+00 0.  1.
        -11    1    4    4    0    0  0.20856940303E-01 -0.19948761438E-01  0.35197042760E-01  0.45519863596E-01  0.51100000000E-03 0.  1.
         11    1    4    4    0    0  0.33260077037E-01 -0.14587112799E-01  0.79047250282E-01  0.86992789830E-01  0.51100000000E-03 0. -1.
</event>
<event>
 8    1  0.1074844E+005  0.1043930E+01  0.7957747E-01            NaN
         13   -1    0    0    0    0  0.00000000000E+00  0.00000000000E+00  0.74505805969E-08  0.10566000000E+00  0.10566000000E+00 0.  1.
     999900   -1    0    0    0    0 -0.00000000000E+00 -0.00000000000E+00 -0.74505805969E-08  0.93827000000E+00  0.93827000000E+00 0. -1.
     999902    2    1    2    0    0  0.13436179259E-01 -0.16968862686E-01 -0.97957031307E-02  0.10201722852E+01  0.10198956135E+01 0.  0.
     999903    2    3    3    0    0 -0.13510337838E-01 -0.76433214320E-03  0.12678224762E+00  0.12908180816E+00  0.20131106609E-01 0.  0.
         14    1    1    2    0    0 -0.13436179259E-01  0.16968862686E-01  0.97957031307E-02  0.23757714826E-01  0.00000000000E+00 0. -1.
     999901    1    3    3    0    0  0.26946517097E-01 -0.16204530543E-01 -0.13657795075E+00  0.89109047701E+00  0.88000000000E+00 0. -1.
        -11    1    4    4    0    0 -0.80986375386E-02  0.77916588221E-02  0.35535213949E-01  0.37273454745E-01  0.51100000000E-03 0.  1.
         11    1    4    4    0    0 -0.54117002998E-02 -0.85559909653E-02  0.91247033674E-01  0.91808353415E-01  0.51100000000E-03 0. -1.
</event>
<event>
 8    1  0.1074844E+005  0.1043930E+01  0.7957747E-01            NaN
         13   -1    0    0    0    0  0.00000000000E+00  0.00000000000E+00  0.74505805969E-08  0.10566000000E+00  0.10566000000E+00 0. -1.
     999900   -1    0    0    0    0 -0.00000000000E+00 -0.00000000000E+00 -0.74505805969E-08  0.93827000000E+00  0.93827000000E+00 0.  1.
     999902    2    1    2    0    0  0.95697215706E-02  0.21213095795E-01 -0.35518524113E-02  0.10203887456E+01  0.10201171508E+01 0.  0.
     999903    2    3    3    0    0 -0.13757445844E-01 -0.67352220851E-01  0.10657819991E+00  0.12880778993E+00  0.22515440935E-01 0.  0.
         14    1    1    2    0    0 -0.95697215706E-02 -0.21213095795E-01  0.35518524113E-02  0.23541254420E-01  0.00000000000E+00 0.  1.
     999901    1    3    3    0    0  0.23327167415E-01  0.88565316646E-01 -0.11013005232E+00  0.89158095565E+00  0.88000000000E+00 0.  1.
        -11    1    4    4    0    0 -0.13684447441E-01 -0.17469993989E-01  0.37944820942E-01  0.43960611337E-01  0.51100000000E-03 0.  1.
         11    1    4    4    0    0 -0.72998402806E-04 -0.49882226862E-01  0.68633378970E-01  0.84847178594E-01  0.51100000000E-03 0. -1.
</event>
<event>
 8    1  0.1074844E+005  0.1043930E+01  0.7957747E-01            NaN
         13   -1    0    0    0    0  0.00000000000E+00  0.00000000000E+00  0.74505805969E-08  0.10566000000E+00  0.10566000000E+00 0. -1.
     999900   -1    0    0    0    0 -0.00000000000E+00 -0.00000000000E+00 -0.74505805969E-08  0.93827000000E+00  0.93827000000E+00 0.  1.
     999902    2    1    2    0    0 -0.67611595748E-02 -0.61908756453E-02  0.20878362199E-01  0.10211276706E+01  0.10208730447E+01 0.  0.
     999903    2    3    3    0    0  0.11197310234E+00  0.61790076767E-01 -0.12206013973E-01  0.12994092762E+00  0.19485088078E-01 0.  0.
         14    1    1    2    0    0  0.67611595748E-02  0.61908756453E-02 -0.20878362199E-01  0.22802329446E-01  0.00000000000E+00 0.  1.
     999901    1    3    3    0    0 -0.11873426192E+00 -0.67980952412E-01  0.33084376172E-01  0.89118674294E+00  0.88000000000E+00 0. -1.
        -11    1    4    4    0    0  0.88675549690E-01  0.39979622932E-01 -0.62579039038E-02  0.97473821332E-01  0.51100000000E-03 0.  1.
         11    1    4    4    0    0  0.23297552652E-01  0.21810453835E-01 -0.59481100693E-02  0.32467106284E-01  0.51100000000E-03 0. -1.
</event>
<event>
 8    1  0.1074844E+005  0.1043930E+01  0.7957747E-01            NaN
         13   -1    0    0    0    0  0.00000000000E+00  0.00000000000E+00  0.74505805969E-08  0.10566000000E+00  0.10566000000E+00 0.  1.
     999900   -1    0    0    0    0 -0.00000000000E+00 -0.00000000000E+00 -0.74505805969E-08  0.93827000000E+00  0.93827000000E+00 0. -1.
     999902    2    1    2    0    0 -0.12066666019E-01 -0.20734487854E-01  0.29625630563E-03  0.10199381017E+01  0.10196558832E+01 0.  0.
     999903    2    3    3    0    0  0.10897901724E+00 -0.25093451888E-02  0.67636253331E-01  0.12891684021E+00  0.12734438089E-01 0.  0.
         14    1    1    2    0    0  0.12066666019E-01  0.20734487854E-01 -0.29625630563E-03  0.23991898282E-01  0.00000000000E+00 0.  1.
     999901    1    3    3    0    0 -0.12104568326E+00 -0.18225142665E-01 -0.67339997025E-01  0.89102126151E+00  0.88000000000E+00 0. -1.
        -11    1    4    4    0    0  0.93102783166E-01 -0.66074892740E-02  0.58014176345E-01  0.10989855743E+00  0.51100000000E-03 0. -1.
         11    1    4    4    0    0  0.15876234072E-01  0.40981440851E-02  0.96220769860E-02  0.19018282777E-01  0.51100000000E-03 0.  1.
</event>
<event>
 8    1  0.1119090E+005  0.1043930E+01  0.7957747E-01            NaN
         13   -1    0    0    0    0  0.00000000000E+00  0.00000000000E+00  0.74505805969E-08  0.10566000000E+00  0.10566000000E+00 0. -1.
     999900   -1    0    0    0    0 -0.00000000000E+00 -0.00000000000E+00 -0.74505805969E-08  0.93827000000E+00  0.93827000000E+00 0. -1.
     999902    2    1    2    0    0  0.38516415469E-02 -0.23439474164E-01  0.73449722712E-02  0.10190665186E+01  0.10187631602E+01 0.  0.
     999903    2    3    3    0    0  0.10210942940E+00 -0.92685292201E-03  0.78531440645E-01  0.13045584775E+00  0.20599670260E-01 0.  0.
         14    1    1    2    0    0 -0.38516415469E-02  0.23439474164E-01 -0.73449722712E-02  0.24863481441E-01  0.00000000000E+00 0.  1.
     999901    1    3    3    0    0 -0.98257787853E-01 -0.22512621242E-01 -0.71186468374E-01  0.88861067080E+00  0.88000000000E+00 0. -1.
        -11    1    4    4    0    0  0.50381815567E-01  0.97079118378E-02  0.36728408244E-01  0.63101568802E-01  0.51100000000E-03 0.  1.
         11    1    4    4    0    0  0.51727613833E-01 -0.10634764760E-01  0.41803032400E-01  0.67354278952E-01  0.51100000000E-03 0. -1.
</event>
<event>
 8    1  0.1074844E+005  0.1043930E+01  0.7957747E-01            NaN
         13   -1    0    0    0    0  0.00000000000E+00  0.00000000000E+00  0.74505805969E-08  0.10566000000E+00  0.10566000000E+00 0. -1.
     999900   -1    0    0    0    0 -0.00000000000E+00 -0.00000000000E+00 -0.74505805969E-08  0.93827000000E+00  0.93827000000E+00 0. -1.
     999902    2    1    2    0    0  0.13055494084E-01 -0.18236502570E-01 -0.84662077877E-02  0.10199572524E+01  0.10196754896E+01 0.  0.
     999903    2    3    3    0    0 -0.65663491574E-01  0.10562485465E+00  0.18795230950E-01  0.12738708681E+00  0.20147087474E-01 0.  0.
         14    1    1    2    0    0 -0.13055494084E-01  0.18236502570E-01  0.84662077877E-02  0.23972747570E-01  0.00000000000E+00 0.  1.
     999901    1    3    3    0    0  0.78718985658E-01 -0.12386135722E+00 -0.27261438738E-01  0.89257016562E+00  0.88000000000E+00 0.  1.
        -11    1    4    4    0    0 -0.62582052982E-01  0.10046622661E+00  0.13091784733E-01  0.11908665749E+00  0.51100000000E-03 0. -1.
         11    1    4    4    0    0 -0.30814385920E-02  0.51586280395E-02  0.57034462173E-02  0.83004293142E-02  0.51100000000E-03 0.  1.
</event>
<event>
 8    1  0.1074844E+005  0.1043930E+01  0.7957747E-01            NaN
         13   -1    0    0    0    0  0.00000000000E+00  0.00000000000E+00  0.74505805969E-08  0.10566000000E+00  0.10566000000E+00 0.  1.
     999900   -1    0    0    0    0 -0.00000000000E+00 -0.00000000000E+00 -0.74505805969E-08  0.93827000000E+00  0.93827000000E+00 0. -1.
     999902    2    1    2    0    0 -0.14389441300E-01  0.37381259044E-02  0.18578300923E-01  0.10201354025E+01  0.10198578609E+01 0.  0.
     999903    2    3    3    0    0 -0.10692962896E+00  0.12761539896E-01 -0.71343132679E-01  0.13067996652E+00  0.19763820942E-01 0.  0.
         14    1    1    2    0    0  0.14389441300E-01 -0.37381259044E-02 -0.18578300923E-01  0.23794597525E-01  0.00000000000E+00 0. -1.
     999901    1    3    3    0    0  0.92540187662E-01 -0.90234139912E-02  0.89921433602E-01  0.88945543596E+00  0.88000000000E+00 0.  1.
        -11    1    4    4    0    0 -0.69847581599E-01  0.17467686182E-01 -0.49635467509E-01  0.87451389192E-01  0.51100000000E-03 0. -1.
         11    1    4    4    0    0 -0.37082047363E-01 -0.47061462860E-02 -0.21707665170E-01  0.43228577326E-01  0.51100000000E-03 0.  1.
</event>
<event>
 8    1  0.1074844E+005  0.1043930E+01  0.7957747E-01            NaN
         13   -1    0    0    0    0  0.00000000000E+00  0.00000000000E+00  0.74505805969E-08  0.10566000000E+00  0.10566000000E+00 0.  1.
     999900   -1    0    0    0    0 -0.00000000000E+00 -0.00000000000E+00 -0.74505805969E-08  0.93827000000E+00  0.93827000000E+00 0. -1.
     999902    2    1    2    0    0  0.13093074250E-01  0.12017292927E-01 -0.37637773830E-02  0.10257638242E+01  0.10256029510E+01 0.  0.
     999903    2    3    3    0    0 -0.77694807912E-01  0.23774274000E-01 -0.10613572713E+00  0.13511199423E+00  0.19716975713E-01 0.  0.
         14    1    1    2    0    0 -0.13093074250E-01 -0.12017292927E-01  0.37637773830E-02  0.18166175790E-01  0.00000000000E+00 0.  1.
     999901    1    3    3    0    0  0.90787882162E-01 -0.11756981073E-01  0.10237194975E+00  0.89065182998E+00  0.88000000000E+00 0.  1.
        -11    1    4    4    0    0 -0.14238869879E-01 -0.31920721625E-02 -0.20503323510E-01  0.25171057508E-01  0.51100000000E-03 0.  1.
         11    1    4    4    0    0 -0.63455938033E-01  0.26966346163E-01 -0.85632403618E-01  0.10994093672E+00  0.51100000000E-03 0. -1.
</event>
<event>
 8    1  0.1074844E+005  0.1043930E+01  0.7957747E-01            NaN
         13   -1    0    0    0    0  0.00000000000E+00  0.00000000000E+00  0.74505805969E-08  0.10566000000E+00  0.10566000000E+00 0. -1.
     999900   -1    0    0    0    0 -0.00000000000E+00 -0.00000000000E+00 -0.74505805969E-08  0.93827000000E+00  0.93827000000E+00 0.  1.
     999902    2    1    2    0    0  0.19302894296E-01 -0.31245101711E-02 -0.13394170451E-01  0.10202283525E+01  0.10199530005E+01 0.  0.
     999903    2    3    3    0    0  0.85644123299E-01 -0.19333414088E-01  0.94984117839E-01  0.13095351276E+00  0.20448547767E-01 0.  0.
         14    1    1    2    0    0 -0.19302894296E-01  0.31245101711E-02  0.13394170451E-01  0.23701647498E-01  0.00000000000E+00 0.  1.
     999901    1    3    3    0    0 -0.66341229002E-01  0.16208903917E-01 -0.10837828829E+00  0.88927483975E+00  0.88000000000E+00 0.  1.
        -11    1    4    4    0    0  0.52772377173E-01 -0.18204585531E-01  0.70605483219E-01  0.90009588981E-01  0.51100000000E-03 0. -1.
         11    1    4    4    0    0  0.32871746125E-01 -0.11288285571E-02  0.24378634620E-01  0.40943923776E-01  0.51100000000E-03 0.  1.
</event>
<event>
 8    1  0.1074844E+005  0.1043930E+01  0.7957747E-01            NaN
         13   -1    0    0    0    0  0.00000000000E+00  0.00000000000E+00  0.74505805969E-08  0.10566000000E+00  0.10566000000E+00 0. -1.
     999900   -1    0    0    0    0 -0.00000000000E+00 -0.00000000000E+00 -0.74505805969E-08  0.93827000000E+00  0.93827000000E+00 0. -1.
     999902    2    1    2    0    0  0.87358671078E-02  0.21128326870E-01 -0.56672984361E-02  0.10203749614E+01  0.10201030448E+01 0.  0.
     999903    2    3    3    0    0 -0.73367919032E-01  0.62832557631E-02  0.10433550306E+00  0.12961010796E+00  0.22148409450E-01 0.  0.
         14    1    1    2    0    0 -0.87358671078E-02 -0.21128326870E-01  0.56672984361E-02  0.23555038570E-01  0.00000000000E+00 0.  1.
     999901    1    3    3    0    0  0.82103786140E-01  0.14845071107E-01 -0.11000280150E+00  0.89076485347E+00  0.88000000000E+00 0. -1.
        -11    1    4    4    0    0 -0.64591811822E-01 -0.15576696230E-02  0.82399812678E-01  0.10471159792E+00  0.51100000000E-03 0.  1.
         11    1    4    4    0    0 -0.87761072100E-02  0.78409253861E-02  0.21935690383E-01  0.24898510041E-01  0.51100000000E-03 0. -1.
</event>
<event>
 8    1  0.1074844E+005  0.1043930E+01  0.7957747E-01            NaN
         13   -1    0    0    0    0  0.00000000000E+00  0.00000000000E+00  0.74505805969E-08  0.10566000000E+00  0.10566000000E+00 0.  1.
     999900   -1    0    0    0    0 -0.00000000000E+00 -0.00000000000E+00 -0.74505805969E-08  0.93827000000E+00  0.93827000000E+00 0. -1.
     999902    2    1    2    0    0 -0.16006373712E-01 -0.12401596500E-01 -0.12898344050E-01  0.10199222747E+01  0.10196396793E+01 0.  0.
     999903    2    3    3    0    0 -0.81736801358E-01  0.99102777843E-01 -0.10877073520E-01  0.13045175795E+00  0.19926995562E-01 0.  0.
         14    1    1    2    0    0  0.16006373712E-01  0.12401596500E-01  0.12898344050E-01  0.24007725307E-01  0.00000000000E+00 0.  1.
     999901    1    3    3    0    0  0.65730427646E-01 -0.11150437434E+00 -0.20212705302E-02  0.88947051674E+00  0.88000000000E+00 0.  1.
        -11    1    4    4    0    0 -0.30440167764E-01  0.49831418833E-01 -0.10442640864E-01  0.59321867685E-01  0.51100000000E-03 0.  1.
         11    1    4    4    0    0 -0.51296633594E-01  0.49271359010E-01 -0.43443265587E-03  0.71129890268E-01  0.51100000000E-03 0. -1.
</event>
<event>
 8    1  0.1074844E+005  0.1043930E+01  0.7957747E-01            NaN
         13   -1    0    0    0    0  0.00000000000E+00  0.00000000000E+00  0.74505805969E-08  0.10566000000E+00  0.10566000000E+00 0. -1.
     999900   -1    0    0    0    0 -0.00000000000E+00 -0.00000000000E+00 -0.74505805969E-08  0.93827000000E+00  0.93827000000E+00 0.  1.
     999902    2    1    2    0    0 -0.38021773834E-02  0.18429594039E-01 -0.11965714949E-01  0.10216301161E+01  0.10213867090E+01 0.  0.
     999903    2    3    3    0    0 -0.10597727659E+00 -0.73875521939E-01  0.31320953526E-02  0.13079459297E+00  0.20214836931E-01 0.  0.
         14    1    1    2    0    0  0.38021773834E-02 -0.18429594039E-01  0.11965714949E-01  0.22299883935E-01  0.00000000000E+00 0.  1.
     999901    1    3    3    0    0  0.10217509921E+00  0.92305115978E-01 -0.15097810301E-01  0.89083552310E+00  0.88000000000E+00 0.  1.
        -11    1    4    4    0    0 -0.32066866958E-01 -0.31034395846E-01 -0.53328813895E-02  0.44945727571E-01  0.51100000000E-03 0.  1.
         11    1    4    4    0    0 -0.73910409637E-01 -0.42841126094E-01  0.84649767421E-02  0.85848865397E-01  0.51100000000E-03 0. -1.
</event>
<event>
 8    1  0.1074844E+005  0.1043930E+01  0.7957747E-01            NaN
         13   -1    0    0    0    0  0.00000000000E+00  0.00000000000E+00  0.74505805969E-08  0.10566000000E+00  0.10566000000E+00 0.  1.
     999900   -1    0    0    0    0 -0.00000000000E+00 -0.00000000000E+00 -0.74505805969E-08  0.93827000000E+00  0.93827000000E+00 0.  1.
     999902    2    1    2    0    0 -0.12360955860E-01 -0.17431544356E-01 -0.87636855044E-02  0.10208333736E+01  0.10205720565E+01 0.  0.
     999903    2    3    3    0    0  0.59010655462E-01 -0.98898969721E-01 -0.62404650845E-01  0.13257203734E+00  0.20438712459E-01 0.  0.
         14    1    1    2    0    0  0.12360955860E-01  0.17431544356E-01  0.87636855044E-02  0.23096626421E-01  0.00000000000E+00 0. -1.
     999901    1    3    3    0    0 -0.71371611322E-01  0.81467425365E-01  0.53640965341E-01  0.88826133624E+00  0.88000000000E+00 0.  1.
        -11    1    4    4    0    0  0.15183947419E-01 -0.36236635810E-01 -0.30379719678E-01  0.49667237921E-01  0.51100000000E-03 0. -1.
         11    1    4    4    0    0  0.43826708043E-01 -0.62662333911E-01 -0.32024931167E-01  0.82904799417E-01  0.51100000000E-03 0.  1.
</event>
<event>
 8    1  0.1074844E+005  0.1043930E+01  0.7957747E-01            NaN
         13   -1    0    0    0    0  0.00000000000E+00  0.00000000000E+00  0.74505805969E-08  0.10566000000E+00  0.10566000000E+00 0. -1.
     999900   -1    0    0    0    0 -0.00000000000E+00 -0.00000000000E+00 -0.74505805969E-08  0.93827000000E+00  0.93827000000E+00 0. -1.
     999902    2    1    2    0    0  0.16107088254E-01  0.17862520723E-01  0.15607156372E-02  0.10198272248E+01  0.10195423604E+01 0.  0.
     999903    2    3    3    0    0  0.46839640198E-02 -0.59479275187E-01 -0.11260279480E+00  0.12901548921E+00  0.20146547197E-01 0.  0.
         14    1    1    2    0    0 -0.16107088254E-01 -0.17862520723E-01 -0.15607156372E-02  0.24102775191E-01  0.00000000000E+00 0. -1.
     999901    1    3    3    0    0  0.11423124235E-01  0.77341795910E-01  0.11416351044E+00  0.89081173560E+00  0.88000000000E+00 0.  1.
        -11    1    4    4    0    0 -0.59546365505E-02 -0.32807319580E-01 -0.71251835470E-01  0.78669327526E-01  0.51100000000E-03 0. -1.
         11    1    4    4    0    0  0.10638600570E-01 -0.26671955607E-01 -0.41350959330E-01  0.50346161686E-01  0.51100000000E-03 0.  1.
</event>
<event>
 8    1  0.1074844E+005  0.1043930E+01  0.7957747E-01            NaN
         13   -1    0    0    0    0  0.00000000000E+00  0.00000000000E+00  0.74505805969E-08  0.10566000000E+00  0.10566000000E+00 0. -1.
     999900   -1    0    0    0    0 -0.00000000000E+00 -0.00000000000E+00 -0.74505805969E-08  0.93827000000E+00  0.93827000000E+00 0. -1.
     999902    2    1    2    0    0 -0.10622710189E-02 -0.17819608340E-01 -0.14860237445E-01  0.10207030002E+01  0.10204386906E+01 0.  0.
     999903    2    3    3    0    0  0.12407616346E+00  0.29786996298E-01  0.17311586413E-01  0.12999483095E+00  0.17799032608E-01 0.  0.
         14    1    1    2    0    0  0.10622710189E-02  0.17819608340E-01  0.14860237445E-01  0.23226999764E-01  0.00000000000E+00 0. -1.
     999901    1    3    3    0    0 -0.12513843448E+00 -0.47606604638E-01 -0.32171823857E-01  0.89070816929E+00  0.88000000000E+00 0.  1.
        -11    1    4    4    0    0  0.57243800750E-01  0.10668857852E-01  0.16309616667E-01  0.60472654721E-01  0.51100000000E-03 0. -1.
         11    1    4    4    0    0  0.66832362708E-01  0.19118138445E-01  0.10019697454E-02  0.69522176226E-01  0.51100000000E-03 0.  1.
</event>
<event>
 8    1  0.1074844E+005  0.1043930E+01  0.7957747E-01            NaN
         13   -1    0    0    0    0  0.00000000000E+00  0.00000000000E+00  0.74505805969E-08  0.10566000000E+00  0.10566000000E+00 0. -1.
     999900   -1    0    0    0    0 -0.00000000000E+00 -0.00000000000E+00 -0.74505805969E-08  0.93827000000E+00  0.93827000000E+00 0. -1.
     999902    2    1    2    0    0  0.10303839122E-01 -0.13871179160E-01  0.14334538600E-01  0.10214787704E+01  0.10212320112E+01 0.  0.
     999903    2    3    3    0    0  0.10880861398E+00  0.55925291410E-01 -0.43072898041E-01  0.13138307235E+00  0.20959113998E-01 0.  0.
         14    1    1    2    0    0 -0.10303839122E-01  0.13871179160E-01 -0.14334538600E-01  0.22451229562E-01  0.00000000000E+00 0.  1.
     999901    1    3    3    0    0 -0.98504774855E-01 -0.69796470570E-01  0.57407436641E-01  0.89009569809E+00  0.88000000000E+00 0.  1.
        -11    1    4    4    0    0  0.99080931500E-01  0.43189907820E-01 -0.37747462494E-01  0.11448812677E+00  0.51100000000E-03 0.  1.
         11    1    4    4    0    0  0.97276824768E-02  0.12735383590E-01 -0.53254355469E-02  0.16894945585E-01  0.51100000000E-03 0. -1.
</event>
<event>
 8    1  0.1074844E+005  0.1043930E+01  0.7957747E-01            NaN
         13   -1    0    0    0    0  0.00000000000E+00  0.00000000000E+00  0.74505805969E-08  0.10566000000E+00  0.10566000000E+00 0. -1.
     999900   -1    0    0    0    0 -0.00000000000E+00 -0.00000000000E+00 -0.74505805969E-08  0.93827000000E+00  0.93827000000E+00 0. -1.
     999902    2    1    2    0    0  0.18743164725E-02 -0.23004478346E-01  0.96685574210E-03  0.10208290499E+01  0.10205676338E+01 0.  0.
     999903    2    3    3    0    0 -0.46406762440E-02  0.91931349087E-01  0.88471812185E-01  0.12902761068E+00  0.18653523713E-01 0.  0.
         14    1    1    2    0    0 -0.18743164725E-02  0.23004478346E-01 -0.96685574210E-03  0.23100950115E-01  0.00000000000E+00 0.  1.
     999901    1    3    3    0    0  0.65149927164E-02 -0.11493582743E+00 -0.87504956442E-01  0.89180143920E+00  0.88000000000E+00 0.  1.
        -11    1    4    4    0    0 -0.50383573948E-02  0.36222255348E-01  0.23655108931E-01  0.43557572559E-01  0.51100000000E-03 0. -1.
         11    1    4    4    0    0  0.39768115078E-03  0.55709093738E-01  0.64816703254E-01  0.85470038125E-01  0.51100000000E-03 0.  1.
</event>
<event>
 8    1  0.1074844E+005  0.1043930E+01  0.7957747E-01            NaN
         13   -1    0    0    0    0  0.00000000000E+00  0.00000000000E+00  0.74505805969E-08  0.10566000000E+00  0.10566000000E+00 0. -1.
     999900   -1    0    0    0    0 -0.00000000000E+00 -0.00000000000E+00 -0.74505805969E-08  0.93827000000E+00  0.93827000000E+00 0. -1.
     999902    2    1    2    0    0 -0.16404691058E-02  0.39588896750E-02  0.23144803037E-01  0.10203918214E+01  0.10201202984E+01 0.  0.
     999903    2    3    3    0    0 -0.11442184478E-02  0.81053420642E-01 -0.95083195795E-01  0.12914456460E+00  0.32657896573E-01 0.  0.
         14    1    1    2    0    0  0.16404691058E-02 -0.39588896750E-02 -0.23144803037E-01  0.23538178646E-01  0.00000000000E+00 0.  1.
     999901    1    3    3    0    0 -0.49625065796E-03 -0.77094530967E-01  0.11822799883E+00  0.89124725676E+00  0.88000000000E+00 0.  1.
        -11    1    4    4    0    0  0.12336137256E-01  0.25663978961E-01 -0.45033719040E-01  0.53283365792E-01  0.51100000000E-03 0.  1.
         11    1    4    4    0    0 -0.13480355704E-01  0.55389441681E-01 -0.50049476754E-01  0.75861198804E-01  0.51100000000E-03 0. -1.
</event>
<event>
 8    1  0.1074844E+005  0.1043930E+01  0.7957747E-01            NaN
         13   -1    0    0    0    0  0.00000000000E+00  0.00000000000E+00  0.74505805969E-08  0.10566000000E+00  0.10566000000E+00 0.  1.
     999900   -1    0    0    0    0 -0.00000000000E+00 -0.00000000000E+00 -0.74505805969E-08  0.93827000000E+00  0.93827000000E+00 0. -1.
     999902    2    1    2    0    0 -0.17939760226E-01  0.12825378165E-01 -0.33519388761E-02  0.10216239287E+01  0.10213803850E+01 0.  0.
     999903    2    3    3    0    0 -0.25709287053E-01 -0.87784105187E-02  0.12731221830E+00  0.13167999160E+00  0.19829052608E-01 0.  0.
         14    1    1    2    0    0  0.17939760226E-01 -0.12825378165E-01  0.33519388761E-02  0.22306071288E-01  0.00000000000E+00 0.  1.
     999901    1    3    3    0    0  0.77695268266E-02  0.21603788684E-01 -0.13066415718E+00  0.88994393711E+00  0.88000000000E+00 0. -1.
        -11    1    4    4    0    0 -0.84995414065E-02  0.60271867034E-02  0.51227857823E-01  0.52279285782E-01  0.51100000000E-03 0. -1.
         11    1    4    4    0    0 -0.17209745646E-01 -0.14805597222E-01  0.76084360476E-01  0.79400705818E-01  0.51100000000E-03 0.  1.
</event>
<event>
 8    1  0.1074844E+005  0.1043930E+01  0.7957747E-01            NaN
         13   -1    0    0    0    0  0.00000000000E+00  0.00000000000E+00  0.74505805969E-08  0.10566000000E+00  0.10566000000E+00 0. -1.
     999900   -1    0    0    0    0 -0.00000000000E+00 -0.00000000000E+00 -0.74505805969E-08  0.93827000000E+00  0.93827000000E+00 0. -1.
     999902    2    1    2    0    0 -0.53346652320E-02  0.20141669720E-01  0.14120877226E-01  0.10187596864E+01  0.10184486997E+01 0.  0.
     999903    2    3    3    0    0  0.12611075679E+00  0.10587494061E-01 -0.11840506761E-01  0.12856691252E+00  0.19319300845E-01 0.  0.
         14    1    1    2    0    0  0.53346652320E-02 -0.20141669720E-01 -0.14120877226E-01  0.25170313583E-01  0.00000000000E+00 0.  1.
     999901    1    3    3    0    0 -0.13144542202E+00  0.95541756587E-02  0.25961383987E-01  0.89019277390E+00  0.88000000000E+00 0.  1.
        -11    1    4    4    0    0  0.56739311809E-01  0.11616545110E-01 -0.12178863201E-01  0.59185128662E-01  0.51100000000E-03 0.  1.
         11    1    4    4    0    0  0.69371444981E-01 -0.10290510491E-02  0.33835644007E-03  0.69381783855E-01  0.51100000000E-03 0. -1.
</event>
<event>
 8    1  0.1074844E+005  0.1043930E+01  0.7957747E-01            NaN
         13   -1    0    0    0    0  0.00000000000E+00  0.00000000000E+00  0.74505805969E-08  0.10566000000E+00  0.10566000000E+00 0. -1.
     999900   -1    0    0    0    0 -0.00000000000E+00 -0.00000000000E+00 -0.74505805969E-08  0.93827000000E+00  0.93827000000E+00 0. -1.
     999902    2    1    2    0    0 -0.53839067654E-03 -0.23410254376E-01 -0.51727595387E-02  0.10199490218E+01  0.10196670632E+01 0.  0.
     999903    2    3    3    0    0 -0.69138305135E-01  0.75254496984E-01  0.74659154112E-01  0.12820140287E+00  0.20451548868E-01 0.  0.
         14    1    1    2    0    0  0.53839067654E-03  0.23410254376E-01  0.51727595387E-02  0.23980978206E-01  0.00000000000E+00 0. -1.
     999901    1    3    3    0    0  0.68599914458E-01 -0.98664751360E-01 -0.79831913651E-01  0.89174761893E+00  0.88000000000E+00 0. -1.
        -11    1    4    4    0    0 -0.59590437893E-01  0.52088969071E-01  0.57420220976E-01  0.97783556312E-01  0.51100000000E-03 0.  1.
         11    1    4    4    0    0 -0.95478672421E-02  0.23165527913E-01  0.17238933137E-01  0.30417846555E-01  0.51100000000E-03 0. -1.
</event>
<event>
 8    1  0.1074844E+005  0.1043930E+01  0.7957747E-01            NaN
         13   -1    0    0    0    0  0.00000000000E+00  0.00000000000E+00  0.74505805969E-08  0.10566000000E+00  0.10566000000E+00 0.  1.
     999900   -1    0    0    0    0 -0.00000000000E+00 -0.00000000000E+00 -0.74505805969E-08  0.93827000000E+00  0.93827000000E+00 0. -1.
     999902    2    1    2    0    0 -0.47191947951E-02  0.65613719754E-02 -0.22246759543E-01  0.10202605954E+01  0.10199860008E+01 0.  0.
     999903    2    3    3    0    0  0.10667278735E+00 -0.53228137944E-01  0.45158808018E-01  0.12867410513E+00  0.17475387253E-01 0.  0.
         14    1    1    2    0    0  0.47191947951E-02 -0.65613719754E-02  0.22246759543E-01  0.23669404553E-01  0.00000000000E+00 0.  1.
     999901    1    3    3    0    0 -0.11139198214E+00  0.59789509919E-01 -0.67405567561E-01  0.89158649032E+00  0.88000000000E+00 0. -1.
        -11    1    4    4    0    0  0.34872934419E-01 -0.16730918407E-01  0.61073092811E-02  0.39161275942E-01  0.51100000000E-03 0. -1.
         11    1    4    4    0    0  0.71799852927E-01 -0.36497219537E-01  0.39051498736E-01  0.89512829185E-01  0.51100000000E-03 0.  1.
</event>
<event>
 8    1  0.1147845E+005  0.1043930E+01  0.7957747E-01            NaN
         13   -1    0    0    0    0  0.00000000000E+00  0.00000000000E+00  0.74505805969E-08  0.10566000000E+00  0.10566000000E+00 0.  1.
     999900   -1    0    0    0    0 -0.00000000000E+00 -0.00000000000E+00 -0.74505805969E-08  0.93827000000E+00  0.93827000000E+00 0.  1.
     999902    2    1    2    0    0 -0.14927789290E-01 -0.84501948543E-02  0.15022127437E-01  0.10211284869E+01  0.10208738795E+01 0.  0.
     999903    2    3    3    0    0 -0.12415298004E+00 -0.44086855744E-01 -0.61899070824E-02  0.13340664743E+00  0.20035102348E-01 0.  0.
         14    1    1    2    0    0  0.14927789290E-01  0.84501948543E-02 -0.15022127437E-01  0.22801513083E-01  0.00000000000E+00 0. -1.
     999901    1    3    3    0    0  0.10922519075E+00  0.35636660890E-01  0.21212034520E-01  0.88772183949E+00  0.88000000000E+00 0. -1.
        -11    1    4    4    0    0 -0.44227816122E-01 -0.25685457923E-01 -0.48590006372E-02  0.51378142004E-01  0.51100000000E-03 0.  1.
         11    1    4    4    0    0 -0.79925163919E-01 -0.18401397822E-01 -0.13309064453E-02  0.82028505425E-01  0.51100000000E-03 0. -1.
</event>
<event>
 8    1  0.1074844E+005  0.1043930E+01  0.7957747E-01            NaN
         13   -1    0    0    0    0  0.00000000000E+00  0.00000000000E+00  0.74505805969E-08  0.10566000000E+00  0.10566000000E+00 0.  1.
     999900   -1    0    0    0    0 -0.00000000000E+00 -0.00000000000E+00 -0.74505805969E-08  0.93827000000E+00  0.93827000000E+00 0.  1.
     999902    2    1    2    0    0  0.15080898837E-03  0.19653088221E-01  0.13196674156E-01  0.10202568331E+01  0.10199821502E+01 0.  0.
     999903    2    3    3    0    0  0.12696213271E+00 -0.32121467850E-02  0.23067900750E-01  0.13081803710E+00  0.21249229578E-01 0.  0.
         14    1    1    2    0    0 -0.15080898837E-03 -0.19653088221E-01 -0.13196674156E-01  0.23673166851E-01  0.00000000000E+00 0. -1.
     999901    1    3    3    0    0 -0.12681132372E+00  0.22865235006E-01 -0.98712265948E-02  0.88943879605E+00  0.88000000000E+00 0. -1.
        -11    1    4    4    0    0  0.77198757018E-01 -0.98687769950E-02  0.71996439579E-02  0.78160967488E-01  0.51100000000E-03 0. -1.
         11    1    4    4    0    0  0.49763375692E-01  0.66566302100E-02  0.15868256793E-01  0.52657069617E-01  0.51100000000E-03 0.  1.
</event>
<event>
 8    1  0.1074844E+005  0.1043930E+01  0.7957747E-01            NaN
         13   -1    0    0    0    0  0.00000000000E+00  0.00000000000E+00  0.74505805969E-08  0.10566000000E+00  0.10566000000E+00 0.  1.
     999900   -1    0    0    0    0 -0.00000000000E+00 -0.00000000000E+00 -0.74505805969E-08  0.93827000000E+00  0.93827000000E+00 0. -1.
     999902    2    1    2    0    0  0.86326105730E-02  0.69111662271E-02 -0.20614100345E-01  0.10205371097E+01  0.10202689670E+01 0.  0.
     999903    2    3    3    0    0 -0.12423945274E+00 -0.30601661968E-01 -0.50744590110E-02  0.12963662258E+00  0.20199020953E-01 0.  0.
         14    1    1    2    0    0 -0.86326105730E-02 -0.69111662271E-02  0.20614100345E-01  0.23392890308E-01  0.00000000000E+00 0.  1.
     999901    1    3    3    0    0  0.13287206331E+00  0.37512828195E-01 -0.15539641334E-01  0.89090048711E+00  0.88000000000E+00 0. -1.
        -11    1    4    4    0    0 -0.99660800585E-01 -0.17470095875E-01 -0.85842055415E-02  0.10154520732E+00  0.51100000000E-03 0. -1.
         11    1    4    4    0    0 -0.24578652152E-01 -0.13131566093E-01  0.35097465305E-02  0.28091415261E-01  0.51100000000E-03 0.  1.
</event>
<event>
 8    1  0.1074844E+005  0.1043930E+01  0.7957747E-01            NaN
         13   -1    0    0    0    0  0.00000000000E+00  0.00000000000E+00  0.74505805969E-08  0.10566000000E+00  0.10566000000E+00 0.  1.
     999900   -1    0    0    0    0 -0.00000000000E+00 -0.00000000000E+00 -0.74505805969E-08  0.93827000000E+00  0.93827000000E+00 0.  1.
     999902    2    1    2    0    0  0.17311328244E-01 -0.18750701458E-01 -0.28849205462E-02  0.10182474445E+01  0.10179235062E+01 0.  0.
     999903    2    3    3    0    0  0.65797636249E-01  0.45892606825E-01 -0.99264767007E-01  0.12930495244E+00  0.20756118622E-01 0.  0.
         14    1    1    2    0    0 -0.17311328244E-01  0.18750701458E-01  0.28849205462E-02  0.25682555506E-01  0.00000000000E+00 0.  1.
     999901    1    3    3    0    0 -0.48486308005E-01 -0.64643308283E-01  0.96379846461E-01  0.88894249205E+00  0.88000000000E+00 0. -1.
        -11    1    4    4    0    0  0.36125528025E-01  0.13672625408E-01 -0.39992167905E-01  0.55602419690E-01  0.51100000000E-03 0. -1.
         11    1    4    4    0    0  0.29672108225E-01  0.32219981416E-01 -0.59272599102E-01  0.73702532753E-01  0.51100000000E-03 0.  1.
</event>
<event>
 8    1  0.1074844E+005  0.1043930E+01  0.7957747E-01            NaN
         13   -1    0    0    0    0  0.00000000000E+00  0.00000000000E+00  0.74505805969E-08  0.10566000000E+00  0.10566000000E+00 0.  1.
     999900   -1    0    0    0    0 -0.00000000000E+00 -0.00000000000E+00 -0.74505805969E-08  0.93827000000E+00  0.93827000000E+00 0.  1.
     999902    2    1    2    0    0  0.62936700170E-02  0.14156358100E-01 -0.17064638053E-01  0.10208819062E+01  0.10206216986E+01 0.  0.
     999903    2    3    3    0    0  0.55872062045E-01 -0.26960919377E-01 -0.11590159513E+00  0.13300951020E+00  0.20242815005E-01 0.  0.
         14    1    1    2    0    0 -0.62936700170E-02 -0.14156358100E-01  0.17064638053E-01  0.23048093822E-01  0.00000000000E+00 0.  1.
     999901    1    3    3    0    0 -0.49578392028E-01  0.41117277477E-01  0.98836957073E-01  0.88787239598E+00  0.88000000000E+00 0. -1.
        -11    1    4    4    0    0  0.22489405751E-01 -0.22034854228E-01 -0.54349284031E-01  0.62812530339E-01  0.51100000000E-03 0.  1.
         11    1    4    4    0    0  0.33382656294E-01 -0.49260651490E-02 -0.61552311095E-01  0.70196979858E-01  0.51100000000E-03 0. -1.
</event>
<event>
 8    1  0.1074844E+005  0.1043930E+01  0.7957747E-01            NaN
         13   -1    0    0    0    0  0.00000000000E+00  0.00000000000E+00  0.74505805969E-08  0.10566000000E+00  0.10566000000E+00 0. -1.
     999900   -1    0    0    0    0 -0.00000000000E+00 -0.00000000000E+00 -0.74505805969E-08  0.93827000000E+00  0.93827000000E+00 0.  1.
     999902    2    1    2    0    0 -0.19502077034E-01 -0.11221204180E-01 -0.67946850041E-02  0.10204265071E+01  0.10201557932E+01 0.  0.
     999903    2    3    3    0    0  0.60153309144E-02 -0.10122395923E-01  0.12770679639E+00  0.12984074823E+00  0.20271826593E-01 0.  0.
         14    1    1    2    0    0  0.19502077034E-01  0.11221204180E-01  0.67946850041E-02  0.23503492851E-01  0.00000000000E+00 0. -1.
     999901    1    3    3    0    0 -0.25517407949E-01 -0.10988082562E-02 -0.13450148139E+00  0.89058575892E+00  0.88000000000E+00 0.  1.
        -11    1    4    4    0    0  0.11742213548E-02 -0.15839544272E-01  0.82958443285E-01  0.84466765013E-01  0.51100000000E-03 0.  1.
         11    1    4    4    0    0  0.48411095596E-02  0.57171483491E-02  0.44748353101E-01  0.45373983220E-01  0.51100000000E-03 0. -1.
</event>
<event>
 8    1  0.1074844E+005  0.1043930E+01  0.7957747E-01            NaN
         13   -1    0    0    0    0  0.00000000000E+00  0.00000000000E+00  0.74505805969E-08  0.10566000000E+00  0.10566000000E+00 0.  1.
     999900   -1    0    0    0    0 -0.00000000000E+00 -0.00000000000E+00 -0.74505805969E-08  0.93827000000E+00  0.93827000000E+00 0.  1.
     999902    2    1    2    0    0  0.15972552859E-01  0.68859134819E-02 -0.16597181083E-01  0.10198882723E+01  0.10196048663E+01 0.  0.
     999903    2    3    3    0    0 -0.13670227123E-01  0.21868147462E-01  0.12385546385E+00  0.12813151895E+00  0.20308107716E-01 0.  0.
         14    1    1    2    0    0 -0.15972552859E-01 -0.68859134819E-02  0.16597181083E-01  0.24041727667E-01  0.00000000000E+00 0.  1.
     999901    1    3    3    0    0  0.29642779982E-01 -0.14982233980E-01 -0.14045264493E+00  0.89175675339E+00  0.88000000000E+00 0.  1.
        -11    1    4    4    0    0 -0.11797801023E-01  0.24910093820E-01  0.91148396550E-01  0.95226005890E-01  0.51100000000E-03 0.  1.
         11    1    4    4    0    0 -0.18724261004E-02 -0.30419463584E-02  0.32707067301E-01  0.32905513057E-01  0.51100000000E-03 0. -1.
</event>
<event>
 8    1  0.1074844E+005  0.1043930E+01  0.7957747E-01            NaN
         13   -1    0    0    0    0  0.00000000000E+00  0.00000000000E+00  0.74505805969E-08  0.10566000000E+00  0.10566000000E+00 0.  1.
     999900   -1    0    0    0    0 -0.00000000000E+00 -0.00000000000E+00 -0.74505805969E-08  0.93827000000E+00  0.93827000000E+00 0.  1.
     999902    2    1    2    0    0 -0.27056383746E-01  0.56505586275E-02  0.20959929887E-01  0.10092414518E+01  0.10086451371E+01 0.  0.
     999903    2    3    3    0    0  0.73075201136E-01  0.91907441272E-01 -0.35479925976E-02  0.11903517103E+00  0.19230728217E-01 0.  0.
         14    1    1    2    0    0  0.27056383746E-01 -0.56505586275E-02 -0.20959929887E-01  0.34688548183E-01  0.00000000000E+00 0. -1.
     999901    1    3    3    0    0 -0.10013158488E+00 -0.86256882644E-01  0.24507922484E-01  0.89020628079E+00  0.88000000000E+00 0.  1.
        -11    1    4    4    0    0  0.38308681535E-01  0.34443581998E-01  0.26395896747E-02  0.51586277017E-01  0.51100000000E-03 0.  1.
         11    1    4    4    0    0  0.34766519600E-01  0.57463859274E-01 -0.61875822724E-02  0.67448894010E-01  0.51100000000E-03 0. -1.
</event>
<event>
 8    1  0.1074844E+005  0.1043930E+01  0.7957747E-01            NaN
         13   -1    0    0    0    0  0.00000000000E+00  0.00000000000E+00  0.74505805969E-08  0.10566000000E+00  0.10566000000E+00 0. -1.
     999900   -1    0    0    0    0 -0.00000000000E+00 -0.00000000000E+00 -0.74505805969E-08  0.93827000000E+00  0.93827000000E+00 0.  1.
     999902    2    1    2    0    0 -0.41780070346E-02  0.19995085826E-01 -0.13002071144E-01  0.10197160979E+01  0.10194285690E+01 0.  0.
     999903    2    3    3    0    0 -0.39750755136E-01  0.11800868291E+00  0.39533151084E-01  0.13200441320E+00  0.18871229236E-01 0.  0.
         14    1    1    2    0    0  0.41780070346E-02 -0.19995085826E-01  0.13002071144E-01  0.24213902081E-01  0.00000000000E+00 0.  1.
     999901    1    3    3    0    0  0.35572748101E-01 -0.98013597082E-01 -0.52535222228E-01  0.88771168472E+00  0.88000000000E+00 0.  1.
        -11    1    4    4    0    0 -0.30142408685E-01  0.99155602699E-01  0.25890299405E-01  0.10682212820E+00  0.51100000000E-03 0. -1.
         11    1    4    4    0    0 -0.96083464505E-02  0.18853080209E-01  0.13642851678E-01  0.25182285000E-01  0.51100000000E-03 0.  1.
</event>
<event>
 8    1  0.1074844E+005  0.1043930E+01  0.7957747E-01            NaN
         13   -1    0    0    0    0  0.00000000000E+00  0.00000000000E+00  0.74505805969E-08  0.10566000000E+00  0.10566000000E+00 0. -1.
     999900   -1    0    0    0    0 -0.00000000000E+00 -0.00000000000E+00 -0.74505805969E-08  0.93827000000E+00  0.93827000000E+00 0.  1.
     999902    2    1    2    0    0 -0.16815226216E-01 -0.68278057557E-02  0.14595906667E-01  0.10206402758E+01  0.10203745201E+01 0.  0.
     999903    2    3    3    0    0  0.64326517518E-01  0.62188828328E-01  0.93235502699E-01  0.13073496370E+00  0.19834831610E-01 0.  0.
         14    1    1    2    0    0  0.16815226216E-01  0.68278057557E-02 -0.14595906667E-01  0.23289724249E-01  0.00000000000E+00 0.  1.
     999901    1    3    3    0    0 -0.81141743734E-01 -0.69016634083E-01 -0.78639596032E-01  0.88990531205E+00  0.88000000000E+00 0. -1.
        -11    1    4    4    0    0  0.53702334689E-01  0.42075050388E-01  0.62740179160E-01  0.92686794195E-01  0.51100000000E-03 0.  1.
         11    1    4    4    0    0  0.10624182829E-01  0.20113777939E-01  0.30495323539E-01  0.38048169503E-01  0.51100000000E-03 0. -1.
</event>
<event>
 8    1  0.1074844E+005  0.1043930E+01  0.7957747E-01            NaN
         13   -1    0    0    0    0  0.00000000000E+00  0.00000000000E+00  0.74505805969E-08  0.10566000000E+00  0.10566000000E+00 0.  1.
     999900   -1    0    0    0    0 -0.00000000000E+00 -0.00000000000E+00 -0.74505805969E-08  0.93827000000E+00  0.93827000000E+00 0. -1.
     999902    2    1    2    0    0 -0.51065992033E-02  0.21727452535E-01  0.58054535726E-02  0.10208678483E+01  0.10206073196E+01 0.  0.
     999903    2    3    3    0    0  0.72084592348E-01 -0.99843705665E-01 -0.31561134318E-01  0.12838015179E+00  0.17899836863E-01 0.  0.
         14    1    1    2    0    0  0.51065992033E-02 -0.21727452535E-01 -0.58054535726E-02  0.23062151683E-01  0.00000000000E+00 0.  1.
     999901    1    3    3    0    0 -0.77191191552E-01  0.12157115820E+00  0.37366587890E-01  0.89248769653E+00  0.88000000000E+00 0.  1.
        -11    1    4    4    0    0  0.39427242138E-01 -0.67610088421E-01 -0.15696565816E-01  0.79826529289E-01  0.51100000000E-03 0.  1.
         11    1    4    4    0    0  0.32657350210E-01 -0.32233617243E-01 -0.15864568501E-01  0.48553622502E-01  0.51100000000E-03 0. -1.
</event>
<event>
 8    1  0.1074844E+005  0.1043930E+01  0.7957747E-01            NaN
         13   -1    0    0    0    0  0.00000000000E+00  0.00000000000E+00  0.74505805969E-08  0.10566000000E+00  0.10566000000E+00 0.  1.
     999900   -1    0    0    0    0 -0.00000000000E+00 -0.00000000000E+00 -0.74505805969E-08  0.93827000000E+00  0.93827000000E+00 0.  1.
     999902    2    1    2    0    0 -0.14999026084E-01  0.51268079989E-03 -0.18630407662E-01  0.10200066701E+01  0.10197260815E+01 0.  0.
     999903    2    3    3    0    0 -0.87314768436E-01  0.83526300795E-01 -0.50438527850E-01  0.13257634368E+00  0.20782928091E-01 0.  0.
         14    1    1    2    0    0  0.14999026084E-01 -0.51268079989E-03  0.18630407662E-01  0.23923329926E-01  0.00000000000E+00 0.  1.
     999901    1    3    3    0    0  0.72315742352E-01 -0.83013619995E-01  0.31808120187E-01  0.88743032640E+00  0.88000000000E+00 0. -1.
        -11    1    4    4    0    0 -0.11363690773E-01  0.26999288875E-02 -0.45621444064E-02  0.12549795479E-01  0.51100000000E-03 0. -1.
         11    1    4    4    0    0 -0.75951077663E-01  0.80826371907E-01 -0.45876383443E-01  0.12002654820E+00  0.51100000000E-03 0.  1.
</event>
<event>
 8    1  0.1074844E+005  0.1043930E+01  0.7957747E-01            NaN
         13   -1    0    0    0    0  0.00000000000E+00  0.00000000000E+00  0.74505805969E-08  0.10566000000E+00  0.10566000000E+00 0. -1.
     999900   -1    0    0    0    0 -0.00000000000E+00 -0.00000000000E+00 -0.74505805969E-08  0.93827000000E+00  0.93827000000E+00 0. -1.
     999902    2    1    2    0    0  0.12858127573E-01  0.14172441912E-01 -0.14703701893E-01  0.10197972753E+01  0.10195116940E+01 0.  0.
     999903    2    3    3    0    0 -0.97658523327E-01  0.43595998792E-02 -0.83479374039E-01  0.13016796196E+00  0.20462139196E-01 0.  0.
         14    1    1    2    0    0 -0.12858127573E-01 -0.14172441912E-01  0.14703701893E-01  0.24132724748E-01  0.00000000000E+00 0. -1.
     999901    1    3    3    0    0  0.11051665090E+00  0.98128420327E-02  0.68775672146E-01  0.88962931330E+00  0.88000000000E+00 0.  1.
        -11    1    4    4    0    0 -0.36569052990E-01 -0.75058404227E-02 -0.26433743840E-01  0.45745351802E-01  0.51100000000E-03 0. -1.
         11    1    4    4    0    0 -0.61089470337E-01  0.11865440302E-01 -0.57045630199E-01  0.84422610155E-01  0.51100000000E-03 0.  1.
</event>
<event>
 8    1  0.1074844E+005  0.1043930E+01  0.7957747E-01            NaN
         13   -1    0    0    0    0  0.00000000000E+00  0.00000000000E+00  0.74505805969E-08  0.10566000000E+00  0.10566000000E+00 0. -1.
     999900   -1    0    0    0    0 -0.00000000000E+00 -0.00000000000E+00 -0.74505805969E-08  0.93827000000E+00  0.93827000000E+00 0. -1.
     999902    2    1    2    0    0 -0.97760528016E-02 -0.18097206114E-01  0.10958391638E-01  0.10206240689E+01  0.10203579389E+01 0.  0.
     999903    2    3    3    0    0  0.97809851693E-01  0.25267325399E-02  0.84248397606E-01  0.13080863934E+00  0.20975131983E-01 0.  0.
         14    1    1    2    0    0  0.97760528016E-02  0.18097206114E-01 -0.10958391638E-01  0.23305931108E-01  0.00000000000E+00 0.  1.
     999901    1    3    3    0    0 -0.10758590449E+00 -0.20623938654E-01 -0.73290005967E-01  0.88981542955E+00  0.88000000000E+00 0. -1.
        -11    1    4    4    0    0  0.55765171862E-01 -0.54281017790E-02  0.57805282534E-01  0.80504226545E-01  0.51100000000E-03 0.  1.
         11    1    4    4    0    0  0.42044679831E-01  0.79548343189E-02  0.26443115071E-01  0.50304412796E-01  0.51100000000E-03 0. -1.
</event>
<event>
 8    1  0.1074844E+005  0.1043930E+01  0.7957747E-01            NaN
         13   -1    0    0    0    0  0.00000000000E+00  0.00000000000E+00  0.74505805969E-08  0.10566000000E+00  0.10566000000E+00 0. -1.
     999900   -1    0    0    0    0 -0.00000000000E+00 -0.00000000000E+00 -0.74505805969E-08  0.93827000000E+00  0.93827000000E+00 0. -1.
     999902    2    1    2    0    0 -0.39361407831E-02 -0.22250728423E-01  0.45418881499E-02  0.10208818576E+01  0.10206216490E+01 0.  0.
     999903    2    3    3    0    0 -0.10670639069E+00  0.20522180022E-01 -0.69884768094E-01  0.13075233157E+00  0.20121573313E-01 0.  0.
         14    1    1    2    0    0  0.39361407831E-02  0.22250728423E-01 -0.45418881499E-02  0.23048142389E-01  0.00000000000E+00 0. -1.
     999901    1    3    3    0    0  0.10277024991E+00 -0.42772908445E-01  0.74426656244E-01  0.89012952604E+00  0.88000000000E+00 0.  1.
        -11    1    4    4    0    0 -0.35679027010E-01 -0.48013367514E-03 -0.15738730965E-01  0.39002464924E-01  0.51100000000E-03 0. -1.
         11    1    4    4    0    0 -0.71027363684E-01  0.21002313697E-01 -0.54146037129E-01  0.91749866650E-01  0.51100000000E-03 0.  1.
</event>
<event>
 8    1  0.1074844E+005  0.1043930E+01  0.7957747E-01            NaN
         13   -1    0    0    0    0  0.00000000000E+00  0.00000000000E+00  0.74505805969E-08  0.10566000000E+00  0.10566000000E+00 0.  1.
     999900   -1    0    0    0    0 -0.00000000000E+00 -0.00000000000E+00 -0.74505805969E-08  0.93827000000E+00  0.93827000000E+00 0. -1.
     999902    2    1    2    0    0  0.33821650499E-02 -0.27869574439E-02 -0.24836570330E-01  0.10187097423E+01  0.10183975047E+01 0.  0.
     999903    2    3    3    0    0  0.16059276847E-01  0.11806891064E+00  0.41914945243E-01  0.12785475139E+00  0.19794109865E-01 0.  0.
         14    1    1    2    0    0 -0.33821650499E-02  0.27869574439E-02  0.24836570330E-01  0.25220257690E-01  0.00000000000E+00 0.  1.
     999901    1    3    3    0    0 -0.12677111797E-01 -0.12085586809E+00 -0.66751515572E-01  0.89085499092E+00  0.88000000000E+00 0. -1.
        -11    1    4    4    0    0  0.47061562514E-02  0.69519086141E-01  0.33397347218E-01  0.77270273499E-01  0.51100000000E-03 0.  1.
         11    1    4    4    0    0  0.11353120596E-01  0.48549824502E-01  0.85175980247E-02  0.50584477891E-01  0.51100000000E-03 0. -1.
</event>
<event>
 8    1  0.1074844E+005  0.1043930E+01  0.7957747E-01            NaN
         13   -1    0    0    0    0  0.00000000000E+00  0.00000000000E+00  0.74505805969E-08  0.10566000000E+00  0.10566000000E+00 0. -1.
     999900   -1    0    0    0    0 -0.00000000000E+00 -0.00000000000E+00 -0.74505805969E-08  0.93827000000E+00  0.93827000000E+00 0.  1.
     999902    2    1    2    0    0 -0.18578620544E-02 -0.22573462665E-01  0.35563751994E-02  0.10210027090E+01  0.10207452528E+01 0.  0.
     999903    2    3    3    0    0  0.38005973090E-02  0.80827696034E-01 -0.98548345112E-01  0.12906706575E+00  0.19974237202E-01 0.  0.
         14    1    1    2    0    0  0.18578620544E-02  0.22573462665E-01 -0.35563751994E-02  0.22927291001E-01  0.00000000000E+00 0. -1.
     999901    1    3    3    0    0 -0.56584593634E-02 -0.10340115870E+00  0.10210472031E+00  0.89193564325E+00  0.88000000000E+00 0. -1.
        -11    1    4    4    0    0 -0.72571363453E-02  0.49335190904E-01 -0.55977826530E-01  0.74969362232E-01  0.51100000000E-03 0. -1.
         11    1    4    4    0    0  0.11057733654E-01  0.31492505130E-01 -0.42570518582E-01  0.54097703522E-01  0.51100000000E-03 0.  1.
</event>
<event>
 8    1  0.1074844E+005  0.1043930E+01  0.7957747E-01            NaN
         13   -1    0    0    0    0  0.00000000000E+00  0.00000000000E+00  0.74505805969E-08  0.10566000000E+00  0.10566000000E+00 0.  1.
     999900   -1    0    0    0    0 -0.00000000000E+00 -0.00000000000E+00 -0.74505805969E-08  0.93827000000E+00  0.93827000000E+00 0. -1.
     999902    2    1    2    0    0  0.21650144787E-01 -0.48228112765E-02  0.83585655772E-02  0.10202265425E+01  0.10199511479E+01 0.  0.
     999903    2    3    3    0    0  0.40525662590E-01  0.86030193220E-01 -0.86848618064E-01  0.13024060925E+00  0.19401298028E-01 0.  0.
         14    1    1    2    0    0 -0.21650144787E-01  0.48228112765E-02 -0.83585655772E-02  0.23703457478E-01  0.00000000000E+00 0.  1.
     999901    1    3    3    0    0 -0.18875517804E-01 -0.90853004497E-01  0.95207183642E-01  0.88998593327E+00  0.88000000000E+00 0.  1.
        -11    1    4    4    0    0  0.41918305829E-01  0.76707857282E-01 -0.80733959728E-01  0.11899358431E+00  0.51100000000E-03 0. -1.
         11    1    4    4    0    0 -0.13926432384E-02  0.93223359385E-02 -0.61146583366E-02  0.11247024945E-01  0.51100000000E-03 0.  1.
</event>
<event>
 8    1  0.1074844E+005  0.1043930E+01  0.7957747E-01            NaN
         13   -1    0    0    0    0  0.00000000000E+00  0.00000000000E+00  0.74505805969E-08  0.10566000000E+00  0.10566000000E+00 0.  1.
     999900   -1    0    0    0    0 -0.00000000000E+00 -0.00000000000E+00 -0.74505805969E-08  0.93827000000E+00  0.93827000000E+00 0. -1.
     999902    2    1    2    0    0 -0.11797943111E-02 -0.45191338309E-02  0.21238251797E-01  0.10221842458E+01  0.10219529121E+01 0.  0.
     999903    2    3    3    0    0 -0.66453117975E-01 -0.68126462978E-01  0.93028077702E-01  0.13456930780E+00  0.19935985416E-01 0.  0.
         14    1    1    2    0    0  0.11797943111E-02  0.45191338309E-02 -0.21238251797E-01  0.21745754174E-01  0.00000000000E+00 0. -1.
     999901    1    3    3    0    0  0.65273323664E-01  0.63607329147E-01 -0.71789825905E-01  0.88761493803E+00  0.88000000000E+00 0. -1.
        -11    1    4    4    0    0 -0.58653384527E-01 -0.53982218558E-01  0.68006728132E-01  0.10478299303E+00  0.51100000000E-03 0.  1.
         11    1    4    4    0    0 -0.77997334476E-02 -0.14144244419E-01  0.25021349570E-01  0.29786314766E-01  0.51100000000E-03 0. -1.
</event>
<event>
 8    1  0.1074844E+005  0.1043930E+01  0.7957747E-01            NaN
         13   -1    0    0    0    0  0.00000000000E+00  0.00000000000E+00  0.74505805969E-08  0.10566000000E+00  0.10566000000E+00 0.  1.
     999900   -1    0    0    0    0 -0.00000000000E+00 -0.00000000000E+00 -0.74505805969E-08  0.93827000000E+00  0.93827000000E+00 0. -1.
     999902    2    1    2    0    0  0.22844403520E-01  0.26894164520E-02 -0.45494717144E-02  0.10204822405E+01  0.10202128237E+01 0.  0.
     999903    2    3    3    0    0  0.51016885096E-01  0.91109232902E-01 -0.78924812603E-01  0.13248255356E+00  0.20466706347E-01 0.  0.
         14    1    1    2    0    0 -0.22844403520E-01 -0.26894164520E-02  0.45494717144E-02  0.23447759507E-01  0.00000000000E+00 0. -1.
     999901    1    3    3    0    0 -0.28172481576E-01 -0.88419816450E-01  0.74375340888E-01  0.88799968693E+00  0.88000000000E+00 0.  1.
        -11    1    4    4    0    0  0.21847416770E-01  0.41409542635E-01 -0.48103171417E-01  0.67128504096E-01  0.51100000000E-03 0.  1.
         11    1    4    4    0    0  0.29169468327E-01  0.49699690267E-01 -0.30821641185E-01  0.65354049465E-01  0.51100000000E-03 0. -1.
</event>
<event>
 8    1  0.1074844E+005  0.1043930E+01  0.7957747E-01            NaN
         13   -1    0    0    0    0  0.00000000000E+00  0.00000000000E+00  0.74505805969E-08  0.10566000000E+00  0.10566000000E+00 0. -1.
     999900   -1    0    0    0    0 -0.00000000000E+00 -0.00000000000E+00 -0.74505805969E-08  0.93827000000E+00  0.93827000000E+00 0.  1.
     999902    2    1    2    0    0  0.21784985505E-01  0.71296799065E-02  0.47653665261E-02  0.10205178953E+01  0.10202493068E+01 0.  0.
     999903    2    3    3    0    0 -0.19277479185E-01 -0.64144303841E-01  0.11019147596E+00  0.13041634416E+00  0.19497398082E-01 0.  0.
         14    1    1    2    0    0 -0.21784985505E-01 -0.71296799065E-02 -0.47653665261E-02  0.23412104715E-01  0.00000000000E+00 0. -1.
     999901    1    3    3    0    0  0.41062464690E-01  0.71273983747E-01 -0.10542610943E+00  0.89010155112E+00  0.88000000000E+00 0.  1.
        -11    1    4    4    0    0 -0.17185854379E-01 -0.46795606037E-01  0.64685733557E-01  0.81668155250E-01  0.51100000000E-03 0.  1.
         11    1    4    4    0    0 -0.20916248056E-02 -0.17348697804E-01  0.45505742398E-01  0.48748188910E-01  0.51100000000E-03 0. -1.
</event>
<event>
 8    1  0.1074844E+005  0.1043930E+01  0.7957747E-01            NaN
         13   -1    0    0    0    0  0.00000000000E+00  0.00000000000E+00  0.74505805969E-08  0.10566000000E+00  0.10566000000E+00 0.  1.
     999900   -1    0    0    0    0 -0.00000000000E+00 -0.00000000000E+00 -0.74505805969E-08  0.93827000000E+00  0.93827000000E+00 0. -1.
     999902    2    1    2    0    0 -0.22736104114E-01  0.45849632103E-02 -0.40362255082E-02  0.10203876247E+01  0.10201160038E+01 0.  0.
     999903    2    3    3    0    0  0.11305749611E+00  0.42703154559E-01 -0.38138419407E-01  0.12850430387E+00  0.21289909394E-01 0.  0.
         14    1    1    2    0    0  0.22736104114E-01 -0.45849632103E-02  0.40362255082E-02  0.23542375290E-01  0.00000000000E+00 0.  1.
     999901    1    3    3    0    0 -0.13579360022E+00 -0.38118191348E-01  0.34102193899E-01  0.89188332084E+00  0.88000000000E+00 0. -1.
        -11    1    4    4    0    0  0.79582603116E-01  0.19556469357E-01 -0.27386699575E-01  0.86406820605E-01  0.51100000000E-03 0. -1.
         11    1    4    4    0    0  0.33474892990E-01  0.23146685201E-01 -0.10751719832E-01  0.42097483260E-01  0.51100000000E-03 0.  1.
</event>
<event>
 8    1  0.1074844E+005  0.1043930E+01  0.7957747E-01            NaN
         13   -1    0    0    0    0  0.00000000000E+00  0.00000000000E+00  0.74505805969E-08  0.10566000000E+00  0.10566000000E+00 0.  1.
     999900   -1    0    0    0    0 -0.00000000000E+00 -0.00000000000E+00 -0.74505805969E-08  0.93827000000E+00  0.93827000000E+00 0. -1.
     999902    2    1    2    0    0  0.19653126182E-01 -0.14732865200E-01  0.43996357153E-02  0.10189768543E+01  0.10186712768E+01 0.  0.
     999903    2    3    3    0    0  0.10981711461E+00  0.12517949285E-02  0.70195524470E-01  0.13178231355E+00  0.19437100015E-01 0.  0.
         14    1    1    2    0    0 -0.19653126182E-01  0.14732865200E-01 -0.43996357153E-02  0.24953145696E-01  0.00000000000E+00 0.  1.
     999901    1    3    3    0    0 -0.90163988428E-01 -0.15984660129E-01 -0.65795888754E-01  0.88719454076E+00  0.88000000000E+00 0. -1.
        -11    1    4    4    0    0  0.39469656994E-01 -0.88791153928E-03  0.36422302999E-01  0.53716733770E-01  0.51100000000E-03 0. -1.
         11    1    4    4    0    0  0.70347457615E-01  0.21397064678E-02  0.33773221470E-01  0.78065579779E-01  0.51100000000E-03 0.  1.
</event>
<event>
 8    1  0.1074844E+005  0.1043930E+01  0.7957747E-01            NaN
         13   -1    0    0    0    0  0.00000000000E+00  0.00000000000E+00  0.74505805969E-08  0.10566000000E+00  0.10566000000E+00 0. -1.
     999900   -1    0    0    0    0 -0.00000000000E+00 -0.00000000000E+00 -0.74505805969E-08  0.93827000000E+00  0.93827000000E+00 0. -1.
     999902    2    1    2    0    0 -0.76093689777E-02 -0.19638762997E-01  0.21459013379E-02  0.10227595394E+01  0.10225404085E+01 0.  0.
     999903    2    3    3    0    0 -0.64256654718E-01  0.90460156414E-01 -0.67325102546E-01  0.13138032303E+00  0.20400055726E-01 0.  0.
         14    1    1    2    0    0  0.76093689777E-02  0.19638762997E-01 -0.21459013379E-02  0.21170460573E-01  0.00000000000E+00 0.  1.
     999901    1    3    3    0    0  0.56647285740E-01 -0.11009891941E+00  0.69471003884E-01  0.89137921639E+00  0.88000000000E+00 0.  1.
        -11    1    4    4    0    0 -0.60196695447E-02  0.35058267377E-02 -0.95632951394E-02  0.11842507229E-01  0.51100000000E-03 0. -1.
         11    1    4    4    0    0 -0.58236985173E-01  0.86954329677E-01 -0.57761807407E-01  0.11953781581E+00  0.51100000000E-03 0.  1.
</event>
<event>
 8    1  0.1074844E+005  0.1043930E+01  0.7957747E-01            NaN
         13   -1    0    0    0    0  0.00000000000E+00  0.00000000000E+00  0.74505805969E-08  0.10566000000E+00  0.10566000000E+00 0. -1.
     999900   -1    0    0    0    0 -0.00000000000E+00 -0.00000000000E+00 -0.74505805969E-08  0.93827000000E+00  0.93827000000E+00 0.  1.
     999902    2    1    2    0    0 -0.11486354838E-01 -0.44045148097E-03  0.20996574358E-01  0.10199928640E+01  0.10197119476E+01 0.  0.
     999903    2    3    3    0    0  0.39977727401E-01 -0.16437065159E-01  0.12486506024E+00  0.13224678219E+00  0.54343658929E-02 0.  0.
         14    1    1    2    0    0  0.11486354838E-01  0.44045148097E-03 -0.20996574358E-01  0.23937135997E-01  0.00000000000E+00 0.  1.
     999901    1    3    3    0    0 -0.51464082239E-01  0.15996613678E-01 -0.10386848588E+00  0.88774608181E+00  0.88000000000E+00 0.  1.
        -11    1    4    4    0    0  0.64714558385E-02 -0.28086356252E-02  0.15108223502E-01  0.16681957713E-01  0.51100000000E-03 0.  1.
         11    1    4    4    0    0  0.33506271563E-01 -0.13628429534E-01  0.10975683674E+00  0.11556482448E+00  0.51100000000E-03 0. -1.
</event>
<event>
 8    1  0.1074844E+005  0.1043930E+01  0.7957747E-01            NaN
         13   -1    0    0    0    0  0.00000000000E+00  0.00000000000E+00  0.74505805969E-08  0.10566000000E+00  0.10566000000E+00 0.  1.
     999900   -1    0    0    0    0 -0.00000000000E+00 -0.00000000000E+00 -0.74505805969E-08  0.93827000000E+00  0.93827000000E+00 0. -1.
     999902    2    1    2    0    0 -0.22182666053E-01 -0.36056981676E-02  0.85313749244E-02  0.10198913625E+01  0.10196080302E+01 0.  0.
     999903    2    3    3    0    0  0.80204938630E-01 -0.35196484146E-01 -0.90510713852E-01  0.12787648896E+00  0.22103900785E-01 0.  0.
         14    1    1    2    0    0  0.22182666053E-01  0.36056981676E-02 -0.85313749244E-02  0.24038637453E-01  0.00000000000E+00 0.  1.
     999901    1    3    3    0    0 -0.10238760468E+00  0.31590785978E-01  0.99042088777E-01  0.89201487359E+00  0.88000000000E+00 0.  1.
        -11    1    4    4    0    0  0.67024930111E-01 -0.30189564588E-01 -0.62403630283E-01  0.96427305572E-01  0.51100000000E-03 0.  1.
         11    1    4    4    0    0  0.13180008519E-01 -0.50069195582E-02 -0.28107083569E-01  0.31449183388E-01  0.51100000000E-03 0. -1.
</event>
<event>
 8    1  0.1074844E+005  0.1043930E+01  0.7957747E-01            NaN
         13   -1    0    0    0    0  0.00000000000E+00  0.00000000000E+00  0.74505805969E-08  0.10566000000E+00  0.10566000000E+00 0.  1.
     999900   -1    0    0    0    0 -0.00000000000E+00 -0.00000000000E+00 -0.74505805969E-08  0.93827000000E+00  0.93827000000E+00 0.  1.
     999902    2    1    2    0    0 -0.13194020304E-01 -0.50722189668E-02  0.18315778853E-01  0.10207939387E+01  0.10205317183E+01 0.  0.
     999903    2    3    3    0    0 -0.20683157407E-01  0.61467375345E-01  0.11499881114E+00  0.13297007469E+00  0.15820334011E-01 0.  0.
         14    1    1    2    0    0  0.13194020304E-01  0.50722189668E-02 -0.18315778853E-01  0.23136061290E-01  0.00000000000E+00 0. -1.
     999901    1    3    3    0    0  0.74891371031E-02 -0.66539594312E-01 -0.96683032286E-01  0.88782386402E+00  0.88000000000E+00 0.  1.
        -11    1    4    4    0    0 -0.11848251051E-01  0.49559175189E-01  0.78713196535E-01  0.93768445269E-01  0.51100000000E-03 0.  1.
         11    1    4    4    0    0 -0.88349063560E-02  0.11908200156E-01  0.36285614604E-01  0.39201629424E-01  0.51100000000E-03 0. -1.
</event>
<event>
 8    1  0.1074844E+005  0.1043930E+01  0.7957747E-01            NaN
         13   -1    0    0    0    0  0.00000000000E+00  0.00000000000E+00  0.74505805969E-08  0.10566000000E+00  0.10566000000E+00 0. -1.
     999900   -1    0    0    0    0 -0.00000000000E+00 -0.00000000000E+00 -0.74505805969E-08  0.93827000000E+00  0.93827000000E+00 0. -1.
     999902    2    1    2    0    0 -0.17839459530E-01 -0.64944308272E-02 -0.13080896581E-01  0.10208749831E+01  0.10206146174E+01 0.  0.
     999903    2    3    3    0    0  0.77947578244E-01  0.72528383295E-01  0.68846506290E-01  0.12838864647E+00  0.20189397640E-01 0.  0.
         14    1    1    2    0    0  0.17839459530E-01  0.64944308272E-02  0.13080896581E-01  0.23055016883E-01  0.00000000000E+00 0. -1.
     999901    1    3    3    0    0 -0.95787037774E-01 -0.79022814122E-01 -0.81927402871E-01  0.89248633665E+00  0.88000000000E+00 0. -1.
        -11    1    4    4    0    0  0.30022642694E-01  0.15810409441E-01  0.18227130761E-01  0.38520352254E-01  0.51100000000E-03 0. -1.
         11    1    4    4    0    0  0.47924935549E-01  0.56717973855E-01  0.50619375529E-01  0.89868294217E-01  0.51100000000E-03 0.  1.
</event>
<event>
 8    1  0.1074844E+005  0.1043930E+01  0.7957747E-01            NaN
         13   -1    0    0    0    0  0.00000000000E+00  0.00000000000E+00  0.74505805969E-08  0.10566000000E+00  0.10566000000E+00 0.  1.
     999900   -1    0    0    0    0 -0.00000000000E+00 -0.00000000000E+00 -0.74505805969E-08  0.93827000000E+00  0.93827000000E+00 0. -1.
     999902    2    1    2    0    0  0.22312815458E-01 -0.67814411156E-02 -0.62732915016E-02  0.10197803859E+01  0.10194943999E+01 0.  0.
     999903    2    3    3    0    0 -0.10196578416E+00 -0.63881620351E-01 -0.40628811713E-01  0.12855319677E+00  0.19933426699E-01 0.  0.
         14    1    1    2    0    0 -0.22312815458E-01  0.67814411156E-02  0.62732915016E-02  0.24149614149E-01  0.00000000000E+00 0. -1.
     999901    1    3    3    0    0  0.12427859962E+00  0.57100179235E-01  0.34355520211E-01  0.89122718908E+00  0.88000000000E+00 0. -1.
        -11    1    4    4    0    0 -0.69183763984E-01 -0.34181021326E-01 -0.31681634869E-01  0.83418957839E-01  0.51100000000E-03 0.  1.
         11    1    4    4    0    0 -0.32782020177E-01 -0.29700599025E-01 -0.89471768439E-02  0.45134238930E-01  0.51100000000E-03 0. -1.
</event>
<event>
 8    1  0.1074844E+005  0.1043930E+01  0.7957747E-01            NaN
         13   -1    0    0    0    0  0.00000000000E+00  0.00000000000E+00  0.74505805969E-08  0.10566000000E+00  0.10566000000E+00 0.  1.
     999900   -1    0    0    0    0 -0.00000000000E+00 -0.00000000000E+00 -0.74505805969E-08  0.93827000000E+00  0.93827000000E+00 0. -1.
     999902    2    1    2    0    0 -0.18141703606E-02  0.90713535641E-02  0.21244920059E-01  0.10207583083E+01  0.10204952702E+01 0.  0.
     999903    2    3    3    0    0 -0.82603434370E-01 -0.88572711053E-01 -0.40979217332E-01  0.12950463405E+00  0.20584010134E-01 0.  0.
         14    1    1    2    0    0  0.18141703606E-02 -0.90713535641E-02 -0.21244920059E-01  0.23171691736E-01  0.00000000000E+00 0. -1.
     999901    1    3    3    0    0  0.80789264009E-01  0.97644064617E-01  0.62224137391E-01  0.89125367422E+00  0.88000000000E+00 0.  1.
        -11    1    4    4    0    0 -0.56741483922E-01 -0.72007425122E-01 -0.25784845293E-01  0.95235416931E-01  0.51100000000E-03 0.  1.
         11    1    4    4    0    0 -0.25861950448E-01 -0.16565285931E-01 -0.15194372039E-01  0.34269217114E-01  0.51100000000E-03 0. -1.
</event>
<event>
 8    1  0.1074844E+005  0.1043930E+01  0.7957747E-01            NaN
         13   -1    0    0    0    0  0.00000000000E+00  0.00000000000E+00  0.74505805969E-08  0.10566000000E+00  0.10566000000E+00 0.  1.
     999900   -1    0    0    0    0 -0.00000000000E+00 -0.00000000000E+00 -0.74505805969E-08  0.93827000000E+00  0.93827000000E+00 0.  1.
     999902    2    1    2    0    0 -0.21432204563E-01 -0.90950403580E-03  0.70121457677E-02  0.10213615092E+01  0.10211121367E+01 0.  0.
     999903    2    3    3    0    0 -0.64195522393E-01 -0.79099208877E-01 -0.82605774807E-01  0.13233186794E+00  0.17614178987E-01 0.  0.
         14    1    1    2    0    0  0.21432204563E-01  0.90950403580E-03 -0.70121457677E-02  0.22568490829E-01  0.00000000000E+00 0. -1.
     999901    1    3    3    0    0  0.42763317830E-01  0.78189704841E-01  0.89617920575E-01  0.88902964123E+00  0.88000000000E+00 0.  1.
        -11    1    4    4    0    0 -0.27121519976E-01 -0.39307781711E-01 -0.28509475105E-01  0.55621307434E-01  0.51100000000E-03 0.  1.
         11    1    4    4    0    0 -0.37074002417E-01 -0.39791427166E-01 -0.54096299702E-01  0.76710560509E-01  0.51100000000E-03 0. -1.
</event>
<event>
 8    1  0.1074844E+005  0.1043930E+01  0.7957747E-01            NaN
         13   -1    0    0    0    0  0.00000000000E+00  0.00000000000E+00  0.74505805969E-08  0.10566000000E+00  0.10566000000E+00 0. -1.
     999900   -1    0    0    0    0 -0.00000000000E+00 -0.00000000000E+00 -0.74505805969E-08  0.93827000000E+00  0.93827000000E+00 0. -1.
     999902    2    1    2    0    0  0.49303428280E-02 -0.94612886516E-02  0.21319645989E-01  0.10200898748E+01  0.10198112576E+01 0.  0.
     999903    2    3    3    0    0  0.85046231699E-01 -0.75796020498E-01 -0.59883131641E-01  0.13025126957E+00  0.20037602671E-01 0.  0.
         14    1    1    2    0    0 -0.49303428280E-02  0.94612886516E-02 -0.21319645989E-01  0.23840125177E-01  0.00000000000E+00 0.  1.
     999901    1    3    3    0    0 -0.80115888871E-01  0.66334731846E-01  0.81202777630E-01  0.88983860525E+00  0.88000000000E+00 0. -1.
        -11    1    4    4    0    0  0.22226493079E-02 -0.52181579548E-03 -0.51663959388E-02  0.56714398231E-02  0.51100000000E-03 0.  1.
         11    1    4    4    0    0  0.82823582391E-01 -0.75274204702E-01 -0.54716735702E-01  0.12457982975E+00  0.51100000000E-03 0. -1.
</event>
<event>
 8    1  0.1074844E+005  0.1043930E+01  0.7957747E-01            NaN
         13   -1    0    0    0    0  0.00000000000E+00  0.00000000000E+00  0.74505805969E-08  0.10566000000E+00  0.10566000000E+00 0. -1.
     999900   -1    0    0    0    0 -0.00000000000E+00 -0.00000000000E+00 -0.74505805969E-08  0.93827000000E+00  0.93827000000E+00 0.  1.
     999902    2    1    2    0    0  0.10066154511E-01  0.33516021214E-02  0.22181758408E-01  0.10193415655E+01  0.10190449628E+01 0.  0.
     999903    2    3    3    0    0 -0.74606732702E-01  0.17500671512E-01  0.10485731773E+00  0.13130725195E+00  0.19341645905E-01 0.  0.
         14    1    1    2    0    0 -0.10066154511E-01 -0.33516021214E-02 -0.22181758408E-01  0.24588434466E-01  0.00000000000E+00 0.  1.
     999901    1    3    3    0    0  0.84672887213E-01 -0.14149069390E-01 -0.82675559317E-01  0.88803431358E+00  0.88000000000E+00 0.  1.
        -11    1    4    4    0    0 -0.59719018682E-01  0.21414103702E-01  0.87822524574E-01  0.10834196774E+00  0.51100000000E-03 0.  1.
         11    1    4    4    0    0 -0.14887714020E-01 -0.39134321905E-02  0.17034793151E-01  0.22965284213E-01  0.51100000000E-03 0. -1.
</event>
<event>
 8    1  0.1074844E+005  0.1043930E+01  0.7957747E-01            NaN
         13   -1    0    0    0    0  0.00000000000E+00  0.00000000000E+00  0.74505805969E-08  0.10566000000E+00  0.10566000000E+00 0. -1.
     999900   -1    0    0    0    0 -0.00000000000E+00 -0.00000000000E+00 -0.74505805969E-08  0.93827000000E+00  0.93827000000E+00 0. -1.
     999902    2    1    2    0    0 -0.20918825196E-01 -0.41215733916E-02  0.10056885732E-01  0.10203561678E+01  0.10200838120E+01 0.  0.
     999903    2    3    3    0    0  0.29614059579E-01  0.87460567541E-01 -0.87638718309E-01  0.12879277013E+00  0.19511260639E-01 0.  0.
         14    1    1    2    0    0  0.20918825196E-01  0.41215733916E-02 -0.10056885732E-01  0.23573832218E-01  0.00000000000E+00 0.  1.
     999901    1    3    3    0    0 -0.50532884776E-01 -0.91582140933E-01  0.97695604041E-01  0.89156339765E+00  0.88000000000E+00 0. -1.
        -11    1    4    4    0    0  0.20272752900E-02  0.33297892541E-02 -0.11033667887E-01  0.11713252734E-01  0.51100000000E-03 0.  1.
         11    1    4    4    0    0  0.27586784290E-01  0.84130778287E-01 -0.76605050422E-01  0.11707951740E+00  0.51100000000E-03 0. -1.
</event>
<event>
 8    1  0.1074844E+005  0.1043930E+01  0.7957747E-01            NaN
         13   -1    0    0    0    0  0.00000000000E+00  0.00000000000E+00  0.74505805969E-08  0.10566000000E+00  0.10566000000E+00 0. -1.
     999900   -1    0    0    0    0 -0.00000000000E+00 -0.00000000000E+00 -0.74505805969E-08  0.93827000000E+00  0.93827000000E+00 0. -1.
     999902    2    1    2    0    0  0.42733873112E-02 -0.23172882333E-01 -0.40391167524E-02  0.10200227045E+01  0.10197424964E+01 0.  0.
     999903    2    3    3    0    0 -0.32353450228E-01 -0.81193884855E-01  0.96084416539E-01  0.13169130018E+00  0.21706928870E-01 0.  0.
         14    1    1    2    0    0 -0.42733873112E-02  0.23172882333E-01  0.40391167524E-02  0.23907295516E-01  0.00000000000E+00 0. -1.
     999901    1    3    3    0    0  0.36626837539E-01  0.58021002522E-01 -0.10012353329E+00  0.88833140431E+00  0.88000000000E+00 0. -1.
        -11    1    4    4    0    0 -0.15432751289E-01 -0.14287575727E-01  0.21820345929E-01  0.30309952986E-01  0.51100000000E-03 0. -1.
         11    1    4    4    0    0 -0.16920698939E-01 -0.66906309128E-01  0.74264070609E-01  0.10138134719E+00  0.51100000000E-03 0.  1.
</event>
<event>
 8    1  0.1074844E+005  0.1043930E+01  0.7957747E-01            NaN
         13   -1    0    0    0    0  0.00000000000E+00  0.00000000000E+00  0.74505805969E-08  0.10566000000E+00  0.10566000000E+00 0. -1.
     999900   -1    0    0    0    0 -0.00000000000E+00 -0.00000000000E+00 -0.74505805969E-08  0.93827000000E+00  0.93827000000E+00 0.  1.
     999902    2    1    2    0    0  0.72276918259E-02  0.13224341907E-01 -0.18252102374E-01  0.10202601460E+01  0.10199855408E+01 0.  0.
     999903    2    3    3    0    0 -0.12521661636E+00 -0.16038318904E-01 -0.24073028649E-01  0.12984918397E+00  0.18570707729E-01 0.  0.
         14    1    1    2    0    0 -0.72276918259E-02 -0.13224341907E-01  0.18252102374E-01  0.23669854015E-01  0.00000000000E+00 0. -1.
     999901    1    3    3    0    0  0.13244430818E+00  0.29262660812E-01  0.58209262750E-02  0.89041096201E+00  0.88000000000E+00 0.  1.
        -11    1    4    4    0    0 -0.66537516103E-01 -0.71931597524E-02 -0.22066422957E-01  0.70471063136E-01  0.51100000000E-03 0.  1.
         11    1    4    4    0    0 -0.58679100252E-01 -0.88451591520E-02 -0.20066056926E-02  0.59378120838E-01  0.51100000000E-03 0. -1.
</event>
<event>
 8    1  0.1074844E+005  0.1043930E+01  0.7957747E-01            NaN
         13   -1    0    0    0    0  0.00000000000E+00  0.00000000000E+00  0.74505805969E-08  0.10566000000E+00  0.10566000000E+00 0.  1.
     999900   -1    0    0    0    0 -0.00000000000E+00 -0.00000000000E+00 -0.74505805969E-08  0.93827000000E+00  0.93827000000E+00 0.  1.
     999902    2    1    2    0    0  0.83591810630E-02  0.17678356871E-01  0.13441522403E-01  0.10202008042E+01  0.10199248041E+01 0.  0.
     999903    2    3    3    0    0 -0.12236918112E+00  0.36210513878E-01 -0.14128727664E-01  0.12992362026E+00  0.19877332601E-01 0.  0.
         14    1    1    2    0    0 -0.83591810630E-02 -0.17678356871E-01 -0.13441522403E-01  0.23729195819E-01  0.00000000000E+00 0. -1.
     999901    1    3    3    0    0  0.13072836219E+00 -0.18532157007E-01  0.27570250067E-01  0.89027718392E+00  0.88000000000E+00 0.  1.
        -11    1    4    4    0    0 -0.63687894493E-01  0.18278910919E-01 -0.17291676874E-01  0.68480140913E-01  0.51100000000E-03 0. -1.
         11    1    4    4    0    0 -0.58681286632E-01  0.17931602959E-01  0.31629492103E-02  0.61443479346E-01  0.51100000000E-03 0.  1.
</event>
<event>
 8    1  0.1074844E+005  0.1043930E+01  0.7957747E-01            NaN
         13   -1    0    0    0    0  0.00000000000E+00  0.00000000000E+00  0.74505805969E-08  0.10566000000E+00  0.10566000000E+00 0. -1.
     999900   -1    0    0    0    0 -0.00000000000E+00 -0.00000000000E+00 -0.74505805969E-08  0.93827000000E+00  0.93827000000E+00 0.  1.
     999902    2    1    2    0    0  0.10198831721E-01  0.10694059454E-01 -0.18518098308E-01  0.10202382495E+01  0.10199631301E+01 0.  0.
     999903    2    3    3    0    0  0.30090398681E-01 -0.73870102228E-01 -0.10309803437E+00  0.13192493910E+00  0.20316514726E-01 0.  0.
         14    1    1    2    0    0 -0.10198831721E-01 -0.10694059454E-01  0.18518098308E-01  0.23691750484E-01  0.00000000000E+00 0. -1.
     999901    1    3    3    0    0 -0.19891566960E-01  0.84564161682E-01  0.84579936058E-01  0.88831331042E+00  0.88000000000E+00 0. -1.
        -11    1    4    4    0    0  0.16854217171E-01 -0.55255509588E-01 -0.85023033768E-01  0.10279306090E+00  0.51100000000E-03 0. -1.
         11    1    4    4    0    0  0.13236181510E-01 -0.18614592640E-01 -0.18075000599E-01  0.29131878205E-01  0.51100000000E-03 0.  1.
</event>
<event>
 8    1  0.1074844E+005  0.1043930E+01  0.7957747E-01            NaN
         13   -1    0    0    0    0  0.00000000000E+00  0.00000000000E+00  0.74505805969E-08  0.10566000000E+00  0.10566000000E+00 0. -1.
     999900   -1    0    0    0    0 -0.00000000000E+00 -0.00000000000E+00 -0.74505805969E-08  0.93827000000E+00  0.93827000000E+00 0.  1.
     999902    2    1    2    0    0  0.16041310750E-01 -0.16091740740E-01 -0.49615206324E-02  0.10206730772E+01  0.10204080782E+01 0.  0.
     999903    2    3    3    0    0  0.59420277801E-01  0.30647067353E-01  0.11050132743E+00  0.13084280112E+00  0.20959081328E-01 0.  0.
         14    1    1    2    0    0 -0.16041310750E-01  0.16091740740E-01  0.49615206324E-02  0.23256922789E-01  0.00000000000E+00 0.  1.
     999901    1    3    3    0    0 -0.43378967051E-01 -0.46738808093E-01 -0.11546284806E+00  0.88983027609E+00  0.88000000000E+00 0.  1.
        -11    1    4    4    0    0  0.14992386766E-01  0.17879023773E-01  0.44693102914E-01  0.50419894101E-01  0.51100000000E-03 0. -1.
         11    1    4    4    0    0  0.44427891035E-01  0.12768043579E-01  0.65808224516E-01  0.80422907020E-01  0.51100000000E-03 0.  1.
</event>
<event>
 8    1  0.1074844E+005  0.1043930E+01  0.7957747E-01            NaN
         13   -1    0    0    0    0  0.00000000000E+00  0.00000000000E+00  0.74505805969E-08  0.10566000000E+00  0.10566000000E+00 0. -1.
     999900   -1    0    0    0    0 -0.00000000000E+00 -0.00000000000E+00 -0.74505805969E-08  0.93827000000E+00  0.93827000000E+00 0. -1.
     999902    2    1    2    0    0 -0.17935716849E-01 -0.98316593237E-02 -0.10429595405E-01  0.10209707334E+01  0.10207125504E+01 0.  0.
     999903    2    3    3    0    0  0.63468783039E-01  0.29485302830E-01 -0.10701915676E+00  0.13108194286E+00  0.28839319105E-01 0.  0.
         14    1    1    2    0    0  0.17935716849E-01  0.98316593237E-02  0.10429595405E-01  0.22959266631E-01  0.00000000000E+00 0.  1.
     999901    1    3    3    0    0 -0.81404499888E-01 -0.39316962154E-01  0.96589561353E-01  0.88988879051E+00  0.88000000000E+00 0. -1.
        -11    1    4    4    0    0  0.22971061223E-01  0.13204780368E-01 -0.18298426838E-01  0.32204493848E-01  0.51100000000E-03 0. -1.
         11    1    4    4    0    0  0.40497721817E-01  0.16280522462E-01 -0.88720729920E-01  0.98877449009E-01  0.51100000000E-03 0.  1.
</event>
<event>
 8    1  0.1074844E+005  0.1043930E+01  0.7957747E-01            NaN
         13   -1    0    0    0    0  0.00000000000E+00  0.00000000000E+00  0.74505805969E-08  0.10566000000E+00  0.10566000000E+00 0.  1.
     999900   -1    0    0    0    0 -0.00000000000E+00 -0.00000000000E+00 -0.74505805969E-08  0.93827000000E+00  0.93827000000E+00 0. -1.
     999902    2    1    2    0    0  0.22954968068E-01 -0.72250919602E-02 -0.14877592124E-03  0.10198643679E+01  0.10195803913E+01 0.  0.
     999903    2    3    3    0    0 -0.12454214064E+00  0.12359622195E-01  0.97426836679E-02  0.12731924353E+00  0.21254760241E-01 0.  0.
         14    1    1    2    0    0 -0.22954968068E-01  0.72250919602E-02  0.14877592124E-03  0.24065632074E-01  0.00000000000E+00 0. -1.
     999901    1    3    3    0    0  0.14749710871E+00 -0.19584714155E-01 -0.98914595892E-02  0.89254512439E+00  0.88000000000E+00 0. -1.
        -11    1    4    4    0    0 -0.85480452153E-01  0.18324894311E-01  0.71770293484E-02  0.87718186957E-01  0.51100000000E-03 0. -1.
         11    1    4    4    0    0 -0.39061688487E-01 -0.59652721159E-02  0.25656543195E-02  0.39601056576E-01  0.51100000000E-03 0.  1.
</event>
<event>
 8    1  0.1074844E+005  0.1043930E+01  0.7957747E-01            NaN
         13   -1    0    0    0    0  0.00000000000E+00  0.00000000000E+00  0.74505805969E-08  0.10566000000E+00  0.10566000000E+00 0. -1.
     999900   -1    0    0    0    0 -0.00000000000E+00 -0.00000000000E+00 -0.74505805969E-08  0.93827000000E+00  0.93827000000E+00 0.  1.
     999902    2    1    2    0    0 -0.23783079206E-01 -0.20775310235E-02  0.37336316913E-02  0.10197661634E+01  0.10194798365E+01 0.  0.
     999903    2    3    3    0    0  0.34410295439E-01  0.10139034170E+00  0.69804222542E-01  0.12934076369E+00  0.19807418948E-01 0.  0.
         14    1    1    2    0    0  0.23783079206E-01  0.20775310235E-02 -0.37336316913E-02  0.24163836560E-01  0.00000000000E+00 0. -1.
     999901    1    3    3    0    0 -0.58193374645E-01 -0.10346787273E+00 -0.66070590851E-01  0.89042539975E+00  0.88000000000E+00 0. -1.
        -11    1    4    4    0    0  0.44313525516E-02  0.20594248443E-02  0.49913966527E-02  0.70038045140E-02  0.51100000000E-03 0. -1.
         11    1    4    4    0    0  0.29978942887E-01  0.99330916857E-01  0.64812825890E-01  0.12233695918E+00  0.51100000000E-03 0.  1.
</event>
<event>
 8    1  0.1074844E+005  0.1043930E+01  0.7957747E-01            NaN
         13   -1    0    0    0    0  0.00000000000E+00  0.00000000000E+00  0.74505805969E-08  0.10566000000E+00  0.10566000000E+00 0. -1.
     999900   -1    0    0    0    0 -0.00000000000E+00 -0.00000000000E+00 -0.74505805969E-08  0.93827000000E+00  0.93827000000E+00 0. -1.
     999902    2    1    2    0    0  0.91195007156E-02  0.10244962676E-01 -0.17786157164E-01  0.10214695472E+01  0.10212225829E+01 0.  0.
     999903    2    3    3    0    0  0.41841932049E-01 -0.18775346743E-01 -0.12396862825E+00  0.13400819421E+00  0.22061604720E-01 0.  0.
         14    1    1    2    0    0 -0.91195007156E-02 -0.10244962676E-01  0.17786157164E-01  0.22460452805E-01  0.00000000000E+00 0. -1.
     999901    1    3    3    0    0 -0.32722431333E-01  0.29020309419E-01  0.10618247109E+00  0.88746135298E+00  0.88000000000E+00 0.  1.
        -11    1    4    4    0    0  0.23795138619E-01 -0.21655032610E-01 -0.87143546943E-01  0.92894606700E-01  0.51100000000E-03 0.  1.
         11    1    4    4    0    0  0.18046793430E-01  0.28796858666E-02 -0.36825081309E-01  0.41113587513E-01  0.51100000000E-03 0. -1.
</event>
<event>
 7    1  0.1074844E+005  0.1043930E+01  0.7957747E-01            NaN
         13   -1    0    0    0    0  0.00000000000E+00  0.00000000000E+00  0.74505805969E-08  0.10566000000E+00  0.10566000000E+00 0.  1.
     999900   -1    0    0    0    0 -0.00000000000E+00 -0.00000000000E+00 -0.74505805969E-08  0.93827000000E+00  0.93827000000E+00 0.  1.
     999903    2    1    2    0    0 -0.95263915579E-01  0.24645409507E-01 -0.42956743026E-01  0.10918537332E+00  0.19838199387E-01 0.  0.
         14    1    1    2    0    0 -0.19297260617E-01 -0.41122944635E-01  0.10228133346E-01  0.46562813000E-01  0.00000000000E+00 0. -1.
     999901    1    1    2    0    0  0.11456117620E+00  0.16477535128E-01  0.32728609681E-01  0.88818181368E+00  0.88000000000E+00 0. -1.
        -11    1    3    3    0    0 -0.67348983912E-02  0.76821989904E-02 -0.48458408457E-02  0.11318936883E-01  0.51100000000E-03 0. -1.
         11    1    3    3    0    0 -0.88529017188E-01  0.16963210517E-01 -0.38110902181E-01  0.97866436439E-01  0.51100000000E-03 0.  1.
</event>
<event>
 8    1  0.1074844E+005  0.1043930E+01  0.7957747E-01            NaN
         13   -1    0    0    0    0  0.00000000000E+00  0.00000000000E+00  0.74505805969E-08  0.10566000000E+00  0.10566000000E+00 0. -1.
     999900   -1    0    0    0    0 -0.00000000000E+00 -0.00000000000E+00 -0.74505805969E-08  0.93827000000E+00  0.93827000000E+00 0.  1.
     999902    2    1    2    0    0 -0.20363998496E-01 -0.14173258748E-02  0.12254657576E-01  0.10201208026E+01  0.10198429164E+01 0.  0.
     999903    2    3    3    0    0 -0.86223317308E-01 -0.40100660653E-01  0.91486624236E-01  0.13326593580E+00  0.18640917326E-01 0.  0.
         14    1    1    2    0    0  0.20363998496E-01  0.14173258748E-02 -0.12254657576E-01  0.23809197376E-01  0.00000000000E+00 0.  1.
     999901    1    3    3    0    0  0.65859318812E-01  0.38683334778E-01 -0.79231966660E-01  0.88685486682E+00  0.88000000000E+00 0.  1.
        -11    1    4    4    0    0 -0.36762291759E-01 -0.85601458958E-02  0.42447513199E-01  0.56804882633E-01  0.51100000000E-03 0. -1.
         11    1    4    4    0    0 -0.49461025550E-01 -0.31540514757E-01  0.49039111037E-01  0.76461053170E-01  0.51100000000E-03 0.  1.
</event>
<event>
 8    1  0.1074844E+005  0.1043930E+01  0.7957747E-01            NaN
         13   -1    0    0    0    0  0.00000000000E+00  0.00000000000E+00  0.74505805969E-08  0.10566000000E+00  0.10566000000E+00 0.  1.
     999900   -1    0    0    0    0 -0.00000000000E+00 -0.00000000000E+00 -0.74505805969E-08  0.93827000000E+00  0.93827000000E+00 0. -1.
     999902    2    1    2    0    0 -0.21818765309E-01  0.72862609209E-02 -0.24557157737E-02  0.10207960713E+01  0.10205338997E+01 0.  0.
     999903    2    3    3    0    0 -0.66972437953E-01  0.40932328266E-01  0.10436185625E+00  0.13255009989E+00  0.22745746814E-01 0.  0.
         14    1    1    2    0    0  0.21818765309E-01 -0.72862609209E-02  0.24557157737E-02  0.23133928714E-01  0.00000000000E+00 0.  1.
     999901    1    3    3    0    0  0.45153672644E-01 -0.33646067345E-01 -0.10681757203E+00  0.88824597139E+00  0.88000000000E+00 0. -1.
        -11    1    4    4    0    0 -0.38166164695E-01  0.16785868757E-01  0.38700365652E-01  0.56889374579E-01  0.51100000000E-03 0.  1.
         11    1    4    4    0    0 -0.28806273258E-01  0.24146459509E-01  0.65661490603E-01  0.75660725314E-01  0.51100000000E-03 0. -1.
</event>
<event>
 8    1  0.1074844E+005  0.1043930E+01  0.7957747E-01            NaN
         13   -1    0    0    0    0  0.00000000000E+00  0.00000000000E+00  0.74505805969E-08  0.10566000000E+00  0.10566000000E+00 0.  1.
     999900   -1    0    0    0    0 -0.00000000000E+00 -0.00000000000E+00 -0.74505805969E-08  0.93827000000E+00  0.93827000000E+00 0.  1.
     999902    2    1    2    0    0 -0.12844589155E-01  0.19096404485E-01 -0.44368549240E-02  0.10204919579E+01  0.10202227670E+01 0.  0.
     999903    2    3    3    0    0  0.60756126559E-01 -0.10565225303E+00  0.33249994991E-01  0.12785564253E+00  0.19692579162E-01 0.  0.
         14    1    1    2    0    0  0.12844589155E-01 -0.19096404485E-01  0.44368549240E-02  0.23438042077E-01  0.00000000000E+00 0.  1.
     999901    1    3    3    0    0 -0.73600715714E-01  0.12474865752E+00 -0.37686849915E-01  0.89263631540E+00  0.88000000000E+00 0.  1.
        -11    1    4    4    0    0  0.27962523924E-01 -0.41624651900E-01  0.43749671996E-02  0.50338015942E-01  0.51100000000E-03 0.  1.
         11    1    4    4    0    0  0.32793602636E-01 -0.64027601131E-01  0.28875027792E-01  0.77517626585E-01  0.51100000000E-03 0. -1.
</event>
<event>
 8    1  0.1074844E+005  0.1043930E+01  0.7957747E-01            NaN
         13   -1    0    0    0    0  0.00000000000E+00  0.00000000000E+00  0.74505805969E-08  0.10566000000E+00  0.10566000000E+00 0. -1.
     999900   -1    0    0    0    0 -0.00000000000E+00 -0.00000000000E+00 -0.74505805969E-08  0.93827000000E+00  0.93827000000E+00 0.  1.
     999902    2    1    2    0    0 -0.43276703618E-02  0.22927125166E-01  0.42325180062E-03  0.10205941704E+01  0.10203273493E+01 0.  0.
     999903    2    3    3    0    0 -0.12447725311E+00  0.25575173496E-01  0.33373768495E-01  0.13181485534E+00  0.10614689042E-01 0.  0.
         14    1    1    2    0    0  0.43276703618E-02 -0.22927125166E-01 -0.42325180062E-03  0.23335829559E-01  0.00000000000E+00 0.  1.
     999901    1    3    3    0    0  0.12014958275E+00 -0.26480483299E-02 -0.32950516694E-01  0.88877931510E+00  0.88000000000E+00 0.  1.
        -11    1    4    4    0    0 -0.69616510016E-01  0.15009032748E-01  0.24061561562E-01  0.75172796919E-01  0.51100000000E-03 0.  1.
         11    1    4    4    0    0 -0.54860743098E-01  0.10566140748E-01  0.93122069330E-02  0.56642058424E-01  0.51100000000E-03 0. -1.
</event>
<event>
 8    1  0.1074844E+005  0.1043930E+01  0.7957747E-01            NaN
         13   -1    0    0    0    0  0.00000000000E+00  0.00000000000E+00  0.74505805969E-08  0.10566000000E+00  0.10566000000E+00 0.  1.
     999900   -1    0    0    0    0 -0.00000000000E+00 -0.00000000000E+00 -0.74505805969E-08  0.93827000000E+00  0.93827000000E+00 0.  1.
     999902    2    1    2    0    0 -0.20234830994E-01  0.15519079590E-03  0.12440698656E-01  0.10201761908E+01  0.10198996111E+01 0.  0.
     999903    2    3    3    0    0 -0.43260850674E-01 -0.72761096324E-01 -0.96853009020E-01  0.13012445237E+00  0.19651702425E-01 0.  0.
         14    1    1    2    0    0  0.20234830994E-01 -0.15519079590E-03 -0.12440698656E-01  0.23753809223E-01  0.00000000000E+00 0.  1.
     999901    1    3    3    0    0  0.23026019680E-01  0.72916287120E-01  0.10929370768E+00  0.89005173841E+00  0.88000000000E+00 0. -1.
        -11    1    4    4    0    0 -0.17241871895E-01 -0.34102823318E-01 -0.57959141431E-01  0.69424836342E-01  0.51100000000E-03 0. -1.
         11    1    4    4    0    0 -0.26018978779E-01 -0.38658273006E-01 -0.38893867589E-01  0.60699616025E-01  0.51100000000E-03 0.  1.
</event>
<event>
 8    1  0.1074844E+005  0.1043930E+01  0.7957747E-01            NaN
         13   -1    0    0    0    0  0.00000000000E+00  0.00000000000E+00  0.74505805969E-08  0.10566000000E+00  0.10566000000E+00 0. -1.
     999900   -1    0    0    0    0 -0.00000000000E+00 -0.00000000000E+00 -0.74505805969E-08  0.93827000000E+00  0.93827000000E+00 0. -1.
     999902    2    1    2    0    0  0.19374909865E-01  0.15876366266E-01  0.27961025602E-02  0.10187255494E+01  0.10184137081E+01 0.  0.
     999903    2    3    3    0    0 -0.10893431617E+00  0.62455689974E-01  0.19784731312E-01  0.12803957539E+00  0.15339453175E-01 0.  0.
         14    1    1    2    0    0 -0.19374909865E-01 -0.15876366266E-01 -0.27961025602E-02  0.25204450552E-01  0.00000000000E+00 0.  1.
     999901    1    3    3    0    0  0.12830922603E+00 -0.46579323708E-01 -0.16988628752E-01  0.89068597406E+00  0.88000000000E+00 0. -1.
        -11    1    4    4    0    0 -0.51696858754E-01  0.36933012531E-01  0.14316298618E-01  0.65129333997E-01  0.51100000000E-03 0.  1.
         11    1    4    4    0    0 -0.57237457411E-01  0.25522677443E-01  0.54684326939E-02  0.62910241391E-01  0.51100000000E-03 0. -1.
</event>
<event>
 8    1  0.1074844E+005  0.1043930E+01  0.7957747E-01            NaN
         13   -1    0    0    0    0  0.00000000000E+00  0.00000000000E+00  0.74505805969E-08  0.10566000000E+00  0.10566000000E+00 0.  1.
     999900   -1    0    0    0    0 -0.00000000000E+00 -0.00000000000E+00 -0.74505805969E-08  0.93827000000E+00  0.93827000000E+00 0. -1.
     999902    2    1    2    0    0  0.55664778334E-02  0.23063430183E-01 -0.51093826665E-03  0.10201988276E+01  0.10199227810E+01 0.  0.
     999903    2    3    3    0    0 -0.46260064444E-01  0.10654675125E+00  0.60716690956E-01  0.13261543545E+00  0.20202311625E-01 0.  0.
         14    1    1    2    0    0 -0.55664778334E-02 -0.23063430183E-01  0.51093826665E-03  0.23731172436E-01  0.00000000000E+00 0.  1.
     999901    1    3    3    0    0  0.51826542278E-01 -0.83483321062E-01 -0.61227629222E-01  0.88758339212E+00  0.88000000000E+00 0. -1.
        -11    1    4    4    0    0 -0.10861536568E-01  0.34282196946E-01  0.28687183482E-01  0.46004973874E-01  0.51100000000E-03 0. -1.
         11    1    4    4    0    0 -0.35398527876E-01  0.72264554300E-01  0.32029507474E-01  0.86610461573E-01  0.51100000000E-03 0.  1.
</event>
<event>
 8    1  0.1074844E+005  0.1043930E+01  0.7957747E-01            NaN
         13   -1    0    0    0    0  0.00000000000E+00  0.00000000000E+00  0.74505805969E-08  0.10566000000E+00  0.10566000000E+00 0. -1.
     999900   -1    0    0    0    0 -0.00000000000E+00 -0.00000000000E+00 -0.74505805969E-08  0.93827000000E+00  0.93827000000E+00 0. -1.
     999902    2    1    2    0    0 -0.21150961898E-01  0.98846565652E-02  0.50448994519E-02  0.10200444262E+01  0.10197647331E+01 0.  0.
     999903    2    3    3    0    0 -0.41509669666E-01 -0.93456058736E-01 -0.77673595173E-01  0.12991177892E+00  0.19667112784E-01 0.  0.
         14    1    1    2    0    0  0.21150961898E-01 -0.98846565652E-02 -0.50448994519E-02  0.23885573787E-01  0.00000000000E+00 0. -1.
     999901    1    3    3    0    0  0.20358707768E-01  0.10334071530E+00  0.82718494625E-01  0.89013264729E+00  0.88000000000E+00 0.  1.
        -11    1    4    4    0    0 -0.32398340362E-01 -0.83922073551E-01 -0.61200771232E-01  0.10880423892E+00  0.51100000000E-03 0. -1.
         11    1    4    4    0    0 -0.91113293044E-02 -0.95339851857E-02 -0.16472823941E-01  0.21107539999E-01  0.51100000000E-03 0.  1.
</event>
<event>
 8    1  0.1074844E+005  0.1043930E+01  0.7957747E-01            NaN
         13   -1    0    0    0    0  0.00000000000E+00  0.00000000000E+00  0.74505805969E-08  0.10566000000E+00  0.10566000000E+00 0.  1.
     999900   -1    0    0    0    0 -0.00000000000E+00 -0.00000000000E+00 -0.74505805969E-08  0.93827000000E+00  0.93827000000E+00 0.  1.
     999902    2    1    2    0    0  0.13779175385E-01  0.17286734097E-01  0.89719989238E-02  0.10200722211E+01  0.10197931862E+01 0.  0.
     999903    2    3    3    0    0 -0.44091622480E-01 -0.71294739666E-01  0.96492719507E-01  0.12942325361E+00  0.20310651874E-01 0.  0.
         14    1    1    2    0    0 -0.13779175385E-01 -0.17286734097E-01 -0.89719989238E-02  0.23857778914E-01  0.00000000000E+00 0. -1.
     999901    1    3    3    0    0  0.57870797865E-01  0.88581473763E-01 -0.87520720583E-01  0.89064896748E+00  0.88000000000E+00 0.  1.
        -11    1    4    4    0    0 -0.83874714472E-02 -0.21143191064E-01  0.39198887446E-01  0.45323262279E-01  0.51100000000E-03 0. -1.
         11    1    4    4    0    0 -0.35704151033E-01 -0.50151548602E-01  0.57293832061E-01  0.84099991328E-01  0.51100000000E-03 0.  1.
</event>
<event>
 8    1  0.1074844E+005  0.1043930E+01  0.7957747E-01            NaN
         13   -1    0    0    0    0  0.00000000000E+00  0.00000000000E+00  0.74505805969E-08  0.10566000000E+00  0.10566000000E+00 0.  1.
     999900   -1    0    0    0    0 -0.00000000000E+00 -0.00000000000E+00 -0.74505805969E-08  0.93827000000E+00  0.93827000000E+00 0. -1.
     999902    2    1    2    0    0  0.12224672995E-01  0.82274666239E-02  0.18870061169E-01  0.10199881320E+01  0.10197071032E+01 0.  0.
     999903    2    3    3    0    0  0.33118340430E-01  0.10580807061E+00 -0.65438104565E-01  0.13034416585E+00  0.20378512330E-01 0.  0.
         14    1    1    2    0    0 -0.12224672995E-01 -0.82274666239E-02 -0.18870061169E-01  0.23941868044E-01  0.00000000000E+00 0. -1.
     999901    1    3    3    0    0 -0.20893667435E-01 -0.97580603983E-01  0.84308165734E-01  0.88964396610E+00  0.88000000000E+00 0. -1.
        -11    1    4    4    0    0  0.20332552639E-01  0.52759106488E-01 -0.22299204974E-01  0.60782001264E-01  0.51100000000E-03 0.  1.
         11    1    4    4    0    0  0.12785787791E-01  0.53048964119E-01 -0.43138899591E-01  0.69562164590E-01  0.51100000000E-03 0. -1.
</event>
<event>
 8    1  0.1074844E+005  0.1043930E+01  0.7957747E-01            NaN
         13   -1    0    0    0    0  0.00000000000E+00  0.00000000000E+00  0.74505805969E-08  0.10566000000E+00  0.10566000000E+00 0.  1.
     999900   -1    0    0    0    0 -0.00000000000E+00 -0.00000000000E+00 -0.74505805969E-08  0.93827000000E+00  0.93827000000E+00 0.  1.
     999902    2    1    2    0    0 -0.22133783113E-01  0.83439064999E-02  0.29330602141E-05  0.10202757163E+01  0.10200014765E+01 0.  0.
     999903    2    3    3    0    0 -0.10470332229E+00  0.79445732749E-01 -0.97240189863E-02  0.13350189386E+00  0.21302323098E-01 0.  0.
         14    1    1    2    0    0  0.22133783113E-01 -0.83439064999E-02 -0.29330602141E-05  0.23654283739E-01  0.00000000000E+00 0. -1.
     999901    1    3    3    0    0  0.82569539175E-01 -0.71101826249E-01  0.97269520465E-02  0.88677382240E+00  0.88000000000E+00 0. -1.
        -11    1    4    4    0    0 -0.27774425846E-01  0.33481192232E-01 -0.44231202315E-02  0.43729098755E-01  0.51100000000E-03 0.  1.
         11    1    4    4    0    0 -0.76928896443E-01  0.45964540517E-01 -0.53008987548E-02  0.89772795108E-01  0.51100000000E-03 0. -1.
</event>
<event>
 8    1  0.1275949E+005  0.1043930E+01  0.7957747E-01            NaN
         13   -1    0    0    0    0  0.00000000000E+00  0.00000000000E+00  0.74505805969E-08  0.10566000000E+00  0.10566000000E+00 0. -1.
     999900   -1    0    0    0    0 -0.00000000000E+00 -0.00000000000E+00 -0.74505805969E-08  0.93827000000E+00  0.93827000000E+00 0.  1.
     999902    2    1    2    0    0 -0.94251945325E-02  0.77805201141E-02 -0.20558477148E-01  0.10200130234E+01  0.10197325856E+01 0.  0.
     999903    2    3    3    0    0 -0.11412439086E+00 -0.58307286212E-01  0.21776183073E-01  0.13033794606E+00  0.94689925085E-02 0.  0.
         14    1    1    2    0    0  0.94251945325E-02 -0.77805201141E-02  0.20558477148E-01  0.23916976562E-01  0.00000000000E+00 0. -1.
     999901    1    3    3    0    0  0.10469919633E+00  0.66087806326E-01 -0.42334660222E-01  0.88967507738E+00  0.88000000000E+00 0.  1.
        -11    1    4    4    0    0 -0.66086941958E-01 -0.31335335619E-01  0.16599858205E-01  0.75001357115E-01  0.51100000000E-03 0. -1.
         11    1    4    4    0    0 -0.48037448900E-01 -0.26971950592E-01  0.51763248679E-02  0.55336588942E-01  0.51100000000E-03 0.  1.
</event>
<event>
 8    1  0.1074844E+005  0.1043930E+01  0.7957747E-01            NaN
         13   -1    0    0    0    0  0.00000000000E+00  0.00000000000E+00  0.74505805969E-08  0.10566000000E+00  0.10566000000E+00 0. -1.
     999900   -1    0    0    0    0 -0.00000000000E+00 -0.00000000000E+00 -0.74505805969E-08  0.93827000000E+00  0.93827000000E+00 0. -1.
     999902    2    1    2    0    0  0.14203132699E-01 -0.18285832819E-01  0.25405469184E-03  0.10207747586E+01  0.10205120982E+01 0.  0.
     999903    2    3    3    0    0 -0.41190569175E-01  0.11407145346E+00  0.37123655491E-01  0.12839239610E+00  0.19936953070E-01 0.  0.
         14    1    1    2    0    0 -0.14203132699E-01  0.18285832819E-01 -0.25405469184E-03  0.23155241397E-01  0.00000000000E+00 0.  1.
     999901    1    3    3    0    0  0.55393701874E-01 -0.13235728627E+00 -0.36869600799E-01  0.89238236250E+00  0.88000000000E+00 0. -1.
        -11    1    4    4    0    0 -0.13053054825E-02  0.26325523513E-01  0.10678803896E-01  0.28443540291E-01  0.51100000000E-03 0.  1.
         11    1    4    4    0    0 -0.39885263692E-01  0.87745929942E-01  0.26444851595E-01  0.99948855812E-01  0.51100000000E-03 0. -1.
</event>
<event>
 8    1  0.1074844E+005  0.1043930E+01  0.7957747E-01            NaN
         13   -1    0    0    0    0  0.00000000000E+00  0.00000000000E+00  0.74505805969E-08  0.10566000000E+00  0.10566000000E+00 0. -1.
     999900   -1    0    0    0    0 -0.00000000000E+00 -0.00000000000E+00 -0.74505805969E-08  0.93827000000E+00  0.93827000000E+00 0.  1.
     999902    2    1    2    0    0 -0.46416662670E-02 -0.40717354234E-02  0.23636362898E-01  0.10195004739E+01  0.10192077386E+01 0.  0.
     999903    2    3    3    0    0  0.61024177591E-01 -0.21150762247E-01 -0.10768649127E+00  0.12717240180E+00  0.20127950312E-01 0.  0.
         14    1    1    2    0    0  0.46416662670E-02  0.40717354234E-02 -0.23636362898E-01  0.24429526113E-01  0.00000000000E+00 0.  1.
     999901    1    3    3    0    0 -0.65665843858E-01  0.17079026824E-01  0.13132285417E+00  0.89232807209E+00  0.88000000000E+00 0. -1.
        -11    1    4    4    0    0  0.42914728778E-01 -0.10521668028E-01 -0.55675782432E-01  0.71080470698E-01  0.51100000000E-03 0. -1.
         11    1    4    4    0    0  0.18109448813E-01 -0.10629094219E-01 -0.52010708836E-01  0.56091931103E-01  0.51100000000E-03 0.  1.
</event>
<event>
 8    1  0.1074844E+005  0.1043930E+01  0.7957747E-01            NaN
         13   -1    0    0    0    0  0.00000000000E+00  0.00000000000E+00  0.74505805969E-08  0.10566000000E+00  0.10566000000E+00 0.  1.
     999900   -1    0    0    0    0 -0.00000000000E+00 -0.00000000000E+00 -0.74505805969E-08  0.93827000000E+00  0.93827000000E+00 0. -1.
     999902    2    1    2    0    0  0.13380951508E-01  0.59550677177E-02  0.20044266943E-01  0.10191049052E+01  0.10188024943E+01 0.  0.
     999903    2    3    3    0    0 -0.53793622501E-01  0.47100230371E-02  0.11782685159E+00  0.13114352800E+00  0.19987992470E-01 0.  0.
         14    1    1    2    0    0 -0.13380951508E-01 -0.59550677177E-02 -0.20044266943E-01  0.24825094805E-01  0.00000000000E+00 0. -1.
     999901    1    3    3    0    0  0.67174574009E-01  0.12450446806E-02 -0.97782584643E-01  0.88796137719E+00  0.88000000000E+00 0. -1.
        -11    1    4    4    0    0 -0.19690658158E-01  0.11077678553E-01  0.52970669427E-01  0.57589842172E-01  0.51100000000E-03 0.  1.
         11    1    4    4    0    0 -0.34102964344E-01 -0.63676555164E-02  0.64856182159E-01  0.73553685829E-01  0.51100000000E-03 0. -1.
</event>
<event>
 8    1  0.1074844E+005  0.1043930E+01  0.7957747E-01            NaN
         13   -1    0    0    0    0  0.00000000000E+00  0.00000000000E+00  0.74505805969E-08  0.10566000000E+00  0.10566000000E+00 0. -1.
     999900   -1    0    0    0    0 -0.00000000000E+00 -0.00000000000E+00 -0.74505805969E-08  0.93827000000E+00  0.93827000000E+00 0.  1.
     999902    2    1    2    0    0  0.14854241278E-01  0.16884642069E-01  0.10646551392E-01  0.10190485073E+01  0.10187447038E+01 0.  0.
     999903    2    3    3    0    0  0.34612582472E-02 -0.12277339900E-01  0.12846472696E+00  0.13064468936E+00  0.20053313996E-01 0.  0.
         14    1    1    2    0    0 -0.14854241278E-01 -0.16884642069E-01 -0.10646551392E-01  0.24881492686E-01  0.00000000000E+00 0.  1.
     999901    1    3    3    0    0  0.11392983030E-01  0.29161981969E-01 -0.11781817557E+00  0.88840381795E+00  0.88000000000E+00 0.  1.
        -11    1    4    4    0    0  0.26577459074E-02  0.51282764253E-02  0.45534403639E-01  0.45902133591E-01  0.51100000000E-03 0. -1.
         11    1    4    4    0    0  0.80351233974E-03 -0.17405616325E-01  0.82930323321E-01  0.84742555773E-01  0.51100000000E-03 0.  1.
</event>
<event>
 8    1  0.1074844E+005  0.1043930E+01  0.7957747E-01            NaN
         13   -1    0    0    0    0  0.00000000000E+00  0.00000000000E+00  0.74505805969E-08  0.10566000000E+00  0.10566000000E+00 0.  1.
     999900   -1    0    0    0    0 -0.00000000000E+00 -0.00000000000E+00 -0.74505805969E-08  0.93827000000E+00  0.93827000000E+00 0. -1.
     999902    2    1    2    0    0  0.87299373858E-02  0.41938314700E-02  0.21649204665E-01  0.10202131686E+01  0.10199374595E+01 0.  0.
     999903    2    3    3    0    0 -0.87488954555E-01  0.38015406803E-02  0.96593446947E-01  0.13180173885E+00  0.19303768789E-01 0.  0.
         14    1    1    2    0    0 -0.87299373858E-02 -0.41938314700E-02 -0.21649204665E-01  0.23716831403E-01  0.00000000000E+00 0. -1.
     999901    1    3    3    0    0  0.96218891941E-01  0.39229078971E-03 -0.74944242282E-01  0.88841142975E+00  0.88000000000E+00 0. -1.
        -11    1    4    4    0    0 -0.35082629534E-01  0.82173325652E-02  0.29629958467E-01  0.46653092172E-01  0.51100000000E-03 0.  1.
         11    1    4    4    0    0 -0.52406325022E-01 -0.44157918849E-02  0.66963488480E-01  0.85148646675E-01  0.51100000000E-03 0. -1.
</event>
<event>
 8    1  0.1074844E+005  0.1043930E+01  0.7957747E-01            NaN
         13   -1    0    0    0    0  0.00000000000E+00  0.00000000000E+00  0.74505805969E-08  0.10566000000E+00  0.10566000000E+00 0.  1.
     999900   -1    0    0    0    0 -0.00000000000E+00 -0.00000000000E+00 -0.74505805969E-08  0.93827000000E+00  0.93827000000E+00 0.  1.
     999902    2    1    2    0    0  0.10374191455E-01 -0.94143216042E-02 -0.17743080154E-01  0.10213231384E+01  0.10210729077E+01 0.  0.
     999903    2    3    3    0    0 -0.83347955732E-01  0.27328055037E-01  0.91795779779E-01  0.12883638499E+00  0.21877947697E-01 0.  0.
         14    1    1    2    0    0 -0.10374191455E-01  0.94143216042E-02  0.17743080154E-01  0.22606861634E-01  0.00000000000E+00 0.  1.
     999901    1    3    3    0    0  0.93722147187E-01 -0.36742376641E-01 -0.10953885993E+00  0.89248675338E+00  0.88000000000E+00 0.  1.
        -11    1    4    4    0    0 -0.70016760863E-01  0.14589201279E-01  0.77811359540E-01  0.10568850642E+00  0.51100000000E-03 0. -1.
         11    1    4    4    0    0 -0.13331194869E-01  0.12738853758E-01  0.13984420240E-01  0.23147878567E-01  0.51100000000E-03 0.  1.
</event>
<event>
 8    1  0.1074844E+005  0.1043930E+01  0.7957747E-01            NaN
         13   -1    0    0    0    0  0.00000000000E+00  0.00000000000E+00  0.74505805969E-08  0.10566000000E+00  0.10566000000E+00 0. -1.
     999900   -1    0    0    0    0 -0.00000000000E+00 -0.00000000000E+00 -0.74505805969E-08  0.93827000000E+00  0.93827000000E+00 0.  1.
     999902    2    1    2    0    0  0.10387994495E-02  0.49809550170E-02  0.22790652824E-01  0.10205782790E+01  0.10203110902E+01 0.  0.
     999903    2    3    3    0    0  0.81632215055E-01  0.73954569784E-01 -0.65284119592E-01  0.12984272694E+00  0.21541136055E-01 0.  0.
         14    1    1    2    0    0 -0.10387994495E-02 -0.49809550170E-02 -0.22790652824E-01  0.23351720993E-01  0.00000000000E+00 0.  1.
     999901    1    3    3    0    0 -0.80593415606E-01 -0.68973614767E-01  0.88074772416E-01  0.89073555206E+00  0.88000000000E+00 0. -1.
        -11    1    4    4    0    0  0.64609442234E-01  0.60986980647E-01 -0.61621561361E-01  0.10812617528E+00  0.51100000000E-03 0.  1.
         11    1    4    4    0    0  0.17022772821E-01  0.12967589137E-01 -0.36625582308E-02  0.21716551667E-01  0.51100000000E-03 0. -1.
</event>
<event>
 8    1  0.1074844E+005  0.1043930E+01  0.7957747E-01            NaN
         13   -1    0    0    0    0  0.00000000000E+00  0.00000000000E+00  0.74505805969E-08  0.10566000000E+00  0.10566000000E+00 0. -1.
     999900   -1    0    0    0    0 -0.00000000000E+00 -0.00000000000E+00 -0.74505805969E-08  0.93827000000E+00  0.93827000000E+00 0. -1.
     999902    2    1    2    0    0 -0.76079380554E-03  0.15938679456E-01  0.17373014582E-01  0.10203409783E+01  0.10200682673E+01 0.  0.
     999903    2    3    3    0    0  0.74719774473E-01  0.10388297611E+00  0.31880011235E-01  0.13262369871E+00  0.14070995719E-01 0.  0.
         14    1    1    2    0    0  0.76079380554E-03 -0.15938679456E-01 -0.17373014582E-01  0.23589021720E-01  0.00000000000E+00 0.  1.
     999901    1    3    3    0    0 -0.75480568279E-01 -0.87944296650E-01 -0.14506996653E-01  0.88771727957E+00  0.88000000000E+00 0.  1.
        -11    1    4    4    0    0  0.35220756839E-01  0.37576447240E-01  0.10976048194E-01  0.52661426628E-01  0.51100000000E-03 0.  1.
         11    1    4    4    0    0  0.39499017634E-01  0.66306528866E-01  0.20903963041E-01  0.79962272080E-01  0.51100000000E-03 0. -1.
</event>
<event>
 8    1  0.1074844E+005  0.1043930E+01  0.7957747E-01            NaN
         13   -1    0    0    0    0  0.00000000000E+00  0.00000000000E+00  0.74505805969E-08  0.10566000000E+00  0.10566000000E+00 0. -1.
     999900   -1    0    0    0    0 -0.00000000000E+00 -0.00000000000E+00 -0.74505805969E-08  0.93827000000E+00  0.93827000000E+00 0.  1.
     999902    2    1    2    0    0  0.17115641080E-01 -0.17268086600E-01  0.23474954923E-02  0.10195037289E+01  0.10192110726E+01 0.  0.
     999903    2    3    3    0    0  0.10794757665E+00  0.10294679133E-01  0.71877245134E-01  0.13167236392E+00  0.20312885788E-01 0.  0.
         14    1    1    2    0    0 -0.17115641080E-01  0.17268086600E-01 -0.23474954923E-02  0.24426271093E-01  0.00000000000E+00 0. -1.
     999901    1    3    3    0    0 -0.90831935568E-01 -0.27562765733E-01 -0.69529749642E-01  0.88783136499E+00  0.88000000000E+00 0.  1.
        -11    1    4    4    0    0  0.19724286169E-01  0.69446249423E-02  0.21616995812E-01  0.30080407401E-01  0.51100000000E-03 0.  1.
         11    1    4    4    0    0  0.88223290479E-01  0.33500541907E-02  0.50260249322E-01  0.10159195652E+00  0.51100000000E-03 0. -1.
</event>
<event>
 8    1  0.1074844E+005  0.1043930E+01  0.7957747E-01            NaN
         13   -1    0    0    0    0  0.00000000000E+00  0.00000000000E+00  0.74505805969E-08  0.10566000000E+00  0.10566000000E+00 0. -1.
     999900   -1    0    0    0    0 -0.00000000000E+00 -0.00000000000E+00 -0.74505805969E-08  0.93827000000E+00  0.93827000000E+00 0.  1.
     999902    2    1    2    0    0 -0.25816568809E-02  0.26397627634E-02 -0.22512308418E-01  0.10211169044E+01  0.10208620353E+01 0.  0.
     999903    2    3    3    0    0 -0.85895603033E-01  0.95914980924E-01  0.18338513604E-01  0.13133588102E+00  0.18305036883E-01 0.  0.
         14    1    1    2    0    0  0.25816568809E-02 -0.26397627634E-02  0.22512308418E-01  0.22813095581E-01  0.00000000000E+00 0. -1.
     999901    1    3    3    0    0  0.83313946152E-01 -0.93275218161E-01 -0.40850822022E-01  0.88978102340E+00  0.88000000000E+00 0.  1.
        -11    1    4    4    0    0 -0.78296842193E-01  0.77736244957E-01  0.15117181064E-01  0.11136475907E+00  0.51100000000E-03 0.  1.
         11    1    4    4    0    0 -0.75987608393E-02  0.18178735967E-01  0.32213325396E-02  0.19971121951E-01  0.51100000000E-03 0. -1.
</event>
<event>
 8    1  0.1074844E+005  0.1043930E+01  0.7957747E-01            NaN
         13   -1    0    0    0    0  0.00000000000E+00  0.00000000000E+00  0.74505805969E-08  0.10566000000E+00  0.10566000000E+00 0. -1.
     999900   -1    0    0    0    0 -0.00000000000E+00 -0.00000000000E+00 -0.74505805969E-08  0.93827000000E+00  0.93827000000E+00 0. -1.
     999902    2    1    2    0    0 -0.11674639750E-01 -0.19987325000E-01  0.35030287875E-02  0.10205192848E+01  0.10202507286E+01 0.  0.
     999903    2    3    3    0    0 -0.46792648678E-01  0.21897430062E-01  0.11812011959E+00  0.13140473385E+00  0.25412438179E-01 0.  0.
         14    1    1    2    0    0  0.11674639750E-01  0.19987325000E-01 -0.35030287875E-02  0.23410715167E-01  0.00000000000E+00 0.  1.
     999901    1    3    3    0    0  0.35118008929E-01 -0.41884755062E-01 -0.11461709080E+00  0.88911455098E+00  0.88000000000E+00 0. -1.
        -11    1    4    4    0    0 -0.12888960909E-01 -0.43602515317E-02  0.40466027280E-01  0.42695404806E-01  0.51100000000E-03 0.  1.
         11    1    4    4    0    0 -0.33903687769E-01  0.26257681594E-01  0.77654092309E-01  0.88709329049E-01  0.51100000000E-03 0. -1.
</event>
<event>
 8    1  0.1074844E+005  0.1043930E+01  0.7957747E-01            NaN
         13   -1    0    0    0    0  0.00000000000E+00  0.00000000000E+00  0.74505805969E-08  0.10566000000E+00  0.10566000000E+00 0.  1.
     999900   -1    0    0    0    0 -0.00000000000E+00 -0.00000000000E+00 -0.74505805969E-08  0.93827000000E+00  0.93827000000E+00 0.  1.
     999902    2    1    2    0    0 -0.16656431480E-01 -0.12252920714E-01 -0.28310883058E-02  0.10230593068E+01  0.10228464006E+01 0.  0.
     999903    2    3    3    0    0  0.11689972054E+00  0.51285296650E-01  0.18036958356E-01  0.13047327382E+00  0.20055348455E-01 0.  0.
         14    1    1    2    0    0  0.16656431480E-01  0.12252920714E-01  0.28310883058E-02  0.20870693248E-01  0.00000000000E+00 0. -1.
     999901    1    3    3    0    0 -0.13355615202E+00 -0.63538217365E-01 -0.20868046662E-01  0.89258603293E+00  0.88000000000E+00 0. -1.
        -11    1    4    4    0    0  0.57036912633E-01  0.17170034689E-01  0.15369639797E-01  0.61518342325E-01  0.51100000000E-03 0. -1.
         11    1    4    4    0    0  0.59862807903E-01  0.34115261961E-01  0.26673185596E-02  0.68954931498E-01  0.51100000000E-03 0.  1.
</event>
<event>
 8    1  0.1074844E+005  0.1043930E+01  0.7957747E-01            NaN
         13   -1    0    0    0    0  0.00000000000E+00  0.00000000000E+00  0.74505805969E-08  0.10566000000E+00  0.10566000000E+00 0. -1.
     999900   -1    0    0    0    0 -0.00000000000E+00 -0.00000000000E+00 -0.74505805969E-08  0.93827000000E+00  0.93827000000E+00 0. -1.
     999902    2    1    2    0    0 -0.56492267268E-02  0.82250221867E-02  0.21645484081E-01  0.10200953250E+01  0.10198168366E+01 0.  0.
     999903    2    3    3    0    0  0.90679737492E-01  0.88471995582E-01 -0.16691778708E-01  0.13038267934E+00  0.25902100309E-01 0.  0.
         14    1    1    2    0    0  0.56492267268E-02 -0.82250221867E-02 -0.21645484081E-01  0.23834675028E-01  0.00000000000E+00 0.  1.
     999901    1    3    3    0    0 -0.96328964219E-01 -0.80246973395E-01  0.38337262789E-01  0.88971264564E+00  0.88000000000E+00 0.  1.
        -11    1    4    4    0    0  0.79299688993E-01  0.87151286696E-01 -0.14717848978E-01  0.11874621529E+00  0.51100000000E-03 0.  1.
         11    1    4    4    0    0  0.11380048499E-01  0.13207088854E-02 -0.19739297294E-02  0.11636464041E-01  0.51100000000E-03 0. -1.
</event>
<event>
 8    1  0.1074844E+005  0.1043930E+01  0.7957747E-01            NaN
         13   -1    0    0    0    0  0.00000000000E+00  0.00000000000E+00  0.74505805969E-08  0.10566000000E+00  0.10566000000E+00 0. -1.
     999900   -1    0    0    0    0 -0.00000000000E+00 -0.00000000000E+00 -0.74505805969E-08  0.93827000000E+00  0.93827000000E+00 0.  1.
     999902    2    1    2    0    0 -0.39184565676E-02 -0.64718729798E-02  0.22061112100E-01  0.10206076479E+01  0.10203411384E+01 0.  0.
     999903    2    3    3    0    0  0.29294505395E-01  0.40634828651E-02 -0.12288664221E+00  0.12806972372E+00  0.20640914759E-01 0.  0.
         14    1    1    2    0    0  0.39184565676E-02  0.64718729798E-02 -0.22061112100E-01  0.23322352129E-01  0.00000000000E+00 0.  1.
     999901    1    3    3    0    0 -0.33212961963E-01 -0.10535355845E-01  0.14494775431E+00  0.89253792415E+00  0.88000000000E+00 0. -1.
        -11    1    4    4    0    0  0.17524430531E-01  0.28629690280E-02 -0.10579744258E+00  0.10727843322E+00  0.51100000000E-03 0. -1.
         11    1    4    4    0    0  0.11770074864E-01  0.12005138372E-02 -0.17089199627E-01  0.20791290500E-01  0.51100000000E-03 0.  1.
</event>
<event>
 8    1  0.1074844E+005  0.1043930E+01  0.7957747E-01            NaN
         13   -1    0    0    0    0  0.00000000000E+00  0.00000000000E+00  0.74505805969E-08  0.10566000000E+00  0.10566000000E+00 0. -1.
     999900   -1    0    0    0    0 -0.00000000000E+00 -0.00000000000E+00 -0.74505805969E-08  0.93827000000E+00  0.93827000000E+00 0. -1.
     999902    2    1    2    0    0  0.92767797809E-02  0.18567906601E-01 -0.95246796880E-02  0.10210926332E+01  0.10208372154E+01 0.  0.
     999903    2    3    3    0    0 -0.81160811040E-01 -0.52300081156E-01 -0.85127748348E-01  0.13040915772E+00  0.20915045807E-01 0.  0.
         14    1    1    2    0    0 -0.92767797809E-02 -0.18567906601E-01  0.95246796880E-02  0.22837366788E-01  0.00000000000E+00 0.  1.
     999901    1    3    3    0    0  0.90437590821E-01  0.70867987757E-01  0.75603068660E-01  0.89068347549E+00  0.88000000000E+00 0. -1.
        -11    1    4    4    0    0 -0.49608618239E-01 -0.36241706166E-01 -0.41136668070E-01  0.73938912964E-01  0.51100000000E-03 0. -1.
         11    1    4    4    0    0 -0.31552192801E-01 -0.16058374989E-01 -0.43991080278E-01  0.56470244757E-01  0.51100000000E-03 0.  1.
</event>
<event>
 8    1  0.1074844E+005  0.1043930E+01  0.7957747E-01            NaN
         13   -1    0    0    0    0  0.00000000000E+00  0.00000000000E+00  0.74505805969E-08  0.10566000000E+00  0.10566000000E+00 0.  1.
     999900   -1    0    0    0    0 -0.00000000000E+00 -0.00000000000E+00 -0.74505805969E-08  0.93827000000E+00  0.93827000000E+00 0. -1.
     999902    2    1    2    0    0 -0.17181240862E-01  0.13216587299E-01 -0.52412558486E-02  0.10216287897E+01  0.10213853533E+01 0.  0.
     999903    2    3    3    0    0  0.11258438753E+00 -0.49889150547E-01  0.32729696640E-01  0.12906885016E+00  0.20575796032E-01 0.  0.
         14    1    1    2    0    0  0.17181240862E-01 -0.13216587299E-01  0.52412558486E-02  0.22301210287E-01  0.00000000000E+00 0.  1.
     999901    1    3    3    0    0 -0.12976562839E+00  0.63105737846E-01 -0.37970952489E-01  0.89255993955E+00  0.88000000000E+00 0. -1.
        -11    1    4    4    0    0  0.53444723187E-01 -0.25756890828E-01  0.53440474438E-02  0.59569923836E-01  0.51100000000E-03 0. -1.
         11    1    4    4    0    0  0.59139664341E-01 -0.24132259719E-01  0.27385649197E-01  0.69498926326E-01  0.51100000000E-03 0.  1.
</event>
<event>
 8    1  0.1074844E+005  0.1043930E+01  0.7957747E-01            NaN
         13   -1    0    0    0    0  0.00000000000E+00  0.00000000000E+00  0.74505805969E-08  0.10566000000E+00  0.10566000000E+00 0.  1.
     999900   -1    0    0    0    0 -0.00000000000E+00 -0.00000000000E+00 -0.74505805969E-08  0.93827000000E+00  0.93827000000E+00 0. -1.
     999902    2    1    2    0    0 -0.17778723023E-03  0.23894434906E-01  0.47338297880E-02  0.10195705096E+01  0.10192794706E+01 0.  0.
     999903    2    3    3    0    0  0.97988220142E-01  0.33875299514E-01  0.77654611119E-01  0.13105848211E+00  0.19921342834E-01 0.  0.
         14    1    1    2    0    0  0.17778723023E-03 -0.23894434906E-01 -0.47338297880E-02  0.24359490393E-01  0.00000000000E+00 0.  1.
     999901    1    3    3    0    0 -0.98166007372E-01 -0.99808646083E-02 -0.72920781332E-01  0.88851202750E+00  0.88000000000E+00 0.  1.
        -11    1    4    4    0    0  0.21983085191E-01 -0.34831888111E-04  0.20772285654E-01  0.30249069739E-01  0.51100000000E-03 0.  1.
         11    1    4    4    0    0  0.76005134951E-01  0.33910131402E-01  0.56882325465E-01  0.10080941237E+00  0.51100000000E-03 0. -1.
</event>
<event>
 8    1  0.1074844E+005  0.1043930E+01  0.7957747E-01            NaN
         13   -1    0    0    0    0  0.00000000000E+00  0.00000000000E+00  0.74505805969E-08  0.10566000000E+00  0.10566000000E+00 0.  1.
     999900   -1    0    0    0    0 -0.00000000000E+00 -0.00000000000E+00 -0.74505805969E-08  0.93827000000E+00  0.93827000000E+00 0. -1.
     999902    2    1    2    0    0  0.17787845574E-01 -0.12964898191E-02 -0.14898294277E-01  0.10206910777E+01  0.10204264935E+01 0.  0.
     999903    2    3    3    0    0  0.98174753985E-01  0.47364824975E-01  0.72398220987E-01  0.13139323101E+00  0.11873069865E-01 0.  0.
         14    1    1    2    0    0 -0.17787845574E-01  0.12964898191E-02  0.14898294277E-01  0.23238922272E-01  0.00000000000E+00 0.  1.
     999901    1    3    3    0    0 -0.80386908410E-01 -0.48661314794E-01 -0.87296515264E-01  0.88929784672E+00  0.88000000000E+00 0. -1.
        -11    1    4    4    0    0  0.55481226879E-01  0.20318204080E-01  0.40234791210E-01  0.71484931963E-01  0.51100000000E-03 0. -1.
         11    1    4    4    0    0  0.42693527106E-01  0.27046620895E-01  0.32163429777E-01  0.59908299046E-01  0.51100000000E-03 0.  1.
</event>
<event>
 8    1  0.1074844E+005  0.1043930E+01  0.7957747E-01            NaN
         13   -1    0    0    0    0  0.00000000000E+00  0.00000000000E+00  0.74505805969E-08  0.10566000000E+00  0.10566000000E+00 0.  1.
     999900   -1    0    0    0    0 -0.00000000000E+00 -0.00000000000E+00 -0.74505805969E-08  0.93827000000E+00  0.93827000000E+00 0. -1.
     999902    2    1    2    0    0  0.11928760824E-01 -0.15485962206E-01 -0.14144561672E-01  0.10198016145E+01  0.10195161372E+01 0.  0.
     999903    2    3    3    0    0  0.91387905278E-01  0.75499094846E-01 -0.52316362669E-01  0.13072955748E+00  0.17359517343E-01 0.  0.
         14    1    1    2    0    0 -0.11928760824E-01  0.15485962206E-01  0.14144561672E-01  0.24128385465E-01  0.00000000000E+00 0.  1.
     999901    1    3    3    0    0 -0.79459144454E-01 -0.90985057052E-01  0.38171800997E-01  0.88907205705E+00  0.88000000000E+00 0.  1.
        -11    1    4    4    0    0  0.45178872847E-01  0.26316199575E-01 -0.24312444303E-01  0.57663064268E-01  0.51100000000E-03 0.  1.
         11    1    4    4    0    0  0.46209032431E-01  0.49182895271E-01 -0.28003918367E-01  0.73066493212E-01  0.51100000000E-03 0. -1.
</event>
<event>
 8    1  0.1074844E+005  0.1043930E+01  0.7957747E-01            NaN
         13   -1    0    0    0    0  0.00000000000E+00  0.00000000000E+00  0.74505805969E-08  0.10566000000E+00  0.10566000000E+00 0. -1.
     999900   -1    0    0    0    0 -0.00000000000E+00 -0.00000000000E+00 -0.74505805969E-08  0.93827000000E+00  0.93827000000E+00 0. -1.
     999902    2    1    2    0    0 -0.78047091346E-02 -0.34810019099E-02  0.22345451269E-01  0.10200061614E+01  0.10197255608E+01 0.  0.
     999903    2    3    3    0    0 -0.12784812720E+00  0.48870417129E-02 -0.19183003725E-01  0.13084641261E+00  0.19590029458E-01 0.  0.
         14    1    1    2    0    0  0.78047091346E-02  0.34810019099E-02 -0.22345451269E-01  0.23923838559E-01  0.00000000000E+00 0.  1.
     999901    1    3    3    0    0  0.12004341807E+00 -0.83680436228E-02  0.41528454994E-01  0.88915974884E+00  0.88000000000E+00 0.  1.
        -11    1    4    4    0    0 -0.35022158145E-01 -0.62509025333E-02 -0.96732148890E-02  0.36870822487E-01  0.51100000000E-03 0.  1.
         11    1    4    4    0    0 -0.92825969057E-01  0.11137944246E-01 -0.95097888362E-02  0.93975590118E-01  0.51100000000E-03 0. -1.
</event>
<event>
 8    1  0.1074844E+005  0.1043930E+01  0.7957747E-01            NaN
         13   -1    0    0    0    0  0.00000000000E+00  0.00000000000E+00  0.74505805969E-08  0.10566000000E+00  0.10566000000E+00 0. -1.
     999900   -1    0    0    0    0 -0.00000000000E+00 -0.00000000000E+00 -0.74505805969E-08  0.93827000000E+00  0.93827000000E+00 0.  1.
     999902    2    1    2    0    0  0.89546172660E-02 -0.11162411293E-01  0.15125133012E-01  0.10231080346E+01  0.10228961316E+01 0.  0.
     999903    2    3    3    0    0 -0.62576669743E-01 -0.88239529803E-01 -0.73728839294E-01  0.13240458469E+00  0.19823674895E-01 0.  0.
         14    1    1    2    0    0 -0.89546172660E-02  0.11162411293E-01 -0.15125133012E-01  0.20821965442E-01  0.00000000000E+00 0.  1.
     999901    1    3    3    0    0  0.71531287009E-01  0.77077118510E-01  0.88853972305E-01  0.89070344987E+00  0.88000000000E+00 0. -1.
        -11    1    4    4    0    0 -0.29611644258E-01 -0.26871073611E-01 -0.22056725348E-01  0.45669074074E-01  0.51100000000E-03 0.  1.
         11    1    4    4    0    0 -0.32965025485E-01 -0.61368456192E-01 -0.51672113946E-01  0.86735510612E-01  0.51100000000E-03 0. -1.
</event>
<event>
 8    1  0.1074844E+005  0.1043930E+01  0.7957747E-01            NaN
         13   -1    0    0    0    0  0.00000000000E+00  0.00000000000E+00  0.74505805969E-08  0.10566000000E+00  0.10566000000E+00 0.  1.
     999900   -1    0    0    0    0 -0.00000000000E+00 -0.00000000000E+00 -0.74505805969E-08  0.93827000000E+00  0.93827000000E+00 0.  1.
     999902    2    1    2    0    0  0.15198379835E-01  0.11567005916E-01  0.12544097114E-01  0.10210796007E+01  0.10208238880E+01 0.  0.
     999903    2    3    3    0    0  0.10308914445E+00  0.15326567465E-01  0.81387429120E-01  0.13401797648E+00  0.21785982367E-01 0.  0.
         14    1    1    2    0    0 -0.15198379835E-01 -0.11567005916E-01 -0.12544097114E-01  0.22850399293E-01  0.00000000000E+00 0.  1.
     999901    1    3    3    0    0 -0.87890764618E-01 -0.37595615490E-02 -0.68843332007E-01  0.88706162422E+00  0.88000000000E+00 0.  1.
        -11    1    4    4    0    0  0.11440606157E-01 -0.34944068592E-02  0.15491695869E-01  0.19579379725E-01  0.51100000000E-03 0.  1.
         11    1    4    4    0    0  0.91648538296E-01  0.18820974324E-01  0.65895733252E-01  0.11443859676E+00  0.51100000000E-03 0. -1.
</event>
<event>
 8    1  0.1074844E+005  0.1043930E+01  0.7957747E-01            NaN
         13   -1    0    0    0    0  0.00000000000E+00  0.00000000000E+00  0.74505805969E-08  0.10566000000E+00  0.10566000000E+00 0.  1.
     999900   -1    0    0    0    0 -0.00000000000E+00 -0.00000000000E+00 -0.74505805969E-08  0.93827000000E+00  0.93827000000E+00 0. -1.
     999902    2    1    2    0    0 -0.83847119919E-02  0.17397218875E-01 -0.12956490572E-01  0.10206740918E+01  0.10204091162E+01 0.  0.
     999903    2    3    3    0    0 -0.71234404344E-01  0.88966435463E-01 -0.67188162438E-01  0.13387461566E+00  0.20464519175E-01 0.  0.
         14    1    1    2    0    0  0.83847119919E-02 -0.17397218875E-01  0.12956490572E-01  0.23255908232E-01  0.00000000000E+00 0.  1.
     999901    1    3    3    0    0  0.62849692352E-01 -0.71569216588E-01  0.54231671865E-01  0.88679947611E+00  0.88000000000E+00 0.  1.
        -11    1    4    4    0    0 -0.58567130914E-01  0.58532427978E-01 -0.46892457233E-01  0.95159432611E-01  0.51100000000E-03 0. -1.
         11    1    4    4    0    0 -0.12667273430E-01  0.30434007485E-01 -0.20295705205E-01  0.38715183049E-01  0.51100000000E-03 0.  1.
</event>
<event>
 8    1  0.1074844E+005  0.1043930E+01  0.7957747E-01            NaN
         13   -1    0    0    0    0  0.00000000000E+00  0.00000000000E+00  0.74505805969E-08  0.10566000000E+00  0.10566000000E+00 0.  1.
     999900   -1    0    0    0    0 -0.00000000000E+00 -0.00000000000E+00 -0.74505805969E-08  0.93827000000E+00  0.93827000000E+00 0.  1.
     999902    2    1    2    0    0  0.12838856071E-01  0.21664543904E-02 -0.19686786482E-01  0.10203270487E+01  0.10200540118E+01 0.  0.
     999903    2    3    3    0    0  0.88032029755E-01 -0.79680292988E-01 -0.55817488290E-01  0.13260055304E+00  0.19202273636E-01 0.  0.
         14    1    1    2    0    0 -0.12838856071E-01 -0.21664543904E-02  0.19686786482E-01  0.23602951337E-01  0.00000000000E+00 0.  1.
     999901    1    3    3    0    0 -0.75193173684E-01  0.81846747379E-01  0.36130701808E-01  0.88772649563E+00  0.88000000000E+00 0. -1.
        -11    1    4    4    0    0  0.32520895202E-01 -0.40865201562E-01 -0.29067626804E-01  0.59772580440E-01  0.51100000000E-03 0.  1.
         11    1    4    4    0    0  0.55511134554E-01 -0.38815091426E-01 -0.26749861486E-01  0.72827972595E-01  0.51100000000E-03 0. -1.
</event>
<event>
 8    1  0.1074844E+005  0.1043930E+01  0.7957747E-01            NaN
         13   -1    0    0    0    0  0.00000000000E+00  0.00000000000E+00  0.74505805969E-08  0.10566000000E+00  0.10566000000E+00 0. -1.
     999900   -1    0    0    0    0 -0.00000000000E+00 -0.00000000000E+00 -0.74505805969E-08  0.93827000000E+00  0.93827000000E+00 0.  1.
     999902    2    1    2    0    0 -0.22804796389E-01 -0.52652893957E-02 -0.12104984268E-02  0.10204939739E+01  0.10202248299E+01 0.  0.
     999903    2    3    3    0    0 -0.34056179763E-01 -0.86956565001E-01 -0.91280466635E-01  0.13206127683E+00  0.19666969037E-01 0.  0.
         14    1    1    2    0    0  0.22804796389E-01  0.52652893957E-02  0.12104984268E-02  0.23436026054E-01  0.00000000000E+00 0. -1.
     999901    1    3    3    0    0  0.11251383374E-01  0.81691275605E-01  0.90069968208E-01  0.88843269712E+00  0.88000000000E+00 0. -1.
        -11    1    4    4    0    0 -0.19431956803E-01 -0.67607070547E-01 -0.75099034886E-01  0.10290016081E+00  0.51100000000E-03 0. -1.
         11    1    4    4    0    0 -0.14624222960E-01 -0.19349494454E-01 -0.16181431749E-01  0.29161116015E-01  0.51100000000E-03 0.  1.
</event>
<event>
 8    1  0.1074844E+005  0.1043930E+01  0.7957747E-01            NaN
         13   -1    0    0    0    0  0.00000000000E+00  0.00000000000E+00  0.74505805969E-08  0.10566000000E+00  0.10566000000E+00 0. -1.
     999900   -1    0    0    0    0 -0.00000000000E+00 -0.00000000000E+00 -0.74505805969E-08  0.93827000000E+00  0.93827000000E+00 0.  1.
     999902    2    1    2    0    0 -0.21055682007E-03 -0.48608060950E-02 -0.19858956856E-01  0.10234837305E+01  0.10232794812E+01 0.  0.
     999903    2    3    3    0    0  0.36697113956E-01  0.55598903177E-01 -0.11620052925E+00  0.13539631857E+00  0.19791004963E-01 0.  0.
         14    1    1    2    0    0  0.21055682007E-03  0.48608060950E-02  0.19858956856E-01  0.20446269525E-01  0.00000000000E+00 0. -1.
     999901    1    3    3    0    0 -0.36907670776E-01 -0.60459709272E-01  0.96341572396E-01  0.88808741190E+00  0.88000000000E+00 0. -1.
        -11    1    4    4    0    0  0.19868619893E-01  0.25388960395E-01 -0.74783440673E-01  0.81438231109E-01  0.51100000000E-03 0. -1.
         11    1    4    4    0    0  0.16828494063E-01  0.30209942782E-01 -0.41417088580E-01  0.53958087464E-01  0.51100000000E-03 0.  1.
</event>
<event>
 8    1  0.1074844E+005  0.1043930E+01  0.7957747E-01            NaN
         13   -1    0    0    0    0  0.00000000000E+00  0.00000000000E+00  0.74505805969E-08  0.10566000000E+00  0.10566000000E+00 0. -1.
     999900   -1    0    0    0    0 -0.00000000000E+00 -0.00000000000E+00 -0.74505805969E-08  0.93827000000E+00  0.93827000000E+00 0. -1.
     999902    2    1    2    0    0  0.11061661595E-01 -0.20277419796E-01 -0.36086852552E-02  0.10205514474E+01  0.10202836371E+01 0.  0.
     999903    2    3    3    0    0 -0.39629869525E-01 -0.12271032000E+00 -0.24324422147E-01  0.13291905048E+00  0.21152949510E-01 0.  0.
         14    1    1    2    0    0 -0.11061661595E-01  0.20277419796E-01  0.36086852552E-02  0.23378552566E-01  0.00000000000E+00 0. -1.
     999901    1    3    3    0    0  0.50691531120E-01  0.10243290021E+00  0.20715736892E-01  0.88763239696E+00  0.88000000000E+00 0. -1.
        -11    1    4    4    0    0 -0.74381201349E-02 -0.34914821137E-01 -0.15725589335E-01  0.39011865465E-01  0.51100000000E-03 0. -1.
         11    1    4    4    0    0 -0.32191749391E-01 -0.87795498867E-01 -0.85988328122E-02  0.93907185012E-01  0.51100000000E-03 0.  1.
</event>
<event>
 8    1  0.1074844E+005  0.1043930E+01  0.7957747E-01            NaN
         13   -1    0    0    0    0  0.00000000000E+00  0.00000000000E+00  0.74505805969E-08  0.10566000000E+00  0.10566000000E+00 0.  1.
     999900   -1    0    0    0    0 -0.00000000000E+00 -0.00000000000E+00 -0.74505805969E-08  0.93827000000E+00  0.93827000000E+00 0.  1.
     999902    2    1    2    0    0 -0.75802700574E-02 -0.18235725487E-01  0.13038443143E-01  0.10202656137E+01  0.10199911369E+01 0.  0.
     999903    2    3    3    0    0  0.39753210980E-01 -0.81389078171E-01 -0.91617530529E-01  0.13055685396E+00  0.21138126359E-01 0.  0.
         14    1    1    2    0    0  0.75802700574E-02  0.18235725487E-01 -0.13038443143E-01  0.23664386275E-01  0.00000000000E+00 0. -1.
     999901    1    3    3    0    0 -0.47333481038E-01  0.63153352684E-01  0.10465597367E+00  0.88970875977E+00  0.88000000000E+00 0. -1.
        -11    1    4    4    0    0  0.18780929098E-01 -0.51412414627E-01 -0.42448652104E-01  0.69268382845E-01  0.51100000000E-03 0.  1.
         11    1    4    4    0    0  0.20972281882E-01 -0.29976663545E-01 -0.49168878425E-01  0.61288471111E-01  0.51100000000E-03 0. -1.
</event>
<event>
 8    1  0.1074844E+005  0.1043930E+01  0.7957747E-01            NaN
         13   -1    0    0    0    0  0.00000000000E+00  0.00000000000E+00  0.74505805969E-08  0.10566000000E+00  0.10566000000E+00 0.  1.
     999900   -1    0    0    0    0 -0.00000000000E+00 -0.00000000000E+00 -0.74505805969E-08  0.93827000000E+00  0.93827000000E+00 0.  1.
     999902    2    1    2    0    0 -0.14928585569E-01  0.32511025304E-02  0.18520472116E-01  0.10199208305E+01  0.10196382006E+01 0.  0.
     999903    2    3    3    0    0 -0.66865902690E-01 -0.52431890086E-01 -0.95399724203E-01  0.12931660202E+00  0.20038067273E-01 0.  0.
         14    1    1    2    0    0  0.14928585569E-01 -0.32511025304E-02 -0.18520472116E-01  0.24009169543E-01  0.00000000000E+00 0. -1.
     999901    1    3    3    0    0  0.51937317121E-01  0.55682992616E-01  0.11392019632E+00  0.89060422843E+00  0.88000000000E+00 0. -1.
        -11    1    4    4    0    0 -0.76443439578E-02 -0.16072899914E-01 -0.19055116772E-01  0.26079353949E-01  0.51100000000E-03 0.  1.
         11    1    4    4    0    0 -0.59221558732E-01 -0.36358990172E-01 -0.76344607430E-01  0.10323724807E+00  0.51100000000E-03 0. -1.
</event>
<event>
 8    1  0.1074844E+005  0.1043930E+01  0.7957747E-01            NaN
         13   -1    0    0    0    0  0.00000000000E+00  0.00000000000E+00  0.74505805969E-08  0.10566000000E+00  0.10566000000E+00 0. -1.
     999900   -1    0    0    0    0 -0.00000000000E+00 -0.00000000000E+00 -0.74505805969E-08  0.93827000000E+00  0.93827000000E+00 0.  1.
     999902    2    1    2    0    0 -0.18745195941E-01 -0.53129615890E-02  0.85337504041E-02  0.10226594845E+01  0.10224382556E+01 0.  0.
     999903    2    3    3    0    0 -0.89665844024E-01 -0.93699322539E-01 -0.18562734469E-01  0.13497930192E+00  0.32485538446E-01 0.  0.
         14    1    1    2    0    0  0.18745195941E-01  0.53129615890E-02 -0.85337504041E-02  0.21270515454E-01  0.00000000000E+00 0.  1.
     999901    1    3    3    0    0  0.70920648083E-01  0.88386360950E-01  0.27096484873E-01  0.88768018262E+00  0.88000000000E+00 0. -1.
        -11    1    4    4    0    0 -0.70658840430E-01 -0.55481242095E-01 -0.20865751504E-01  0.92230584202E-01  0.51100000000E-03 0.  1.
         11    1    4    4    0    0 -0.19007003594E-01 -0.38218080444E-01  0.23030170355E-02  0.42748717723E-01  0.51100000000E-03 0. -1.
</event>
<event>
 8    1  0.1074844E+005  0.1043930E+01  0.7957747E-01            NaN
         13   -1    0    0    0    0  0.00000000000E+00  0.00000000000E+00  0.74505805969E-08  0.10566000000E+00  0.10566000000E+00 0.  1.
     999900   -1    0    0    0    0 -0.00000000000E+00 -0.00000000000E+00 -0.74505805969E-08  0.93827000000E+00  0.93827000000E+00 0. -1.
     999902    2    1    2    0    0  0.18686313939E-01 -0.13267641372E-01  0.79115679962E-03  0.10209989170E+01  0.10207413747E+01 0.  0.
     999903    2    3    3    0    0 -0.17484114891E-01 -0.18146261028E-01 -0.12674308135E+00  0.13105673761E+00  0.21842132219E-01 0.  0.
         14    1    1    2    0    0 -0.18686313939E-01  0.13267641372E-01 -0.79115679962E-03  0.22931082950E-01  0.00000000000E+00 0. -1.
     999901    1    3    3    0    0  0.36170428830E-01  0.48786196558E-02  0.12753423815E+00  0.88994217944E+00  0.88000000000E+00 0.  1.
        -11    1    4    4    0    0  0.19342964724E-02 -0.10310630229E-01 -0.23957059872E-01  0.26158219306E-01  0.51100000000E-03 0.  1.
         11    1    4    4    0    0 -0.19418411363E-01 -0.78356307988E-02 -0.10278602148E+00  0.10489851830E+00  0.51100000000E-03 0. -1.
</event>
<event>
 8    1  0.1074844E+005  0.1043930E+01  0.7957747E-01            NaN
         13   -1    0    0    0    0  0.00000000000E+00  0.00000000000E+00  0.74505805969E-08  0.10566000000E+00  0.10566000000E+00 0.  1.
     999900   -1    0    0    0    0 -0.00000000000E+00 -0.00000000000E+00 -0.74505805969E-08  0.93827000000E+00  0.93827000000E+00 0.  1.
     999902    2    1    2    0    0  0.19816947264E-01 -0.32655389080E-02  0.12996551052E-01  0.10200075109E+01  0.10197269423E+01 0.  0.
     999903    2    3    3    0    0  0.30130970347E-01 -0.12607795701E+00 -0.41650942275E-02  0.13125344419E+00  0.20164126178E-01 0.  0.
         14    1    1    2    0    0 -0.19816947264E-01  0.32655389080E-02 -0.12996551052E-01  0.23922489052E-01  0.00000000000E+00 0.  1.
     999901    1    3    3    0    0 -0.10314023083E-01  0.12281241810E+00  0.17161645279E-01  0.88875406676E+00  0.88000000000E+00 0. -1.
        -11    1    4    4    0    0  0.16988332362E-01 -0.63050242327E-01  0.78022192279E-02  0.65765281416E-01  0.51100000000E-03 0. -1.
         11    1    4    4    0    0  0.13142637985E-01 -0.63027714680E-01 -0.11967313455E-01  0.65488162773E-01  0.51100000000E-03 0.  1.
</event>
<event>
 8    1  0.1074844E+005  0.1043930E+01  0.7957747E-01            NaN
         13   -1    0    0    0    0  0.00000000000E+00  0.00000000000E+00  0.74505805969E-08  0.10566000000E+00  0.10566000000E+00 0.  1.
     999900   -1    0    0    0    0 -0.00000000000E+00 -0.00000000000E+00 -0.74505805969E-08  0.93827000000E+00  0.93827000000E+00 0.  1.
     999902    2    1    2    0    0  0.62659035942E-03 -0.21187436869E-01  0.96721949682E-02  0.10206308272E+01  0.10203648534E+01 0.  0.
     999903    2    3    3    0    0  0.12495548454E+00  0.31022830627E-01  0.95695054426E-03  0.13031653359E+00  0.20129432079E-01 0.  0.
         14    1    1    2    0    0 -0.62659035942E-03  0.21187436869E-01 -0.96721949682E-02  0.23299172776E-01  0.00000000000E+00 0. -1.
     999901    1    3    3    0    0 -0.12432889418E+00 -0.52210267496E-01  0.87152444239E-02  0.89031429363E+00  0.88000000000E+00 0. -1.
        -11    1    4    4    0    0  0.12012263329E+00  0.33666840163E-01  0.14626664215E-02  0.12476098616E+00  0.51100000000E-03 0. -1.
         11    1    4    4    0    0  0.48328512530E-02 -0.26440095362E-02 -0.50571587724E-03  0.55555474267E-02  0.51100000000E-03 0.  1.
</event>
<event>
 8    1  0.1074844E+005  0.1043930E+01  0.7957747E-01            NaN
         13   -1    0    0    0    0  0.00000000000E+00  0.00000000000E+00  0.74505805969E-08  0.10566000000E+00  0.10566000000E+00 0.  1.
     999900   -1    0    0    0    0 -0.00000000000E+00 -0.00000000000E+00 -0.74505805969E-08  0.93827000000E+00  0.93827000000E+00 0.  1.
     999902    2    1    2    0    0  0.24285670079E-02  0.10748702104E-01  0.19815441513E-01  0.10212565738E+01  0.10210048507E+01 0.  0.
     999903    2    3    3    0    0  0.42116844484E-01  0.24523630736E-01  0.12370389224E+00  0.13415020009E+00  0.17843379007E-01 0.  0.
         14    1    1    2    0    0 -0.24285670079E-02 -0.10748702104E-01 -0.19815441513E-01  0.22673426230E-01  0.00000000000E+00 0. -1.
     999901    1    3    3    0    0 -0.39688277476E-01 -0.13774928631E-01 -0.10388845073E+00  0.88710637368E+00  0.88000000000E+00 0.  1.
        -11    1    4    4    0    0  0.16230852261E-01  0.66823843490E-03  0.47589411413E-01  0.50288172639E-01  0.51100000000E-03 0. -1.
         11    1    4    4    0    0  0.25885992223E-01  0.23855392301E-01  0.76114480831E-01  0.83862027452E-01  0.51100000000E-03 0.  1.
</event>
<event>
 8    1  0.1074844E+005  0.1043930E+01  0.7957747E-01            NaN
         13   -1    0    0    0    0  0.00000000000E+00  0.00000000000E+00  0.74505805969E-08  0.10566000000E+00  0.10566000000E+00 0.  1.
     999900   -1    0    0    0    0 -0.00000000000E+00 -0.00000000000E+00 -0.74505805969E-08  0.93827000000E+00  0.93827000000E+00 0.  1.
     999902    2    1    2    0    0  0.30631217160E-02  0.23794801459E-01  0.10867958810E-02  0.10199142465E+01  0.10196314598E+01 0.  0.
     999903    2    3    3    0    0 -0.69710638362E-01 -0.42295458844E-01 -0.97886464593E-01  0.12892622808E+00  0.19792256009E-01 0.  0.
         14    1    1    2    0    0 -0.30631217160E-02 -0.23794801459E-01 -0.10867958810E-02  0.24015753505E-01  0.00000000000E+00 0.  1.
     999901    1    3    3    0    0  0.72773760078E-01  0.66090260303E-01  0.98973260474E-01  0.89098801841E+00  0.88000000000E+00 0. -1.
        -11    1    4    4    0    0 -0.57346017875E-01 -0.24816952576E-01 -0.73321263624E-01  0.96336471399E-01  0.51100000000E-03 0.  1.
         11    1    4    4    0    0 -0.12364620488E-01 -0.17478506268E-01 -0.24565200969E-01  0.32589756685E-01  0.51100000000E-03 0. -1.
</event>
<event>
 8    1  0.1319487E+005  0.1043930E+01  0.7957747E-01            NaN
         13   -1    0    0    0    0  0.00000000000E+00  0.00000000000E+00  0.74505805969E-08  0.10566000000E+00  0.10566000000E+00 0.  1.
     999900   -1    0    0    0    0 -0.00000000000E+00 -0.00000000000E+00 -0.74505805969E-08  0.93827000000E+00  0.93827000000E+00 0.  1.
     999902    2    1    2    0    0 -0.12097926179E-01 -0.68345447437E-02  0.19478613655E-01  0.10200032951E+01  0.10197226264E+01 0.  0.
     999903    2    3    3    0    0  0.11289749127E+00 -0.37789250427E-01 -0.43499000253E-01  0.12840460279E+00  0.20535530490E-01 0.  0.
         14    1    1    2    0    0  0.12097926179E-01  0.68345447437E-02 -0.19478613655E-01  0.23926704946E-01  0.00000000000E+00 0. -1.
     999901    1    3    3    0    0 -0.12499541745E+00  0.30954705683E-01  0.62977613908E-01  0.89159869226E+00  0.88000000000E+00 0. -1.
        -11    1    4    4    0    0  0.18565433212E-01 -0.14634457414E-01 -0.73294519873E-02  0.24755295223E-01  0.51100000000E-03 0. -1.
         11    1    4    4    0    0  0.94332058058E-01 -0.23154793013E-01 -0.36169548266E-01  0.10364930757E+00  0.51100000000E-03 0.  1.
</event>
<event>
 8    1  0.1074844E+005  0.1043930E+01  0.7957747E-01            NaN
         13   -1    0    0    0    0  0.00000000000E+00  0.00000000000E+00  0.74505805969E-08  0.10566000000E+00  0.10566000000E+00 0.  1.
     999900   -1    0    0    0    0 -0.00000000000E+00 -0.00000000000E+00 -0.74505805969E-08  0.93827000000E+00  0.93827000000E+00 0.  1.
     999902    2    1    2    0    0 -0.22250467888E-01  0.93987453803E-02  0.10469632037E-01  0.10176044814E+01  0.10172639026E+01 0.  0.
     999903    2    3    3    0    0 -0.27940825060E-01 -0.53333005571E-01 -0.11020603069E+00  0.12713816066E+00  0.19840451313E-01 0.  0.
         14    1    1    2    0    0  0.22250467888E-01 -0.93987453803E-02 -0.10469632037E-01  0.26325518627E-01  0.00000000000E+00 0. -1.
     999901    1    3    3    0    0  0.56903571713E-02  0.62731750951E-01  0.12067566273E+00  0.89046632071E+00  0.88000000000E+00 0. -1.
        -11    1    4    4    0    0 -0.59307210910E-02 -0.17460016587E-01 -0.52983994986E-01  0.56103390963E-01  0.51100000000E-03 0.  1.
         11    1    4    4    0    0 -0.22010103969E-01 -0.35872988984E-01 -0.57222035705E-01  0.71034769701E-01  0.51100000000E-03 0. -1.
</event>
<event>
 8    1  0.1074844E+005  0.1043930E+01  0.7957747E-01            NaN
         13   -1    0    0    0    0  0.00000000000E+00  0.00000000000E+00  0.74505805969E-08  0.10566000000E+00  0.10566000000E+00 0. -1.
     999900   -1    0    0    0    0 -0.00000000000E+00 -0.00000000000E+00 -0.74505805969E-08  0.93827000000E+00  0.93827000000E+00 0. -1.
     999902    2    1    2    0    0 -0.81912748858E-02 -0.13318021803E-01  0.12794549448E-01  0.10237268521E+01  0.10235274791E+01 0.  0.
     999903    2    3    3    0    0 -0.12610823464E+00  0.35683024459E-01  0.22369150224E-01  0.13445907191E+00  0.20057369126E-01 0.  0.
         14    1    1    2    0    0  0.81912748858E-02  0.13318021803E-01 -0.12794549448E-01  0.20203147888E-01  0.00000000000E+00 0.  1.
     999901    1    3    3    0    0  0.11791695976E+00 -0.49001046262E-01 -0.95746007760E-02  0.88926778021E+00  0.88000000000E+00 0. -1.
        -11    1    4    4    0    0 -0.91970917601E-01  0.20539845910E-01  0.85086481385E-02  0.94621314557E-01  0.51100000000E-03 0. -1.
         11    1    4    4    0    0 -0.34137317043E-01  0.15143178548E-01  0.13860502086E-01  0.39837757348E-01  0.51100000000E-03 0.  1.
</event>
<event>
 8    1  0.1074844E+005  0.1043930E+01  0.7957747E-01            NaN
         13   -1    0    0    0    0  0.00000000000E+00  0.00000000000E+00  0.74505805969E-08  0.10566000000E+00  0.10566000000E+00 0.  1.
     999900   -1    0    0    0    0 -0.00000000000E+00 -0.00000000000E+00 -0.74505805969E-08  0.93827000000E+00  0.93827000000E+00 0. -1.
     999902    2    1    2    0    0  0.10993907374E-01 -0.19795706507E-01  0.20766706086E-02  0.10211912983E+01  0.10209381074E+01 0.  0.
     999903    2    3    3    0    0 -0.79112614075E-01 -0.10367117857E+00 -0.11728895399E-01  0.13251538790E+00  0.20402011427E-01 0.  0.
         14    1    1    2    0    0 -0.10993907374E-01  0.19795706507E-01 -0.20766706086E-02  0.22738701728E-01  0.00000000000E+00 0.  1.
     999901    1    3    3    0    0  0.90106521449E-01  0.83875472067E-01  0.13805566008E-01  0.88867591037E+00  0.88000000000E+00 0.  1.
        -11    1    4    4    0    0 -0.13656654453E-01 -0.22100101716E-01 -0.10205747818E-01  0.27916610042E-01  0.51100000000E-03 0. -1.
         11    1    4    4    0    0 -0.65455959622E-01 -0.81571076858E-01 -0.15231475811E-02  0.10459877786E+00  0.51100000000E-03 0.  1.
</event>
<event>
 8    1  0.1074844E+005  0.1043930E+01  0.7957747E-01            NaN
         13   -1    0    0    0    0  0.00000000000E+00  0.00000000000E+00  0.74505805969E-08  0.10566000000E+00  0.10566000000E+00 0.  1.
     999900   -1    0    0    0    0 -0.00000000000E+00 -0.00000000000E+00 -0.74505805969E-08  0.93827000000E+00  0.93827000000E+00 0. -1.
     999902    2    1    2    0    0 -0.19537297312E-01  0.29588254325E-03  0.74400342943E-02  0.10230219240E+01  0.10228082466E+01 0.  0.
     999903    2    3    3    0    0 -0.27654287774E-01 -0.79345640539E-01 -0.10082814375E+00  0.13278001522E+00  0.20092973030E-01 0.  0.
         14    1    1    2    0    0  0.19537297312E-01 -0.29588254325E-03 -0.74400342943E-02  0.20908076024E-01  0.00000000000E+00 0. -1.
     999901    1    3    3    0    0  0.81169904616E-02  0.79641523082E-01  0.10826817804E+00  0.89024190876E+00  0.88000000000E+00 0.  1.
        -11    1    4    4    0    0 -0.12846880815E-01 -0.12737786492E-01 -0.23216775121E-01  0.29437617421E-01  0.51100000000E-03 0. -1.
         11    1    4    4    0    0 -0.14807406958E-01 -0.66607854047E-01 -0.77611368624E-01  0.10334239780E+00  0.51100000000E-03 0.  1.
</event>
<event>
 8    1  0.1074844E+005  0.1043930E+01  0.7957747E-01            NaN
         13   -1    0    0    0    0  0.00000000000E+00  0.00000000000E+00  0.74505805969E-08  0.10566000000E+00  0.10566000000E+00 0. -1.
     999900   -1    0    0    0    0 -0.00000000000E+00 -0.00000000000E+00 -0.74505805969E-08  0.93827000000E+00  0.93827000000E+00 0.  1.
     999902    2    1    2    0    0 -0.17094895159E-01  0.50847192531E-02  0.13490280737E-01  0.10215675877E+01  0.10213227985E+01 0.  0.
     999903    2    3    3    0    0 -0.11648372165E+00  0.55873274521E-01  0.30909071101E-01  0.13434662849E+00  0.20083966077E-01 0.  0.
         14    1    1    2    0    0  0.17094895159E-01 -0.50847192531E-02 -0.13490280737E-01  0.22362412320E-01  0.00000000000E+00 0.  1.
     999901    1    3    3    0    0  0.99388826493E-01 -0.50788555268E-01 -0.17418790365E-01  0.88722095920E+00  0.88000000000E+00 0.  1.
        -11    1    4    4    0    0 -0.10999199249E+00  0.52930080668E-01  0.33766935440E-01  0.12665030162E+00  0.51100000000E-03 0. -1.
         11    1    4    4    0    0 -0.64917291624E-02  0.29431938525E-02 -0.28578643393E-02  0.76963268611E-02  0.51100000000E-03 0.  1.
</event>
<event>
 8    1  0.1074844E+005  0.1043930E+01  0.7957747E-01            NaN
         13   -1    0    0    0    0  0.00000000000E+00  0.00000000000E+00  0.74505805969E-08  0.10566000000E+00  0.10566000000E+00 0. -1.
     999900   -1    0    0    0    0 -0.00000000000E+00 -0.00000000000E+00 -0.74505805969E-08  0.93827000000E+00  0.93827000000E+00 0.  1.
     999902    2    1    2    0    0 -0.14941803081E-01  0.96738026037E-02 -0.16173097212E-01  0.10198798647E+01  0.10195962580E+01 0.  0.
     999903    2    3    3    0    0  0.69576904374E-01  0.10394957414E+00 -0.28140119643E-01  0.13073727619E+00  0.25571653569E-01 0.  0.
         14    1    1    2    0    0  0.14941803081E-01 -0.96738026037E-02  0.16173097212E-01  0.24050135333E-01  0.00000000000E+00 0.  1.
     999901    1    3    3    0    0 -0.84518707454E-01 -0.94275771541E-01  0.11967022431E-01  0.88914258847E+00  0.88000000000E+00 0. -1.
        -11    1    4    4    0    0  0.42335564376E-01  0.40440047741E-01 -0.13965922360E-01  0.60191407865E-01  0.51100000000E-03 0. -1.
         11    1    4    4    0    0  0.27241339997E-01  0.63509526403E-01 -0.14174197283E-01  0.70545868330E-01  0.51100000000E-03 0.  1.
</event>
<event>
 8    1  0.1074844E+005  0.1043930E+01  0.7957747E-01            NaN
         13   -1    0    0    0    0  0.00000000000E+00  0.00000000000E+00  0.74505805969E-08  0.10566000000E+00  0.10566000000E+00 0.  1.
     999900   -1    0    0    0    0 -0.00000000000E+00 -0.00000000000E+00 -0.74505805969E-08  0.93827000000E+00  0.93827000000E+00 0.  1.
     999902    2    1    2    0    0  0.92468764138E-02 -0.17706588982E-01 -0.11922363817E-01  0.10206669225E+01  0.10204017816E+01 0.  0.
     999903    2    3    3    0    0  0.95105032691E-01  0.85662369645E-01 -0.15320843184E-01  0.13046002840E+00  0.20051981386E-01 0.  0.
         14    1    1    2    0    0 -0.92468764138E-02  0.17706588982E-01  0.11922363817E-01  0.23263077521E-01  0.00000000000E+00 0.  1.
     999901    1    3    3    0    0 -0.85858156277E-01 -0.10336895863E+00  0.33984793671E-02  0.89020689408E+00  0.88000000000E+00 0. -1.
        -11    1    4    4    0    0  0.27951208874E-01  0.20535491190E-01  0.40601848910E-02  0.34924528604E-01  0.51100000000E-03 0. -1.
         11    1    4    4    0    0  0.67153823817E-01  0.65126878455E-01 -0.19381028075E-01  0.95535499794E-01  0.51100000000E-03 0.  1.
</event>
<event>
 8    1  0.1074844E+005  0.1043930E+01  0.7957747E-01            NaN
         13   -1    0    0    0    0  0.00000000000E+00  0.00000000000E+00  0.74505805969E-08  0.10566000000E+00  0.10566000000E+00 0.  1.
     999900   -1    0    0    0    0 -0.00000000000E+00 -0.00000000000E+00 -0.74505805969E-08  0.93827000000E+00  0.93827000000E+00 0.  1.
     999902    2    1    2    0    0  0.15310607713E-01  0.15663717327E-01 -0.95005922326E-02  0.10200547408E+01  0.10197752920E+01 0.  0.
     999903    2    3    3    0    0 -0.11973270594E+00 -0.25255555536E-01  0.32168639296E-01  0.12783985171E+00  0.18287765683E-01 0.  0.
         14    1    1    2    0    0 -0.15310607713E-01 -0.15663717327E-01  0.95005922326E-02  0.23875259199E-01  0.00000000000E+00 0.  1.
     999901    1    3    3    0    0  0.13504331366E+00  0.40919272863E-01 -0.41669231529E-01  0.89221488909E+00  0.88000000000E+00 0.  1.
        -11    1    4    4    0    0 -0.38393643045E-01 -0.47127414449E-02  0.18342897923E-01  0.42813605121E-01  0.51100000000E-03 0. -1.
         11    1    4    4    0    0 -0.81339062898E-01 -0.20542814091E-01  0.13825741373E-01  0.85026246592E-01  0.51100000000E-03 0.  1.
</event>
<event>
 8    1  0.1074844E+005  0.1043930E+01  0.7957747E-01            NaN
         13   -1    0    0    0    0  0.00000000000E+00  0.00000000000E+00  0.74505805969E-08  0.10566000000E+00  0.10566000000E+00 0. -1.
     999900   -1    0    0    0    0 -0.00000000000E+00 -0.00000000000E+00 -0.74505805969E-08  0.93827000000E+00  0.93827000000E+00 0. -1.
     999902    2    1    2    0    0  0.22834682371E-01 -0.64540104394E-02  0.13182544240E-02  0.10201641681E+01  0.10198873051E+01 0.  0.
     999903    2    3    3    0    0 -0.19326537856E-02  0.32793552065E-01  0.12469564388E+00  0.13034633715E+00  0.19026607665E-01 0.  0.
         14    1    1    2    0    0 -0.22834682371E-01  0.64540104394E-02 -0.13182544240E-02  0.23765831870E-01  0.00000000000E+00 0. -1.
     999901    1    3    3    0    0  0.24767336157E-01 -0.39247562504E-01 -0.12337738945E+00  0.88981783098E+00  0.88000000000E+00 0. -1.
        -11    1    4    4    0    0  0.75884983239E-02  0.10468805285E-01  0.31818263696E-01  0.34348860484E-01  0.51100000000E-03 0. -1.
         11    1    4    4    0    0 -0.95211521096E-02  0.22324746780E-01  0.92877380180E-01  0.95997476666E-01  0.51100000000E-03 0.  1.
</event>
<event>
 8    1  0.1074844E+005  0.1043930E+01  0.7957747E-01            NaN
         13   -1    0    0    0    0  0.00000000000E+00  0.00000000000E+00  0.74505805969E-08  0.10566000000E+00  0.10566000000E+00 0. -1.
     999900   -1    0    0    0    0 -0.00000000000E+00 -0.00000000000E+00 -0.74505805969E-08  0.93827000000E+00  0.93827000000E+00 0.  1.
     999902    2    1    2    0    0 -0.27529638809E-02 -0.13665461280E-01 -0.23508423832E-01  0.10165992548E+01  0.10162318019E+01 0.  0.
     999903    2    3    3    0    0  0.48802307173E-01 -0.60460244874E-01 -0.10264350175E+00  0.13030920166E+00  0.20191413770E-01 0.  0.
         14    1    1    2    0    0  0.27529638809E-02  0.13665461280E-01  0.23508423832E-01  0.27330745199E-01  0.00000000000E+00 0. -1.
     999901    1    3    3    0    0 -0.51555271053E-01  0.46794783595E-01  0.79135077915E-01  0.88629005314E+00  0.88000000000E+00 0. -1.
        -11    1    4    4    0    0  0.36176851837E-01 -0.50383428943E-01 -0.67760382455E-01  0.91863948708E-01  0.51100000000E-03 0. -1.
         11    1    4    4    0    0  0.12625455335E-01 -0.10076815931E-01 -0.34883119292E-01  0.38445252948E-01  0.51100000000E-03 0.  1.
</event>
<event>
 8    1  0.1074844E+005  0.1043930E+01  0.7957747E-01            NaN
         13   -1    0    0    0    0  0.00000000000E+00  0.00000000000E+00  0.74505805969E-08  0.10566000000E+00  0.10566000000E+00 0. -1.
     999900   -1    0    0    0    0 -0.00000000000E+00 -0.00000000000E+00 -0.74505805969E-08  0.93827000000E+00  0.93827000000E+00 0. -1.
     999902    2    1    2    0    0  0.14232409253E-01 -0.15033301287E-01 -0.10502052088E-01  0.10207167555E+01  0.10204527624E+01 0.  0.
     999903    2    3    3    0    0  0.10044644749E+00 -0.84565610188E-01  0.12355298252E-01  0.13347943619E+00  0.20573654277E-01 0.  0.
         14    1    1    2    0    0 -0.14232409253E-01  0.15033301287E-01  0.10502052088E-01  0.23213244470E-01  0.00000000000E+00 0. -1.
     999901    1    3    3    0    0 -0.86214038236E-01  0.69532308900E-01 -0.22857350341E-01  0.88723731934E+00  0.88000000000E+00 0.  1.
        -11    1    4    4    0    0  0.62028385451E-01 -0.62347202310E-01  0.14050676064E-01  0.89063891990E-01  0.51100000000E-03 0. -1.
         11    1    4    4    0    0  0.38418062039E-01 -0.22218407877E-01 -0.16953778112E-02  0.44415544197E-01  0.51100000000E-03 0.  1.
</event>
<event>
 8    1  0.1074844E+005  0.1043930E+01  0.7957747E-01            NaN
         13   -1    0    0    0    0  0.00000000000E+00  0.00000000000E+00  0.74505805969E-08  0.10566000000E+00  0.10566000000E+00 0.  1.
     999900   -1    0    0    0    0 -0.00000000000E+00 -0.00000000000E+00 -0.74505805969E-08  0.93827000000E+00  0.93827000000E+00 0. -1.
     999902    2    1    2    0    0  0.15685870011E-01  0.17295100332E-01 -0.48175048416E-02  0.10200893757E+01  0.10198107467E+01 0.  0.
     999903    2    3    3    0    0  0.60846006339E-01  0.11652267870E+00 -0.96374718550E-02  0.13334883739E+00  0.20230186110E-01 0.  0.
         14    1    1    2    0    0 -0.15685870011E-01 -0.17295100332E-01  0.48175048416E-02  0.23840624287E-01  0.00000000000E+00 0.  1.
     999901    1    3    3    0    0 -0.45160136329E-01 -0.99227578371E-01  0.48199670134E-02  0.88674053832E+00  0.88000000000E+00 0.  1.
        -11    1    4    4    0    0  0.39754748199E-01  0.54309167494E-01 -0.48177911307E-02  0.67478870105E-01  0.51100000000E-03 0.  1.
         11    1    4    4    0    0  0.21091258140E-01  0.62213511209E-01 -0.48196807243E-02  0.65869967286E-01  0.51100000000E-03 0. -1.
</event>
<event>
 8    1  0.1074844E+005  0.1043930E+01  0.7957747E-01            NaN
         13   -1    0    0    0    0  0.00000000000E+00  0.00000000000E+00  0.74505805969E-08  0.10566000000E+00  0.10566000000E+00 0. -1.
     999900   -1    0    0    0    0 -0.00000000000E+00 -0.00000000000E+00 -0.74505805969E-08  0.93827000000E+00  0.93827000000E+00 0.  1.
     999902    2    1    2    0    0  0.51130541104E-02  0.22020408146E-01  0.78697263023E-02  0.10199931186E+01  0.10197122083E+01 0.  0.
     999903    2    3    3    0    0  0.46468716801E-01  0.93691031928E-01 -0.77811935613E-01  0.13196816610E+00  0.20580292365E-01 0.  0.
         14    1    1    2    0    0 -0.51130541104E-02 -0.22020408146E-01 -0.78697263023E-02  0.23936881362E-01  0.00000000000E+00 0.  1.
     999901    1    3    3    0    0 -0.41355662691E-01 -0.71670623782E-01  0.85681661915E-01  0.88802495254E+00  0.88000000000E+00 0.  1.
        -11    1    4    4    0    0  0.38424012059E-02  0.27700073066E-01 -0.18582592658E-01  0.33580231771E-01  0.51100000000E-03 0.  1.
         11    1    4    4    0    0  0.42626315595E-01  0.65990958862E-01 -0.59229342955E-01  0.98387934324E-01  0.51100000000E-03 0. -1.
</event>
<event>
 8    1  0.1074844E+005  0.1043930E+01  0.7957747E-01            NaN
         13   -1    0    0    0    0  0.00000000000E+00  0.00000000000E+00  0.74505805969E-08  0.10566000000E+00  0.10566000000E+00 0.  1.
     999900   -1    0    0    0    0 -0.00000000000E+00 -0.00000000000E+00 -0.74505805969E-08  0.93827000000E+00  0.93827000000E+00 0. -1.
     999902    2    1    2    0    0  0.99598796786E-02 -0.57309297279E-02  0.19311462847E-01  0.10214583433E+01  0.10212111298E+01 0.  0.
     999903    2    3    3    0    0 -0.11972865506E+00 -0.44602550364E-01  0.21374634722E-01  0.13110202381E+00  0.20162522081E-01 0.  0.
         14    1    1    2    0    0 -0.99598796786E-02  0.57309297279E-02 -0.19311462847E-01  0.22471656726E-01  0.00000000000E+00 0. -1.
     999901    1    3    3    0    0  0.12968853473E+00  0.38871620636E-01 -0.20631718751E-02  0.89035631946E+00  0.88000000000E+00 0.  1.
        -11    1    4    4    0    0 -0.61000388118E-01 -0.17117542175E-01  0.19269987674E-01  0.66224248933E-01  0.51100000000E-03 0. -1.
         11    1    4    4    0    0 -0.58728266938E-01 -0.27485008189E-01  0.21046470473E-02  0.64877774876E-01  0.51100000000E-03 0.  1.
</event>
<event>
 8    1  0.1074844E+005  0.1043930E+01  0.7957747E-01            NaN
         13   -1    0    0    0    0  0.00000000000E+00  0.00000000000E+00  0.74505805969E-08  0.10566000000E+00  0.10566000000E+00 0. -1.
     999900   -1    0    0    0    0 -0.00000000000E+00 -0.00000000000E+00 -0.74505805969E-08  0.93827000000E+00  0.93827000000E+00 0. -1.
     999902    2    1    2    0    0  0.77854966271E-02 -0.60425171422E-02 -0.21059477400E-01  0.10206786009E+01  0.10204137292E+01 0.  0.
     999903    2    3    3    0    0  0.68533434488E-01 -0.81027575410E-01  0.73167149762E-01  0.13040239198E+00  0.19724411561E-01 0.  0.
         14    1    1    2    0    0 -0.77854966271E-02  0.60425171422E-02  0.21059477400E-01  0.23251399087E-01  0.00000000000E+00 0. -1.
     999901    1    3    3    0    0 -0.60747937861E-01  0.74985058268E-01 -0.94226627162E-01  0.89027620893E+00  0.88000000000E+00 0. -1.
        -11    1    4    4    0    0  0.39609176647E-01 -0.57654427230E-01  0.40059201228E-01  0.80609680423E-01  0.51100000000E-03 0. -1.
         11    1    4    4    0    0  0.28924257841E-01 -0.23373148180E-01  0.33107948534E-01  0.49792711561E-01  0.51100000000E-03 0.  1.
</event>
<event>
 8    1  0.1074844E+005  0.1043930E+01  0.7957747E-01            NaN
         13   -1    0    0    0    0  0.00000000000E+00  0.00000000000E+00  0.74505805969E-08  0.10566000000E+00  0.10566000000E+00 0. -1.
     999900   -1    0    0    0    0 -0.00000000000E+00 -0.00000000000E+00 -0.74505805969E-08  0.93827000000E+00  0.93827000000E+00 0. -1.
     999902    2    1    2    0    0 -0.49804301227E-02 -0.25622569345E-01 -0.42426461508E-02  0.10174853259E+01  0.10171416163E+01 0.  0.
     999903    2    3    3    0    0  0.38392091905E-01  0.53374258867E-01  0.10560130896E+00  0.12608902286E+00  0.20592255828E-01 0.  0.
         14    1    1    2    0    0  0.49804301227E-02  0.25622569345E-01  0.42426461508E-02  0.26444674141E-01  0.00000000000E+00 0. -1.
     999901    1    3    3    0    0 -0.43372522028E-01 -0.78996828212E-01 -0.10984395511E+00  0.89139630300E+00  0.88000000000E+00 0. -1.
        -11    1    4    4    0    0  0.28098564853E-01  0.38947820673E-01  0.91858930776E-01  0.10365706134E+00  0.51100000000E-03 0.  1.
         11    1    4    4    0    0  0.10293527053E-01  0.14426438193E-01  0.13742378184E-01  0.22431961512E-01  0.51100000000E-03 0. -1.
</event>
<event>
 8    1  0.1074844E+005  0.1043930E+01  0.7957747E-01            NaN
         13   -1    0    0    0    0  0.00000000000E+00  0.00000000000E+00  0.74505805969E-08  0.10566000000E+00  0.10566000000E+00 0.  1.
     999900   -1    0    0    0    0 -0.00000000000E+00 -0.00000000000E+00 -0.74505805969E-08  0.93827000000E+00  0.93827000000E+00 0.  1.
     999902    2    1    2    0    0  0.11561191749E-02  0.10940483112E-01 -0.18065995359E-01  0.10227779086E+01  0.10225591618E+01 0.  0.
     999903    2    3    3    0    0  0.19319623733E-01  0.99957045409E-01  0.82249983086E-01  0.13243125881E+00  0.20206924664E-01 0.  0.
         14    1    1    2    0    0 -0.11561191749E-02 -0.10940483112E-01  0.18065995359E-01  0.21152091400E-01  0.00000000000E+00 0.  1.
     999901    1    3    3    0    0 -0.18163504558E-01 -0.89016562296E-01 -0.10031597845E+00  0.89034664979E+00  0.88000000000E+00 0.  1.
        -11    1    4    4    0    0  0.67218476569E-02  0.74497984192E-01  0.53147499584E-01  0.91760834334E-01  0.51100000000E-03 0. -1.
         11    1    4    4    0    0  0.12597776076E-01  0.25459061216E-01  0.29102483502E-01  0.40670424476E-01  0.51100000000E-03 0.  1.
</event>
<event>
 8    1  0.1074844E+005  0.1043930E+01  0.7957747E-01            NaN
         13   -1    0    0    0    0  0.00000000000E+00  0.00000000000E+00  0.74505805969E-08  0.10566000000E+00  0.10566000000E+00 0.  1.
     999900   -1    0    0    0    0 -0.00000000000E+00 -0.00000000000E+00 -0.74505805969E-08  0.93827000000E+00  0.93827000000E+00 0. -1.
     999902    2    1    2    0    0 -0.14007796247E-01 -0.19124020436E-01  0.24019733708E-02  0.10201032086E+01  0.10198249066E+01 0.  0.
     999903    2    3    3    0    0  0.10370706466E+00  0.64255916073E-01 -0.31756168497E-01  0.12770431742E+00  0.20395108178E-01 0.  0.
         14    1    1    2    0    0  0.14007796247E-01  0.19124020436E-01 -0.24019733708E-02  0.23826791421E-01  0.00000000000E+00 0. -1.
     999901    1    3    3    0    0 -0.11771486091E+00 -0.83379936509E-01  0.34158141868E-01  0.89239889116E+00  0.88000000000E+00 0. -1.
        -11    1    4    4    0    0  0.45028485300E-01  0.22155644617E-01 -0.40448234838E-02  0.50349367373E-01  0.51100000000E-03 0.  1.
         11    1    4    4    0    0  0.58678579364E-01  0.42100271455E-01 -0.27711345014E-01  0.77354950044E-01  0.51100000000E-03 0. -1.
</event>
<event>
 7    1  0.1074844E+005  0.1043930E+01  0.7957747E-01            NaN
         13   -1    0    0    0    0  0.00000000000E+00  0.00000000000E+00  0.74505805969E-08  0.10566000000E+00  0.10566000000E+00 0. -1.
     999900   -1    0    0    0    0 -0.00000000000E+00 -0.00000000000E+00 -0.74505805969E-08  0.93827000000E+00  0.93827000000E+00 0.  1.
     999903    2    1    2    0    0  0.61078857234E-01  0.40073461724E-01 -0.79343395271E-01  0.10962224296E+00  0.19625306177E-01 0.  0.
         14    1    1    2    0    0  0.41780276282E-01 -0.44444202252E-02 -0.97609984152E-02  0.43134921437E-01  0.00000000000E+00 0.  1.
     999901    1    1    2    0    0 -0.10285913352E+00 -0.35629041499E-01  0.89104393686E-01  0.89117283560E+00  0.88000000000E+00 0. -1.
        -11    1    3    3    0    0  0.38668203175E-01  0.13707250509E-01 -0.43680050220E-01  0.59927677759E-01  0.51100000000E-03 0.  1.
         11    1    3    3    0    0  0.22410654058E-01  0.26366211215E-01 -0.35663345051E-01  0.49694565200E-01  0.51100000000E-03 0. -1.
</event>
<event>
 8    1  0.1074844E+005  0.1043930E+01  0.7957747E-01            NaN
         13   -1    0    0    0    0  0.00000000000E+00  0.00000000000E+00  0.74505805969E-08  0.10566000000E+00  0.10566000000E+00 0. -1.
     999900   -1    0    0    0    0 -0.00000000000E+00 -0.00000000000E+00 -0.74505805969E-08  0.93827000000E+00  0.93827000000E+00 0. -1.
     999902    2    1    2    0    0  0.94324513679E-02 -0.12266132041E-01 -0.21314409276E-01  0.10175911850E+01  0.10172502576E+01 0.  0.
     999903    2    3    3    0    0 -0.41432490707E-01 -0.78081017913E-01  0.88854778940E-01  0.12682966158E+00  0.19424074521E-01 0.  0.
         14    1    1    2    0    0 -0.94324513679E-02  0.12266132041E-01  0.21314409276E-01  0.26338815023E-01  0.00000000000E+00 0. -1.
     999901    1    3    3    0    0  0.50864942075E-01  0.65814885872E-01 -0.11016918822E+00  0.89076152340E+00  0.88000000000E+00 0. -1.
        -11    1    4    4    0    0 -0.18662704590E-01 -0.27958963487E-01  0.21795588454E-01  0.40066307278E-01  0.51100000000E-03 0. -1.
         11    1    4    4    0    0 -0.22769786118E-01 -0.50122054427E-01  0.67059190486E-01  0.86763354300E-01  0.51100000000E-03 0.  1.
</event>
<event>
 8    1  0.1074844E+005  0.1043930E+01  0.7957747E-01            NaN
         13   -1    0    0    0    0  0.00000000000E+00  0.00000000000E+00  0.74505805969E-08  0.10566000000E+00  0.10566000000E+00 0.  1.
     999900   -1    0    0    0    0 -0.00000000000E+00 -0.00000000000E+00 -0.74505805969E-08  0.93827000000E+00  0.93827000000E+00 0. -1.
     999902    2    1    2    0    0 -0.16891032749E-02 -0.15454352384E-01 -0.12692235358E-01  0.10238605477E+01  0.10236638307E+01 0.  0.
     999903    2    3    3    0    0 -0.72464461514E-01  0.10760353551E+00 -0.18661874560E-02  0.13241812195E+00  0.26485039683E-01 0.  0.
         14    1    1    2    0    0  0.16891032749E-02  0.15454352384E-01  0.12692235358E-01  0.20069452306E-01  0.00000000000E+00 0. -1.
     999901    1    3    3    0    0  0.70775358239E-01 -0.12305788790E+00 -0.10826047902E-01  0.89144242575E+00  0.88000000000E+00 0.  1.
        -11    1    4    4    0    0 -0.33310948980E-01  0.40987650523E-01  0.11348213515E-01  0.54024530431E-01  0.51100000000E-03 0.  1.
         11    1    4    4    0    0 -0.39153512534E-01  0.66615884990E-01 -0.13214400971E-01  0.78393591516E-01  0.51100000000E-03 0. -1.
</event>
<event>
 8    1  0.1074844E+005  0.1043930E+01  0.7957747E-01            NaN
         13   -1    0    0    0    0  0.00000000000E+00  0.00000000000E+00  0.74505805969E-08  0.10566000000E+00  0.10566000000E+00 0.  1.
     999900   -1    0    0    0    0 -0.00000000000E+00 -0.00000000000E+00 -0.74505805969E-08  0.93827000000E+00  0.93827000000E+00 0.  1.
     999902    2    1    2    0    0  0.32420324750E-02  0.52135989503E-02 -0.22032447148E-01  0.10210581589E+01  0.10208019606E+01 0.  0.
     999903    2    3    3    0    0 -0.88519098196E-01  0.54503789685E-01  0.74874736130E-01  0.12963198125E+00  0.19797237604E-01 0.  0.
         14    1    1    2    0    0 -0.32420324750E-02 -0.52135989503E-02  0.22032447148E-01  0.22871841114E-01  0.00000000000E+00 0.  1.
     999901    1    3    3    0    0  0.91761130671E-01 -0.49290190735E-01 -0.96907183278E-01  0.89142617764E+00  0.88000000000E+00 0.  1.
        -11    1    4    4    0    0 -0.16413071012E-01  0.12317059240E-01  0.60756260272E-02  0.21407316530E-01  0.51100000000E-03 0.  1.
         11    1    4    4    0    0 -0.72106027184E-01  0.42186730445E-01  0.68799110102E-01  0.10822466472E+00  0.51100000000E-03 0. -1.
</event>
<event>
 8    1  0.1074844E+005  0.1043930E+01  0.7957747E-01            NaN
         13   -1    0    0    0    0  0.00000000000E+00  0.00000000000E+00  0.74505805969E-08  0.10566000000E+00  0.10566000000E+00 0. -1.
     999900   -1    0    0    0    0 -0.00000000000E+00 -0.00000000000E+00 -0.74505805969E-08  0.93827000000E+00  0.93827000000E+00 0. -1.
     999902    2    1    2    0    0  0.34315856739E-02  0.19313439714E-01  0.13141385840E-01  0.10203189696E+01  0.10200457436E+01 0.  0.
     999903    2    3    3    0    0  0.45577489907E-01  0.64267839477E-01 -0.10230550541E+00  0.13064197205E+00  0.19830422261E-01 0.  0.
         14    1    1    2    0    0 -0.34315856739E-02 -0.19313439714E-01 -0.13141385840E-01  0.23611030381E-01  0.00000000000E+00 0.  1.
     999901    1    3    3    0    0 -0.42145904233E-01 -0.44954399763E-01  0.11544689125E+00  0.88967699757E+00  0.88000000000E+00 0.  1.
        -11    1    4    4    0    0  0.47094379410E-02  0.38908089196E-03 -0.10779412698E-01  0.11780791517E-01  0.51100000000E-03 0. -1.
         11    1    4    4    0    0  0.40868051966E-01  0.63878758585E-01 -0.91526092713E-01  0.11886118053E+00  0.51100000000E-03 0.  1.
</event>
<event>
 7    1  0.1074844E+005  0.1043930E+01  0.7957747E-01            NaN
         13   -1    0    0    0    0  0.00000000000E+00  0.00000000000E+00  0.74505805969E-08  0.10566000000E+00  0.10566000000E+00 0.  1.
     999900   -1    0    0    0    0 -0.00000000000E+00 -0.00000000000E+00 -0.74505805969E-08  0.93827000000E+00  0.93827000000E+00 0.  1.
     999903    2    1    2    0    0 -0.37328921797E-01  0.57002344924E-01  0.80675500576E-02  0.71375793130E-01  0.19664759130E-01 0.  0.
         14    1    1    2    0    0  0.17969585081E-01  0.23440316532E-01 -0.80463629435E-01  0.85713185035E-01  0.00000000000E+00 0. -1.
     999901    1    1    2    0    0  0.19359336715E-01 -0.80442661456E-01  0.72396079377E-01  0.88684102183E+00  0.88000000000E+00 0. -1.
        -11    1    3    3    0    0 -0.12900308685E-01  0.24213654476E-01  0.12673325259E-01  0.30225706300E-01  0.51100000000E-03 0. -1.
         11    1    3    3    0    0 -0.24428613112E-01  0.32788690448E-01 -0.46057752011E-02  0.41150086829E-01  0.51100000000E-03 0.  1.
</event>
<event>
 8    1  0.1074844E+005  0.1043930E+01  0.7957747E-01            NaN
         13   -1    0    0    0    0  0.00000000000E+00  0.00000000000E+00  0.74505805969E-08  0.10566000000E+00  0.10566000000E+00 0. -1.
     999900   -1    0    0    0    0 -0.00000000000E+00 -0.00000000000E+00 -0.74505805969E-08  0.93827000000E+00  0.93827000000E+00 0. -1.
     999902    2    1    2    0    0 -0.96266213654E-02 -0.92846611545E-02 -0.19209250120E-01  0.10205233330E+01  0.10202548706E+01 0.  0.
     999903    2    3    3    0    0  0.56212817923E-01  0.18149617645E-02  0.11333820389E+00  0.12809582276E+00  0.19995408562E-01 0.  0.
         14    1    1    2    0    0  0.96266213654E-02  0.92846611545E-02  0.19209250120E-01  0.23406667039E-01  0.00000000000E+00 0. -1.
     999901    1    3    3    0    0 -0.65839439288E-01 -0.11099622919E-01 -0.13254745401E+00  0.89242751020E+00  0.88000000000E+00 0. -1.
        -11    1    4    4    0    0  0.11711413337E-01 -0.57099831080E-02  0.39061865377E-01  0.41180718269E-01  0.51100000000E-03 0.  1.
         11    1    4    4    0    0  0.44501404585E-01  0.75249448725E-02  0.74276338512E-01  0.86915104494E-01  0.51100000000E-03 0. -1.
</event>
<event>
 8    1  0.1074844E+005  0.1043930E+01  0.7957747E-01            NaN
         13   -1    0    0    0    0  0.00000000000E+00  0.00000000000E+00  0.74505805969E-08  0.10566000000E+00  0.10566000000E+00 0. -1.
     999900   -1    0    0    0    0 -0.00000000000E+00 -0.00000000000E+00 -0.74505805969E-08  0.93827000000E+00  0.93827000000E+00 0. -1.
     999902    2    1    2    0    0 -0.95984426026E-02 -0.21481172308E-01 -0.64375940105E-02  0.10195371018E+01  0.10192452544E+01 0.  0.
     999903    2    3    3    0    0 -0.18074222237E-01  0.66657628290E-01  0.10571573819E+00  0.12801107477E+00  0.21002405690E-01 0.  0.
         14    1    1    2    0    0  0.95984426026E-02  0.21481172308E-01  0.64375940105E-02  0.24392898163E-01  0.00000000000E+00 0. -1.
     999901    1    3    3    0    0  0.84757796342E-02 -0.88138800599E-01 -0.11215333220E+00  0.89152602707E+00  0.88000000000E+00 0. -1.
        -11    1    4    4    0    0 -0.13056309588E-01  0.14141283528E-01  0.32337753617E-01  0.37635549018E-01  0.51100000000E-03 0.  1.
         11    1    4    4    0    0 -0.50179126485E-02  0.52516344762E-01  0.73377984572E-01  0.90375525754E-01  0.51100000000E-03 0. -1.
</event>
<event>
 8    1  0.1074844E+005  0.1043930E+01  0.7957747E-01            NaN
         13   -1    0    0    0    0  0.00000000000E+00  0.00000000000E+00  0.74505805969E-08  0.10566000000E+00  0.10566000000E+00 0. -1.
     999900   -1    0    0    0    0 -0.00000000000E+00 -0.00000000000E+00 -0.74505805969E-08  0.93827000000E+00  0.93827000000E+00 0.  1.
     999902    2    1    2    0    0  0.22741790977E-01 -0.27235202920E-02  0.84226402647E-02  0.10195261583E+01  0.10192340457E+01 0.  0.
     999903    2    3    3    0    0  0.12966815545E+00  0.78204941094E-02 -0.17453074589E-01  0.13261354917E+00  0.20168117022E-01 0.  0.
         14    1    1    2    0    0 -0.22741790977E-01  0.27235202920E-02 -0.84226402647E-02  0.24403841678E-01  0.00000000000E+00 0.  1.
     999901    1    3    3    0    0 -0.10692636447E+00 -0.10544014401E-01  0.25875714854E-01  0.88691260916E+00  0.88000000000E+00 0. -1.
        -11    1    4    4    0    0  0.69839129161E-01 -0.58513726026E-02 -0.95582632863E-02  0.70734461483E-01  0.51100000000E-03 0. -1.
         11    1    4    4    0    0  0.59829026289E-01  0.13671866712E-01 -0.78948113029E-02  0.61879087684E-01  0.51100000000E-03 0.  1.
</event>
<event>
 8    1  0.1074844E+005  0.1043930E+01  0.7957747E-01            NaN
         13   -1    0    0    0    0  0.00000000000E+00  0.00000000000E+00  0.74505805969E-08  0.10566000000E+00  0.10566000000E+00 0. -1.
     999900   -1    0    0    0    0 -0.00000000000E+00 -0.00000000000E+00 -0.74505805969E-08  0.93827000000E+00  0.93827000000E+00 0.  1.
     999902    2    1    2    0    0  0.13523802507E-01  0.59605050898E-02 -0.18995392023E-01  0.10198624747E+01  0.10195784529E+01 0.  0.
     999903    2    3    3    0    0 -0.60407939577E-01  0.11040414669E+00  0.24195168520E-01  0.12955926722E+00  0.19026370437E-01 0.  0.
         14    1    1    2    0    0 -0.13523802507E-01 -0.59605050898E-02  0.18995392023E-01  0.24067525284E-01  0.00000000000E+00 0. -1.
     999901    1    3    3    0    0  0.73931742084E-01 -0.10444364160E+00 -0.43190560543E-01  0.89030320750E+00  0.88000000000E+00 0.  1.
        -11    1    4    4    0    0 -0.22511482417E-01  0.54721192005E-01  0.43174918467E-02  0.59330241462E-01  0.51100000000E-03 0.  1.
         11    1    4    4    0    0 -0.37896457160E-01  0.55682954687E-01  0.19877676673E-01  0.70229025757E-01  0.51100000000E-03 0. -1.
</event>
<event>
 8    1  0.1074844E+005  0.1043930E+01  0.7957747E-01            NaN
         13   -1    0    0    0    0  0.00000000000E+00  0.00000000000E+00  0.74505805969E-08  0.10566000000E+00  0.10566000000E+00 0. -1.
     999900   -1    0    0    0    0 -0.00000000000E+00 -0.00000000000E+00 -0.74505805969E-08  0.93827000000E+00  0.93827000000E+00 0.  1.
     999902    2    1    2    0    0  0.22328957127E-01 -0.97858216138E-02  0.25254537594E-02  0.10194203581E+01  0.10191256762E+01 0.  0.
     999903    2    3    3    0    0 -0.12270932697E+00  0.72890937246E-02  0.24727860265E-01  0.12710841517E+00  0.20841600699E-01 0.  0.
         14    1    1    2    0    0 -0.22328957127E-01  0.97858216138E-02 -0.25254537594E-02  0.24509641934E-01  0.00000000000E+00 0. -1.
     999901    1    3    3    0    0  0.14503828410E+00 -0.17074915338E-01 -0.22202406506E-01  0.89231194290E+00  0.88000000000E+00 0. -1.
        -11    1    4    4    0    0 -0.51684389959E-01  0.13264563054E-01  0.12188647710E-01  0.54736176816E-01  0.51100000000E-03 0. -1.
         11    1    4    4    0    0 -0.71024937012E-01 -0.59754693294E-02  0.12539212556E-01  0.72372238350E-01  0.51100000000E-03 0.  1.
</event>
<event>
 8    1  0.1074844E+005  0.1043930E+01  0.7957747E-01            NaN
         13   -1    0    0    0    0  0.00000000000E+00  0.00000000000E+00  0.74505805969E-08  0.10566000000E+00  0.10566000000E+00 0.  1.
     999900   -1    0    0    0    0 -0.00000000000E+00 -0.00000000000E+00 -0.74505805969E-08  0.93827000000E+00  0.93827000000E+00 0.  1.
     999902    2    1    2    0    0 -0.10350867363E-01 -0.28348018815E-03  0.13701743294E-01  0.10267556416E+01  0.10266119954E+01 0.  0.
     999903    2    3    3    0    0 -0.31012610847E-01  0.10058700425E+00 -0.82858019593E-01  0.13550620960E+00  0.20419450914E-01 0.  0.
         14    1    1    2    0    0  0.10350867363E-01  0.28348018815E-03 -0.13701743294E-01  0.17174358372E-01  0.00000000000E+00 0. -1.
     999901    1    3    3    0    0  0.20661743483E-01 -0.10087048443E+00  0.96559762887E-01  0.89124943202E+00  0.88000000000E+00 0.  1.
        -11    1    4    4    0    0 -0.26325377852E-01  0.65782204617E-01 -0.45377843241E-01  0.84141153673E-01  0.51100000000E-03 0.  1.
         11    1    4    4    0    0 -0.46872329949E-02  0.34804799630E-01 -0.37480176352E-01  0.51365055931E-01  0.51100000000E-03 0. -1.
</event>
<event>
 8    1  0.1074844E+005  0.1043930E+01  0.7957747E-01            NaN
         13   -1    0    0    0    0  0.00000000000E+00  0.00000000000E+00  0.74505805969E-08  0.10566000000E+00  0.10566000000E+00 0.  1.
     999900   -1    0    0    0    0 -0.00000000000E+00 -0.00000000000E+00 -0.74505805969E-08  0.93827000000E+00  0.93827000000E+00 0. -1.
     999902    2    1    2    0    0  0.54529775772E-02  0.20278023976E-01 -0.10763484744E-01  0.10203336904E+01  0.10200608090E+01 0.  0.
     999903    2    3    3    0    0 -0.24331170377E-01 -0.82991916092E-01  0.92093408817E-01  0.12784765888E+00  0.19600100611E-01 0.  0.
         14    1    1    2    0    0 -0.54529775772E-02 -0.20278023976E-01  0.10763484744E-01  0.23596309556E-01  0.00000000000E+00 0.  1.
     999901    1    3    3    0    0  0.29784147954E-01  0.10326994007E+00 -0.10285689356E+00  0.89248603157E+00  0.88000000000E+00 0. -1.
        -11    1    4    4    0    0  0.22492107215E-02 -0.22240485225E-01  0.22652755748E-01  0.31829335461E-01  0.51100000000E-03 0.  1.
         11    1    4    4    0    0 -0.26580381099E-01 -0.60751430866E-01  0.69440653069E-01  0.96018323415E-01  0.51100000000E-03 0. -1.
</event>
<event>
 8    1  0.1074844E+005  0.1043930E+01  0.7957747E-01            NaN
         13   -1    0    0    0    0  0.00000000000E+00  0.00000000000E+00  0.74505805969E-08  0.10566000000E+00  0.10566000000E+00 0.  1.
     999900   -1    0    0    0    0 -0.00000000000E+00 -0.00000000000E+00 -0.74505805969E-08  0.93827000000E+00  0.93827000000E+00 0.  1.
     999902    2    1    2    0    0 -0.11811201793E-01  0.49183156116E-02 -0.20208516101E-01  0.10200118387E+01  0.10197313728E+01 0.  0.
     999903    2    3    3    0    0 -0.16863113569E-01 -0.37260254019E-01  0.11958708378E+00  0.12796511164E+00  0.20032674825E-01 0.  0.
         14    1    1    2    0    0  0.11811201793E-01 -0.49183156116E-02  0.20208516101E-01  0.23918161285E-01  0.00000000000E+00 0.  1.
     999901    1    3    3    0    0  0.50519117762E-02  0.42178569631E-01 -0.13979559988E+00  0.89204672708E+00  0.88000000000E+00 0.  1.
        -11    1    4    4    0    0 -0.18555044398E-01 -0.16905112929E-01  0.66662181135E-01  0.71233278953E-01  0.51100000000E-03 0. -1.
         11    1    4    4    0    0  0.16919308298E-02 -0.20355141091E-01  0.52924902642E-01  0.56731832682E-01  0.51100000000E-03 0.  1.
</event>
<event>
 8    1  0.1074844E+005  0.1043930E+01  0.7957747E-01            NaN
         13   -1    0    0    0    0  0.00000000000E+00  0.00000000000E+00  0.74505805969E-08  0.10566000000E+00  0.10566000000E+00 0.  1.
     999900   -1    0    0    0    0 -0.00000000000E+00 -0.00000000000E+00 -0.74505805969E-08  0.93827000000E+00  0.93827000000E+00 0. -1.
     999902    2    1    2    0    0 -0.95767689416E-02 -0.15209903696E-01  0.14717337951E-01  0.10206995090E+01  0.10204351190E+01 0.  0.
     999903    2    3    3    0    0 -0.39052162989E-01  0.70522699142E-01 -0.98532418709E-01  0.12882261988E+00  0.19700439764E-01 0.  0.
         14    1    1    2    0    0  0.95767689416E-02  0.15209903696E-01 -0.14717337951E-01  0.23230490959E-01  0.00000000000E+00 0. -1.
     999901    1    3    3    0    0  0.29475394047E-01 -0.85732602838E-01  0.11324975666E+00  0.89187688917E+00  0.88000000000E+00 0.  1.
        -11    1    4    4    0    0 -0.12092694152E-01  0.40952647598E-01 -0.45727740843E-01  0.62567084004E-01  0.51100000000E-03 0.  1.
         11    1    4    4    0    0 -0.26959468836E-01  0.29570051544E-01 -0.52804677866E-01  0.66255535872E-01  0.51100000000E-03 0. -1.
</event>
<event>
 8    1  0.1074844E+005  0.1043930E+01  0.7957747E-01            NaN
         13   -1    0    0    0    0  0.00000000000E+00  0.00000000000E+00  0.74505805969E-08  0.10566000000E+00  0.10566000000E+00 0. -1.
     999900   -1    0    0    0    0 -0.00000000000E+00 -0.00000000000E+00 -0.74505805969E-08  0.93827000000E+00  0.93827000000E+00 0. -1.
     999902    2    1    2    0    0 -0.18960296702E-01 -0.86783880753E-02  0.11821001895E-01  0.10199603660E+01  0.10196786772E+01 0.  0.
     999903    2    3    3    0    0 -0.45092727765E-01 -0.43120984465E-01 -0.11250250118E+00  0.13017076733E+00  0.19870644102E-01 0.  0.
         14    1    1    2    0    0  0.18960296702E-01  0.86783880753E-02 -0.11821001895E-01  0.23969634048E-01  0.00000000000E+00 0. -1.
     999901    1    3    3    0    0  0.26132431063E-01  0.34442596390E-01  0.12432350307E+00  0.88978959862E+00  0.88000000000E+00 0.  1.
        -11    1    4    4    0    0 -0.19291799753E-01 -0.16136554569E-01 -0.65355223198E-01  0.70029481301E-01  0.51100000000E-03 0. -1.
         11    1    4    4    0    0 -0.25800928012E-01 -0.26984429896E-01 -0.47147277982E-01  0.60141286029E-01  0.51100000000E-03 0.  1.
</event>
<event>
 8    1  0.1074844E+005  0.1043930E+01  0.7957747E-01            NaN
         13   -1    0    0    0    0  0.00000000000E+00  0.00000000000E+00  0.74505805969E-08  0.10566000000E+00  0.10566000000E+00 0.  1.
     999900   -1    0    0    0    0 -0.00000000000E+00 -0.00000000000E+00 -0.74505805969E-08  0.93827000000E+00  0.93827000000E+00 0.  1.
     999902    2    1    2    0    0 -0.40247745977E-02 -0.63052927802E-03 -0.24821538944E-01  0.10187763686E+01  0.10184657991E+01 0.  0.
     999903    2    3    3    0    0 -0.68367050687E-01  0.64819590118E-01  0.83428982914E-01  0.12740561402E+00  0.19903829024E-01 0.  0.
         14    1    1    2    0    0  0.40247745977E-02  0.63052927802E-03  0.24821538944E-01  0.25153631413E-01  0.00000000000E+00 0.  1.
     999901    1    3    3    0    0  0.64342276090E-01 -0.65450119396E-01 -0.10825052186E+00  0.89137075457E+00  0.88000000000E+00 0.  1.
        -11    1    4    4    0    0 -0.36007629613E-01  0.46504505793E-01  0.55840948502E-01  0.81102966037E-01  0.51100000000E-03 0.  1.
         11    1    4    4    0    0 -0.32359421075E-01  0.18315084326E-01  0.27588034412E-01  0.46302647979E-01  0.51100000000E-03 0. -1.
</event>
<event>
 8    1  0.1074844E+005  0.1043930E+01  0.7957747E-01            NaN
         13   -1    0    0    0    0  0.00000000000E+00  0.00000000000E+00  0.74505805969E-08  0.10566000000E+00  0.10566000000E+00 0.  1.
     999900   -1    0    0    0    0 -0.00000000000E+00 -0.00000000000E+00 -0.74505805969E-08  0.93827000000E+00  0.93827000000E+00 0.  1.
     999902    2    1    2    0    0 -0.97780251450E-02  0.15452790094E-01  0.14363668918E-01  0.10206767533E+01  0.10204118390E+01 0.  0.
     999903    2    3    3    0    0 -0.90302067874E-01  0.81101413964E-01 -0.49025720745E-01  0.13230066290E+00  0.19184402491E-01 0.  0.
         14    1    1    2    0    0  0.97780251450E-02 -0.15452790094E-01 -0.14363668918E-01  0.23253246703E-01  0.00000000000E+00 0. -1.
     999901    1    3    3    0    0  0.80524042729E-01 -0.65648623870E-01  0.63389389663E-01  0.88837609040E+00  0.88000000000E+00 0.  1.
        -11    1    4    4    0    0 -0.29435628641E-01  0.15641052245E-01 -0.16327841018E-01  0.37120860202E-01  0.51100000000E-03 0. -1.
         11    1    4    4    0    0 -0.60866439234E-01  0.65460361719E-01 -0.32697879727E-01  0.95179802695E-01  0.51100000000E-03 0.  1.
</event>
<event>
 8    1  0.1074844E+005  0.1043930E+01  0.7957747E-01            NaN
         13   -1    0    0    0    0  0.00000000000E+00  0.00000000000E+00  0.74505805969E-08  0.10566000000E+00  0.10566000000E+00 0.  1.
     999900   -1    0    0    0    0 -0.00000000000E+00 -0.00000000000E+00 -0.74505805969E-08  0.93827000000E+00  0.93827000000E+00 0. -1.
     999902    2    1    2    0    0 -0.14813340266E-01 -0.74660505663E-02  0.17986575276E-01  0.10194617788E+01  0.10191681041E+01 0.  0.
     999903    2    3    3    0    0  0.59697354576E-01 -0.78981624469E-01  0.83379150354E-01  0.13101228113E+00  0.20254973340E-01 0.  0.
         14    1    1    2    0    0  0.14813340266E-01  0.74660505663E-02 -0.17986575276E-01  0.24468221248E-01  0.00000000000E+00 0. -1.
     999901    1    3    3    0    0 -0.74510694842E-01  0.71515573903E-01 -0.65392575079E-01  0.88844949763E+00  0.88000000000E+00 0. -1.
        -11    1    4    4    0    0  0.23195343961E-01 -0.20243891257E-01  0.34977376365E-01  0.46599539623E-01  0.51100000000E-03 0. -1.
         11    1    4    4    0    0  0.36502010615E-01 -0.58737733212E-01  0.48401773989E-01  0.84412741504E-01  0.51100000000E-03 0.  1.
</event>
<event>
 8    1  0.1074844E+005  0.1043930E+01  0.7957747E-01            NaN
         13   -1    0    0    0    0  0.00000000000E+00  0.00000000000E+00  0.74505805969E-08  0.10566000000E+00  0.10566000000E+00 0. -1.
     999900   -1    0    0    0    0 -0.00000000000E+00 -0.00000000000E+00 -0.74505805969E-08  0.93827000000E+00  0.93827000000E+00 0. -1.
     999902    2    1    2    0    0  0.27499453566E-02 -0.92473281210E-03  0.23419506553E-01  0.10203314700E+01  0.10200585366E+01 0.  0.
     999903    2    3    3    0    0 -0.85123929863E-01 -0.16632724544E-01  0.98177923472E-01  0.13266183561E+00  0.20917146277E-01 0.  0.
         14    1    1    2    0    0 -0.27499453566E-02  0.92473281210E-03 -0.23419506553E-01  0.23598529984E-01  0.00000000000E+00 0.  1.
     999901    1    3    3    0    0  0.87873875220E-01  0.15707991732E-01 -0.74758416919E-01  0.88766963441E+00  0.88000000000E+00 0. -1.
        -11    1    4    4    0    0 -0.44870633636E-01  0.14217378457E-02  0.45027208286E-01  0.63585420565E-01  0.51100000000E-03 0.  1.
         11    1    4    4    0    0 -0.40253296227E-01 -0.18054462390E-01  0.53150715186E-01  0.69076415042E-01  0.51100000000E-03 0. -1.
</event>
<event>
 8    1  0.1074844E+005  0.1043930E+01  0.7957747E-01            NaN
         13   -1    0    0    0    0  0.00000000000E+00  0.00000000000E+00  0.74505805969E-08  0.10566000000E+00  0.10566000000E+00 0.  1.
     999900   -1    0    0    0    0 -0.00000000000E+00 -0.00000000000E+00 -0.74505805969E-08  0.93827000000E+00  0.93827000000E+00 0. -1.
     999902    2    1    2    0    0 -0.81475021987E-02 -0.21454712049E-01 -0.49687467494E-02  0.10204486264E+01  0.10201784277E+01 0.  0.
     999903    2    3    3    0    0  0.17377427933E-01 -0.10045099587E+00 -0.83200046400E-01  0.13308620262E+00  0.19932687603E-01 0.  0.
         14    1    1    2    0    0  0.81475021987E-02  0.21454712049E-01  0.49687467494E-02  0.23481373585E-01  0.00000000000E+00 0.  1.
     999901    1    3    3    0    0 -0.25524930131E-01  0.78996283818E-01  0.78231299651E-01  0.88736242379E+00  0.88000000000E+00 0.  1.
        -11    1    4    4    0    0  0.35869946834E-02 -0.32228273457E-01 -0.15339749132E-01  0.35876136432E-01  0.51100000000E-03 0. -1.
         11    1    4    4    0    0  0.13790433249E-01 -0.68222722410E-01 -0.67860297268E-01  0.97210066189E-01  0.51100000000E-03 0.  1.
</event>
<event>
 8    1  0.1074844E+005  0.1043930E+01  0.7957747E-01            NaN
         13   -1    0    0    0    0  0.00000000000E+00  0.00000000000E+00  0.74505805969E-08  0.10566000000E+00  0.10566000000E+00 0.  1.
     999900   -1    0    0    0    0 -0.00000000000E+00 -0.00000000000E+00 -0.74505805969E-08  0.93827000000E+00  0.93827000000E+00 0. -1.
     999902    2    1    2    0    0  0.21829951098E-01 -0.35521404895E-02  0.19652550868E-02  0.10217257956E+01  0.10214844955E+01 0.  0.
     999903    2    3    3    0    0  0.50771686505E-01 -0.11896514975E+00 -0.25697017829E-01  0.13328728441E+00  0.19356974357E-01 0.  0.
         14    1    1    2    0    0 -0.21829951098E-01  0.35521404895E-02 -0.19652550868E-02  0.22204204434E-01  0.00000000000E+00 0.  1.
     999901    1    3    3    0    0 -0.28941735407E-01  0.11541300926E+00  0.27662272916E-01  0.88843851115E+00  0.88000000000E+00 0.  1.
        -11    1    4    4    0    0  0.45393836928E-01 -0.98557969498E-01 -0.27963863890E-01  0.11205584584E+00  0.51100000000E-03 0. -1.
         11    1    4    4    0    0  0.53778495763E-02 -0.20407180250E-01  0.22668460606E-02  0.21231438573E-01  0.51100000000E-03 0.  1.
</event>
<event>
 8    1  0.1074844E+005  0.1043930E+01  0.7957747E-01            NaN
         13   -1    0    0    0    0  0.00000000000E+00  0.00000000000E+00  0.74505805969E-08  0.10566000000E+00  0.10566000000E+00 0.  1.
     999900   -1    0    0    0    0 -0.00000000000E+00 -0.00000000000E+00 -0.74505805969E-08  0.93827000000E+00  0.93827000000E+00 0. -1.
     999902    2    1    2    0    0 -0.47587150862E-02  0.79495462049E-02  0.22138838728E-01  0.10199306493E+01  0.10196482533E+01 0.  0.
     999903    2    3    3    0    0 -0.71729055164E-01 -0.85577386900E-01  0.66180503125E-01  0.13135201919E+00  0.20123306112E-01 0.  0.
         14    1    1    2    0    0  0.47587150862E-02 -0.79495462049E-02 -0.22138838728E-01  0.23999350707E-01  0.00000000000E+00 0. -1.
     999901    1    3    3    0    0  0.66970340078E-01  0.93526933105E-01 -0.44041664397E-01  0.88857863010E+00  0.88000000000E+00 0.  1.
        -11    1    4    4    0    0 -0.20044928289E-01 -0.12436697180E-01  0.99830470376E-02  0.25620166588E-01  0.51100000000E-03 0. -1.
         11    1    4    4    0    0 -0.51684126875E-01 -0.73140689720E-01  0.56197456087E-01  0.10573185261E+00  0.51100000000E-03 0.  1.
</event>
<event>
 8    1  0.1074844E+005  0.1043930E+01  0.7957747E-01            NaN
         13   -1    0    0    0    0  0.00000000000E+00  0.00000000000E+00  0.74505805969E-08  0.10566000000E+00  0.10566000000E+00 0.  1.
     999900   -1    0    0    0    0 -0.00000000000E+00 -0.00000000000E+00 -0.74505805969E-08  0.93827000000E+00  0.93827000000E+00 0. -1.
     999902    2    1    2    0    0 -0.14918013477E-01  0.14396121839E-01  0.11031392375E-01  0.10204462382E+01  0.10201759838E+01 0.  0.
     999903    2    3    3    0    0  0.77756946997E-01  0.34517678061E-01  0.98114703606E-01  0.13107734488E+00  0.17809053105E-01 0.  0.
         14    1    1    2    0    0  0.14918013477E-01 -0.14396121839E-01 -0.11031392375E-01  0.23483761791E-01  0.00000000000E+00 0. -1.
     999901    1    3    3    0    0 -0.92674960474E-01 -0.20121556222E-01 -0.87083311231E-01  0.88936889333E+00  0.88000000000E+00 0. -1.
        -11    1    4    4    0    0  0.27134468724E-01  0.10891501615E-01  0.47003133245E-01  0.55357563676E-01  0.51100000000E-03 0. -1.
         11    1    4    4    0    0  0.50622478273E-01  0.23626176447E-01  0.51111570361E-01  0.75719781205E-01  0.51100000000E-03 0.  1.
</event>
<event>
 8    1  0.1074844E+005  0.1043930E+01  0.7957747E-01            NaN
         13   -1    0    0    0    0  0.00000000000E+00  0.00000000000E+00  0.74505805969E-08  0.10566000000E+00  0.10566000000E+00 0. -1.
     999900   -1    0    0    0    0 -0.00000000000E+00 -0.00000000000E+00 -0.74505805969E-08  0.93827000000E+00  0.93827000000E+00 0. -1.
     999902    2    1    2    0    0  0.15136883848E-01  0.93258106055E-02  0.16199933712E-01  0.10198772694E+01  0.10195936008E+01 0.  0.
     999903    2    3    3    0    0  0.92854873129E-01 -0.84282084277E-01 -0.30480054222E-01  0.13028098733E+00  0.17849503059E-01 0.  0.
         14    1    1    2    0    0 -0.15136883848E-01 -0.93258106055E-02 -0.16199933712E-01  0.24052730580E-01  0.00000000000E+00 0.  1.
     999901    1    3    3    0    0 -0.77717989280E-01  0.93607894882E-01  0.46679987934E-01  0.88959628209E+00  0.88000000000E+00 0.  1.
        -11    1    4    4    0    0  0.30967428861E-02 -0.83019160809E-02 -0.40073950137E-02  0.97381704090E-02  0.51100000000E-03 0.  1.
         11    1    4    4    0    0  0.89758130243E-01 -0.75980168196E-01 -0.26472659208E-01  0.12054281692E+00  0.51100000000E-03 0. -1.
</event>
<event>
 8    1  0.1074844E+005  0.1043930E+01  0.7957747E-01            NaN
         13   -1    0    0    0    0  0.00000000000E+00  0.00000000000E+00  0.74505805969E-08  0.10566000000E+00  0.10566000000E+00 0. -1.
     999900   -1    0    0    0    0 -0.00000000000E+00 -0.00000000000E+00 -0.74505805969E-08  0.93827000000E+00  0.93827000000E+00 0.  1.
     999902    2    1    2    0    0 -0.11062038633E-01  0.14319504145E-01  0.14719670840E-01  0.10206043573E+01  0.10203377718E+01 0.  0.
     999903    2    3    3    0    0  0.81515447109E-01 -0.42456549101E-01  0.90456563691E-01  0.13069976240E+00  0.21277013359E-01 0.  0.
         14    1    1    2    0    0  0.11062038633E-01 -0.14319504145E-01 -0.14719670840E-01  0.23325642699E-01  0.00000000000E+00 0.  1.
     999901    1    3    3    0    0 -0.92577485742E-01  0.56776053246E-01 -0.75736892851E-01  0.88990459490E+00  0.88000000000E+00 0. -1.
        -11    1    4    4    0    0  0.40419271278E-01 -0.11194888268E-01  0.48843621975E-01  0.64381701924E-01  0.51100000000E-03 0. -1.
         11    1    4    4    0    0  0.41096175831E-01 -0.31261660833E-01  0.41612941716E-01  0.66318060476E-01  0.51100000000E-03 0.  1.
</event>
<event>
 8    1  0.1074844E+005  0.1043930E+01  0.7957747E-01            NaN
         13   -1    0    0    0    0  0.00000000000E+00  0.00000000000E+00  0.74505805969E-08  0.10566000000E+00  0.10566000000E+00 0. -1.
     999900   -1    0    0    0    0 -0.00000000000E+00 -0.00000000000E+00 -0.74505805969E-08  0.93827000000E+00  0.93827000000E+00 0. -1.
     999902    2    1    2    0    0 -0.18611612009E-01 -0.50257899318E-03  0.14425106841E-01  0.10203773272E+01  0.10201054659E+01 0.  0.
     999903    2    3    3    0    0  0.80220758107E-01  0.86654797100E-01  0.50025423316E-01  0.12985409445E+00  0.20374468721E-01 0.  0.
         14    1    1    2    0    0  0.18611612009E-01  0.50257899318E-03 -0.14425106841E-01  0.23552672769E-01  0.00000000000E+00 0.  1.
     999901    1    3    3    0    0 -0.98832370116E-01 -0.87157376093E-01 -0.35600316475E-01  0.89052323278E+00  0.88000000000E+00 0.  1.
        -11    1    4    4    0    0  0.31346176228E-01  0.41681912820E-01  0.31375988366E-01  0.60866069262E-01  0.51100000000E-03 0.  1.
         11    1    4    4    0    0  0.48874581879E-01  0.44972884280E-01  0.18649434950E-01  0.68988025187E-01  0.51100000000E-03 0. -1.
</event>
<event>
 8    1  0.1074844E+005  0.1043930E+01  0.7957747E-01            NaN
         13   -1    0    0    0    0  0.00000000000E+00  0.00000000000E+00  0.74505805969E-08  0.10566000000E+00  0.10566000000E+00 0.  1.
     999900   -1    0    0    0    0 -0.00000000000E+00 -0.00000000000E+00 -0.74505805969E-08  0.93827000000E+00  0.93827000000E+00 0.  1.
     999902    2    1    2    0    0 -0.13541728797E-01 -0.18189113970E-01 -0.99842727023E-03  0.10212315608E+01  0.10209792758E+01 0.  0.
     999903    2    3    3    0    0  0.37324609630E-01 -0.11953784993E+00  0.40483018901E-01  0.13298629002E+00  0.19080211311E-01 0.  0.
         14    1    1    2    0    0  0.13541728797E-01  0.18189113970E-01  0.99842727023E-03  0.22698439216E-01  0.00000000000E+00 0.  1.
     999901    1    3    3    0    0 -0.50866338426E-01  0.10134873596E+00 -0.41481446171E-01  0.88824527077E+00  0.88000000000E+00 0. -1.
        -11    1    4    4    0    0  0.53562957126E-02 -0.35959195523E-01  0.18706099684E-01  0.40889276502E-01  0.51100000000E-03 0.  1.
         11    1    4    4    0    0  0.31968313917E-01 -0.83578654404E-01  0.21776919217E-01  0.92097013514E-01  0.51100000000E-03 0. -1.
</event>
<event>
 8    1  0.1074844E+005  0.1043930E+01  0.7957747E-01            NaN
         13   -1    0    0    0    0  0.00000000000E+00  0.00000000000E+00  0.74505805969E-08  0.10566000000E+00  0.10566000000E+00 0. -1.
     999900   -1    0    0    0    0 -0.00000000000E+00 -0.00000000000E+00 -0.74505805969E-08  0.93827000000E+00  0.93827000000E+00 0. -1.
     999902    2    1    2    0    0  0.75734696997E-02  0.11727654043E-01  0.21585714741E-01  0.10182232228E+01  0.10178986654E+01 0.  0.
     999903    2    3    3    0    0 -0.37356425468E-02  0.69265029915E-01 -0.10528240373E+00  0.12719350101E+00  0.16798891908E-01 0.  0.
         14    1    1    2    0    0 -0.75734696997E-02 -0.11727654043E-01 -0.21585714741E-01  0.25706777190E-01  0.00000000000E+00 0.  1.
     999901    1    3    3    0    0  0.11309112247E-01 -0.57537375873E-01  0.12686811847E+00  0.89102972180E+00  0.88000000000E+00 0.  1.
        -11    1    4    4    0    0  0.25352978582E-02  0.18231583032E-01 -0.17182316064E-01  0.25185540721E-01  0.51100000000E-03 0. -1.
         11    1    4    4    0    0 -0.62709404050E-02  0.51033446884E-01 -0.88100087669E-01  0.10200796029E+00  0.51100000000E-03 0.  1.
</event>
<event>
 8    1  0.1074844E+005  0.1043930E+01  0.7957747E-01            NaN
         13   -1    0    0    0    0  0.00000000000E+00  0.00000000000E+00  0.74505805969E-08  0.10566000000E+00  0.10566000000E+00 0. -1.
     999900   -1    0    0    0    0 -0.00000000000E+00 -0.00000000000E+00 -0.74505805969E-08  0.93827000000E+00  0.93827000000E+00 0. -1.
     999902    2    1    2    0    0 -0.21738446880E-01  0.18356109904E-02 -0.92381506522E-02  0.10202387998E+01  0.10199636933E+01 0.  0.
     999903    2    3    3    0    0 -0.20358255663E-01  0.87243674765E-02  0.12635765454E+00  0.12982564720E+00  0.19946645038E-01 0.  0.
         14    1    1    2    0    0  0.21738446880E-01 -0.18356109904E-02  0.92381506522E-02  0.23691200221E-01  0.00000000000E+00 0.  1.
     999901    1    3    3    0    0 -0.13801912166E-02 -0.68887564861E-02 -0.13559580520E+00  0.89041315258E+00  0.88000000000E+00 0. -1.
        -11    1    4    4    0    0 -0.10266929470E-01 -0.38946862582E-02  0.79529867859E-01  0.80285985231E-01  0.51100000000E-03 0. -1.
         11    1    4    4    0    0 -0.10091326193E-01  0.12619053735E-01  0.46827786685E-01  0.49539661972E-01  0.51100000000E-03 0.  1.
</event>
<event>
 8    1  0.1074844E+005  0.1043930E+01  0.7957747E-01            NaN
         13   -1    0    0    0    0  0.00000000000E+00  0.00000000000E+00  0.74505805969E-08  0.10566000000E+00  0.10566000000E+00 0. -1.
     999900   -1    0    0    0    0 -0.00000000000E+00 -0.00000000000E+00 -0.74505805969E-08  0.93827000000E+00  0.93827000000E+00 0. -1.
     999902    2    1    2    0    0 -0.18702261418E-01  0.13597048352E-01 -0.13075913282E-02  0.10207704641E+01  0.10205077052E+01 0.  0.
     999903    2    3    3    0    0 -0.12992354553E+00  0.18622140814E-01  0.12872700656E-01  0.13364222861E+00  0.21624685797E-01 0.  0.
         14    1    1    2    0    0  0.18702261418E-01 -0.13597048352E-01  0.13075913282E-02  0.23159535857E-01  0.00000000000E+00 0. -1.
     999901    1    3    3    0    0  0.11122128411E+00 -0.50250924621E-02 -0.14180291984E-01  0.88712823553E+00  0.88000000000E+00 0. -1.
        -11    1    4    4    0    0 -0.94628047069E-01  0.46469066094E-02  0.50383443363E-02  0.94877326416E-01  0.51100000000E-03 0.  1.
         11    1    4    4    0    0 -0.35295498457E-01  0.13975234204E-01  0.78343563196E-02  0.38764902197E-01  0.51100000000E-03 0. -1.
</event>
<event>
 8    1  0.1074844E+005  0.1043930E+01  0.7957747E-01            NaN
         13   -1    0    0    0    0  0.00000000000E+00  0.00000000000E+00  0.74505805969E-08  0.10566000000E+00  0.10566000000E+00 0. -1.
     999900   -1    0    0    0    0 -0.00000000000E+00 -0.00000000000E+00 -0.74505805969E-08  0.93827000000E+00  0.93827000000E+00 0.  1.
     999902    2    1    2    0    0  0.13250521338E-01 -0.19559999265E-02  0.19142341561E-01  0.10205669631E+01  0.10202995123E+01 0.  0.
     999903    2    3    3    0    0  0.40010490550E-01 -0.90024779698E-01 -0.82267173399E-01  0.12997384860E+00  0.20494223248E-01 0.  0.
         14    1    1    2    0    0 -0.13250521338E-01  0.19559999265E-02 -0.19142341561E-01  0.23363036872E-01  0.00000000000E+00 0.  1.
     999901    1    3    3    0    0 -0.26759969212E-01  0.88068779772E-01  0.10140951496E+00  0.89059311453E+00  0.88000000000E+00 0. -1.
        -11    1    4    4    0    0  0.53478699548E-02 -0.25736892814E-01 -0.31469424170E-01  0.41006988957E-01  0.51100000000E-03 0.  1.
         11    1    4    4    0    0  0.34662620595E-01 -0.64287886885E-01 -0.50797749230E-01  0.88966859641E-01  0.51100000000E-03 0. -1.
</event>
<event>
 8    1  0.1074844E+005  0.1043930E+01  0.7957747E-01            NaN
         13   -1    0    0    0    0  0.00000000000E+00  0.00000000000E+00  0.74505805969E-08  0.10566000000E+00  0.10566000000E+00 0.  1.
     999900   -1    0    0    0    0 -0.00000000000E+00 -0.00000000000E+00 -0.74505805969E-08  0.93827000000E+00  0.93827000000E+00 0. -1.
     999902    2    1    2    0    0  0.14578130287E-01 -0.15664738644E-01 -0.97565640422E-02  0.10204119971E+01  0.10201409448E+01 0.  0.
     999903    2    3    3    0    0  0.10349298598E+00  0.53713502091E-01  0.56116829447E-01  0.13077246568E+00  0.18878579903E-01 0.  0.
         14    1    1    2    0    0 -0.14578130287E-01  0.15664738644E-01  0.97565640422E-02  0.23518002920E-01  0.00000000000E+00 0.  1.
     999901    1    3    3    0    0 -0.88914855698E-01 -0.69378240735E-01 -0.65873393489E-01  0.88963953140E+00  0.88000000000E+00 0. -1.
        -11    1    4    4    0    0  0.66669179474E-01  0.42743810966E-01  0.32077501480E-01  0.85446123902E-01  0.51100000000E-03 0. -1.
         11    1    4    4    0    0  0.36823806511E-01  0.10969691125E-01  0.24039327967E-01  0.45326341783E-01  0.51100000000E-03 0.  1.
</event>
<event>
 8    1  0.1074844E+005  0.1043930E+01  0.7957747E-01            NaN
         13   -1    0    0    0    0  0.00000000000E+00  0.00000000000E+00  0.74505805969E-08  0.10566000000E+00  0.10566000000E+00 0. -1.
     999900   -1    0    0    0    0 -0.00000000000E+00 -0.00000000000E+00 -0.74505805969E-08  0.93827000000E+00  0.93827000000E+00 0.  1.
     999902    2    1    2    0    0 -0.77879465966E-03  0.24651672209E-01  0.68293193443E-02  0.10183379882E+01  0.10180163590E+01 0.  0.
     999903    2    3    3    0    0  0.36521815403E-02  0.10756751721E+00  0.73550293312E-01  0.13191463606E+00  0.20191987829E-01 0.  0.
         14    1    1    2    0    0  0.77879465966E-03 -0.24651672209E-01 -0.68293193443E-02  0.25592011772E-01  0.00000000000E+00 0. -1.
     999901    1    3    3    0    0 -0.44309762000E-02 -0.82915844998E-01 -0.66720973967E-01  0.88642335217E+00  0.88000000000E+00 0.  1.
        -11    1    4    4    0    0 -0.82206438676E-02  0.37051933934E-01  0.23795903600E-01  0.44798782829E-01  0.51100000000E-03 0.  1.
         11    1    4    4    0    0  0.11872825408E-01  0.70515583273E-01  0.49754389712E-01  0.87115853231E-01  0.51100000000E-03 0. -1.
</event>
<event>
 8    1  0.1074844E+005  0.1043930E+01  0.7957747E-01            NaN
         13   -1    0    0    0    0  0.00000000000E+00  0.00000000000E+00  0.74505805969E-08  0.10566000000E+00  0.10566000000E+00 0.  1.
     999900   -1    0    0    0    0 -0.00000000000E+00 -0.00000000000E+00 -0.74505805969E-08  0.93827000000E+00  0.93827000000E+00 0.  1.
     999902    2    1    2    0    0  0.13663425358E-02  0.23749445633E-01 -0.19393695882E-02  0.10200623605E+01  0.10197830922E+01 0.  0.
     999903    2    3    3    0    0 -0.11517939816E+00 -0.20330320707E-01  0.52355747618E-01  0.12962769407E+00  0.19560139589E-01 0.  0.
         14    1    1    2    0    0 -0.13663425358E-02 -0.23749445633E-01  0.19393695882E-02  0.23867639477E-01  0.00000000000E+00 0. -1.
     999901    1    3    3    0    0  0.11654574069E+00  0.44079766341E-01 -0.54295117206E-01  0.89043466646E+00  0.88000000000E+00 0.  1.
        -11    1    4    4    0    0 -0.24334049521E-01 -0.12380634600E-01  0.14127013835E-01  0.30745076355E-01  0.51100000000E-03 0. -1.
         11    1    4    4    0    0 -0.90845348635E-01 -0.79496861073E-02  0.38228733783E-01  0.98882617712E-01  0.51100000000E-03 0.  1.
</event>
<event>
 8    1  0.1074844E+005  0.1043930E+01  0.7957747E-01            NaN
         13   -1    0    0    0    0  0.00000000000E+00  0.00000000000E+00  0.74505805969E-08  0.10566000000E+00  0.10566000000E+00 0.  1.
     999900   -1    0    0    0    0 -0.00000000000E+00 -0.00000000000E+00 -0.74505805969E-08  0.93827000000E+00  0.93827000000E+00 0.  1.
     999902    2    1    2    0    0 -0.10637218421E-02 -0.23265703092E-01  0.53806559805E-02  0.10200265295E+01  0.10197464121E+01 0.  0.
     999903    2    3    3    0    0 -0.87247816866E-01 -0.25838980950E-01  0.92820664324E-01  0.13149961651E+00  0.19915796068E-01 0.  0.
         14    1    1    2    0    0  0.10637218421E-02  0.23265703092E-01 -0.53806559805E-02  0.23903470528E-01  0.00000000000E+00 0. -1.
     999901    1    3    3    0    0  0.86184095024E-01  0.25732778585E-02 -0.87440008343E-01  0.88852691296E+00  0.88000000000E+00 0.  1.
        -11    1    4    4    0    0 -0.56994181055E-01 -0.17177094097E-01  0.73446196748E-01  0.94540965584E-01  0.51100000000E-03 0. -1.
         11    1    4    4    0    0 -0.30253635811E-01 -0.86618868533E-02  0.19374467576E-01  0.36958650929E-01  0.51100000000E-03 0.  1.
</event>
<event>
 8    1  0.1074844E+005  0.1043930E+01  0.7957747E-01            NaN
         13   -1    0    0    0    0  0.00000000000E+00  0.00000000000E+00  0.74505805969E-08  0.10566000000E+00  0.10566000000E+00 0. -1.
     999900   -1    0    0    0    0 -0.00000000000E+00 -0.00000000000E+00 -0.74505805969E-08  0.93827000000E+00  0.93827000000E+00 0.  1.
     999902    2    1    2    0    0 -0.19487886718E-01  0.73598548270E-02  0.47889827588E-02  0.10225552591E+01  0.10223318338E+01 0.  0.
     999903    2    3    3    0    0 -0.11798999665E+00 -0.23325384612E-01  0.57826694618E-01  0.13494202778E+00  0.19992783032E-01 0.  0.
         14    1    1    2    0    0  0.19487886718E-01 -0.73598548270E-02 -0.47889827588E-02  0.21374740880E-01  0.00000000000E+00 0.  1.
     999901    1    3    3    0    0  0.98502109930E-01  0.30685239439E-01 -0.53037711859E-01  0.88761323135E+00  0.88000000000E+00 0.  1.
        -11    1    4    4    0    0 -0.92141609984E-01 -0.16444032384E-01  0.35530637181E-01  0.10011578193E+00  0.51100000000E-03 0. -1.
         11    1    4    4    0    0 -0.25848386664E-01 -0.68813522283E-02  0.22296057436E-01  0.34826245847E-01  0.51100000000E-03 0.  1.
</event>
<event>
 8    1  0.1074844E+005  0.1043930E+01  0.7957747E-01            NaN
         13   -1    0    0    0    0  0.00000000000E+00  0.00000000000E+00  0.74505805969E-08  0.10566000000E+00  0.10566000000E+00 0. -1.
     999900   -1    0    0    0    0 -0.00000000000E+00 -0.00000000000E+00 -0.74505805969E-08  0.93827000000E+00  0.93827000000E+00 0.  1.
     999902    2    1    2    0    0  0.88328427256E-02 -0.20952391003E-01  0.20271656126E-02  0.10211017018E+01  0.10208464890E+01 0.  0.
     999903    2    3    3    0    0  0.57410272227E-01 -0.11921073974E+00  0.10432453544E-01  0.13426173954E+00  0.20254352368E-01 0.  0.
         14    1    1    2    0    0 -0.88328427256E-02  0.20952391003E-01 -0.20271656126E-02  0.22828298224E-01  0.00000000000E+00 0.  1.
     999901    1    3    3    0    0 -0.48577429501E-01  0.98258348741E-01 -0.84052879317E-02  0.88683996224E+00  0.88000000000E+00 0. -1.
        -11    1    4    4    0    0  0.27387341101E-01 -0.39485234544E-01  0.99097612887E-02  0.49067450406E-01  0.51100000000E-03 0. -1.
         11    1    4    4    0    0  0.30022931126E-01 -0.79725505200E-01  0.52269225562E-03  0.85194289133E-01  0.51100000000E-03 0.  1.
</event>
<event>
 8    1  0.1074844E+005  0.1043930E+01  0.7957747E-01            NaN
         13   -1    0    0    0    0  0.00000000000E+00  0.00000000000E+00  0.74505805969E-08  0.10566000000E+00  0.10566000000E+00 0. -1.
     999900   -1    0    0    0    0 -0.00000000000E+00 -0.00000000000E+00 -0.74505805969E-08  0.93827000000E+00  0.93827000000E+00 0. -1.
     999902    2    1    2    0    0 -0.13638805217E-01 -0.14554643534E-01  0.43242600031E-02  0.10235203483E+01  0.10233168373E+01 0.  0.
     999903    2    3    3    0    0 -0.74288677676E-01  0.78279030819E-01 -0.75195616733E-01  0.13300369554E+00  0.19727847190E-01 0.  0.
         14    1    1    2    0    0  0.13638805217E-01  0.14554643534E-01 -0.43242600031E-02  0.20409651657E-01  0.00000000000E+00 0.  1.
     999901    1    3    3    0    0  0.60649872459E-01 -0.92833674353E-01  0.79519876736E-01  0.89051665280E+00  0.88000000000E+00 0.  1.
        -11    1    4    4    0    0 -0.20426078930E-01  0.27490928928E-01 -0.34085532567E-01  0.48322463981E-01  0.51100000000E-03 0.  1.
         11    1    4    4    0    0 -0.53862598746E-01  0.50788101891E-01 -0.41110084166E-01  0.84681231560E-01  0.51100000000E-03 0. -1.
</event>
<event>
 8    1  0.1074844E+005  0.1043930E+01  0.7957747E-01            NaN
         13   -1    0    0    0    0  0.00000000000E+00  0.00000000000E+00  0.74505805969E-08  0.10566000000E+00  0.10566000000E+00 0.  1.
     999900   -1    0    0    0    0 -0.00000000000E+00 -0.00000000000E+00 -0.74505805969E-08  0.93827000000E+00  0.93827000000E+00 0. -1.
     999902    2    1    2    0    0 -0.15542053038E-01  0.17762804529E-01  0.10452333514E-02  0.10203044810E+01  0.10200309156E+01 0.  0.
     999903    2    3    3    0    0 -0.12518903879E+00 -0.36601379459E-01  0.98856935122E-03  0.13183505031E+00  0.19171510360E-01 0.  0.
         14    1    1    2    0    0  0.15542053038E-01 -0.17762804529E-01 -0.10452333514E-02  0.23625519044E-01  0.00000000000E+00 0.  1.
     999901    1    3    3    0    0  0.10964698575E+00  0.54364183988E-01  0.56664000199E-04  0.88846943065E+00  0.88000000000E+00 0. -1.
        -11    1    4    4    0    0 -0.67002520582E-01 -0.22616536965E-01 -0.85517184626E-02  0.71233689490E-01  0.51100000000E-03 0.  1.
         11    1    4    4    0    0 -0.58186518206E-01 -0.13984842494E-01  0.95402878138E-02  0.60601360818E-01  0.51100000000E-03 0. -1.
</event>
<event>
 8    1  0.1074844E+005  0.1043930E+01  0.7957747E-01            NaN
         13   -1    0    0    0    0  0.00000000000E+00  0.00000000000E+00  0.74505805969E-08  0.10566000000E+00  0.10566000000E+00 0. -1.
     999900   -1    0    0    0    0 -0.00000000000E+00 -0.00000000000E+00 -0.74505805969E-08  0.93827000000E+00  0.93827000000E+00 0. -1.
     999902    2    1    2    0    0 -0.84951944954E-02 -0.40105682785E-02 -0.21241247781E-01  0.10207040749E+01  0.10204397900E+01 0.  0.
     999903    2    3    3    0    0 -0.50229918153E-01  0.11675148161E+00  0.21570673634E-01  0.13044674110E+00  0.19927497713E-01 0.  0.
         14    1    1    2    0    0  0.84951944954E-02  0.40105682785E-02  0.21241247781E-01  0.23225925056E-01  0.00000000000E+00 0. -1.
     999901    1    3    3    0    0  0.41734723657E-01 -0.12076204989E+00 -0.42811921415E-01  0.89025733385E+00  0.88000000000E+00 0. -1.
        -11    1    4    4    0    0 -0.28691219282E-01  0.42084420380E-01  0.82890107505E-02  0.51606717807E-01  0.51100000000E-03 0. -1.
         11    1    4    4    0    0 -0.21538698871E-01  0.74667061234E-01  0.13281662883E-01  0.78840023290E-01  0.51100000000E-03 0.  1.
</event>
<event>
 7    1  0.1074844E+005  0.1043930E+01  0.7957747E-01            NaN
         13   -1    0    0    0    0  0.00000000000E+00  0.00000000000E+00  0.74505805969E-08  0.10566000000E+00  0.10566000000E+00 0.  1.
     999900   -1    0    0    0    0 -0.00000000000E+00 -0.00000000000E+00 -0.74505805969E-08  0.93827000000E+00  0.93827000000E+00 0. -1.
     999902    2    1    2    0    0  0.17814578310E-01  0.26222554966E-02  0.16885099741E-01  0.10192451460E+01  0.10189461839E+01 0.  0.
         14    1    1    2    0    0 -0.17814578310E-01 -0.26222554966E-02 -0.16885099741E-01  0.24684854010E-01  0.00000000000E+00 0. -1.
     999901    1    3    3    0    0  0.12278376122E+00 -0.39662182478E-01  0.53504194167E-01  0.89101719373E+00  0.88000000000E+00 0.  1.
        -11    1    3    3    0    0 -0.72140842157E-01  0.51637676137E-01 -0.25157141389E-01  0.92216558100E-01  0.51100000000E-03 0.  1.
         11    1    3    3    0    0 -0.32828340750E-01 -0.93532381627E-02 -0.11461953038E-01  0.36011394155E-01  0.51100000000E-03 0. -1.
</event>
<event>
 8    1  0.1074844E+005  0.1043930E+01  0.7957747E-01            NaN
         13   -1    0    0    0    0  0.00000000000E+00  0.00000000000E+00  0.74505805969E-08  0.10566000000E+00  0.10566000000E+00 0.  1.
     999900   -1    0    0    0    0 -0.00000000000E+00 -0.00000000000E+00 -0.74505805969E-08  0.93827000000E+00  0.93827000000E+00 0. -1.
     999902    2    1    2    0    0 -0.16907504271E-01 -0.13079250345E-02 -0.22206163588E-01  0.10159892042E+01  0.10156049306E+01 0.  0.
     999903    2    3    3    0    0 -0.10942902126E+00  0.15093203096E-02  0.61399846223E-01  0.12719331489E+00  0.20765584403E-01 0.  0.
         14    1    1    2    0    0  0.16907504271E-01  0.13079250345E-02  0.22206163588E-01  0.27940795798E-01  0.00000000000E+00 0.  1.
     999901    1    3    3    0    0  0.92521516988E-01 -0.28172453440E-02 -0.83606009810E-01  0.88879588931E+00  0.88000000000E+00 0. -1.
        -11    1    4    4    0    0 -0.83418911682E-01  0.99483335228E-02  0.45023101758E-01  0.95315397386E-01  0.51100000000E-03 0. -1.
         11    1    4    4    0    0 -0.26010109577E-01 -0.84390132133E-02  0.16376744465E-01  0.31877917506E-01  0.51100000000E-03 0.  1.
</event>
<event>
 8    1  0.1074844E+005  0.1043930E+01  0.7957747E-01            NaN
         13   -1    0    0    0    0  0.00000000000E+00  0.00000000000E+00  0.74505805969E-08  0.10566000000E+00  0.10566000000E+00 0.  1.
     999900   -1    0    0    0    0 -0.00000000000E+00 -0.00000000000E+00 -0.74505805969E-08  0.93827000000E+00  0.93827000000E+00 0.  1.
     999902    2    1    2    0    0 -0.70598967887E-02 -0.89108708136E-02 -0.22465286809E-01  0.10187519367E+01  0.10184407561E+01 0.  0.
     999903    2    3    3    0    0  0.11106034807E-01 -0.29303855012E-01 -0.12678102446E+00  0.13216993370E+00  0.20332321139E-01 0.  0.
         14    1    1    2    0    0  0.70598967887E-02  0.89108708136E-02  0.22465286809E-01  0.25178063323E-01  0.00000000000E+00 0.  1.
     999901    1    3    3    0    0 -0.18165931595E-01  0.20392984198E-01  0.10431573766E+00  0.88658200297E+00  0.88000000000E+00 0. -1.
        -11    1    4    4    0    0  0.47091724484E-02 -0.27207195395E-01 -0.74482488183E-01  0.79437459384E-01  0.51100000000E-03 0.  1.
         11    1    4    4    0    0  0.63968623582E-02 -0.20966596172E-02 -0.52298536281E-01  0.52732474319E-01  0.51100000000E-03 0. -1.
</event>
<event>
 8    1  0.1074844E+005  0.1043930E+01  0.7957747E-01            NaN
         13   -1    0    0    0    0  0.00000000000E+00  0.00000000000E+00  0.74505805969E-08  0.10566000000E+00  0.10566000000E+00 0. -1.
     999900   -1    0    0    0    0 -0.00000000000E+00 -0.00000000000E+00 -0.74505805969E-08  0.93827000000E+00  0.93827000000E+00 0.  1.
     999902    2    1    2    0    0  0.14895395521E-01  0.12609186424E-01 -0.13157870045E-01  0.10203929243E+01  0.10201214271E+01 0.  0.
     999903    2    3    3    0    0  0.76483763585E-01 -0.10053527427E+00 -0.27545368463E-01  0.13089767629E+00  0.20453529493E-01 0.  0.
         14    1    1    2    0    0 -0.14895395521E-01 -0.12609186424E-01  0.13157870045E-01  0.23537075734E-01  0.00000000000E+00 0. -1.
     999901    1    3    3    0    0 -0.61588368064E-01  0.11314446069E+00  0.14387498418E-01  0.88949524798E+00  0.88000000000E+00 0.  1.
        -11    1    4    4    0    0  0.16671251381E-01 -0.37639608075E-01 -0.90130501277E-02  0.42144595292E-01  0.51100000000E-03 0. -1.
         11    1    4    4    0    0  0.59812512204E-01 -0.62895666195E-01 -0.18532318335E-01  0.88753080995E-01  0.51100000000E-03 0.  1.
</event>
<event>
 8    1  0.1074844E+005  0.1043930E+01  0.7957747E-01            NaN
         13   -1    0    0    0    0  0.00000000000E+00  0.00000000000E+00  0.74505805969E-08  0.10566000000E+00  0.10566000000E+00 0. -1.
     999900   -1    0    0    0    0 -0.00000000000E+00 -0.00000000000E+00 -0.74505805969E-08  0.93827000000E+00  0.93827000000E+00 0. -1.
     999902    2    1    2    0    0 -0.77344814307E-02 -0.95310911839E-02 -0.21146117354E-01  0.10194795975E+01  0.10191863557E+01 0.  0.
     999903    2    3    3    0    0  0.12688406206E+00  0.38669128637E-02  0.66068626841E-02  0.12870920810E+00  0.20196321356E-01 0.  0.
         14    1    1    2    0    0  0.77344814307E-02  0.95310911839E-02  0.21146117354E-01  0.24450402477E-01  0.00000000000E+00 0. -1.
     999901    1    3    3    0    0 -0.13461854349E+00 -0.13398004048E-01 -0.27752980038E-01  0.89077038942E+00  0.88000000000E+00 0.  1.
        -11    1    4    4    0    0  0.35385047181E-01  0.44994936172E-02  0.10303952806E-01  0.37131921190E-01  0.51100000000E-03 0.  1.
         11    1    4    4    0    0  0.91499014879E-01 -0.63258075352E-03 -0.36970901217E-02  0.91577286914E-01  0.51100000000E-03 0. -1.
</event>
<event>
 8    1  0.1074844E+005  0.1043930E+01  0.7957747E-01            NaN
         13   -1    0    0    0    0  0.00000000000E+00  0.00000000000E+00  0.74505805969E-08  0.10566000000E+00  0.10566000000E+00 0. -1.
     999900   -1    0    0    0    0 -0.00000000000E+00 -0.00000000000E+00 -0.74505805969E-08  0.93827000000E+00  0.93827000000E+00 0.  1.
     999902    2    1    2    0    0  0.13331077996E-01  0.17945695243E-03 -0.20123739267E-01  0.10197905152E+01  0.10195047720E+01 0.  0.
     999903    2    3    3    0    0 -0.89862047409E-01 -0.22984381633E-02  0.87857464836E-01  0.12720163919E+00  0.19515442690E-01 0.  0.
         14    1    1    2    0    0 -0.13331077996E-01 -0.17945695243E-03  0.20123739267E-01  0.24139484821E-01  0.00000000000E+00 0. -1.
     999901    1    3    3    0    0  0.10319312541E+00  0.24778951157E-02 -0.10798120410E+00  0.89258887599E+00  0.88000000000E+00 0.  1.
        -11    1    4    4    0    0 -0.50082160096E-01  0.84102129776E-02  0.48654715881E-01  0.70331336833E-01  0.51100000000E-03 0. -1.
         11    1    4    4    0    0 -0.39779887313E-01 -0.10708651141E-01  0.39202748955E-01  0.56870302360E-01  0.51100000000E-03 0.  1.
</event>
<event>
 8    1  0.1074844E+005  0.1043930E+01  0.7957747E-01            NaN
         13   -1    0    0    0    0  0.00000000000E+00  0.00000000000E+00  0.74505805969E-08  0.10566000000E+00  0.10566000000E+00 0.  1.
     999900   -1    0    0    0    0 -0.00000000000E+00 -0.00000000000E+00 -0.74505805969E-08  0.93827000000E+00  0.93827000000E+00 0.  1.
     999902    2    1    2    0    0 -0.12476929218E-01 -0.18490408890E-01 -0.55693410104E-02  0.10209389900E+01  0.10206800844E+01 0.  0.
     999903    2    3    3    0    0 -0.11134922146E+00  0.56381723994E-01  0.32088768171E-01  0.13144492047E+00  0.25894597037E-01 0.  0.
         14    1    1    2    0    0  0.12476929218E-01  0.18490408890E-01  0.55693410104E-02  0.22991010045E-01  0.00000000000E+00 0.  1.
     999901    1    3    3    0    0  0.98872292240E-01 -0.74872132883E-01 -0.37658109181E-01  0.88949406948E+00  0.88000000000E+00 0.  1.
        -11    1    4    4    0    0 -0.38565853484E-01  0.15596436006E-01 -0.11880865603E-02  0.41620265997E-01  0.51100000000E-03 0. -1.
         11    1    4    4    0    0 -0.72783367974E-01  0.40785287988E-01  0.33276854731E-01  0.89824654476E-01  0.51100000000E-03 0.  1.
</event>
<event>
 8    1  0.1074844E+005  0.1043930E+01  0.7957747E-01            NaN
         13   -1    0    0    0    0  0.00000000000E+00  0.00000000000E+00  0.74505805969E-08  0.10566000000E+00  0.10566000000E+00 0.  1.
     999900   -1    0    0    0    0 -0.00000000000E+00 -0.00000000000E+00 -0.74505805969E-08  0.93827000000E+00  0.93827000000E+00 0. -1.
     999902    2    1    2    0    0 -0.20456147351E-01 -0.76638367132E-02 -0.91430072662E-02  0.10202491440E+01  0.10199742805E+01 0.  0.
     999903    2    3    3    0    0  0.11885518571E+00 -0.40624055308E-01 -0.19231588397E-01  0.12862377259E+00  0.19933686143E-01 0.  0.
         14    1    1    2    0    0  0.20456147351E-01  0.76638367132E-02  0.91430072662E-02  0.23680855970E-01  0.00000000000E+00 0.  1.
     999901    1    3    3    0    0 -0.13931133306E+00  0.32960218594E-01  0.10088581131E-01  0.89162537144E+00  0.88000000000E+00 0.  1.
        -11    1    4    4    0    0  0.37267705427E-01 -0.16832097213E-01  0.22702033367E-02  0.40958714684E-01  0.51100000000E-03 0.  1.
         11    1    4    4    0    0  0.81587480281E-01 -0.23791958095E-01 -0.21501791734E-01  0.87665057904E-01  0.51100000000E-03 0. -1.
</event>
<event>
 8    1  0.1074844E+005  0.1043930E+01  0.7957747E-01            NaN
         13   -1    0    0    0    0  0.00000000000E+00  0.00000000000E+00  0.74505805969E-08  0.10566000000E+00  0.10566000000E+00 0.  1.
     999900   -1    0    0    0    0 -0.00000000000E+00 -0.00000000000E+00 -0.74505805969E-08  0.93827000000E+00  0.93827000000E+00 0. -1.
     999902    2    1    2    0    0  0.97982213494E-02 -0.12096379686E-01  0.17729734045E-01  0.10203361234E+01  0.10200632989E+01 0.  0.
     999903    2    3    3    0    0  0.41282144419E-01 -0.10643723142E+00 -0.61330752873E-01  0.13121183834E+00  0.20542287870E-01 0.  0.
         14    1    1    2    0    0 -0.97982213494E-02  0.12096379686E-01 -0.17729734045E-01  0.23593876587E-01  0.00000000000E+00 0. -1.
     999901    1    3    3    0    0 -0.31483923070E-01  0.94340851738E-01  0.79060486918E-01  0.88912428508E+00  0.88000000000E+00 0. -1.
        -11    1    4    4    0    0  0.27112284612E-01 -0.47087479556E-01 -0.22045596074E-01  0.58639373591E-01  0.51100000000E-03 0. -1.
         11    1    4    4    0    0  0.14169859807E-01 -0.59349751867E-01 -0.39285156799E-01  0.72572464747E-01  0.51100000000E-03 0.  1.
</event>
<event>
 8    1  0.1074844E+005  0.1043930E+01  0.7957747E-01            NaN
         13   -1    0    0    0    0  0.00000000000E+00  0.00000000000E+00  0.74505805969E-08  0.10566000000E+00  0.10566000000E+00 0. -1.
     999900   -1    0    0    0    0 -0.00000000000E+00 -0.00000000000E+00 -0.74505805969E-08  0.93827000000E+00  0.93827000000E+00 0. -1.
     999902    2    1    2    0    0 -0.11954060818E-01  0.12910068607E-01 -0.15948086565E-01  0.10201831917E+01  0.10199067769E+01 0.  0.
     999903    2    3    3    0    0  0.20260387481E-01 -0.55593541005E-02  0.12492056950E+00  0.12820624772E+00  0.19756101621E-01 0.  0.
         14    1    1    2    0    0  0.11954060818E-01 -0.12910068607E-01  0.15948086565E-01  0.23746808345E-01  0.00000000000E+00 0.  1.
     999901    1    3    3    0    0 -0.32214448299E-01  0.18469422708E-01 -0.14086865606E+00  0.89197694394E+00  0.88000000000E+00 0. -1.
        -11    1    4    4    0    0  0.55736934145E-02 -0.10952683416E-01  0.39766026529E-01  0.41624816146E-01  0.51100000000E-03 0.  1.
         11    1    4    4    0    0  0.14686694067E-01  0.53933293158E-02  0.85154542969E-01  0.86581431572E-01  0.51100000000E-03 0. -1.
</event>
<event>
 7    1  0.1074844E+005  0.1043930E+01  0.7957747E-01            NaN
         13   -1    0    0    0    0  0.00000000000E+00  0.00000000000E+00  0.74505805969E-08  0.10566000000E+00  0.10566000000E+00 0.  1.
     999900   -1    0    0    0    0 -0.00000000000E+00 -0.00000000000E+00 -0.74505805969E-08  0.93827000000E+00  0.93827000000E+00 0. -1.
     999903    2    1    2    0    0  0.73452610779E-01  0.27984376504E-01 -0.65809967314E-01  0.10431500990E+00  0.19293992200E-01 0.  0.
         14    1    1    2    0    0  0.34131633817E-01  0.20032357340E-01 -0.25501271418E-01  0.47080554495E-01  0.00000000000E+00 0. -1.
     999901    1    1    2    0    0 -0.10758424460E+00 -0.48016733843E-01  0.91311238732E-01  0.89253443560E+00  0.88000000000E+00 0.  1.
        -11    1    3    3    0    0  0.33842612840E-01  0.20713739196E-01 -0.24577236658E-01  0.46676365733E-01  0.51100000000E-03 0.  1.
         11    1    3    3    0    0  0.39609997939E-01  0.72706373076E-02 -0.41232730655E-01  0.57638644171E-01  0.51100000000E-03 0. -1.
</event>
<event>
 8    1  0.1074844E+005  0.1043930E+01  0.7957747E-01            NaN
         13   -1    0    0    0    0  0.00000000000E+00  0.00000000000E+00  0.74505805969E-08  0.10566000000E+00  0.10566000000E+00 0.  1.
     999900   -1    0    0    0    0 -0.00000000000E+00 -0.00000000000E+00 -0.74505805969E-08  0.93827000000E+00  0.93827000000E+00 0. -1.
     999902    2    1    2    0    0  0.22912113165E-01  0.29193480822E-02 -0.11310906172E-02  0.10208049727E+01  0.10205430051E+01 0.  0.
     999903    2    3    3    0    0  0.55074186742E-02  0.10441068020E+00 -0.77202041938E-01  0.13154111784E+00  0.20272853834E-01 0.  0.
         14    1    1    2    0    0 -0.22912113165E-01 -0.29193480822E-02  0.11310906172E-02  0.23125027327E-01  0.00000000000E+00 0.  1.
     999901    1    3    3    0    0  0.17404694490E-01 -0.10149133211E+00  0.76070951320E-01  0.88926385484E+00  0.88000000000E+00 0.  1.
        -11    1    4    4    0    0 -0.51328385068E-02  0.65066750348E-01 -0.53462358440E-01  0.84371280202E-01  0.51100000000E-03 0. -1.
         11    1    4    4    0    0  0.10640257181E-01  0.39343929849E-01 -0.23739683498E-01  0.47169837634E-01  0.51100000000E-03 0.  1.
</event>
<event>
 8    1  0.1074844E+005  0.1043930E+01  0.7957747E-01            NaN
         13   -1    0    0    0    0  0.00000000000E+00  0.00000000000E+00  0.74505805969E-08  0.10566000000E+00  0.10566000000E+00 0. -1.
     999900   -1    0    0    0    0 -0.00000000000E+00 -0.00000000000E+00 -0.74505805969E-08  0.93827000000E+00  0.93827000000E+00 0.  1.
     999902    2    1    2    0    0 -0.11885729433E-01  0.17862388938E-01  0.91644430289E-02  0.10205992795E+01  0.10203325766E+01 0.  0.
     999903    2    3    3    0    0 -0.12206055685E+00 -0.20155440155E-01 -0.40144241028E-01  0.13154630344E+00  0.19693870994E-01 0.  0.
         14    1    1    2    0    0  0.11885729433E-01 -0.17862388938E-01 -0.91644430289E-02  0.23330720494E-01  0.00000000000E+00 0.  1.
     999901    1    3    3    0    0  0.11017482742E+00  0.38017829092E-01  0.49308684057E-01  0.88905297606E+00  0.88000000000E+00 0.  1.
        -11    1    4    4    0    0 -0.80744426525E-01 -0.14210314182E-01 -0.16705931784E-01  0.83671648256E-01  0.51100000000E-03 0.  1.
         11    1    4    4    0    0 -0.41316130326E-01 -0.59451259723E-02 -0.23438309244E-01  0.47874655186E-01  0.51100000000E-03 0. -1.
</event>
<event>
 8    1  0.1074844E+005  0.1043930E+01  0.7957747E-01            NaN
         13   -1    0    0    0    0  0.00000000000E+00  0.00000000000E+00  0.74505805969E-08  0.10566000000E+00  0.10566000000E+00 0.  1.
     999900   -1    0    0    0    0 -0.00000000000E+00 -0.00000000000E+00 -0.74505805969E-08  0.93827000000E+00  0.93827000000E+00 0.  1.
     999902    2    1    2    0    0 -0.10806007707E-01 -0.18798411263E-01 -0.75110609013E-02  0.10209829718E+01  0.10207250671E+01 0.  0.
     999903    2    3    3    0    0 -0.89525157361E-01  0.86657696616E-01  0.32732852629E-01  0.13028814873E+00  0.19474390268E-01 0.  0.
         14    1    1    2    0    0  0.10806007707E-01  0.18798411263E-01  0.75110609013E-02  0.22947028227E-01  0.00000000000E+00 0.  1.
     999901    1    3    3    0    0  0.78719149654E-01 -0.10545610788E+00 -0.40243913531E-01  0.89069482304E+00  0.88000000000E+00 0.  1.
        -11    1    4    4    0    0 -0.58012793395E-01  0.42783302655E-01  0.19230674372E-01  0.74605463214E-01  0.51100000000E-03 0.  1.
         11    1    4    4    0    0 -0.31512363966E-01  0.43874393961E-01  0.13502178257E-01  0.55682685521E-01  0.51100000000E-03 0. -1.
</event>
<event>
 8    1  0.1074844E+005  0.1043930E+01  0.7957747E-01            NaN
         13   -1    0    0    0    0  0.00000000000E+00  0.00000000000E+00  0.74505805969E-08  0.10566000000E+00  0.10566000000E+00 0. -1.
     999900   -1    0    0    0    0 -0.00000000000E+00 -0.00000000000E+00 -0.74505805969E-08  0.93827000000E+00  0.93827000000E+00 0. -1.
     999902    2    1    2    0    0  0.16241163048E-01 -0.14652422504E-01 -0.10040557542E-01  0.10198617292E+01  0.10195776896E+01 0.  0.
     999903    2    3    3    0    0  0.92182112360E-01  0.80611555201E-02  0.90009055992E-01  0.13065260895E+00  0.20148200857E-01 0.  0.
         14    1    1    2    0    0 -0.16241163048E-01  0.14652422504E-01  0.10040557542E-01  0.24068270776E-01  0.00000000000E+00 0.  1.
     999901    1    3    3    0    0 -0.75940949312E-01 -0.22713578025E-01 -0.10004961353E+00  0.88920912027E+00  0.88000000000E+00 0. -1.
        -11    1    4    4    0    0  0.64518718582E-01  0.13475503299E-01  0.56104024329E-01  0.86557361926E-01  0.51100000000E-03 0. -1.
         11    1    4    4    0    0  0.27663393778E-01 -0.54143477793E-02  0.33905031663E-01  0.44095247025E-01  0.51100000000E-03 0.  1.
</event>
<event>
 8    1  0.1074844E+005  0.1043930E+01  0.7957747E-01            NaN
         13   -1    0    0    0    0  0.00000000000E+00  0.00000000000E+00  0.74505805969E-08  0.10566000000E+00  0.10566000000E+00 0. -1.
     999900   -1    0    0    0    0 -0.00000000000E+00 -0.00000000000E+00 -0.74505805969E-08  0.93827000000E+00  0.93827000000E+00 0. -1.
     999902    2    1    2    0    0  0.16240765668E-01 -0.13668968665E-01  0.10361444886E-01  0.10203087656E+01  0.10200353006E+01 0.  0.
     999903    2    3    3    0    0 -0.89818369152E-01 -0.92183763940E-01 -0.33308771328E-02  0.13036461408E+00  0.20460989511E-01 0.  0.
         14    1    1    2    0    0 -0.16240765668E-01  0.13668968665E-01 -0.10361444886E-01  0.23621234388E-01  0.00000000000E+00 0. -1.
     999901    1    3    3    0    0  0.10605913482E+00  0.78514795275E-01  0.13692322019E-01  0.88994415153E+00  0.88000000000E+00 0. -1.
        -11    1    4    4    0    0 -0.31997797070E-01 -0.46866194796E-01  0.11632764175E-02  0.56761902409E-01  0.51100000000E-03 0. -1.
         11    1    4    4    0    0 -0.57820572081E-01 -0.45317569144E-01 -0.44941535503E-02  0.73602711676E-01  0.51100000000E-03 0.  1.
</event>
<event>
 8    1  0.1074844E+005  0.1043930E+01  0.7957747E-01            NaN
         13   -1    0    0    0    0  0.00000000000E+00  0.00000000000E+00  0.74505805969E-08  0.10566000000E+00  0.10566000000E+00 0. -1.
     999900   -1    0    0    0    0 -0.00000000000E+00 -0.00000000000E+00 -0.74505805969E-08  0.93827000000E+00  0.93827000000E+00 0.  1.
     999902    2    1    2    0    0 -0.64921907974E-02  0.11981917686E-01  0.19781369992E-01  0.10199088116E+01  0.10196258954E+01 0.  0.
     999903    2    3    3    0    0  0.16681116827E-01  0.10493085759E+00  0.76683849991E-01  0.13288322019E+00  0.22108659463E-01 0.  0.
         14    1    1    2    0    0  0.64921907974E-02 -0.11981917686E-01 -0.19781369992E-01  0.24021188387E-01  0.00000000000E+00 0.  1.
     999901    1    3    3    0    0 -0.23173307624E-01 -0.92948939909E-01 -0.56902480000E-01  0.88702559143E+00  0.88000000000E+00 0. -1.
        -11    1    4    4    0    0  0.18931889408E-01  0.48889379473E-01  0.37742080597E-01  0.64601189081E-01  0.51100000000E-03 0. -1.
         11    1    4    4    0    0 -0.22507725815E-02  0.56041478121E-01  0.38941769394E-01  0.68282031105E-01  0.51100000000E-03 0.  1.
</event>
<event>
 8    1  0.1074844E+005  0.1043930E+01  0.7957747E-01            NaN
         13   -1    0    0    0    0  0.00000000000E+00  0.00000000000E+00  0.74505805969E-08  0.10566000000E+00  0.10566000000E+00 0. -1.
     999900   -1    0    0    0    0 -0.00000000000E+00 -0.00000000000E+00 -0.74505805969E-08  0.93827000000E+00  0.93827000000E+00 0.  1.
     999902    2    1    2    0    0  0.21246433730E-01  0.61628131986E-02 -0.98795781919E-02  0.10197019733E+01  0.10194141048E+01 0.  0.
     999903    2    3    3    0    0  0.13009317463E+00 -0.94942063767E-02 -0.14532424679E-01  0.13284549999E+00  0.20551434499E-01 0.  0.
         14    1    1    2    0    0 -0.21246433730E-01 -0.61628131986E-02  0.98795781919E-02  0.24228026705E-01  0.00000000000E+00 0.  1.
     999901    1    3    3    0    0 -0.10884674090E+00  0.15657019575E-01  0.46528464873E-02  0.88685647331E+00  0.88000000000E+00 0.  1.
        -11    1    4    4    0    0  0.88764483345E-02 -0.41068205041E-02 -0.53532044635E-02  0.11161327372E-01  0.51100000000E-03 0. -1.
         11    1    4    4    0    0  0.12121672630E+00 -0.53873858726E-02 -0.91792202158E-02  0.12168417262E+00  0.51100000000E-03 0.  1.
</event>
<event>
 8    1  0.1074844E+005  0.1043930E+01  0.7957747E-01            NaN
         13   -1    0    0    0    0  0.00000000000E+00  0.00000000000E+00  0.74505805969E-08  0.10566000000E+00  0.10566000000E+00 0. -1.
     999900   -1    0    0    0    0 -0.00000000000E+00 -0.00000000000E+00 -0.74505805969E-08  0.93827000000E+00  0.93827000000E+00 0. -1.
     999902    2    1    2    0    0 -0.30113697251E-02  0.10470086430E-01 -0.22449274165E-01  0.10189768245E+01  0.10186712462E+01 0.  0.
     999903    2    3    3    0    0 -0.11868833720E+00 -0.36721409111E-01 -0.32885725984E-01  0.13009150141E+00  0.20172865252E-01 0.  0.
         14    1    1    2    0    0  0.30113697251E-02 -0.10470086430E-01  0.22449274165E-01  0.24953175509E-01  0.00000000000E+00 0. -1.
     999901    1    3    3    0    0  0.11567696747E+00  0.47191495541E-01  0.10436451819E-01  0.88888532308E+00  0.88000000000E+00 0.  1.
        -11    1    4    4    0    0 -0.68596440280E-01 -0.25004101621E-01 -0.28782002446E-01  0.78481472353E-01  0.51100000000E-03 0. -1.
         11    1    4    4    0    0 -0.50091896919E-01 -0.11717307490E-01 -0.41037235382E-02  0.51610029060E-01  0.51100000000E-03 0.  1.
</event>
<event>
 8    1  0.1074844E+005  0.1043930E+01  0.7957747E-01            NaN
         13   -1    0    0    0    0  0.00000000000E+00  0.00000000000E+00  0.74505805969E-08  0.10566000000E+00  0.10566000000E+00 0. -1.
     999900   -1    0    0    0    0 -0.00000000000E+00 -0.00000000000E+00 -0.74505805969E-08  0.93827000000E+00  0.93827000000E+00 0.  1.
     999902    2    1    2    0    0 -0.69187282259E-03  0.23674651167E-01  0.18784545775E-02  0.10201708673E+01  0.10198941622E+01 0.  0.
     999903    2    3    3    0    0 -0.10744115494E+00 -0.15817566186E-01  0.69101034368E-01  0.13029788775E+00  0.20218541686E-01 0.  0.
         14    1    1    2    0    0  0.69187282259E-03 -0.23674651167E-01 -0.18784545775E-02  0.23759132718E-01  0.00000000000E+00 0.  1.
     999901    1    3    3    0    0  0.10674928211E+00  0.39492217354E-01 -0.67222579791E-01  0.88987297953E+00  0.88000000000E+00 0. -1.
        -11    1    4    4    0    0 -0.10955536657E-01 -0.36380745669E-02  0.10541447013E-02  0.11603090624E-01  0.51100000000E-03 0. -1.
         11    1    4    4    0    0 -0.96485618280E-01 -0.12179491619E-01  0.68046889667E-01  0.11869479713E+00  0.51100000000E-03 0.  1.
</event>
<event>
 8    1  0.1074844E+005  0.1043930E+01  0.7957747E-01            NaN
         13   -1    0    0    0    0  0.00000000000E+00  0.00000000000E+00  0.74505805969E-08  0.10566000000E+00  0.10566000000E+00 0.  1.
     999900   -1    0    0    0    0 -0.00000000000E+00 -0.00000000000E+00 -0.74505805969E-08  0.93827000000E+00  0.93827000000E+00 0. -1.
     999902    2    1    2    0    0  0.18589528274E-01 -0.14657239374E-01  0.32971404040E-02  0.10200286117E+01  0.10197485437E+01 0.  0.
     999903    2    3    3    0    0  0.12409261643E-01 -0.95448858572E-01  0.88473197153E-01  0.13221081392E+00  0.19690564366E-01 0.  0.
         14    1    1    2    0    0 -0.18589528274E-01  0.14657239374E-01 -0.32971404040E-02  0.23901388293E-01  0.00000000000E+00 0.  1.
     999901    1    3    3    0    0  0.61802666311E-02  0.80791619197E-01 -0.85176056749E-01  0.88781779779E+00  0.88000000000E+00 0. -1.
        -11    1    4    4    0    0  0.28845123801E-02 -0.78710287294E-01  0.67488255125E-01  0.10372345655E+00  0.51100000000E-03 0.  1.
         11    1    4    4    0    0  0.95247492625E-02 -0.16738571277E-01  0.20984942028E-01  0.28487357369E-01  0.51100000000E-03 0. -1.
</event>
<event>
 8    1  0.1074844E+005  0.1043930E+01  0.7957747E-01            NaN
         13   -1    0    0    0    0  0.00000000000E+00  0.00000000000E+00  0.74505805969E-08  0.10566000000E+00  0.10566000000E+00 0.  1.
     999900   -1    0    0    0    0 -0.00000000000E+00 -0.00000000000E+00 -0.74505805969E-08  0.93827000000E+00  0.93827000000E+00 0. -1.
     999902    2    1    2    0    0 -0.25879043688E-01  0.11661083511E-01  0.10767062346E-01  0.10135715514E+01  0.10131168019E+01 0.  0.
     999903    2    3    3    0    0 -0.94752617539E-01 -0.52656246158E-01 -0.60137964573E-01  0.12570455069E+00  0.20840357291E-01 0.  0.
         14    1    1    2    0    0  0.25879043688E-01 -0.11661083511E-01 -0.10767062346E-01  0.30358448617E-01  0.00000000000E+00 0. -1.
     999901    1    3    3    0    0  0.68873573851E-01  0.64317329668E-01  0.70905026920E-01  0.88786700069E+00  0.88000000000E+00 0.  1.
        -11    1    4    4    0    0 -0.43910436024E-01 -0.20841268994E-01 -0.38265358297E-01  0.61862619179E-01  0.51100000000E-03 0.  1.
         11    1    4    4    0    0 -0.50842181516E-01 -0.31814977163E-01 -0.21872606276E-01  0.63841931514E-01  0.51100000000E-03 0. -1.
</event>
<event>
 8    1  0.1074844E+005  0.1043930E+01  0.7957747E-01            NaN
         13   -1    0    0    0    0  0.00000000000E+00  0.00000000000E+00  0.74505805969E-08  0.10566000000E+00  0.10566000000E+00 0.  1.
     999900   -1    0    0    0    0 -0.00000000000E+00 -0.00000000000E+00 -0.74505805969E-08  0.93827000000E+00  0.93827000000E+00 0.  1.
     999902    2    1    2    0    0 -0.41435647871E-02  0.91448730080E-02  0.20533405418E-01  0.10210735224E+01  0.10208176720E+01 0.  0.
     999903    2    3    3    0    0  0.54881003991E-01 -0.69592567608E-01 -0.90881425485E-01  0.12860685699E+00  0.20621350618E-01 0.  0.
         14    1    1    2    0    0  0.41435647871E-02 -0.91448730080E-02 -0.20533405418E-01  0.22856477627E-01  0.00000000000E+00 0. -1.
     999901    1    3    3    0    0 -0.59024568778E-01  0.78737440616E-01  0.11141483090E+00  0.89246666538E+00  0.88000000000E+00 0. -1.
        -11    1    4    4    0    0  0.27937611374E-01 -0.27983302934E-01 -0.27621558498E-01  0.48236780440E-01  0.51100000000E-03 0. -1.
         11    1    4    4    0    0  0.26943392618E-01 -0.41609264674E-01 -0.63259866987E-01  0.80370076550E-01  0.51100000000E-03 0.  1.
</event>
<event>
 8    1  0.1074844E+005  0.1043930E+01  0.7957747E-01            NaN
         13   -1    0    0    0    0  0.00000000000E+00  0.00000000000E+00  0.74505805969E-08  0.10566000000E+00  0.10566000000E+00 0. -1.
     999900   -1    0    0    0    0 -0.00000000000E+00 -0.00000000000E+00 -0.74505805969E-08  0.93827000000E+00  0.93827000000E+00 0.  1.
     999902    2    1    2    0    0 -0.23016432846E-01 -0.27811961411E-02  0.42600446220E-02  0.10203579994E+01  0.10200856864E+01 0.  0.
     999903    2    3    3    0    0 -0.16290113235E-02  0.21698740951E-01  0.12789179376E+00  0.13112152998E+00  0.19054019964E-01 0.  0.
         14    1    1    2    0    0  0.23016432846E-01  0.27811961411E-02 -0.42600446220E-02  0.23572000617E-01  0.00000000000E+00 0.  1.
     999901    1    3    3    0    0 -0.21387421522E-01 -0.24479937092E-01 -0.12363174914E+00  0.88923646940E+00  0.88000000000E+00 0.  1.
        -11    1    4    4    0    0 -0.28337693383E-02  0.73588264640E-02  0.12190421671E-01  0.14527562669E-01  0.51100000000E-03 0.  1.
         11    1    4    4    0    0  0.12047580148E-02  0.14339914487E-01  0.11570137209E+00  0.11659396731E+00  0.51100000000E-03 0. -1.
</event>
<event>
 8    1  0.1074844E+005  0.1043930E+01  0.7957747E-01            NaN
         13   -1    0    0    0    0  0.00000000000E+00  0.00000000000E+00  0.74505805969E-08  0.10566000000E+00  0.10566000000E+00 0. -1.
     999900   -1    0    0    0    0 -0.00000000000E+00 -0.00000000000E+00 -0.74505805969E-08  0.93827000000E+00  0.93827000000E+00 0. -1.
     999902    2    1    2    0    0 -0.16555853608E-01  0.11516800415E-02 -0.11827438488E-01  0.10235508205E+01  0.10233479229E+01 0.  0.
     999903    2    3    3    0    0  0.11496029892E+00 -0.59235113940E-01  0.13773658455E-01  0.13136335174E+00  0.18491821473E-01 0.  0.
         14    1    1    2    0    0  0.16555853608E-01 -0.11516800415E-02  0.11827438488E-01  0.20379179493E-01  0.00000000000E+00 0. -1.
     999901    1    3    3    0    0 -0.13151615253E+00  0.60386793981E-01 -0.25601096943E-01  0.89218746877E+00  0.88000000000E+00 0. -1.
        -11    1    4    4    0    0  0.52159840605E-01 -0.35585467015E-01  0.16299504424E-02  0.63165594227E-01  0.51100000000E-03 0. -1.
         11    1    4    4    0    0  0.62800458315E-01 -0.23649646925E-01  0.12143708012E-01  0.68197757511E-01  0.51100000000E-03 0.  1.
</event>
<event>
 8    1  0.1074844E+005  0.1043930E+01  0.7957747E-01            NaN
         13   -1    0    0    0    0  0.00000000000E+00  0.00000000000E+00  0.74505805969E-08  0.10566000000E+00  0.10566000000E+00 0. -1.
     999900   -1    0    0    0    0 -0.00000000000E+00 -0.00000000000E+00 -0.74505805969E-08  0.93827000000E+00  0.93827000000E+00 0. -1.
     999902    2    1    2    0    0  0.66353351617E-02 -0.17018148026E-01 -0.16373937285E-01  0.10193993894E+01  0.10191041969E+01 0.  0.
     999903    2    3    3    0    0  0.79015873822E-01 -0.31201289465E-01 -0.99656446347E-01  0.13239539830E+00  0.19496292296E-01 0.  0.
         14    1    1    2    0    0 -0.66353351617E-02  0.17018148026E-01  0.16373937285E-01  0.24530610615E-01  0.00000000000E+00 0. -1.
     999901    1    3    3    0    0 -0.72380538661E-01  0.14183141439E-01  0.83282509061E-01  0.88700399108E+00  0.88000000000E+00 0.  1.
        -11    1    4    4    0    0  0.29574682471E-01 -0.19261082871E-01 -0.50863322345E-01  0.61911144696E-01  0.51100000000E-03 0.  1.
         11    1    4    4    0    0  0.49441191351E-01 -0.11940206594E-01 -0.48793124002E-01  0.70484253607E-01  0.51100000000E-03 0. -1.
</event>
<event>
 8    1  0.1074844E+005  0.1043930E+01  0.7957747E-01            NaN
         13   -1    0    0    0    0  0.00000000000E+00  0.00000000000E+00  0.74505805969E-08  0.10566000000E+00  0.10566000000E+00 0.  1.
     999900   -1    0    0    0    0 -0.00000000000E+00 -0.00000000000E+00 -0.74505805969E-08  0.93827000000E+00  0.93827000000E+00 0.  1.
     999902    2    1    2    0    0  0.22160170132E-01 -0.52348269050E-02 -0.41706469655E-02  0.10207811156E+01  0.10205186011E+01 0.  0.
     999903    2    3    3    0    0  0.53607744790E-01  0.11817899789E+00 -0.71539086915E-02  0.13160800424E+00  0.20722512573E-01 0.  0.
         14    1    1    2    0    0 -0.22160170132E-01  0.52348269050E-02  0.41706469655E-02  0.23148884403E-01  0.00000000000E+00 0. -1.
     999901    1    3    3    0    0 -0.31447574657E-01 -0.12341382480E+00  0.29832617259E-02  0.88917311135E+00  0.88000000000E+00 0.  1.
        -11    1    4    4    0    0  0.19287652475E-01  0.21970010127E-01 -0.51695128164E-03  0.29244200153E-01  0.51100000000E-03 0.  1.
         11    1    4    4    0    0  0.34320092315E-01  0.96208987765E-01 -0.66369574098E-02  0.10236380409E+00  0.51100000000E-03 0. -1.
</event>
<event>
 8    1  0.1074844E+005  0.1043930E+01  0.7957747E-01            NaN
         13   -1    0    0    0    0  0.00000000000E+00  0.00000000000E+00  0.74505805969E-08  0.10566000000E+00  0.10566000000E+00 0.  1.
     999900   -1    0    0    0    0 -0.00000000000E+00 -0.00000000000E+00 -0.74505805969E-08  0.93827000000E+00  0.93827000000E+00 0.  1.
     999902    2    1    2    0    0  0.41895433450E-02 -0.38110049429E-02  0.22792557026E-01  0.10204443302E+01  0.10201740314E+01 0.  0.
     999903    2    3    3    0    0  0.68123687689E-01  0.10170202652E+00  0.44085380391E-01  0.13158328424E+00  0.19659626252E-01 0.  0.
         14    1    1    2    0    0 -0.41895433450E-02  0.38110049429E-02 -0.22792557026E-01  0.23485669841E-01  0.00000000000E+00 0. -1.
     999901    1    3    3    0    0 -0.63934144344E-01 -0.10551303147E+00 -0.21292823365E-01  0.88886104592E+00  0.88000000000E+00 0.  1.
        -11    1    4    4    0    0  0.67467804050E-01  0.10011410774E+00  0.40098457402E-01  0.12721197490E+00  0.51100000000E-03 0.  1.
         11    1    4    4    0    0  0.65588363852E-03  0.15879187838E-02  0.39869229888E-02  0.43713093381E-02  0.51100000000E-03 0. -1.
</event>
<event>
 8    1  0.1074844E+005  0.1043930E+01  0.7957747E-01            NaN
         13   -1    0    0    0    0  0.00000000000E+00  0.00000000000E+00  0.74505805969E-08  0.10566000000E+00  0.10566000000E+00 0.  1.
     999900   -1    0    0    0    0 -0.00000000000E+00 -0.00000000000E+00 -0.74505805969E-08  0.93827000000E+00  0.93827000000E+00 0.  1.
     999902    2    1    2    0    0 -0.14884351119E-01 -0.31763304896E-02 -0.18276909087E-01  0.10201460056E+01  0.10198687143E+01 0.  0.
     999903    2    3    3    0    0  0.29292029408E-01  0.57663510358E-01  0.10854861224E+00  0.12788048924E+00  0.19685398021E-01 0.  0.
         14    1    1    2    0    0  0.14884351119E-01  0.31763304896E-02  0.18276909087E-01  0.23783994395E-01  0.00000000000E+00 0.  1.
     999901    1    3    3    0    0 -0.44176380527E-01 -0.60839840848E-01 -0.12682552133E+00  0.89226551636E+00  0.88000000000E+00 0. -1.
        -11    1    4    4    0    0  0.20331909204E-01  0.20973408347E-01  0.38902806196E-01  0.48651411496E-01  0.51100000000E-03 0.  1.
         11    1    4    4    0    0  0.89601202038E-02  0.36690102011E-01  0.69645806046E-01  0.79229077746E-01  0.51100000000E-03 0. -1.
</event>
<event>
 8    1  0.1074844E+005  0.1043930E+01  0.7957747E-01            NaN
         13   -1    0    0    0    0  0.00000000000E+00  0.00000000000E+00  0.74505805969E-08  0.10566000000E+00  0.10566000000E+00 0.  1.
     999900   -1    0    0    0    0 -0.00000000000E+00 -0.00000000000E+00 -0.74505805969E-08  0.93827000000E+00  0.93827000000E+00 0.  1.
     999902    2    1    2    0    0 -0.19176506524E-01 -0.14773781115E-01  0.24382431222E-02  0.10196000177E+01  0.10193096919E+01 0.  0.
     999903    2    3    3    0    0 -0.12618003976E+00 -0.33561468172E-01  0.15921160370E-01  0.13281677337E+00  0.18412967208E-01 0.  0.
         14    1    1    2    0    0  0.19176506524E-01  0.14773781115E-01 -0.24382431222E-02  0.24329982335E-01  0.00000000000E+00 0. -1.
     999901    1    3    3    0    0  0.10700353323E+00  0.18787687057E-01 -0.13482917248E-01  0.88678324430E+00  0.88000000000E+00 0.  1.
        -11    1    4    4    0    0 -0.11489159179E+00 -0.35129292177E-01  0.17073939948E-01  0.12135042472E+00  0.51100000000E-03 0.  1.
         11    1    4    4    0    0 -0.11288447967E-01  0.15678240046E-02 -0.11527795773E-02  0.11466348650E-01  0.51100000000E-03 0. -1.
</event>
<event>
 8    1  0.1074844E+005  0.1043930E+01  0.7957747E-01            NaN
         13   -1    0    0    0    0  0.00000000000E+00  0.00000000000E+00  0.74505805969E-08  0.10566000000E+00  0.10566000000E+00 0.  1.
     999900   -1    0    0    0    0 -0.00000000000E+00 -0.00000000000E+00 -0.74505805969E-08  0.93827000000E+00  0.93827000000E+00 0. -1.
     999902    2    1    2    0    0  0.20151566684E-01  0.86578599452E-02 -0.63306991786E-02  0.10211019048E+01  0.10208466966E+01 0.  0.
     999903    2    3    3    0    0 -0.26944990596E-01  0.11586839767E+00  0.52450981214E-01  0.13140112866E+00  0.19069165843E-01 0.  0.
         14    1    1    2    0    0 -0.20151566684E-01 -0.86578599452E-02  0.63306991786E-02  0.22828095206E-01  0.00000000000E+00 0.  1.
     999901    1    3    3    0    0  0.47096557280E-01 -0.10721053772E+00 -0.58781680392E-01  0.88970077614E+00  0.88000000000E+00 0. -1.
        -11    1    4    4    0    0 -0.10340459500E-01  0.22078094327E-01  0.17184799056E-01  0.29831959228E-01  0.51100000000E-03 0.  1.
         11    1    4    4    0    0 -0.16604531096E-01  0.93790303341E-01  0.35266182158E-01  0.10156916943E+00  0.51100000000E-03 0. -1.
</event>
<event>
 8    1  0.1074844E+005  0.1043930E+01  0.7957747E-01            NaN
         13   -1    0    0    0    0  0.00000000000E+00  0.00000000000E+00  0.74505805969E-08  0.10566000000E+00  0.10566000000E+00 0. -1.
     999900   -1    0    0    0    0 -0.00000000000E+00 -0.00000000000E+00 -0.74505805969E-08  0.93827000000E+00  0.93827000000E+00 0. -1.
     999902    2    1    2    0    0  0.85216441187E-02  0.19053067467E-01 -0.59852348847E-02  0.10222168511E+01  0.10219862180E+01 0.  0.
     999903    2    3    3    0    0 -0.15375860604E-01 -0.12664860206E+00 -0.14259467349E-01  0.12987805325E+00  0.19715243200E-01 0.  0.
         14    1    1    2    0    0 -0.85216441187E-02 -0.19053067467E-01  0.59852348847E-02  0.21713148897E-01  0.00000000000E+00 0.  1.
     999901    1    3    3    0    0  0.23897504723E-01  0.14570166952E+00  0.82742324638E-02  0.89233879785E+00  0.88000000000E+00 0.  1.
        -11    1    4    4    0    0 -0.10476404594E-03 -0.70845848800E-01 -0.12852384160E-01  0.72004098267E-01  0.51100000000E-03 0. -1.
         11    1    4    4    0    0 -0.15271096558E-01 -0.55802753256E-01 -0.14070831890E-02  0.57873954981E-01  0.51100000000E-03 0.  1.
</event>
<event>
 8    1  0.1074844E+005  0.1043930E+01  0.7957747E-01            NaN
         13   -1    0    0    0    0  0.00000000000E+00  0.00000000000E+00  0.74505805969E-08  0.10566000000E+00  0.10566000000E+00 0. -1.
     999900   -1    0    0    0    0 -0.00000000000E+00 -0.00000000000E+00 -0.74505805969E-08  0.93827000000E+00  0.93827000000E+00 0.  1.
     999902    2    1    2    0    0  0.13306022323E-01 -0.18161968887E-01 -0.10462445231E-01  0.10191031979E+01  0.10188007449E+01 0.  0.
     999903    2    3    3    0    0  0.11875047262E+00  0.35706179628E-01 -0.36780666624E-01  0.13078289623E+00  0.19358266929E-01 0.  0.
         14    1    1    2    0    0 -0.13306022323E-01  0.18161968887E-01  0.10462445231E-01  0.24826802133E-01  0.00000000000E+00 0. -1.
     999901    1    3    3    0    0 -0.10544445029E+00 -0.53868148515E-01  0.26318221393E-01  0.88832030164E+00  0.88000000000E+00 0.  1.
        -11    1    4    4    0    0  0.40772806638E-01  0.83588634522E-02 -0.21122998923E-01  0.46676916820E-01  0.51100000000E-03 0. -1.
         11    1    4    4    0    0  0.77977665980E-01  0.27347316176E-01 -0.15657667701E-01  0.84105979411E-01  0.51100000000E-03 0.  1.
</event>
<event>
 8    1  0.1074844E+005  0.1043930E+01  0.7957747E-01            NaN
         13   -1    0    0    0    0  0.00000000000E+00  0.00000000000E+00  0.74505805969E-08  0.10566000000E+00  0.10566000000E+00 0.  1.
     999900   -1    0    0    0    0 -0.00000000000E+00 -0.00000000000E+00 -0.74505805969E-08  0.93827000000E+00  0.93827000000E+00 0. -1.
     999902    2    1    2    0    0  0.11555881924E-01  0.17505088355E-01 -0.84219088364E-02  0.10213270118E+01  0.10210768678E+01 0.  0.
     999903    2    3    3    0    0  0.11616419272E+00 -0.49804936298E-02  0.59951685019E-01  0.13221315613E+00  0.19162179667E-01 0.  0.
         14    1    1    2    0    0 -0.11555881924E-01 -0.17505088355E-01  0.84219088364E-02  0.22602988161E-01  0.00000000000E+00 0.  1.
     999901    1    3    3    0    0 -0.10460831079E+00  0.22485581985E-01 -0.68373593856E-01  0.88911385571E+00  0.88000000000E+00 0.  1.
        -11    1    4    4    0    0  0.44615114467E-01 -0.38127299632E-02  0.33483435464E-01  0.55914639587E-01  0.51100000000E-03 0. -1.
         11    1    4    4    0    0  0.71549078250E-01 -0.11677636665E-02  0.26468249555E-01  0.76298516538E-01  0.51100000000E-03 0.  1.
</event>
<event>
 8    1  0.1074844E+005  0.1043930E+01  0.7957747E-01            NaN
         13   -1    0    0    0    0  0.00000000000E+00  0.00000000000E+00  0.74505805969E-08  0.10566000000E+00  0.10566000000E+00 0.  1.
     999900   -1    0    0    0    0 -0.00000000000E+00 -0.00000000000E+00 -0.74505805969E-08  0.93827000000E+00  0.93827000000E+00 0. -1.
     999902    2    1    2    0    0 -0.33987721939E-02 -0.75612519350E-02 -0.21803431287E-01  0.10206037530E+01  0.10203371535E+01 0.  0.
     999903    2    3    3    0    0 -0.12502820722E+00 -0.35279420654E-01  0.37739117412E-02  0.13143772980E+00  0.19619996959E-01 0.  0.
         14    1    1    2    0    0  0.33987721939E-02  0.75612519350E-02  0.21803431287E-01  0.23326247001E-01  0.00000000000E+00 0.  1.
     999901    1    3    3    0    0  0.12162943503E+00  0.27718168719E-01 -0.25577343029E-01  0.88916602320E+00  0.88000000000E+00 0. -1.
        -11    1    4    4    0    0 -0.23090635313E-01  0.48369691458E-03  0.37734062501E-02  0.23407501310E-01  0.51100000000E-03 0.  1.
         11    1    4    4    0    0 -0.10193757191E+00 -0.35763117569E-01  0.50549117702E-06  0.10803022849E+00  0.51100000000E-03 0. -1.
</event>
<event>
 8    1  0.1074844E+005  0.1043930E+01  0.7957747E-01            NaN
         13   -1    0    0    0    0  0.00000000000E+00  0.00000000000E+00  0.74505805969E-08  0.10566000000E+00  0.10566000000E+00 0.  1.
     999900   -1    0    0    0    0 -0.00000000000E+00 -0.00000000000E+00 -0.74505805969E-08  0.93827000000E+00  0.93827000000E+00 0. -1.
     999902    2    1    2    0    0 -0.12455461422E-01 -0.16232702595E-01 -0.12095981979E-01  0.10201612825E+01  0.10198843514E+01 0.  0.
     999903    2    3    3    0    0 -0.73751601915E-01  0.10466593422E+00 -0.61200013896E-02  0.12976282697E+00  0.20166315331E-01 0.  0.
         14    1    1    2    0    0  0.12455461422E-01  0.16232702595E-01  0.12095981979E-01  0.23768717526E-01  0.00000000000E+00 0. -1.
     999901    1    3    3    0    0  0.61296140492E-01 -0.12089863682E+00 -0.59759805896E-02  0.89039845551E+00  0.88000000000E+00 0.  1.
        -11    1    4    4    0    0 -0.51476274136E-02  0.99922267135E-03  0.36737210273E-03  0.52813442605E-02  0.51100000000E-03 0.  1.
         11    1    4    4    0    0 -0.68603974501E-01  0.10366671155E+00 -0.64873734923E-02  0.12448148271E+00  0.51100000000E-03 0. -1.
</event>
<event>
 8    1  0.1074844E+005  0.1043930E+01  0.7957747E-01            NaN
         13   -1    0    0    0    0  0.00000000000E+00  0.00000000000E+00  0.74505805969E-08  0.10566000000E+00  0.10566000000E+00 0. -1.
     999900   -1    0    0    0    0 -0.00000000000E+00 -0.00000000000E+00 -0.74505805969E-08  0.93827000000E+00  0.93827000000E+00 0. -1.
     999902    2    1    2    0    0  0.30890528584E-02  0.24103052369E-01 -0.66325305334E-03  0.10196207572E+01  0.10193309321E+01 0.  0.
     999903    2    3    3    0    0 -0.10413393835E+00  0.51163059025E-02  0.74534343107E-01  0.12972641243E+00  0.20087809153E-01 0.  0.
         14    1    1    2    0    0 -0.30890528584E-02 -0.24103052369E-01  0.66325305334E-03  0.24309242804E-01  0.00000000000E+00 0. -1.
     999901    1    3    3    0    0  0.10722299121E+00  0.18986746467E-01 -0.75197596161E-01  0.88989434477E+00  0.88000000000E+00 0. -1.
        -11    1    4    4    0    0 -0.31269492615E-01 -0.51257065520E-02  0.30448104208E-01  0.43947721294E-01  0.51100000000E-03 0.  1.
         11    1    4    4    0    0 -0.72864445733E-01  0.10242012455E-01  0.44086238900E-01  0.85778691133E-01  0.51100000000E-03 0. -1.
</event>
<event>
 8    1  0.1074844E+005  0.1043930E+01  0.7957747E-01            NaN
         13   -1    0    0    0    0  0.00000000000E+00  0.00000000000E+00  0.74505805969E-08  0.10566000000E+00  0.10566000000E+00 0.  1.
     999900   -1    0    0    0    0 -0.00000000000E+00 -0.00000000000E+00 -0.74505805969E-08  0.93827000000E+00  0.93827000000E+00 0.  1.
     999902    2    1    2    0    0 -0.19782566462E-01 -0.13535631924E-01  0.47327987161E-02  0.10194971809E+01  0.10192043657E+01 0.  0.
     999903    2    3    3    0    0 -0.89019943059E-01 -0.96151742432E-01 -0.84641411124E-02  0.13282170739E+00  0.20006409833E-01 0.  0.
         14    1    1    2    0    0  0.19782566462E-01  0.13535631924E-01 -0.47327987161E-02  0.24432819139E-01  0.00000000000E+00 0.  1.
     999901    1    3    3    0    0  0.69237376597E-01  0.82616110508E-01  0.13196939828E-01  0.88667547347E+00  0.88000000000E+00 0. -1.
        -11    1    4    4    0    0 -0.14331976972E-01 -0.79813603727E-02 -0.52210151558E-02  0.17222885867E-01  0.51100000000E-03 0. -1.
         11    1    4    4    0    0 -0.74687966088E-01 -0.88170382059E-01 -0.32431259566E-02  0.11559882152E+00  0.51100000000E-03 0.  1.
</event>
<event>
 8    1  0.1074844E+005  0.1043930E+01  0.7957747E-01            NaN
         13   -1    0    0    0    0  0.00000000000E+00  0.00000000000E+00  0.74505805969E-08  0.10566000000E+00  0.10566000000E+00 0. -1.
     999900   -1    0    0    0    0 -0.00000000000E+00 -0.00000000000E+00 -0.74505805969E-08  0.93827000000E+00  0.93827000000E+00 0.  1.
     999902    2    1    2    0    0  0.22957037996E-01 -0.64603730966E-02  0.70094305483E-02  0.10190725236E+01  0.10187693136E+01 0.  0.
     999903    2    3    3    0    0  0.12156317576E+00 -0.19221358394E-03 -0.50380491158E-01  0.13168531203E+00  0.50184527806E-02 0.  0.
         14    1    1    2    0    0 -0.22957037996E-01  0.64603730966E-02 -0.70094305483E-02  0.24857476354E-01  0.00000000000E+00 0.  1.
     999901    1    3    3    0    0 -0.98606137762E-01 -0.62681595127E-02  0.57389921706E-01  0.88738721162E+00  0.88000000000E+00 0. -1.
        -11    1    4    4    0    0  0.79427438898E-01 -0.20921447597E-02 -0.34264735054E-01  0.86529927245E-01  0.51100000000E-03 0.  1.
         11    1    4    4    0    0  0.42135736860E-01  0.18999311758E-02 -0.16115756104E-01  0.45155384784E-01  0.51100000000E-03 0. -1.
</event>
<event>
 8    1  0.1074844E+005  0.1043930E+01  0.7957747E-01            NaN
         13   -1    0    0    0    0  0.00000000000E+00  0.00000000000E+00  0.74505805969E-08  0.10566000000E+00  0.10566000000E+00 0.  1.
     999900   -1    0    0    0    0 -0.00000000000E+00 -0.00000000000E+00 -0.74505805969E-08  0.93827000000E+00  0.93827000000E+00 0.  1.
     999902    2    1    2    0    0 -0.15732220208E-01  0.11831314714E-01  0.12336051264E-01  0.10206993969E+01  0.10204350042E+01 0.  0.
     999903    2    3    3    0    0  0.10470370061E+00  0.51668407537E-01  0.54989790577E-01  0.13058078318E+00  0.19873968114E-01 0.  0.
         14    1    1    2    0    0  0.15732220208E-01 -0.11831314714E-01 -0.12336051264E-01  0.23230603120E-01  0.00000000000E+00 0. -1.
     999901    1    3    3    0    0 -0.12043592082E+00 -0.39837092823E-01 -0.42653739313E-01  0.89011861371E+00  0.88000000000E+00 0. -1.
        -11    1    4    4    0    0  0.51490724635E-01  0.18069122666E-01  0.33719668544E-01  0.64148773060E-01  0.51100000000E-03 0. -1.
         11    1    4    4    0    0  0.53212975973E-01  0.33599284870E-01  0.21270122033E-01  0.66432010116E-01  0.51100000000E-03 0.  1.
</event>
<event>
 8    1  0.1074844E+005  0.1043930E+01  0.7957747E-01            NaN
         13   -1    0    0    0    0  0.00000000000E+00  0.00000000000E+00  0.74505805969E-08  0.10566000000E+00  0.10566000000E+00 0. -1.
     999900   -1    0    0    0    0 -0.00000000000E+00 -0.00000000000E+00 -0.74505805969E-08  0.93827000000E+00  0.93827000000E+00 0. -1.
     999902    2    1    2    0    0 -0.63060645494E-02  0.59123019570E-02 -0.21700822128E-01  0.10205709023E+01  0.10203035427E+01 0.  0.
     999903    2    3    3    0    0  0.50681769079E-01  0.16942609595E-01 -0.12058432420E+00  0.13313232535E+00  0.18109198594E-01 0.  0.
         14    1    1    2    0    0  0.63060645494E-02 -0.59123019570E-02  0.21700822128E-01  0.23359097704E-01  0.00000000000E+00 0. -1.
     999901    1    3    3    0    0 -0.56987833629E-01 -0.11030307638E-01  0.98883502072E-01  0.88743857695E+00  0.88000000000E+00 0.  1.
        -11    1    4    4    0    0  0.39098551572E-01  0.62302254679E-02 -0.96813421811E-01  0.10459738146E+00  0.51100000000E-03 0. -1.
         11    1    4    4    0    0  0.11583217507E-01  0.10712384127E-01 -0.23770902389E-01  0.28534943891E-01  0.51100000000E-03 0.  1.
</event>
<event>
 7    1  0.1074844E+005  0.1043930E+01  0.7957747E-01            NaN
         13   -1    0    0    0    0  0.00000000000E+00  0.00000000000E+00  0.74505805969E-08  0.10566000000E+00  0.10566000000E+00 0.  1.
     999900   -1    0    0    0    0 -0.00000000000E+00 -0.00000000000E+00 -0.74505805969E-08  0.93827000000E+00  0.93827000000E+00 0.  1.
     999903    2    1    2    0    0 -0.61612831421E-02  0.96196798663E-01  0.56736812693E-01  0.11358259240E+00  0.19752313744E-01 0.  0.
         14    1    1    2    0    0 -0.37503187001E-01 -0.21981568657E-01  0.61870648240E-02  0.43908520437E-01  0.00000000000E+00 0.  1.
     999901    1    1    2    0    0  0.43664470143E-01 -0.74215230006E-01 -0.62923877517E-01  0.88643888717E+00  0.88000000000E+00 0.  1.
        -11    1    3    3    0    0 -0.33642139810E-02  0.60187376854E-01  0.46214424003E-01  0.75959675982E-01  0.51100000000E-03 0. -1.
         11    1    3    3    0    0 -0.27970691611E-02  0.36009421809E-01  0.10522388690E-01  0.37622916416E-01  0.51100000000E-03 0.  1.
</event>
<event>
 8    1  0.1074844E+005  0.1043930E+01  0.7957747E-01            NaN
         13   -1    0    0    0    0  0.00000000000E+00  0.00000000000E+00  0.74505805969E-08  0.10566000000E+00  0.10566000000E+00 0. -1.
     999900   -1    0    0    0    0 -0.00000000000E+00 -0.00000000000E+00 -0.74505805969E-08  0.93827000000E+00  0.93827000000E+00 0.  1.
     999902    2    1    2    0    0 -0.21312854813E-01 -0.93959892716E-02 -0.72786930350E-02  0.10195270951E+01  0.10192350052E+01 0.  0.
     999903    2    3    3    0    0  0.75543052032E-01  0.22136605209E-01 -0.10009705500E+00  0.12880232307E+00  0.19334839279E-01 0.  0.
         14    1    1    2    0    0  0.21312854813E-01  0.93959892716E-02  0.72786930350E-02  0.24402904888E-01  0.00000000000E+00 0. -1.
     999901    1    3    3    0    0 -0.96855906845E-01 -0.31532594480E-01  0.92818361960E-01  0.89072477204E+00  0.88000000000E+00 0. -1.
        -11    1    4    4    0    0  0.99909274187E-02 -0.98125356498E-03 -0.22385980347E-01  0.24539248692E-01  0.51100000000E-03 0.  1.
         11    1    4    4    0    0  0.65552124613E-01  0.23117858774E-01 -0.77711074648E-01  0.10426307438E+00  0.51100000000E-03 0. -1.
</event>
<event>
 8    1  0.1074844E+005  0.1043930E+01  0.7957747E-01            NaN
         13   -1    0    0    0    0  0.00000000000E+00  0.00000000000E+00  0.74505805969E-08  0.10566000000E+00  0.10566000000E+00 0. -1.
     999900   -1    0    0    0    0 -0.00000000000E+00 -0.00000000000E+00 -0.74505805969E-08  0.93827000000E+00  0.93827000000E+00 0. -1.
     999902    2    1    2    0    0  0.23116572773E-02 -0.20291363188E-01 -0.11951453981E-01  0.10202673621E+01  0.10199929263E+01 0.  0.
     999903    2    3    3    0    0 -0.32855990733E-01 -0.37412362707E-02  0.12314459023E+00  0.12910990615E+00  0.20279664342E-01 0.  0.
         14    1    1    2    0    0 -0.23116572773E-02  0.20291363188E-01  0.11951453981E-01  0.23662637885E-01  0.00000000000E+00 0.  1.
     999901    1    3    3    0    0  0.35167648010E-01 -0.16550126917E-01 -0.13509604421E+00  0.89115745597E+00  0.88000000000E+00 0. -1.
        -11    1    4    4    0    0 -0.23784613808E-01  0.68093711749E-02  0.83616794283E-01  0.87201518318E-01  0.51100000000E-03 0. -1.
         11    1    4    4    0    0 -0.90713769243E-02 -0.10550607446E-01  0.39527795949E-01  0.41908387828E-01  0.51100000000E-03 0.  1.
</event>
<event>
 8    1  0.1074844E+005  0.1043930E+01  0.7957747E-01            NaN
         13   -1    0    0    0    0  0.00000000000E+00  0.00000000000E+00  0.74505805969E-08  0.10566000000E+00  0.10566000000E+00 0.  1.
     999900   -1    0    0    0    0 -0.00000000000E+00 -0.00000000000E+00 -0.74505805969E-08  0.93827000000E+00  0.93827000000E+00 0.  1.
     999902    2    1    2    0    0 -0.24086988246E-01 -0.84988868892E-02 -0.18576862052E-02  0.10183201371E+01  0.10179980533E+01 0.  0.
     999903    2    3    3    0    0 -0.11001348284E+00  0.55693291714E-01  0.39019926924E-01  0.13086592557E+00  0.19965636184E-01 0.  0.
         14    1    1    2    0    0  0.24086988246E-01  0.84988868892E-02  0.18576862052E-02  0.25609862927E-01  0.00000000000E+00 0. -1.
     999901    1    3    3    0    0  0.85926494595E-01 -0.64192178604E-01 -0.40877613129E-01  0.88745421151E+00  0.88000000000E+00 0. -1.
        -11    1    4    4    0    0 -0.35059754185E-01  0.20093028007E-01  0.33729878628E-02  0.40553104765E-01  0.51100000000E-03 0. -1.
         11    1    4    4    0    0 -0.74953728656E-01  0.35600263708E-01  0.35646939061E-01  0.90312820800E-01  0.51100000000E-03 0.  1.
</event>
<event>
 8    1  0.1074844E+005  0.1043930E+01  0.7957747E-01            NaN
         13   -1    0    0    0    0  0.00000000000E+00  0.00000000000E+00  0.74505805969E-08  0.10566000000E+00  0.10566000000E+00 0. -1.
     999900   -1    0    0    0    0 -0.00000000000E+00 -0.00000000000E+00 -0.74505805969E-08  0.93827000000E+00  0.93827000000E+00 0.  1.
     999902    2    1    2    0    0  0.12436890665E-01  0.98167494867E-02 -0.18277002062E-01  0.10197412914E+01  0.10194543677E+01 0.  0.
     999903    2    3    3    0    0  0.94491546227E-02 -0.74968143547E-01  0.10084551063E+00  0.12767202408E+00  0.20513889126E-01 0.  0.
         14    1    1    2    0    0 -0.12436890665E-01 -0.98167494867E-02  0.18277002062E-01  0.24188708611E-01  0.00000000000E+00 0.  1.
     999901    1    3    3    0    0  0.29877360426E-02  0.84784893034E-01 -0.11912251269E+00  0.89206926731E+00  0.88000000000E+00 0.  1.
        -11    1    4    4    0    0  0.20764494650E-02 -0.12731277748E-01  0.32345009770E-01  0.34826108791E-01  0.51100000000E-03 0. -1.
         11    1    4    4    0    0  0.73727051578E-02 -0.62236865799E-01  0.68500500862E-01  0.92845915285E-01  0.51100000000E-03 0.  1.
</event>
<event>
 8    1  0.1074844E+005  0.1043930E+01  0.7957747E-01            NaN
         13   -1    0    0    0    0  0.00000000000E+00  0.00000000000E+00  0.74505805969E-08  0.10566000000E+00  0.10566000000E+00 0.  1.
     999900   -1    0    0    0    0 -0.00000000000E+00 -0.00000000000E+00 -0.74505805969E-08  0.93827000000E+00  0.93827000000E+00 0. -1.
     999902    2    1    2    0    0  0.64929182227E-02 -0.18136268637E-01  0.14114593296E-01  0.10200489621E+01  0.10197693764E+01 0.  0.
     999903    2    3    3    0    0 -0.23642481830E-01  0.12416278355E+00  0.84268604588E-02  0.12809071594E+00  0.18996204040E-01 0.  0.
         14    1    1    2    0    0 -0.64929182227E-02  0.18136268637E-01 -0.14114593296E-01  0.23881037896E-01  0.00000000000E+00 0. -1.
     999901    1    3    3    0    0  0.30135400052E-01 -0.14229905219E+00  0.56877328367E-02  0.89195824616E+00  0.88000000000E+00 0.  1.
        -11    1    4    4    0    0 -0.20649395674E-01  0.57810037028E-01  0.37241936119E-02  0.61502265502E-01  0.51100000000E-03 0. -1.
         11    1    4    4    0    0 -0.29930861559E-02  0.66352746521E-01  0.47026668469E-02  0.66588450441E-01  0.51100000000E-03 0.  1.
</event>
<event>
 8    1  0.1074844E+005  0.1043930E+01  0.7957747E-01            NaN
         13   -1    0    0    0    0  0.00000000000E+00  0.00000000000E+00  0.74505805969E-08  0.10566000000E+00  0.10566000000E+00 0.  1.
     999900   -1    0    0    0    0 -0.00000000000E+00 -0.00000000000E+00 -0.74505805969E-08  0.93827000000E+00  0.93827000000E+00 0. -1.
     999902    2    1    2    0    0 -0.18007097985E-01 -0.71355830119E-02 -0.14096990033E-01  0.10199738473E+01  0.10196924791E+01 0.  0.
     999903    2    3    3    0    0 -0.90366266197E-01  0.64889795783E-01 -0.69173500056E-01  0.13236079742E+00  0.18911898913E-01 0.  0.
         14    1    1    2    0    0  0.18007097985E-01  0.71355830119E-02  0.14096990033E-01  0.23956152670E-01  0.00000000000E+00 0.  1.
     999901    1    3    3    0    0  0.72359168212E-01 -0.72025378795E-01  0.55076510023E-01  0.88761304991E+00  0.88000000000E+00 0.  1.
        -11    1    4    4    0    0 -0.19915777832E-01  0.81618371410E-02 -0.20101251572E-01  0.29454629992E-01  0.51100000000E-03 0.  1.
         11    1    4    4    0    0 -0.70450488364E-01  0.56727958642E-01 -0.49072248484E-01  0.10290616743E+00  0.51100000000E-03 0. -1.
</event>
<event>
 8    1  0.1074844E+005  0.1043930E+01  0.7957747E-01            NaN
         13   -1    0    0    0    0  0.00000000000E+00  0.00000000000E+00  0.74505805969E-08  0.10566000000E+00  0.10566000000E+00 0.  1.
     999900   -1    0    0    0    0 -0.00000000000E+00 -0.00000000000E+00 -0.74505805969E-08  0.93827000000E+00  0.93827000000E+00 0.  1.
     999902    2    1    2    0    0 -0.14829938290E-01 -0.14286821849E-01  0.12027626764E-01  0.10200824812E+01  0.10198036891E+01 0.  0.
     999903    2    3    3    0    0  0.98802712463E-01 -0.79797103228E-01 -0.18784132697E-01  0.12982783177E+00  0.19309805447E-01 0.  0.
         14    1    1    2    0    0  0.14829938290E-01  0.14286821849E-01 -0.12027626764E-01  0.23847518819E-01  0.00000000000E+00 0. -1.
     999901    1    3    3    0    0 -0.11363265075E+00  0.65510281379E-01  0.30811759461E-01  0.89025464941E+00  0.88000000000E+00 0. -1.
        -11    1    4    4    0    0  0.60661406472E-01 -0.58053159089E-01 -0.18207475972E-01  0.85917104337E-01  0.51100000000E-03 0. -1.
         11    1    4    4    0    0  0.38141305991E-01 -0.21743944139E-01 -0.57665672548E-03  0.43910727430E-01  0.51100000000E-03 0.  1.
</event>
<event>
 8    1  0.1074844E+005  0.1043930E+01  0.7957747E-01            NaN
         13   -1    0    0    0    0  0.00000000000E+00  0.00000000000E+00  0.74505805969E-08  0.10566000000E+00  0.10566000000E+00 0.  1.
     999900   -1    0    0    0    0 -0.00000000000E+00 -0.00000000000E+00 -0.74505805969E-08  0.93827000000E+00  0.93827000000E+00 0. -1.
     999902    2    1    2    0    0 -0.20623629037E-01 -0.19296873804E-02 -0.10703720871E-01  0.10206141812E+01  0.10203478227E+01 0.  0.
     999903    2    3    3    0    0  0.51029674965E-01 -0.54599048063E-01  0.10335125836E+00  0.12880882357E+00  0.18031823192E-01 0.  0.
         14    1    1    2    0    0  0.20623629037E-01  0.19296873804E-02  0.10703720871E-01  0.23315818848E-01  0.00000000000E+00 0.  1.
     999901    1    3    3    0    0 -0.71653304002E-01  0.52669360683E-01 -0.11405497923E+00  0.89180535758E+00  0.88000000000E+00 0. -1.
        -11    1    4    4    0    0  0.25760157157E-01 -0.30360775934E-01  0.69525024188E-01  0.80120861961E-01  0.51100000000E-03 0. -1.
         11    1    4    4    0    0  0.25269517809E-01 -0.24238272129E-01  0.33826234173E-01  0.48687961606E-01  0.51100000000E-03 0.  1.
</event>
<event>
 8    1  0.1074844E+005  0.1043930E+01  0.7957747E-01            NaN
         13   -1    0    0    0    0  0.00000000000E+00  0.00000000000E+00  0.74505805969E-08  0.10566000000E+00  0.10566000000E+00 0.  1.
     999900   -1    0    0    0    0 -0.00000000000E+00 -0.00000000000E+00 -0.74505805969E-08  0.93827000000E+00  0.93827000000E+00 0.  1.
     999902    2    1    2    0    0 -0.68115268024E-02 -0.18450230512E-01 -0.13303337932E-01  0.10201858070E+01  0.10199094538E+01 0.  0.
     999903    2    3    3    0    0 -0.18893057958E-02  0.60754745957E-01 -0.11416331990E+00  0.13087686597E+00  0.20019535490E-01 0.  0.
         14    1    1    2    0    0  0.68115268024E-02  0.18450230512E-01  0.13303337932E-01  0.23744193048E-01  0.00000000000E+00 0.  1.
     999901    1    3    3    0    0 -0.49222210065E-02 -0.79204976469E-01  0.10085998197E+00  0.88930894099E+00  0.88000000000E+00 0. -1.
        -11    1    4    4    0    0  0.89435669088E-02  0.22262866887E-01 -0.41817931300E-01  0.48214345690E-01  0.51100000000E-03 0.  1.
         11    1    4    4    0    0 -0.10832872705E-01  0.38491879069E-01 -0.72345388602E-01  0.82662520275E-01  0.51100000000E-03 0. -1.
</event>
<event>
 8    1  0.1074844E+005  0.1043930E+01  0.7957747E-01            NaN
         13   -1    0    0    0    0  0.00000000000E+00  0.00000000000E+00  0.74505805969E-08  0.10566000000E+00  0.10566000000E+00 0. -1.
     999900   -1    0    0    0    0 -0.00000000000E+00 -0.00000000000E+00 -0.74505805969E-08  0.93827000000E+00  0.93827000000E+00 0. -1.
     999902    2    1    2    0    0  0.72905634360E-02  0.22411283315E-01 -0.38334994400E-02  0.10200529471E+01  0.10197734559E+01 0.  0.
     999903    2    3    3    0    0  0.86651187102E-06  0.88425215147E-01  0.95443091675E-01  0.13198379420E+00  0.22165728218E-01 0.  0.
         14    1    1    2    0    0 -0.72905634360E-02 -0.22411283315E-01  0.38334994400E-02  0.23877052854E-01  0.00000000000E+00 0. -1.
     999901    1    3    3    0    0  0.72896969241E-02 -0.66013931832E-01 -0.99276591115E-01  0.88806915295E+00  0.88000000000E+00 0. -1.
        -11    1    4    4    0    0 -0.60422785906E-02  0.80392258332E-01  0.80202626406E-01  0.11371959696E+00  0.51100000000E-03 0.  1.
         11    1    4    4    0    0  0.60431451025E-02  0.80329568150E-02  0.15240465269E-01  0.18264197232E-01  0.51100000000E-03 0. -1.
</event>
<event>
 7    1  0.1113032E+005  0.1043930E+01  0.7957747E-01            NaN
         13   -1    0    0    0    0  0.00000000000E+00  0.00000000000E+00  0.74505805969E-08  0.10566000000E+00  0.10566000000E+00 0. -1.
     999900   -1    0    0    0    0 -0.00000000000E+00 -0.00000000000E+00 -0.74505805969E-08  0.93827000000E+00  0.93827000000E+00 0.  1.
     999903    2    1    2    0    0 -0.57596066995E-01 -0.19134542946E-01  0.82780929209E-01  0.10466874655E+00  0.20479907131E-01 0.  0.
         14    1    1    2    0    0  0.15896396426E-01 -0.48636441439E-01 -0.13722158763E-01  0.52976376776E-01  0.00000000000E+00 0.  1.
     999901    1    1    2    0    0  0.41699670568E-01  0.67770984385E-01 -0.69058770446E-01  0.88628487668E+00  0.88000000000E+00 0. -1.
        -11    1    3    3    0    0 -0.12209594215E-01 -0.89259106181E-02  0.34229795468E-01  0.37425741008E-01  0.51100000000E-03 0. -1.
         11    1    3    3    0    0 -0.45386472780E-01 -0.10208632328E-01  0.48551133741E-01  0.67243005539E-01  0.51100000000E-03 0.  1.
</event>
<event>
 8    1  0.1074844E+005  0.1043930E+01  0.7957747E-01            NaN
         13   -1    0    0    0    0  0.00000000000E+00  0.00000000000E+00  0.74505805969E-08  0.10566000000E+00  0.10566000000E+00 0. -1.
     999900   -1    0    0    0    0 -0.00000000000E+00 -0.00000000000E+00 -0.74505805969E-08  0.93827000000E+00  0.93827000000E+00 0.  1.
     999902    2    1    2    0    0  0.14925982806E-01 -0.16211273664E-01  0.53316831583E-02  0.10212580525E+01  0.10210063627E+01 0.  0.
     999903    2    3    3    0    0 -0.10473393410E+00 -0.60047072489E-01 -0.46523405683E-01  0.13056785768E+00  0.17569585000E-01 0.  0.
         14    1    1    2    0    0 -0.14925982806E-01  0.16211273664E-01 -0.53316831583E-02  0.22671947465E-01  0.00000000000E+00 0. -1.
     999901    1    3    3    0    0  0.11965991690E+00  0.43835798825E-01  0.51855088841E-01  0.89069019485E+00  0.88000000000E+00 0. -1.
        -11    1    4    4    0    0 -0.18647752600E-01 -0.90747211011E-02 -0.13297986527E-02  0.20787465588E-01  0.51100000000E-03 0.  1.
         11    1    4    4    0    0 -0.86086181496E-01 -0.50972351388E-01 -0.45193607030E-01  0.10978039209E+00  0.51100000000E-03 0. -1.
</event>
<event>
 8    1  0.1074844E+005  0.1043930E+01  0.7957747E-01            NaN
         13   -1    0    0    0    0  0.00000000000E+00  0.00000000000E+00  0.74505805969E-08  0.10566000000E+00  0.10566000000E+00 0.  1.
     999900   -1    0    0    0    0 -0.00000000000E+00 -0.00000000000E+00 -0.74505805969E-08  0.93827000000E+00  0.93827000000E+00 0.  1.
     999902    2    1    2    0    0 -0.79124686279E-02 -0.19175986934E-01 -0.13598757911E-01  0.10191257292E+01  0.10188238317E+01 0.  0.
     999903    2    3    3    0    0 -0.45840970397E-01 -0.11906816719E+00 -0.28903202744E-01  0.13253041847E+00  0.21220124534E-01 0.  0.
         14    1    1    2    0    0  0.79124686279E-02  0.19175986934E-01  0.13598757911E-01  0.24804270830E-01  0.00000000000E+00 0.  1.
     999901    1    3    3    0    0  0.37928501769E-01  0.99892180260E-01  0.15304444833E-01  0.88659531070E+00  0.88000000000E+00 0. -1.
        -11    1    4    4    0    0 -0.16055590150E-01 -0.68475044686E-01 -0.20197058834E-01  0.73176471809E-01  0.51100000000E-03 0. -1.
         11    1    4    4    0    0 -0.29785380247E-01 -0.50593122508E-01 -0.87061439100E-02  0.59353946662E-01  0.51100000000E-03 0.  1.
</event>
<event>
 8    1  0.1074844E+005  0.1043930E+01  0.7957747E-01            NaN
         13   -1    0    0    0    0  0.00000000000E+00  0.00000000000E+00  0.74505805969E-08  0.10566000000E+00  0.10566000000E+00 0.  1.
     999900   -1    0    0    0    0 -0.00000000000E+00 -0.00000000000E+00 -0.74505805969E-08  0.93827000000E+00  0.93827000000E+00 0.  1.
     999902    2    1    2    0    0 -0.18506292214E-01  0.10073965026E-01 -0.94590182315E-02  0.10208336659E+01  0.10205723555E+01 0.  0.
     999903    2    3    3    0    0 -0.11321643275E-01  0.61186008689E-01  0.11347934209E+00  0.13078990258E+00  0.18882009165E-01 0.  0.
         14    1    1    2    0    0  0.18506292214E-01 -0.10073965026E-01  0.94590182315E-02  0.23096334098E-01  0.00000000000E+00 0.  1.
     999901    1    3    3    0    0 -0.71846489385E-02 -0.51112043663E-01 -0.12293836032E+00  0.89004376332E+00  0.88000000000E+00 0.  1.
        -11    1    4    4    0    0 -0.13940598725E-02  0.16266349358E-01  0.15366505611E-01  0.22426059397E-01  0.51100000000E-03 0.  1.
         11    1    4    4    0    0 -0.99275834029E-02  0.44919659331E-01  0.98112836480E-01  0.10836384318E+00  0.51100000000E-03 0. -1.
</event>
<event>
 8    1  0.1074844E+005  0.1043930E+01  0.7957747E-01            NaN
         13   -1    0    0    0    0  0.00000000000E+00  0.00000000000E+00  0.74505805969E-08  0.10566000000E+00  0.10566000000E+00 0. -1.
     999900   -1    0    0    0    0 -0.00000000000E+00 -0.00000000000E+00 -0.74505805969E-08  0.93827000000E+00  0.93827000000E+00 0. -1.
     999902    2    1    2    0    0  0.21192888829E-01  0.49680772807E-02  0.14057945920E-01  0.10180177216E+01  0.10176878870E+01 0.  0.
     999903    2    3    3    0    0  0.35254253934E-01  0.40925569904E-01  0.11776617193E+00  0.13108702565E+00  0.19929183343E-01 0.  0.
         14    1    1    2    0    0 -0.21192888829E-01 -0.49680772807E-02 -0.14057945920E-01  0.25912278408E-01  0.00000000000E+00 0. -1.
     999901    1    3    3    0    0 -0.14061365105E-01 -0.35957492624E-01 -0.10370822601E+00  0.88693069594E+00  0.88000000000E+00 0. -1.
        -11    1    4    4    0    0  0.33036857494E-01  0.24869109667E-01  0.85319508665E-01  0.94813428630E-01  0.51100000000E-03 0. -1.
         11    1    4    4    0    0  0.22173964403E-02  0.16056460237E-01  0.32446663270E-01  0.36273597019E-01  0.51100000000E-03 0.  1.
</event>
<event>
 7    1  0.1074844E+005  0.1043930E+01  0.7957747E-01            NaN
         13   -1    0    0    0    0  0.00000000000E+00  0.00000000000E+00  0.74505805969E-08  0.10566000000E+00  0.10566000000E+00 0. -1.
     999900   -1    0    0    0    0 -0.00000000000E+00 -0.00000000000E+00 -0.74505805969E-08  0.93827000000E+00  0.93827000000E+00 0.  1.
     999902    2    1    2    0    0  0.54415345928E-02 -0.12444450574E-01  0.18393524839E-01  0.10210652585E+01  0.10208092210E+01 0.  0.
         14    1    1    2    0    0 -0.54415345928E-02  0.12444450574E-01 -0.18393524839E-01  0.22864741521E-01  0.00000000000E+00 0.  1.
     999901    1    3    3    0    0  0.11495759008E+00 -0.44660205309E-01 -0.35630874007E-01  0.88931397191E+00  0.88000000000E+00 0.  1.
        -11    1    3    3    0    0 -0.10975490411E+00  0.30743433374E-01  0.44922166084E-01  0.12251350864E+00  0.51100000000E-03 0.  1.
         11    1    3    3    0    0  0.23884862771E-03  0.14723213616E-02  0.91022327618E-02  0.92377779313E-02  0.51100000000E-03 0. -1.
</event>
<event>
 8    1  0.1074844E+005  0.1043930E+01  0.7957747E-01            NaN
         13   -1    0    0    0    0  0.00000000000E+00  0.00000000000E+00  0.74505805969E-08  0.10566000000E+00  0.10566000000E+00 0. -1.
     999900   -1    0    0    0    0 -0.00000000000E+00 -0.00000000000E+00 -0.74505805969E-08  0.93827000000E+00  0.93827000000E+00 0. -1.
     999902    2    1    2    0    0 -0.61974431154E-02 -0.18780287217E-01  0.12636872705E-01  0.10204609131E+01  0.10201910003E+01 0.  0.
     999903    2    3    3    0    0 -0.19873944375E-01 -0.12714762152E+00 -0.26040623617E-01  0.13286501710E+00  0.20334880614E-01 0.  0.
         14    1    1    2    0    0  0.61974431154E-02  0.18780287217E-01 -0.12636872705E-01  0.23469086921E-01  0.00000000000E+00 0.  1.
     999901    1    3    3    0    0  0.13676501260E-01  0.10836733430E+00  0.38677496322E-01  0.88759589597E+00  0.88000000000E+00 0.  1.
        -11    1    4    4    0    0 -0.49773823796E-02 -0.87607637995E-01 -0.13466175512E-01  0.88777652449E-01  0.51100000000E-03 0. -1.
         11    1    4    4    0    0 -0.14896561996E-01 -0.39539983521E-01 -0.12574448105E-01  0.44087364656E-01  0.51100000000E-03 0.  1.
</event>
<event>
 8    1  0.1074844E+005  0.1043930E+01  0.7957747E-01            NaN
         13   -1    0    0    0    0  0.00000000000E+00  0.00000000000E+00  0.74505805969E-08  0.10566000000E+00  0.10566000000E+00 0. -1.
     999900   -1    0    0    0    0 -0.00000000000E+00 -0.00000000000E+00 -0.74505805969E-08  0.93827000000E+00  0.93827000000E+00 0.  1.
     999902    2    1    2    0    0 -0.16972413466E-01  0.11854528924E-01 -0.13924410045E-01  0.10189804134E+01  0.10186749241E+01 0.  0.
     999903    2    3    3    0    0  0.10911527436E+00 -0.57134061881E-01 -0.24994095661E-01  0.12725171667E+00  0.19946188955E-01 0.  0.
         14    1    1    2    0    0  0.16972413466E-01 -0.11854528924E-01  0.13924410045E-01  0.24949586569E-01  0.00000000000E+00 0. -1.
     999901    1    3    3    0    0 -0.12608768782E+00  0.68988590805E-01  0.11069685616E-01  0.89172869676E+00  0.88000000000E+00 0. -1.
        -11    1    4    4    0    0  0.57671831432E-01 -0.32729319519E-01 -0.23291775360E-01  0.70285250354E-01  0.51100000000E-03 0.  1.
         11    1    4    4    0    0  0.51443442923E-01 -0.24404742362E-01 -0.17023203012E-02  0.56966466320E-01  0.51100000000E-03 0. -1.
</event>
<event>
 8    1  0.1074844E+005  0.1043930E+01  0.7957747E-01            NaN
         13   -1    0    0    0    0  0.00000000000E+00  0.00000000000E+00  0.74505805969E-08  0.10566000000E+00  0.10566000000E+00 0.  1.
     999900   -1    0    0    0    0 -0.00000000000E+00 -0.00000000000E+00 -0.74505805969E-08  0.93827000000E+00  0.93827000000E+00 0.  1.
     999902    2    1    2    0    0  0.14983608667E-01 -0.17736459181E-01  0.54727507106E-02  0.10200754090E+01  0.10197964495E+01 0.  0.
     999903    2    3    3    0    0  0.87663748814E-01 -0.98220590458E-01  0.11215268988E-01  0.13340011627E+00  0.18373663687E-01 0.  0.
         14    1    1    2    0    0 -0.14983608667E-01  0.17736459181E-01 -0.54727507106E-02  0.23854591032E-01  0.00000000000E+00 0. -1.
     999901    1    3    3    0    0 -0.72680140148E-01  0.80484131276E-01 -0.57425182770E-02  0.88667529269E+00  0.88000000000E+00 0. -1.
        -11    1    4    4    0    0  0.33583893882E-01 -0.48977732300E-01 -0.98526781743E-04  0.59388273405E-01  0.51100000000E-03 0.  1.
         11    1    4    4    0    0  0.54079854933E-01 -0.49242858158E-01  0.11313795769E-01  0.74011842869E-01  0.51100000000E-03 0. -1.
</event>
<event>
 8    1  0.1074844E+005  0.1043930E+01  0.7957747E-01            NaN
         13   -1    0    0    0    0  0.00000000000E+00  0.00000000000E+00  0.74505805969E-08  0.10566000000E+00  0.10566000000E+00 0. -1.
     999900   -1    0    0    0    0 -0.00000000000E+00 -0.00000000000E+00 -0.74505805969E-08  0.93827000000E+00  0.93827000000E+00 0. -1.
     999902    2    1    2    0    0 -0.45589631829E-02  0.22602015844E-01  0.12684753604E-01  0.10176138787E+01  0.10172735463E+01 0.  0.
     999903    2    3    3    0    0  0.34187829712E-01  0.62638892386E-01  0.10785149926E+00  0.13073114976E+00  0.19137635265E-01 0.  0.
         14    1    1    2    0    0  0.45589631829E-02 -0.22602015844E-01 -0.12684753604E-01  0.26316121285E-01  0.00000000000E+00 0.  1.
     999901    1    3    3    0    0 -0.38746792895E-01 -0.40036876542E-01 -0.95166745661E-01  0.88688272896E+00  0.88000000000E+00 0. -1.
        -11    1    4    4    0    0  0.16585141893E-01  0.12598884812E-01  0.30183489277E-01  0.36675645544E-01  0.51100000000E-03 0.  1.
         11    1    4    4    0    0  0.17602687819E-01  0.50040007575E-01  0.77668009987E-01  0.94055504214E-01  0.51100000000E-03 0. -1.
</event>
<event>
 8    1  0.1074844E+005  0.1043930E+01  0.7957747E-01            NaN
         13   -1    0    0    0    0  0.00000000000E+00  0.00000000000E+00  0.74505805969E-08  0.10566000000E+00  0.10566000000E+00 0. -1.
     999900   -1    0    0    0    0 -0.00000000000E+00 -0.00000000000E+00 -0.74505805969E-08  0.93827000000E+00  0.93827000000E+00 0. -1.
     999902    2    1    2    0    0 -0.21108285857E-01  0.89894382948E-02 -0.67798834851E-02  0.10200064436E+01  0.10197258496E+01 0.  0.
     999903    2    3    3    0    0  0.85634166053E-01  0.33227064001E-02  0.92911251707E-01  0.12795017553E+00  0.19861922154E-01 0.  0.
         14    1    1    2    0    0  0.21108285857E-01 -0.89894382948E-02  0.67798834851E-02  0.23923556440E-01  0.00000000000E+00 0. -1.
     999901    1    3    3    0    0 -0.10674245191E+00  0.56667318946E-02 -0.99691135192E-01  0.89205626803E+00  0.88000000000E+00 0. -1.
        -11    1    4    4    0    0  0.16783988416E-01  0.35875700392E-02  0.30598492596E-01  0.35087060237E-01  0.51100000000E-03 0.  1.
         11    1    4    4    0    0  0.68850177637E-01 -0.26486363902E-03  0.62312759111E-01  0.92863115296E-01  0.51100000000E-03 0. -1.
</event>
<event>
 8    1  0.1074844E+005  0.1043930E+01  0.7957747E-01            NaN
         13   -1    0    0    0    0  0.00000000000E+00  0.00000000000E+00  0.74505805969E-08  0.10566000000E+00  0.10566000000E+00 0.  1.
     999900   -1    0    0    0    0 -0.00000000000E+00 -0.00000000000E+00 -0.74505805969E-08  0.93827000000E+00  0.93827000000E+00 0. -1.
     999902    2    1    2    0    0 -0.46684340874E-02  0.90492313159E-02 -0.20887723015E-01  0.10206925338E+01  0.10204279831E+01 0.  0.
     999903    2    3    3    0    0  0.70911489349E-01 -0.76098194579E-01 -0.78177331516E-01  0.13151060176E+00  0.19077963005E-01 0.  0.
         14    1    1    2    0    0  0.46684340874E-02 -0.90492313159E-02  0.20887723015E-01  0.23237466234E-01  0.00000000000E+00 0.  1.
     999901    1    3    3    0    0 -0.75579923437E-01  0.85147425895E-01  0.57289608501E-01  0.88918193201E+00  0.88000000000E+00 0.  1.
        -11    1    4    4    0    0  0.53455448236E-01 -0.45427035712E-01 -0.56643854482E-01  0.90165890952E-01  0.51100000000E-03 0. -1.
         11    1    4    4    0    0  0.17456041114E-01 -0.30671158867E-01 -0.21533477035E-01  0.41344710808E-01  0.51100000000E-03 0.  1.
</event>
<event>
 8    1  0.1074844E+005  0.1043930E+01  0.7957747E-01            NaN
         13   -1    0    0    0    0  0.00000000000E+00  0.00000000000E+00  0.74505805969E-08  0.10566000000E+00  0.10566000000E+00 0.  1.
     999900   -1    0    0    0    0 -0.00000000000E+00 -0.00000000000E+00 -0.74505805969E-08  0.93827000000E+00  0.93827000000E+00 0.  1.
     999902    2    1    2    0    0  0.11283871791E-01 -0.11782586264E-01 -0.16161500969E-01  0.10209659147E+01  0.10207076220E+01 0.  0.
     999903    2    3    3    0    0 -0.68322963782E-01 -0.10394046976E-01 -0.11097586927E+00  0.13229896876E+00  0.20280778636E-01 0.  0.
         14    1    1    2    0    0 -0.11283871791E-01  0.11782586264E-01  0.16161500969E-01  0.22964085334E-01  0.00000000000E+00 0.  1.
     999901    1    3    3    0    0  0.79606835573E-01 -0.13885392873E-02  0.94814368300E-01  0.88866694591E+00  0.88000000000E+00 0. -1.
        -11    1    4    4    0    0 -0.56222843306E-01 -0.10583955342E-01 -0.74947190854E-01  0.94288762628E-01  0.51100000000E-03 0.  1.
         11    1    4    4    0    0 -0.12100120476E-01  0.18990836613E-03 -0.36028678416E-01  0.38010206131E-01  0.51100000000E-03 0. -1.
</event>
<event>
 8    1  0.1074844E+005  0.1043930E+01  0.7957747E-01            NaN
         13   -1    0    0    0    0  0.00000000000E+00  0.00000000000E+00  0.74505805969E-08  0.10566000000E+00  0.10566000000E+00 0. -1.
     999900   -1    0    0    0    0 -0.00000000000E+00 -0.00000000000E+00 -0.74505805969E-08  0.93827000000E+00  0.93827000000E+00 0. -1.
     999902    2    1    2    0    0  0.49383173186E-02  0.15111495451E-01  0.17349392744E-01  0.10203981981E+01  0.10201268240E+01 0.  0.
     999903    2    3    3    0    0 -0.58032918972E-01 -0.88620023708E-01  0.73447179287E-01  0.13030125599E+00  0.19042081870E-01 0.  0.
         14    1    1    2    0    0 -0.49383173186E-02 -0.15111495451E-01 -0.17349392744E-01  0.23531801914E-01  0.00000000000E+00 0.  1.
     999901    1    3    3    0    0  0.62971236291E-01  0.10373151916E+00 -0.56097786543E-01  0.89009694209E+00  0.88000000000E+00 0. -1.
        -11    1    4    4    0    0 -0.12592268353E-01 -0.33268767635E-01  0.30000806416E-01  0.46536927583E-01  0.51100000000E-03 0. -1.
         11    1    4    4    0    0 -0.45440650619E-01 -0.55351256073E-01  0.43446372871E-01  0.83764328412E-01  0.51100000000E-03 0.  1.
</event>
<event>
 8    1  0.1074844E+005  0.1043930E+01  0.7957747E-01            NaN
         13   -1    0    0    0    0  0.00000000000E+00  0.00000000000E+00  0.74505805969E-08  0.10566000000E+00  0.10566000000E+00 0. -1.
     999900   -1    0    0    0    0 -0.00000000000E+00 -0.00000000000E+00 -0.74505805969E-08  0.93827000000E+00  0.93827000000E+00 0. -1.
     999902    2    1    2    0    0 -0.22278855369E-01  0.43561340406E-02 -0.32786451552E-02  0.10209937227E+01  0.10207360624E+01 0.  0.
     999903    2    3    3    0    0 -0.19612894334E-02 -0.10520339219E+00 -0.76825413382E-01  0.13092337699E+00  0.12930047058E-01 0.  0.
         14    1    1    2    0    0  0.22278855369E-01 -0.43561340406E-02  0.32786451552E-02  0.22936277256E-01  0.00000000000E+00 0. -1.
     999901    1    3    3    0    0 -0.20317565935E-01  0.10955952623E+00  0.73546768227E-01  0.89007034575E+00  0.88000000000E+00 0.  1.
        -11    1    4    4    0    0  0.33095873345E-02 -0.50915366748E-01 -0.43111113828E-01  0.66799380206E-01  0.51100000000E-03 0. -1.
         11    1    4    4    0    0 -0.52708767679E-02 -0.54288025441E-01 -0.33714299554E-01  0.64123996784E-01  0.51100000000E-03 0.  1.
</event>
<event>
 8    1  0.1074844E+005  0.1043930E+01  0.7957747E-01            NaN
         13   -1    0    0    0    0  0.00000000000E+00  0.00000000000E+00  0.74505805969E-08  0.10566000000E+00  0.10566000000E+00 0.  1.
     999900   -1    0    0    0    0 -0.00000000000E+00 -0.00000000000E+00 -0.74505805969E-08  0.93827000000E+00  0.93827000000E+00 0. -1.
     999902    2    1    2    0    0 -0.20340178036E-01 -0.80224210547E-02  0.73402116007E-02  0.10208657248E+01  0.10206051476E+01 0.  0.
     999903    2    3    3    0    0  0.46500201331E-02 -0.90845435178E-01  0.94157296585E-01  0.13237184872E+00  0.19549783944E-01 0.  0.
         14    1    1    2    0    0  0.20340178036E-01  0.80224210547E-02 -0.73402116007E-02  0.23064275156E-01  0.00000000000E+00 0. -1.
     999901    1    3    3    0    0 -0.24990198169E-01  0.82823014123E-01 -0.86817084985E-01  0.88849387613E+00  0.88000000000E+00 0. -1.
        -11    1    4    4    0    0 -0.20980307264E-02 -0.59176850542E-01  0.71558300491E-01  0.92882468008E-01  0.51100000000E-03 0. -1.
         11    1    4    4    0    0  0.67480508595E-02 -0.31668584636E-01  0.22598996094E-01  0.39489380708E-01  0.51100000000E-03 0.  1.
</event>
<event>
 8    1  0.1074844E+005  0.1043930E+01  0.7957747E-01            NaN
         13   -1    0    0    0    0  0.00000000000E+00  0.00000000000E+00  0.74505805969E-08  0.10566000000E+00  0.10566000000E+00 0. -1.
     999900   -1    0    0    0    0 -0.00000000000E+00 -0.00000000000E+00 -0.74505805969E-08  0.93827000000E+00  0.93827000000E+00 0. -1.
     999902    2    1    2    0    0 -0.70230373529E-02 -0.18234140514E-01  0.12170376673E-01  0.10209099000E+01  0.10206503314E+01 0.  0.
     999903    2    3    3    0    0  0.10402143119E-01  0.12305355251E+00 -0.29283992067E-01  0.12850622803E+00  0.20147384055E-01 0.  0.
         14    1    1    2    0    0  0.70230373529E-02  0.18234140514E-01 -0.12170376673E-01  0.23020099963E-01  0.00000000000E+00 0. -1.
     999901    1    3    3    0    0 -0.17425180472E-01 -0.14128769303E+00  0.41454368740E-01  0.89240367200E+00  0.88000000000E+00 0.  1.
        -11    1    4    4    0    0  0.46611597510E-02  0.61921394118E-02  0.46136179807E-03  0.77809367320E-02  0.51100000000E-03 0.  1.
         11    1    4    4    0    0  0.57409833676E-02  0.11686141310E+00 -0.29745353865E-01  0.12072529130E+00  0.51100000000E-03 0. -1.
</event>
<event>
 8    1  0.1074844E+005  0.1043930E+01  0.7957747E-01            NaN
         13   -1    0    0    0    0  0.00000000000E+00  0.00000000000E+00  0.74505805969E-08  0.10566000000E+00  0.10566000000E+00 0.  1.
     999900   -1    0    0    0    0 -0.00000000000E+00 -0.00000000000E+00 -0.74505805969E-08  0.93827000000E+00  0.93827000000E+00 0.  1.
     999902    2    1    2    0    0 -0.15533829442E-01 -0.14793772141E-01  0.10604814502E-01  0.10200005695E+01  0.10197198361E+01 0.  0.
     999903    2    3    3    0    0 -0.63875498492E-01  0.62704537176E-01  0.94014029106E-01  0.13134990590E+00  0.20055468617E-01 0.  0.
         14    1    1    2    0    0  0.15533829442E-01  0.14793772141E-01 -0.10604814502E-01  0.23929430455E-01  0.00000000000E+00 0.  1.
     999901    1    3    3    0    0  0.48341669050E-01 -0.77498309318E-01 -0.83409214604E-01  0.88865066364E+00  0.88000000000E+00 0. -1.
        -11    1    4    4    0    0 -0.60721371723E-01  0.61772197401E-01  0.83469816414E-01  0.12029281246E+00  0.51100000000E-03 0.  1.
         11    1    4    4    0    0 -0.31541267683E-02  0.93233977510E-03  0.10544212692E-01  0.11057093444E-01  0.51100000000E-03 0. -1.
</event>
<event>
 8    1  0.1074844E+005  0.1043930E+01  0.7957747E-01            NaN
         13   -1    0    0    0    0  0.00000000000E+00  0.00000000000E+00  0.74505805969E-08  0.10566000000E+00  0.10566000000E+00 0. -1.
     999900   -1    0    0    0    0 -0.00000000000E+00 -0.00000000000E+00 -0.74505805969E-08  0.93827000000E+00  0.93827000000E+00 0.  1.
     999902    2    1    2    0    0  0.35830271044E-02  0.17039185791E-01  0.11115667841E-01  0.10232725556E+01  0.10230640220E+01 0.  0.
     999903    2    3    3    0    0 -0.10066562797E+00  0.57133047677E-01 -0.62729529933E-01  0.13314424294E+00  0.19865591171E-01 0.  0.
         14    1    1    2    0    0 -0.35830271044E-02 -0.17039185791E-01 -0.11115667841E-01  0.20657444353E-01  0.00000000000E+00 0.  1.
     999901    1    3    3    0    0  0.10424865507E+00 -0.40093861886E-01  0.73845197774E-01  0.89012831270E+00  0.88000000000E+00 0. -1.
        -11    1    4    4    0    0 -0.11851437915E-01  0.10037401918E-02 -0.29580964279E-02  0.12266846803E-01  0.51100000000E-03 0. -1.
         11    1    4    4    0    0 -0.88814190051E-01  0.56129307485E-01 -0.59771433505E-01  0.12087739614E+00  0.51100000000E-03 0.  1.
</event>
<event>
 8    1  0.1074844E+005  0.1043930E+01  0.7957747E-01            NaN
         13   -1    0    0    0    0  0.00000000000E+00  0.00000000000E+00  0.74505805969E-08  0.10566000000E+00  0.10566000000E+00 0.  1.
     999900   -1    0    0    0    0 -0.00000000000E+00 -0.00000000000E+00 -0.74505805969E-08  0.93827000000E+00  0.93827000000E+00 0. -1.
     999902    2    1    2    0    0  0.92342381553E-02 -0.31394497292E-02 -0.21802204513E-01  0.10200456239E+01  0.10197659592E+01 0.  0.
     999903    2    3    3    0    0 -0.46336187254E-01  0.59797881688E-01  0.99830025444E-01  0.12772080681E+00  0.24974819507E-01 0.  0.
         14    1    1    2    0    0 -0.92342381553E-02  0.31394497292E-02  0.21802204513E-01  0.23884376076E-01  0.00000000000E+00 0.  1.
     999901    1    3    3    0    0  0.55570425409E-01 -0.62937331417E-01 -0.12163222996E+00  0.89232481711E+00  0.88000000000E+00 0. -1.
        -11    1    4    4    0    0 -0.98365414383E-02  0.20919397958E-01  0.48366423097E-01  0.53609241391E-01  0.51100000000E-03 0.  1.
         11    1    4    4    0    0 -0.36499645815E-01  0.38878483730E-01  0.51463602348E-01  0.74111565423E-01  0.51100000000E-03 0. -1.
</event>
<event>
 8    1  0.1074844E+005  0.1043930E+01  0.7957747E-01            NaN
         13   -1    0    0    0    0  0.00000000000E+00  0.00000000000E+00  0.74505805969E-08  0.10566000000E+00  0.10566000000E+00 0.  1.
     999900   -1    0    0    0    0 -0.00000000000E+00 -0.00000000000E+00 -0.74505805969E-08  0.93827000000E+00  0.93827000000E+00 0.  1.
     999902    2    1    2    0    0 -0.12703496448E-01 -0.35786296767E-02  0.19360984879E-01  0.10204985436E+01  0.10202295057E+01 0.  0.
     999903    2    3    3    0    0  0.34791607945E-01 -0.12811109128E-02 -0.12161435628E+00  0.12801038665E+00  0.19608931853E-01 0.  0.
         14    1    1    2    0    0  0.12703496448E-01  0.35786296767E-02 -0.19360984879E-01  0.23431456376E-01  0.00000000000E+00 0. -1.
     999901    1    3    3    0    0 -0.47495104393E-01 -0.22975187639E-02  0.14097534115E+00  0.89248815698E+00  0.88000000000E+00 0. -1.
        -11    1    4    4    0    0  0.15533786780E-01  0.90046456279E-02 -0.49294151091E-01  0.52464813231E-01  0.51100000000E-03 0.  1.
         11    1    4    4    0    0  0.19257821164E-01 -0.10285756541E-01 -0.72320205185E-01  0.75545573415E-01  0.51100000000E-03 0. -1.
</event>
<event>
 8    1  0.1074844E+005  0.1043930E+01  0.7957747E-01            NaN
         13   -1    0    0    0    0  0.00000000000E+00  0.00000000000E+00  0.74505805969E-08  0.10566000000E+00  0.10566000000E+00 0. -1.
     999900   -1    0    0    0    0 -0.00000000000E+00 -0.00000000000E+00 -0.74505805969E-08  0.93827000000E+00  0.93827000000E+00 0.  1.
     999902    2    1    2    0    0  0.16571552459E-01 -0.10089501549E-01  0.12844127544E-01  0.10206622970E+01  0.10203970494E+01 0.  0.
     999903    2    3    3    0    0 -0.77282728486E-01  0.44849878031E-01 -0.89621574913E-01  0.12806710223E+00  0.19622036111E-01 0.  0.
         14    1    1    2    0    0 -0.16571552459E-01  0.10089501549E-01 -0.12844127544E-01  0.23267703040E-01  0.00000000000E+00 0.  1.
     999901    1    3    3    0    0  0.93854280945E-01 -0.54939379580E-01  0.10246570246E+00  0.89259519473E+00  0.88000000000E+00 0. -1.
        -11    1    4    4    0    0 -0.11504553930E-01  0.12166343121E-01 -0.25797900244E-01  0.30759834916E-01  0.51100000000E-03 0.  1.
         11    1    4    4    0    0 -0.65778174557E-01  0.32683534910E-01 -0.63823674668E-01  0.97307267310E-01  0.51100000000E-03 0. -1.
</event>
<event>
 8    1  0.1074844E+005  0.1043930E+01  0.7957747E-01            NaN
         13   -1    0    0    0    0  0.00000000000E+00  0.00000000000E+00  0.74505805969E-08  0.10566000000E+00  0.10566000000E+00 0.  1.
     999900   -1    0    0    0    0 -0.00000000000E+00 -0.00000000000E+00 -0.74505805969E-08  0.93827000000E+00  0.93827000000E+00 0.  1.
     999902    2    1    2    0    0  0.21734079321E-01  0.69871477793E-02 -0.50281524836E-02  0.10205532433E+01  0.10202854746E+01 0.  0.
     999903    2    3    3    0    0  0.57000085054E-01  0.99738184749E-01  0.63852132723E-01  0.13230162367E+00  0.15162769529E-01 0.  0.
         14    1    1    2    0    0 -0.21734079321E-01 -0.69871477793E-02  0.50281524836E-02  0.23376756735E-01  0.00000000000E+00 0.  1.
     999901    1    3    3    0    0 -0.35266005733E-01 -0.92751036970E-01 -0.68880285207E-01  0.88825161959E+00  0.88000000000E+00 0.  1.
        -11    1    4    4    0    0  0.45374004415E-01  0.65688000210E-01  0.42165176410E-01  0.90287744855E-01  0.51100000000E-03 0. -1.
         11    1    4    4    0    0  0.11626080639E-01  0.34050184539E-01  0.21686956313E-01  0.42013878817E-01  0.51100000000E-03 0.  1.
</event>
<event>
 8    1  0.1074844E+005  0.1043930E+01  0.7957747E-01            NaN
         13   -1    0    0    0    0  0.00000000000E+00  0.00000000000E+00  0.74505805969E-08  0.10566000000E+00  0.10566000000E+00 0.  1.
     999900   -1    0    0    0    0 -0.00000000000E+00 -0.00000000000E+00 -0.74505805969E-08  0.93827000000E+00  0.93827000000E+00 0.  1.
     999902    2    1    2    0    0 -0.20375797896E-01  0.88844678147E-02  0.89487849081E-02  0.10199677868E+01  0.10196862746E+01 0.  0.
     999903    2    3    3    0    0  0.10227429038E+00  0.72798869771E-01 -0.20456183883E-01  0.12868065739E+00  0.19507696306E-01 0.  0.
         14    1    1    2    0    0  0.20375797896E-01 -0.88844678147E-02 -0.89487849081E-02  0.23962213161E-01  0.00000000000E+00 0. -1.
     999901    1    3    3    0    0 -0.12265008827E+00 -0.63914401956E-01  0.29404968791E-01  0.89128712945E+00  0.88000000000E+00 0.  1.
        -11    1    4    4    0    0  0.68348242205E-01  0.37016316253E-01 -0.12101883282E-01  0.78666426012E-01  0.51100000000E-03 0.  1.
         11    1    4    4    0    0  0.33926048172E-01  0.35782553518E-01 -0.83543006010E-02  0.50014231379E-01  0.51100000000E-03 0. -1.
</event>
<event>
 7    1  0.1662283E+005  0.1043930E+01  0.7957747E-01            NaN
         13   -1    0    0    0    0  0.00000000000E+00  0.00000000000E+00  0.74505805969E-08  0.10566000000E+00  0.10566000000E+00 0. -1.
     999900   -1    0    0    0    0 -0.00000000000E+00 -0.00000000000E+00 -0.74505805969E-08  0.93827000000E+00  0.93827000000E+00 0.  1.
     999903    2    1    2    0    0  0.96702880424E-02  0.67542785982E-01 -0.86513210188E-01  0.11208472725E+00  0.20564730427E-01 0.  0.
         14    1    1    2    0    0 -0.26914850713E-01 -0.37047933698E-01 -0.64940706840E-02  0.46250746310E-01  0.00000000000E+00 0.  1.
     999901    1    1    2    0    0  0.17244562671E-01 -0.30494852283E-01  0.93007280872E-01  0.88559452644E+00  0.88000000000E+00 0. -1.
        -11    1    3    3    0    0  0.11713445774E-01  0.36173423234E-01 -0.34700433175E-01  0.51479146690E-01  0.51100000000E-03 0. -1.
         11    1    3    3    0    0 -0.20431577321E-02  0.31369362748E-01 -0.51812777013E-01  0.60605580564E-01  0.51100000000E-03 0.  1.
</event>
<event>
 8    1  0.1074844E+005  0.1043930E+01  0.7957747E-01            NaN
         13   -1    0    0    0    0  0.00000000000E+00  0.00000000000E+00  0.74505805969E-08  0.10566000000E+00  0.10566000000E+00 0.  1.
     999900   -1    0    0    0    0 -0.00000000000E+00 -0.00000000000E+00 -0.74505805969E-08  0.93827000000E+00  0.93827000000E+00 0.  1.
     999902    2    1    2    0    0  0.15605303510E-01  0.31416578398E-02 -0.18497328622E-01  0.10195261749E+01  0.10192340628E+01 0.  0.
     999903    2    3    3    0    0 -0.11042114414E+00  0.55604876791E-01 -0.30546793173E-01  0.12891950280E+00  0.20059916113E-01 0.  0.
         14    1    1    2    0    0 -0.15605303510E-01 -0.31416578398E-02  0.18497328622E-01  0.24403825064E-01  0.00000000000E+00 0.  1.
     999901    1    3    3    0    0  0.12602644765E+00 -0.52463218951E-01  0.12049464552E-01  0.89060667213E+00  0.88000000000E+00 0. -1.
        -11    1    4    4    0    0 -0.35551388695E-01  0.26022217369E-01 -0.44171519050E-02  0.44281253222E-01  0.51100000000E-03 0. -1.
         11    1    4    4    0    0 -0.74869755444E-01  0.29582659422E-01 -0.26129641268E-01  0.84638249583E-01  0.51100000000E-03 0.  1.
</event>
<event>
 8    1  0.1074844E+005  0.1043930E+01  0.7957747E-01            NaN
         13   -1    0    0    0    0  0.00000000000E+00  0.00000000000E+00  0.74505805969E-08  0.10566000000E+00  0.10566000000E+00 0.  1.
     999900   -1    0    0    0    0 -0.00000000000E+00 -0.00000000000E+00 -0.74505805969E-08  0.93827000000E+00  0.93827000000E+00 0. -1.
     999902    2    1    2    0    0 -0.20352154589E-02  0.17661419375E-01 -0.14804749947E-01  0.10207945627E+01  0.10205323566E+01 0.  0.
     999903    2    3    3    0    0 -0.97521212402E-01  0.55017117340E-01 -0.69468092705E-01  0.13315662708E+00  0.19172933047E-01 0.  0.
         14    1    1    2    0    0  0.20352154589E-02 -0.17661419375E-01  0.14804749947E-01  0.23135437263E-01  0.00000000000E+00 0. -1.
     999901    1    3    3    0    0  0.95485996943E-01 -0.37355697965E-01  0.54663342757E-01  0.88763793566E+00  0.88000000000E+00 0.  1.
        -11    1    4    4    0    0 -0.38425178953E-01  0.31809593691E-01 -0.34712621254E-01  0.60774763049E-01  0.51100000000E-03 0.  1.
         11    1    4    4    0    0 -0.59096033449E-01  0.23207523650E-01 -0.34755471451E-01  0.72381864028E-01  0.51100000000E-03 0. -1.
</event>
<event>
 8    1  0.1074844E+005  0.1043930E+01  0.7957747E-01            NaN
         13   -1    0    0    0    0  0.00000000000E+00  0.00000000000E+00  0.74505805969E-08  0.10566000000E+00  0.10566000000E+00 0. -1.
     999900   -1    0    0    0    0 -0.00000000000E+00 -0.00000000000E+00 -0.74505805969E-08  0.93827000000E+00  0.93827000000E+00 0. -1.
     999902    2    1    2    0    0 -0.17449073429E-03  0.21770064861E-01 -0.91066782960E-02  0.10203313187E+01  0.10200583817E+01 0.  0.
     999903    2    3    3    0    0  0.98773282760E-01 -0.58980934396E-01  0.54701004718E-01  0.12882539823E+00  0.19206022569E-01 0.  0.
         14    1    1    2    0    0  0.17449073429E-03 -0.21770064861E-01  0.91066782960E-02  0.23598681333E-01  0.00000000000E+00 0. -1.
     999901    1    3    3    0    0 -0.98947773494E-01  0.80750999257E-01 -0.63807683014E-01  0.89150592044E+00  0.88000000000E+00 0. -1.
        -11    1    4    4    0    0  0.32931797807E-01 -0.10099276043E-01  0.19492825288E-01  0.39581940858E-01  0.51100000000E-03 0.  1.
         11    1    4    4    0    0  0.65841484953E-01 -0.48881658353E-01  0.35208179429E-01  0.89243457373E-01  0.51100000000E-03 0. -1.
</event>
<event>
 8    1  0.1074844E+005  0.1043930E+01  0.7957747E-01            NaN
         13   -1    0    0    0    0  0.00000000000E+00  0.00000000000E+00  0.74505805969E-08  0.10566000000E+00  0.10566000000E+00 0.  1.
     999900   -1    0    0    0    0 -0.00000000000E+00 -0.00000000000E+00 -0.74505805969E-08  0.93827000000E+00  0.93827000000E+00 0.  1.
     999902    2    1    2    0    0  0.35669876790E-02  0.21920034083E-02  0.22561297837E-01  0.10209835310E+01  0.10207256390E+01 0.  0.
     999903    2    3    3    0    0 -0.11928249437E+00  0.12067461869E-02  0.52431999708E-01  0.13194740979E+00  0.20766190237E-01 0.  0.
         14    1    1    2    0    0 -0.35669876790E-02 -0.21920034083E-02 -0.22561297837E-01  0.22946469013E-01  0.00000000000E+00 0. -1.
     999901    1    3    3    0    0  0.12284948205E+00  0.98525722141E-03 -0.29870701871E-01  0.88903612120E+00  0.88000000000E+00 0.  1.
        -11    1    4    4    0    0 -0.37701501437E-01 -0.52768265669E-02  0.25363434877E-01  0.45747273788E-01  0.51100000000E-03 0.  1.
         11    1    4    4    0    0 -0.81580992930E-01  0.64835727538E-02  0.27068564831E-01  0.86200135998E-01  0.51100000000E-03 0. -1.
</event>
<event>
 8    1  0.1074844E+005  0.1043930E+01  0.7957747E-01            NaN
         13   -1    0    0    0    0  0.00000000000E+00  0.00000000000E+00  0.74505805969E-08  0.10566000000E+00  0.10566000000E+00 0.  1.
     999900   -1    0    0    0    0 -0.00000000000E+00 -0.00000000000E+00 -0.74505805969E-08  0.93827000000E+00  0.93827000000E+00 0. -1.
     999902    2    1    2    0    0 -0.53522447209E-02 -0.13350543456E-01 -0.17774379076E-01  0.10210649156E+01  0.10208088703E+01 0.  0.
     999903    2    3    3    0    0  0.10204935312E+00 -0.81055517116E-01 -0.43272115542E-02  0.13185184044E+00  0.19547780949E-01 0.  0.
         14    1    1    2    0    0  0.53522447209E-02  0.13350543456E-01  0.17774379076E-01  0.22865084423E-01  0.00000000000E+00 0.  1.
     999901    1    3    3    0    0 -0.10740159784E+00  0.67704973659E-01 -0.13447167522E-01  0.88921307514E+00  0.88000000000E+00 0. -1.
        -11    1    4    4    0    0  0.16389525416E-01 -0.75347236655E-02 -0.58050910322E-02  0.18956497751E-01  0.51100000000E-03 0.  1.
         11    1    4    4    0    0  0.85659827708E-01 -0.73520793450E-01  0.14778794780E-02  0.11289534269E+00  0.51100000000E-03 0. -1.
</event>
<event>
 8    1  0.1074844E+005  0.1043930E+01  0.7957747E-01            NaN
         13   -1    0    0    0    0  0.00000000000E+00  0.00000000000E+00  0.74505805969E-08  0.10566000000E+00  0.10566000000E+00 0. -1.
     999900   -1    0    0    0    0 -0.00000000000E+00 -0.00000000000E+00 -0.74505805969E-08  0.93827000000E+00  0.93827000000E+00 0.  1.
     999902    2    1    2    0    0  0.18798228869E-01 -0.85051013940E-02  0.43129796471E-03  0.10232927479E+01  0.10230846258E+01 0.  0.
     999903    2    3    3    0    0  0.10705357129E+00 -0.72815838380E-02 -0.79932674153E-01  0.13523370112E+00  0.19632445920E-01 0.  0.
         14    1    1    2    0    0 -0.18798228869E-01  0.85051013940E-02 -0.43129796471E-03  0.20637252149E-01  0.00000000000E+00 0. -1.
     999901    1    3    3    0    0 -0.88255342422E-01 -0.12235175560E-02  0.80363972118E-01  0.88805904673E+00  0.88000000000E+00 0. -1.
        -11    1    4    4    0    0  0.36472576743E-01 -0.71919093456E-02 -0.17888840819E-01  0.41258261732E-01  0.51100000000E-03 0. -1.
         11    1    4    4    0    0  0.70580994548E-01 -0.89674492449E-04 -0.62043833334E-01  0.93975439391E-01  0.51100000000E-03 0.  1.
</event>
<event>
 8    1  0.1074844E+005  0.1043930E+01  0.7957747E-01            NaN
         13   -1    0    0    0    0  0.00000000000E+00  0.00000000000E+00  0.74505805969E-08  0.10566000000E+00  0.10566000000E+00 0. -1.
     999900   -1    0    0    0    0 -0.00000000000E+00 -0.00000000000E+00 -0.74505805969E-08  0.93827000000E+00  0.93827000000E+00 0. -1.
     999902    2    1    2    0    0 -0.26153594241E-02  0.23380628731E-01 -0.73789438917E-03  0.10203919798E+01  0.10201204606E+01 0.  0.
     999903    2    3    3    0    0  0.70190472532E-01 -0.10349203061E+00 -0.19380703238E-01  0.12812244928E+00  0.20061094603E-01 0.  0.
         14    1    1    2    0    0  0.26153594241E-02 -0.23380628731E-01  0.73789438917E-03  0.23538020157E-01  0.00000000000E+00 0. -1.
     999901    1    3    3    0    0 -0.72805831956E-01  0.12687265934E+00  0.18642808849E-01  0.89226953057E+00  0.88000000000E+00 0.  1.
        -11    1    4    4    0    0  0.35986775850E-01 -0.38432140910E-01 -0.13656360573E-01  0.54395172544E-01  0.51100000000E-03 0.  1.
         11    1    4    4    0    0  0.34203696682E-01 -0.65059889700E-01 -0.57243426647E-02  0.73727276733E-01  0.51100000000E-03 0. -1.
</event>
<event>
 8    1  0.1074844E+005  0.1043930E+01  0.7957747E-01            NaN
         13   -1    0    0    0    0  0.00000000000E+00  0.00000000000E+00  0.74505805969E-08  0.10566000000E+00  0.10566000000E+00 0. -1.
     999900   -1    0    0    0    0 -0.00000000000E+00 -0.00000000000E+00 -0.74505805969E-08  0.93827000000E+00  0.93827000000E+00 0.  1.
     999902    2    1    2    0    0 -0.19539087847E-01 -0.35878721221E-02  0.12334020408E-02  0.10240259788E+01  0.10238325230E+01 0.  0.
     999903    2    3    3    0    0 -0.51600910517E-01 -0.50857426043E-01  0.11234047726E+00  0.13520251297E+00  0.20253516578E-01 0.  0.
         14    1    1    2    0    0  0.19539087847E-01  0.35878721221E-02 -0.12334020408E-02  0.19904021223E-01  0.00000000000E+00 0.  1.
     999901    1    3    3    0    0  0.32061822670E-01  0.47269553921E-01 -0.11110707522E+00  0.88882346580E+00  0.88000000000E+00 0.  1.
        -11    1    4    4    0    0 -0.16842308948E-01 -0.12568530320E-01  0.49765709407E-01  0.54023312365E-01  0.51100000000E-03 0.  1.
         11    1    4    4    0    0 -0.34758601570E-01 -0.38288895723E-01  0.62574767850E-01  0.81179200607E-01  0.51100000000E-03 0. -1.
</event>
<event>
 8    1  0.1074844E+005  0.1043930E+01  0.7957747E-01            NaN
         13   -1    0    0    0    0  0.00000000000E+00  0.00000000000E+00  0.74505805969E-08  0.10566000000E+00  0.10566000000E+00 0. -1.
     999900   -1    0    0    0    0 -0.00000000000E+00 -0.00000000000E+00 -0.74505805969E-08  0.93827000000E+00  0.93827000000E+00 0.  1.
     999902    2    1    2    0    0  0.14754574417E-01  0.14811387290E-01 -0.10876559381E-01  0.10203636213E+01  0.10200914398E+01 0.  0.
     999903    2    3    3    0    0 -0.94144163144E-01 -0.15436349653E-01  0.83338063709E-01  0.12814713648E+00  0.19366243329E-01 0.  0.
         14    1    1    2    0    0 -0.14754574417E-01 -0.14811387290E-01  0.10876559381E-01  0.23566378670E-01  0.00000000000E+00 0. -1.
     999901    1    3    3    0    0  0.10889873756E+00  0.30247736944E-01 -0.94214623089E-01  0.89221648485E+00  0.88000000000E+00 0.  1.
        -11    1    4    4    0    0 -0.25592459837E-01 -0.12723526822E-01  0.27853967008E-01  0.39911987352E-01  0.51100000000E-03 0. -1.
         11    1    4    4    0    0 -0.68551703307E-01 -0.27128228313E-02  0.55484096701E-01  0.88235149128E-01  0.51100000000E-03 0.  1.
</event>
<event>
 8    1  0.1074844E+005  0.1043930E+01  0.7957747E-01            NaN
         13   -1    0    0    0    0  0.00000000000E+00  0.00000000000E+00  0.74505805969E-08  0.10566000000E+00  0.10566000000E+00 0.  1.
     999900   -1    0    0    0    0 -0.00000000000E+00 -0.00000000000E+00 -0.74505805969E-08  0.93827000000E+00  0.93827000000E+00 0.  1.
     999902    2    1    2    0    0 -0.18528353365E-01  0.71864345602E-02 -0.12603116186E-01  0.10203974001E+01  0.10201260074E+01 0.  0.
     999903    2    3    3    0    0 -0.60987505570E-01  0.11850400841E-01 -0.11610212967E+00  0.13330294179E+00  0.20737934777E-01 0.  0.
         14    1    1    2    0    0  0.18528353365E-01 -0.71864345602E-02  0.12603116186E-01  0.23532599893E-01  0.00000000000E+00 0.  1.
     999901    1    3    3    0    0  0.42459152205E-01 -0.46639662804E-02  0.10349901349E+00  0.88709445832E+00  0.88000000000E+00 0. -1.
        -11    1    4    4    0    0 -0.26364971941E-01  0.15648964577E-01 -0.54480954118E-01  0.62517496114E-01  0.51100000000E-03 0. -1.
         11    1    4    4    0    0 -0.34622533629E-01 -0.37985637368E-02 -0.61621175556E-01  0.70785445674E-01  0.51100000000E-03 0.  1.
</event>
<event>
 8    1  0.1074844E+005  0.1043930E+01  0.7957747E-01            NaN
         13   -1    0    0    0    0  0.00000000000E+00  0.00000000000E+00  0.74505805969E-08  0.10566000000E+00  0.10566000000E+00 0.  1.
     999900   -1    0    0    0    0 -0.00000000000E+00 -0.00000000000E+00 -0.74505805969E-08  0.93827000000E+00  0.93827000000E+00 0. -1.
     999902    2    1    2    0    0  0.79453161823E-02  0.70792036515E-02 -0.21145778030E-01  0.10202575033E+01  0.10199828361E+01 0.  0.
     999903    2    3    3    0    0 -0.20676987392E-01  0.53123285310E-01  0.11322979934E+00  0.12840768994E+00  0.20443241612E-01 0.  0.
         14    1    1    2    0    0 -0.79453161823E-02 -0.70792036515E-02  0.21145778030E-01  0.23672496744E-01  0.00000000000E+00 0.  1.
     999901    1    3    3    0    0  0.28622303574E-01 -0.46044081659E-01 -0.13437557737E+00  0.89184981332E+00  0.88000000000E+00 0. -1.
        -11    1    4    4    0    0 -0.22408638803E-01  0.30641876441E-01  0.73313067270E-01  0.82559909389E-01  0.51100000000E-03 0. -1.
         11    1    4    4    0    0  0.17316514113E-02  0.22481408869E-01  0.39916732070E-01  0.45847780552E-01  0.51100000000E-03 0.  1.
</event>
<event>
 8    1  0.1074844E+005  0.1043930E+01  0.7957747E-01            NaN
         13   -1    0    0    0    0  0.00000000000E+00  0.00000000000E+00  0.74505805969E-08  0.10566000000E+00  0.10566000000E+00 0. -1.
     999900   -1    0    0    0    0 -0.00000000000E+00 -0.00000000000E+00 -0.74505805969E-08  0.93827000000E+00  0.93827000000E+00 0. -1.
     999902    2    1    2    0    0 -0.69514970666E-02  0.20037561539E-01 -0.16715649872E-02  0.10226551013E+01  0.10224337802E+01 0.  0.
     999903    2    3    3    0    0  0.17595889444E-01  0.12993976449E+00  0.27402821902E-01  0.13500292375E+00  0.16760580268E-01 0.  0.
         14    1    1    2    0    0  0.69514970666E-02 -0.20037561539E-01  0.16715649872E-02  0.21274898670E-01  0.00000000000E+00 0.  1.
     999901    1    3    3    0    0 -0.24547386511E-01 -0.10990220295E+00 -0.29074386889E-01  0.88765217758E+00  0.88000000000E+00 0. -1.
        -11    1    4    4    0    0  0.35212963804E-02  0.62912604239E-01  0.62617839468E-02  0.63323505584E-01  0.51100000000E-03 0. -1.
         11    1    4    4    0    0  0.14074593064E-01  0.67027160250E-01  0.21141037955E-01  0.71679418161E-01  0.51100000000E-03 0.  1.
</event>
<event>
 8    1  0.1074844E+005  0.1043930E+01  0.7957747E-01            NaN
         13   -1    0    0    0    0  0.00000000000E+00  0.00000000000E+00  0.74505805969E-08  0.10566000000E+00  0.10566000000E+00 0. -1.
     999900   -1    0    0    0    0 -0.00000000000E+00 -0.00000000000E+00 -0.74505805969E-08  0.93827000000E+00  0.93827000000E+00 0. -1.
     999902    2    1    2    0    0  0.35887854816E-02 -0.78907730803E-02  0.21754067636E-01  0.10205124181E+01  0.10202437025E+01 0.  0.
     999903    2    3    3    0    0 -0.26990183864E-01 -0.45957241174E-03  0.12926059707E+00  0.13341155016E+00  0.19017321829E-01 0.  0.
         14    1    1    2    0    0 -0.35887854816E-02  0.78907730803E-02 -0.21754067636E-01  0.23417581851E-01  0.00000000000E+00 0.  1.
     999901    1    3    3    0    0  0.30578969346E-01 -0.74312006686E-02 -0.10750652944E+00  0.88710086799E+00  0.88000000000E+00 0. -1.
        -11    1    4    4    0    0 -0.14665353514E-01 -0.70201719509E-02  0.95477727665E-01  0.96853564772E-01  0.51100000000E-03 0. -1.
         11    1    4    4    0    0 -0.12324830350E-01  0.65605995391E-02  0.33782869408E-01  0.36557985391E-01  0.51100000000E-03 0.  1.
</event>
<event>
 8    1  0.1074844E+005  0.1043930E+01  0.7957747E-01            NaN
         13   -1    0    0    0    0  0.00000000000E+00  0.00000000000E+00  0.74505805969E-08  0.10566000000E+00  0.10566000000E+00 0.  1.
     999900   -1    0    0    0    0 -0.00000000000E+00 -0.00000000000E+00 -0.74505805969E-08  0.93827000000E+00  0.93827000000E+00 0.  1.
     999902    2    1    2    0    0 -0.12557570584E-01 -0.11874064250E-01  0.15327741769E-01  0.10208296613E+01  0.10205682592E+01 0.  0.
     999903    2    3    3    0    0  0.83372442050E-01 -0.99326550825E-01  0.27996910291E-02  0.13121881559E+00  0.19844684496E-01 0.  0.
         14    1    1    2    0    0  0.12557570584E-01  0.11874064250E-01 -0.15327741769E-01  0.23100338710E-01  0.00000000000E+00 0. -1.
     999901    1    3    3    0    0 -0.95930012634E-01  0.87452486575E-01  0.12528050740E-01  0.88961084570E+00  0.88000000000E+00 0. -1.
        -11    1    4    4    0    0  0.60629921285E-01 -0.78373587211E-01 -0.53566835413E-02  0.99233873787E-01  0.51100000000E-03 0. -1.
         11    1    4    4    0    0  0.22742520765E-01 -0.20952963614E-01  0.81563745703E-02  0.31984941802E-01  0.51100000000E-03 0.  1.
</event>
<event>
 8    1  0.1074844E+005  0.1043930E+01  0.7957747E-01            NaN
         13   -1    0    0    0    0  0.00000000000E+00  0.00000000000E+00  0.74505805969E-08  0.10566000000E+00  0.10566000000E+00 0. -1.
     999900   -1    0    0    0    0 -0.00000000000E+00 -0.00000000000E+00 -0.74505805969E-08  0.93827000000E+00  0.93827000000E+00 0. -1.
     999902    2    1    2    0    0 -0.19781541460E-01  0.17505921042E-02  0.13454264504E-01  0.10199426869E+01  0.10196605776E+01 0.  0.
     999903    2    3    3    0    0  0.29965213188E-01 -0.11521838093E+00 -0.45333339243E-01  0.12886891747E+00  0.19465275187E-01 0.  0.
         14    1    1    2    0    0  0.19781541460E-01 -0.17505921042E-02 -0.13454264504E-01  0.23987313075E-01  0.00000000000E+00 0.  1.
     999901    1    3    3    0    0 -0.49746754648E-01  0.11696897303E+00  0.58787603747E-01  0.89107376945E+00  0.88000000000E+00 0.  1.
        -11    1    4    4    0    0  0.21966783517E-01 -0.10127363414E+00 -0.44450525743E-01  0.11276080396E+00  0.51100000000E-03 0. -1.
         11    1    4    4    0    0  0.79984296713E-02 -0.13944746793E-01 -0.88281349995E-03  0.16108113514E-01  0.51100000000E-03 0.  1.
</event>
<event>
 8    1  0.1074844E+005  0.1043930E+01  0.7957747E-01            NaN
         13   -1    0    0    0    0  0.00000000000E+00  0.00000000000E+00  0.74505805969E-08  0.10566000000E+00  0.10566000000E+00 0.  1.
     999900   -1    0    0    0    0 -0.00000000000E+00 -0.00000000000E+00 -0.74505805969E-08  0.93827000000E+00  0.93827000000E+00 0.  1.
     999902    2    1    2    0    0 -0.13241837622E-01  0.19874027721E-01 -0.11197328909E-02  0.10200223225E+01  0.10197421053E+01 0.  0.
     999903    2    3    3    0    0 -0.58710083176E-01  0.10853872537E+00 -0.46698277776E-01  0.13322685921E+00  0.18469924116E-01 0.  0.
         14    1    1    2    0    0  0.13241837622E-01 -0.19874027721E-01  0.11197328909E-02  0.23907677495E-01  0.00000000000E+00 0.  1.
     999901    1    3    3    0    0  0.45468245554E-01 -0.88664697648E-01  0.45578544885E-01  0.88679546329E+00  0.88000000000E+00 0. -1.
        -11    1    4    4    0    0 -0.23790855642E-01  0.50261030559E-01 -0.30327616592E-01  0.63341940720E-01  0.51100000000E-03 0. -1.
         11    1    4    4    0    0 -0.34919227535E-01  0.58277694811E-01 -0.16370661184E-01  0.69884918492E-01  0.51100000000E-03 0.  1.
</event>
<event>
 8    1  0.1074844E+005  0.1043930E+01  0.7957747E-01            NaN
         13   -1    0    0    0    0  0.00000000000E+00  0.00000000000E+00  0.74505805969E-08  0.10566000000E+00  0.10566000000E+00 0. -1.
     999900   -1    0    0    0    0 -0.00000000000E+00 -0.00000000000E+00 -0.74505805969E-08  0.93827000000E+00  0.93827000000E+00 0. -1.
     999902    2    1    2    0    0 -0.18767716021E-01  0.11597998726E-01 -0.59319266623E-02  0.10210842456E+01  0.10208286380E+01 0.  0.
     999903    2    3    3    0    0 -0.13181301444E+00 -0.86339217537E-02 -0.49302852132E-03  0.13360570971E+00  0.20025663717E-01 0.  0.
         14    1    1    2    0    0  0.18767716021E-01 -0.11597998726E-01  0.59319266623E-02  0.22845754376E-01  0.00000000000E+00 0. -1.
     999901    1    3    3    0    0  0.11304529842E+00  0.20231920479E-01 -0.54388981410E-02  0.88747853592E+00  0.88000000000E+00 0. -1.
        -11    1    4    4    0    0 -0.85945247478E-01 -0.14698149949E-01  0.25942841731E-02  0.87233093533E-01  0.51100000000E-03 0. -1.
         11    1    4    4    0    0 -0.45867766966E-01  0.60642281958E-02 -0.30873126944E-02  0.46372616173E-01  0.51100000000E-03 0.  1.
</event>
<event>
 8    1  0.1074844E+005  0.1043930E+01  0.7957747E-01            NaN
         13   -1    0    0    0    0  0.00000000000E+00  0.00000000000E+00  0.74505805969E-08  0.10566000000E+00  0.10566000000E+00 0.  1.
     999900   -1    0    0    0    0 -0.00000000000E+00 -0.00000000000E+00 -0.74505805969E-08  0.93827000000E+00  0.93827000000E+00 0.  1.
     999902    2    1    2    0    0  0.18190930309E-01  0.10124497704E-01  0.15913047495E-01  0.10177261743E+01  0.10173887779E+01 0.  0.
     999903    2    3    3    0    0  0.10883749322E+00 -0.44402849972E-01 -0.49254936897E-01  0.12899848982E+00  0.19933603593E-01 0.  0.
         14    1    1    2    0    0 -0.18190930309E-01 -0.10124497704E-01 -0.15913047495E-01  0.26203825672E-01  0.00000000000E+00 0. -1.
     999901    1    3    3    0    0 -0.90646562911E-01  0.54527347676E-01  0.65167984392E-01  0.88872768450E+00  0.88000000000E+00 0. -1.
        -11    1    4    4    0    0  0.14767282469E-01  0.91777173476E-03 -0.62699958538E-02  0.16077590164E-01  0.51100000000E-03 0.  1.
         11    1    4    4    0    0  0.94070210751E-01 -0.45320621707E-01 -0.42984941043E-01  0.11292089966E+00  0.51100000000E-03 0. -1.
</event>
<event>
 8    1  0.1074844E+005  0.1043930E+01  0.7957747E-01            NaN
         13   -1    0    0    0    0  0.00000000000E+00  0.00000000000E+00  0.74505805969E-08  0.10566000000E+00  0.10566000000E+00 0. -1.
     999900   -1    0    0    0    0 -0.00000000000E+00 -0.00000000000E+00 -0.74505805969E-08  0.93827000000E+00  0.93827000000E+00 0.  1.
     999902    2    1    2    0    0 -0.96900345961E-02 -0.22549526868E-01 -0.82536233747E-02  0.10180359808E+01  0.10177066168E+01 0.  0.
     999903    2    3    3    0    0  0.51440893263E-01  0.76742654613E-01 -0.84905093148E-01  0.12704138177E+00  0.19875545369E-01 0.  0.
         14    1    1    2    0    0  0.96900345961E-02  0.22549526868E-01  0.82536233747E-02  0.25894019218E-01  0.00000000000E+00 0.  1.
     999901    1    3    3    0    0 -0.61130927859E-01 -0.99292181481E-01  0.76651469774E-01  0.89099459901E+00  0.88000000000E+00 0. -1.
        -11    1    4    4    0    0  0.47758937769E-01  0.65611558790E-01 -0.65178063658E-01  0.10408762600E+00  0.51100000000E-03 0. -1.
         11    1    4    4    0    0  0.36819554941E-02  0.11131095823E-01 -0.19727029491E-01  0.22953755771E-01  0.51100000000E-03 0.  1.
</event>
<event>
 8    1  0.1074844E+005  0.1043930E+01  0.7957747E-01            NaN
         13   -1    0    0    0    0  0.00000000000E+00  0.00000000000E+00  0.74505805969E-08  0.10566000000E+00  0.10566000000E+00 0. -1.
     999900   -1    0    0    0    0 -0.00000000000E+00 -0.00000000000E+00 -0.74505805969E-08  0.93827000000E+00  0.93827000000E+00 0. -1.
     999902    2    1    2    0    0  0.15311865474E-01  0.14370010213E-01 -0.11753552270E-01  0.10198655779E+01  0.10195816302E+01 0.  0.
     999903    2    3    3    0    0 -0.29260891591E-01  0.75655381600E-01 -0.10214854470E+00  0.13199515830E+00  0.20210395601E-01 0.  0.
         14    1    1    2    0    0 -0.15311865474E-01 -0.14370010213E-01  0.11753552270E-01  0.24064422054E-01  0.00000000000E+00 0. -1.
     999901    1    3    3    0    0  0.44572757065E-01 -0.61285371387E-01  0.90394992427E-01  0.88787041964E+00  0.88000000000E+00 0.  1.
        -11    1    4    4    0    0 -0.15509009463E-01  0.29366569647E-01 -0.27664131708E-01  0.43226034880E-01  0.51100000000E-03 0. -1.
         11    1    4    4    0    0 -0.13751882128E-01  0.46288811953E-01 -0.74484412990E-01  0.88769123424E-01  0.51100000000E-03 0.  1.
</event>
<event>
 8    1  0.1074844E+005  0.1043930E+01  0.7957747E-01            NaN
         13   -1    0    0    0    0  0.00000000000E+00  0.00000000000E+00  0.74505805969E-08  0.10566000000E+00  0.10566000000E+00 0.  1.
     999900   -1    0    0    0    0 -0.00000000000E+00 -0.00000000000E+00 -0.74505805969E-08  0.93827000000E+00  0.93827000000E+00 0.  1.
     999902    2    1    2    0    0  0.19581099255E-01 -0.67916391547E-02 -0.12047981672E-01  0.10199571055E+01  0.10196753392E+01 0.  0.
     999903    2    3    3    0    0 -0.11902655790E+00  0.25296860358E-01  0.31900821039E-01  0.12744758075E+00  0.20444334849E-01 0.  0.
         14    1    1    2    0    0 -0.19581099255E-01  0.67916391547E-02  0.12047981672E-01  0.23972894544E-01  0.00000000000E+00 0.  1.
     999901    1    3    3    0    0  0.13860765716E+00 -0.32088499513E-01 -0.43948802711E-01  0.89250952470E+00  0.88000000000E+00 0.  1.
        -11    1    4    4    0    0 -0.10347202975E+00  0.15056723449E-01  0.29629451511E-01  0.10867994930E+00  0.51100000000E-03 0. -1.
         11    1    4    4    0    0 -0.15554528147E-01  0.10240136910E-01  0.22713695283E-02  0.18767631453E-01  0.51100000000E-03 0.  1.
</event>
<event>
 8    1  0.1074844E+005  0.1043930E+01  0.7957747E-01            NaN
         13   -1    0    0    0    0  0.00000000000E+00  0.00000000000E+00  0.74505805969E-08  0.10566000000E+00  0.10566000000E+00 0.  1.
     999900   -1    0    0    0    0 -0.00000000000E+00 -0.00000000000E+00 -0.74505805969E-08  0.93827000000E+00  0.93827000000E+00 0.  1.
     999902    2    1    2    0    0  0.14446250482E-02 -0.13161394299E-01  0.19265207238E-01  0.10205535706E+01  0.10202858095E+01 0.  0.
     999903    2    3    3    0    0  0.65218796856E-01 -0.11344914041E+00 -0.77006391462E-02  0.13215504861E+00  0.16776713219E-01 0.  0.
         14    1    1    2    0    0 -0.14446250482E-02  0.13161394299E-01 -0.19265207238E-01  0.23376429397E-01  0.00000000000E+00 0.  1.
     999901    1    3    3    0    0 -0.63774171807E-01  0.10028774611E+00  0.26965846384E-01  0.88839852199E+00  0.88000000000E+00 0. -1.
        -11    1    4    4    0    0  0.17066938670E-01 -0.18505623317E-01  0.19890478408E-02  0.25257789337E-01  0.51100000000E-03 0. -1.
         11    1    4    4    0    0  0.48151858186E-01 -0.94943517094E-01 -0.96896869870E-02  0.10689725927E+00  0.51100000000E-03 0.  1.
</event>
<event>
 8    1  0.1074844E+005  0.1043930E+01  0.7957747E-01            NaN
         13   -1    0    0    0    0  0.00000000000E+00  0.00000000000E+00  0.74505805969E-08  0.10566000000E+00  0.10566000000E+00 0. -1.
     999900   -1    0    0    0    0 -0.00000000000E+00 -0.00000000000E+00 -0.74505805969E-08  0.93827000000E+00  0.93827000000E+00 0.  1.
     999902    2    1    2    0    0  0.10637721878E-01  0.13966003839E-01 -0.16126911997E-01  0.10200912148E+01  0.10198126293E+01 0.  0.
     999903    2    3    3    0    0 -0.46527348847E-01 -0.97322286237E-01  0.64704898706E-01  0.12757415028E+00  0.21260722299E-01 0.  0.
         14    1    1    2    0    0 -0.10637721878E-01 -0.13966003839E-01  0.16126911997E-01  0.23838785215E-01  0.00000000000E+00 0. -1.
     999901    1    3    3    0    0  0.57165070725E-01  0.11128829008E+00 -0.80831810704E-01  0.89251706451E+00  0.88000000000E+00 0.  1.
        -11    1    4    4    0    0 -0.45324768723E-01 -0.83308288974E-01  0.49981078801E-01  0.10720529386E+00  0.51100000000E-03 0.  1.
         11    1    4    4    0    0 -0.12025801246E-02 -0.14013997263E-01  0.14723819905E-01  0.20368856420E-01  0.51100000000E-03 0. -1.
</event>
<event>
 8    1  0.1074844E+005  0.1043930E+01  0.7957747E-01            NaN
         13   -1    0    0    0    0  0.00000000000E+00  0.00000000000E+00  0.74505805969E-08  0.10566000000E+00  0.10566000000E+00 0.  1.
     999900   -1    0    0    0    0 -0.00000000000E+00 -0.00000000000E+00 -0.74505805969E-08  0.93827000000E+00  0.93827000000E+00 0.  1.
     999902    2    1    2    0    0  0.17154497874E-01  0.57349031276E-02 -0.13929607677E-01  0.10211001975E+01  0.10208449508E+01 0.  0.
     999903    2    3    3    0    0  0.38467160502E-01  0.83170165535E-01 -0.95386808073E-01  0.13369627317E+00  0.19469243275E-01 0.  0.
         14    1    1    2    0    0 -0.17154497874E-01 -0.57349031276E-02  0.13929607677E-01  0.22829802479E-01  0.00000000000E+00 0.  1.
     999901    1    3    3    0    0 -0.21312662628E-01 -0.77435262407E-01  0.81457200396E-01  0.88740392435E+00  0.88000000000E+00 0. -1.
        -11    1    4    4    0    0  0.31032206084E-01  0.52444963250E-01 -0.52637811991E-01  0.80526221549E-01  0.51100000000E-03 0.  1.
         11    1    4    4    0    0  0.74349544179E-02  0.30725202285E-01 -0.42748996082E-01  0.53170051624E-01  0.51100000000E-03 0. -1.
</event>
<event>
 8    1  0.1074844E+005  0.1043930E+01  0.7957747E-01            NaN
         13   -1    0    0    0    0  0.00000000000E+00  0.00000000000E+00  0.74505805969E-08  0.10566000000E+00  0.10566000000E+00 0.  1.
     999900   -1    0    0    0    0 -0.00000000000E+00 -0.00000000000E+00 -0.74505805969E-08  0.93827000000E+00  0.93827000000E+00 0. -1.
     999902    2    1    2    0    0 -0.11497745473E-01  0.10144913983E-01  0.19838133112E-01  0.10188567283E+01  0.10185481647E+01 0.  0.
     999903    2    3    3    0    0  0.25212610946E-01 -0.11834748714E+00 -0.33529871634E-01  0.12716951216E+00  0.20150162990E-01 0.  0.
         14    1    1    2    0    0  0.11497745473E-01 -0.10144913983E-01 -0.19838133112E-01  0.25073271745E-01  0.00000000000E+00 0. -1.
     999901    1    3    3    0    0 -0.36710356419E-01  0.12849240112E+00  0.53368004745E-01  0.89168721609E+00  0.88000000000E+00 0.  1.
        -11    1    4    4    0    0  0.17844132316E-01 -0.60673530365E-01 -0.83030677575E-02  0.63787870322E-01  0.51100000000E-03 0. -1.
         11    1    4    4    0    0  0.73684786300E-02 -0.57673956774E-01 -0.25226803876E-01  0.63381641838E-01  0.51100000000E-03 0.  1.
</event>
<event>
 8    1  0.1074844E+005  0.1043930E+01  0.7957747E-01            NaN
         13   -1    0    0    0    0  0.00000000000E+00  0.00000000000E+00  0.74505805969E-08  0.10566000000E+00  0.10566000000E+00 0.  1.
     999900   -1    0    0    0    0 -0.00000000000E+00 -0.00000000000E+00 -0.74505805969E-08  0.93827000000E+00  0.93827000000E+00 0.  1.
     999902    2    1    2    0    0  0.13341100476E-01 -0.69680435872E-02 -0.18127646567E-01  0.10203683752E+01  0.10200963047E+01 0.  0.
     999903    2    3    3    0    0 -0.71827307170E-01 -0.49861987528E-02  0.10354989252E+00  0.12792061264E+00  0.21379398127E-01 0.  0.
         14    1    1    2    0    0 -0.13341100476E-01  0.69680435872E-02  0.18127646567E-01  0.23561624804E-01  0.00000000000E+00 0. -1.
     999901    1    3    3    0    0  0.85168407646E-01 -0.19818448344E-02 -0.12167753909E+00  0.89244776255E+00  0.88000000000E+00 0.  1.
        -11    1    4    4    0    0 -0.79471417474E-02 -0.29953351455E-02  0.26392238773E-01  0.27729776109E-01  0.51100000000E-03 0. -1.
         11    1    4    4    0    0 -0.63880165422E-01 -0.19908636073E-02  0.77157653747E-01  0.10019083653E+00  0.51100000000E-03 0.  1.
</event>
<event>
 8    1  0.1074844E+005  0.1043930E+01  0.7957747E-01            NaN
         13   -1    0    0    0    0  0.00000000000E+00  0.00000000000E+00  0.74505805969E-08  0.10566000000E+00  0.10566000000E+00 0. -1.
     999900   -1    0    0    0    0 -0.00000000000E+00 -0.00000000000E+00 -0.74505805969E-08  0.93827000000E+00  0.93827000000E+00 0.  1.
     999902    2    1    2    0    0  0.44592642200E-02  0.13929553370E-01  0.18280402898E-01  0.10205186646E+01  0.10202500939E+01 0.  0.
     999903    2    3    3    0    0 -0.12481558141E+00 -0.29484152234E-01  0.34825833035E-02  0.12989208124E+00  0.20287429314E-01 0.  0.
         14    1    1    2    0    0 -0.44592642200E-02 -0.13929553370E-01 -0.18280402898E-01  0.23411335386E-01  0.00000000000E+00 0.  1.
     999901    1    3    3    0    0  0.12927484563E+00  0.43413705604E-01  0.14797819594E-01  0.89062658337E+00  0.88000000000E+00 0.  1.
        -11    1    4    4    0    0 -0.87266941472E-01 -0.11490959114E-01  0.55849545497E-02  0.88198719116E-01  0.51100000000E-03 0.  1.
         11    1    4    4    0    0 -0.37548639933E-01 -0.17993193120E-01 -0.21023712462E-02  0.41693362125E-01  0.51100000000E-03 0. -1.
</event>
<event>
 8    1  0.1074844E+005  0.1043930E+01  0.7957747E-01            NaN
         13   -1    0    0    0    0  0.00000000000E+00  0.00000000000E+00  0.74505805969E-08  0.10566000000E+00  0.10566000000E+00 0. -1.
     999900   -1    0    0    0    0 -0.00000000000E+00 -0.00000000000E+00 -0.74505805969E-08  0.93827000000E+00  0.93827000000E+00 0.  1.
     999902    2    1    2    0    0  0.14563437750E-01  0.12164657535E-02 -0.18724986606E-01  0.10201771342E+01  0.10199005768E+01 0.  0.
     999903    2    3    3    0    0  0.11565237239E-01  0.12856003405E+00  0.21853051537E-02  0.13076012637E+00  0.20784562112E-01 0.  0.
         14    1    1    2    0    0 -0.14563437750E-01 -0.12164657535E-02  0.18724986606E-01  0.23752865752E-01  0.00000000000E+00 0. -1.
     999901    1    3    3    0    0  0.29982005113E-02 -0.12734356830E+00 -0.20910291760E-01  0.88941700787E+00  0.88000000000E+00 0.  1.
        -11    1    4    4    0    0  0.81129772655E-02  0.85004007351E-01 -0.83899802884E-02  0.85802998526E-01  0.51100000000E-03 0.  1.
         11    1    4    4    0    0  0.34522599732E-02  0.43556026703E-01  0.10575285442E-01  0.44957127848E-01  0.51100000000E-03 0. -1.
</event>
<event>
 8    1  0.1074844E+005  0.1043930E+01  0.7957747E-01            NaN
         13   -1    0    0    0    0  0.00000000000E+00  0.00000000000E+00  0.74505805969E-08  0.10566000000E+00  0.10566000000E+00 0. -1.
     999900   -1    0    0    0    0 -0.00000000000E+00 -0.00000000000E+00 -0.74505805969E-08  0.93827000000E+00  0.93827000000E+00 0. -1.
     999902    2    1    2    0    0 -0.11080273913E-01  0.20869949074E-01 -0.16950681447E-02  0.10202403292E+01  0.10199652587E+01 0.  0.
     999903    2    3    3    0    0 -0.80662318200E-01 -0.56789686826E-01 -0.82806464160E-01  0.13037981293E+00  0.20260972488E-01 0.  0.
         14    1    1    2    0    0  0.11080273913E-01 -0.20869949074E-01  0.16950681447E-02  0.23689670753E-01  0.00000000000E+00 0.  1.
     999901    1    3    3    0    0  0.69582044287E-01  0.77659635900E-01  0.81111396015E-01  0.88986051632E+00  0.88000000000E+00 0. -1.
        -11    1    4    4    0    0 -0.43459292094E-01 -0.18558500985E-01 -0.35985655701E-01  0.59399971089E-01  0.51100000000E-03 0.  1.
         11    1    4    4    0    0 -0.37203026106E-01 -0.38231185841E-01 -0.46820808459E-01  0.70979841842E-01  0.51100000000E-03 0. -1.
</event>
<event>
 8    1  0.1074844E+005  0.1043930E+01  0.7957747E-01            NaN
         13   -1    0    0    0    0  0.00000000000E+00  0.00000000000E+00  0.74505805969E-08  0.10566000000E+00  0.10566000000E+00 0.  1.
     999900   -1    0    0    0    0 -0.00000000000E+00 -0.00000000000E+00 -0.74505805969E-08  0.93827000000E+00  0.93827000000E+00 0.  1.
     999902    2    1    2    0    0 -0.14311183266E-01 -0.10563556846E-01 -0.14157596555E-01  0.10211959674E+01  0.10209428816E+01 0.  0.
     999903    2    3    3    0    0  0.91794660854E-01 -0.81745189562E-01 -0.42461853199E-01  0.13151826958E+00  0.19634420743E-01 0.  0.
         14    1    1    2    0    0  0.14311183266E-01  0.10563556846E-01  0.14157596555E-01  0.22734032637E-01  0.00000000000E+00 0.  1.
     999901    1    3    3    0    0 -0.10610584412E+00  0.71181632715E-01  0.28304256644E-01  0.88967769779E+00  0.88000000000E+00 0.  1.
        -11    1    4    4    0    0  0.84320969282E-01 -0.66495264919E-01 -0.34844910343E-01  0.11289851644E+00  0.51100000000E-03 0.  1.
         11    1    4    4    0    0  0.74736915719E-02 -0.15249924642E-01 -0.76169428556E-02  0.18619753134E-01  0.51100000000E-03 0. -1.
</event>
<event>
 8    1  0.1074844E+005  0.1043930E+01  0.7957747E-01            NaN
         13   -1    0    0    0    0  0.00000000000E+00  0.00000000000E+00  0.74505805969E-08  0.10566000000E+00  0.10566000000E+00 0.  1.
     999900   -1    0    0    0    0 -0.00000000000E+00 -0.00000000000E+00 -0.74505805969E-08  0.93827000000E+00  0.93827000000E+00 0.  1.
     999902    2    1    2    0    0 -0.17554028421E-01  0.13889450326E-01  0.81837501659E-02  0.10200965254E+01  0.10198180655E+01 0.  0.
     999903    2    3    3    0    0 -0.62068793702E-02  0.21242030836E-02  0.12990388332E+00  0.13156798358E+00  0.19800954818E-01 0.  0.
         14    1    1    2    0    0  0.17554028421E-01 -0.13889450326E-01 -0.81837501659E-02  0.23833474588E-01  0.00000000000E+00 0.  1.
     999901    1    3    3    0    0 -0.11347149051E-01  0.11765247242E-01 -0.12172013315E+00  0.88852854183E+00  0.88000000000E+00 0.  1.
        -11    1    4    4    0    0 -0.77548321784E-02  0.91791105127E-02  0.10324802632E+00  0.10394618584E+00  0.51100000000E-03 0. -1.
         11    1    4    4    0    0  0.15479528082E-02 -0.70549074291E-02  0.26655857004E-01  0.27621797739E-01  0.51100000000E-03 0.  1.
</event>
<event>
 8    1  0.1074844E+005  0.1043930E+01  0.7957747E-01            NaN
         13   -1    0    0    0    0  0.00000000000E+00  0.00000000000E+00  0.74505805969E-08  0.10566000000E+00  0.10566000000E+00 0. -1.
     999900   -1    0    0    0    0 -0.00000000000E+00 -0.00000000000E+00 -0.74505805969E-08  0.93827000000E+00  0.93827000000E+00 0.  1.
     999902    2    1    2    0    0 -0.20675110877E-01  0.99855072115E-02  0.13839517969E-01  0.10171213667E+01  0.10167680029E+01 0.  0.
     999903    2    3    3    0    0  0.20512435839E-01  0.76232667260E-01 -0.97143876978E-01  0.12672683940E+00  0.19763081947E-01 0.  0.
         14    1    1    2    0    0  0.20675110877E-01 -0.99855072115E-02 -0.13839517969E-01  0.26808633342E-01  0.00000000000E+00 0.  1.
     999901    1    3    3    0    0 -0.41187546716E-01 -0.66247160049E-01  0.11098339495E+00  0.89039452726E+00  0.88000000000E+00 0. -1.
        -11    1    4    4    0    0  0.21980310331E-01  0.53575455142E-01 -0.61603943936E-01  0.84550401924E-01  0.51100000000E-03 0.  1.
         11    1    4    4    0    0 -0.14678744923E-02  0.22657212118E-01 -0.35539933042E-01  0.42176437475E-01  0.51100000000E-03 0. -1.
</event>
<event>
 8    1  0.1074844E+005  0.1043930E+01  0.7957747E-01            NaN
         13   -1    0    0    0    0  0.00000000000E+00  0.00000000000E+00  0.74505805969E-08  0.10566000000E+00  0.10566000000E+00 0. -1.
     999900   -1    0    0    0    0 -0.00000000000E+00 -0.00000000000E+00 -0.74505805969E-08  0.93827000000E+00  0.93827000000E+00 0.  1.
     999902    2    1    2    0    0 -0.17484645843E-01 -0.19584230280E-01  0.13953152111E-02  0.10176392826E+01  0.10172996155E+01 0.  0.
     999903    2    3    3    0    0 -0.49235348077E-01  0.10325781288E+00  0.51475905888E-01  0.12713024829E+00  0.20640632811E-01 0.  0.
         14    1    1    2    0    0  0.17484645843E-01  0.19584230280E-01 -0.13953152111E-02  0.26290717382E-01  0.00000000000E+00 0. -1.
     999901    1    3    3    0    0  0.31750702234E-01 -0.12284204316E+00 -0.50080590677E-01  0.89050903433E+00  0.88000000000E+00 0.  1.
        -11    1    4    4    0    0 -0.23970984954E-01  0.29033262623E-01  0.13409758053E-01  0.39970253817E-01  0.51100000000E-03 0.  1.
         11    1    4    4    0    0 -0.25264363123E-01  0.74224550253E-01  0.38066147835E-01  0.87159994472E-01  0.51100000000E-03 0. -1.
</event>
<event>
 8    1  0.1074844E+005  0.1043930E+01  0.7957747E-01            NaN
         13   -1    0    0    0    0  0.00000000000E+00  0.00000000000E+00  0.74505805969E-08  0.10566000000E+00  0.10566000000E+00 0. -1.
     999900   -1    0    0    0    0 -0.00000000000E+00 -0.00000000000E+00 -0.74505805969E-08  0.93827000000E+00  0.93827000000E+00 0. -1.
     999902    2    1    2    0    0 -0.15601225907E-01 -0.14523304196E-01  0.81186120284E-02  0.10211213070E+01  0.10208665374E+01 0.  0.
     999903    2    3    3    0    0 -0.11654188245E+00 -0.14471653686E-01  0.60826074720E-01  0.13378422595E+00  0.20173463294E-01 0.  0.
         14    1    1    2    0    0  0.15601225907E-01  0.14523304196E-01 -0.81186120284E-02  0.22808692989E-01  0.00000000000E+00 0. -1.
     999901    1    3    3    0    0  0.10094065654E+00 -0.51650510758E-04 -0.52707462692E-01  0.88733708107E+00  0.88000000000E+00 0. -1.
        -11    1    4    4    0    0 -0.76345920829E-01 -0.19068799537E-01  0.40613379979E-01  0.88555217222E-01  0.51100000000E-03 0. -1.
         11    1    4    4    0    0 -0.40195961618E-01  0.45971458511E-02  0.20212694741E-01  0.45229008723E-01  0.51100000000E-03 0.  1.
</event>
<event>
 8    1  0.1074844E+005  0.1043930E+01  0.7957747E-01            NaN
         13   -1    0    0    0    0  0.00000000000E+00  0.00000000000E+00  0.74505805969E-08  0.10566000000E+00  0.10566000000E+00 0.  1.
     999900   -1    0    0    0    0 -0.00000000000E+00 -0.00000000000E+00 -0.74505805969E-08  0.93827000000E+00  0.93827000000E+00 0. -1.
     999902    2    1    2    0    0 -0.16538248966E-01 -0.84561925973E-03  0.17888681010E-01  0.10195530917E+01  0.10192616313E+01 0.  0.
     999903    2    3    3    0    0 -0.12812333302E-01 -0.77026989734E-01  0.10455542359E+00  0.13201232759E+00  0.19952568784E-01 0.  0.
         14    1    1    2    0    0  0.16538248966E-01  0.84561925973E-03 -0.17888681010E-01  0.24376908317E-01  0.00000000000E+00 0. -1.
     999901    1    3    3    0    0 -0.37259156641E-02  0.76181370475E-01 -0.86666742583E-01  0.88754076409E+00  0.88000000000E+00 0.  1.
        -11    1    4    4    0    0 -0.91712402562E-02 -0.74127014916E-01  0.91343125638E-01  0.11799471899E+00  0.51100000000E-03 0. -1.
         11    1    4    4    0    0 -0.36410930460E-02 -0.28999748181E-02  0.13212297956E-01  0.14017608597E-01  0.51100000000E-03 0.  1.
</event>
<event>
 8    1  0.1074844E+005  0.1043930E+01  0.7957747E-01            NaN
         13   -1    0    0    0    0  0.00000000000E+00  0.00000000000E+00  0.74505805969E-08  0.10566000000E+00  0.10566000000E+00 0.  1.
     999900   -1    0    0    0    0 -0.00000000000E+00 -0.00000000000E+00 -0.74505805969E-08  0.93827000000E+00  0.93827000000E+00 0.  1.
     999902    2    1    2    0    0  0.11413402229E-01  0.19324332183E-01  0.53209184723E-02  0.10208647071E+01  0.10206041066E+01 0.  0.
     999903    2    3    3    0    0 -0.85052220888E-01  0.86672821862E-01  0.45660994516E-01  0.13211909822E+00  0.24989425103E-01 0.  0.
         14    1    1    2    0    0 -0.11413402229E-01 -0.19324332183E-01 -0.53209184723E-02  0.23065292934E-01  0.00000000000E+00 0.  1.
     999901    1    3    3    0    0  0.96465623117E-01 -0.67348489680E-01 -0.40340076044E-01  0.88874560884E+00  0.88000000000E+00 0. -1.
        -11    1    4    4    0    0 -0.18747375694E-01  0.13624809367E-01  0.18874481261E-01  0.29893254918E-01  0.51100000000E-03 0.  1.
         11    1    4    4    0    0 -0.66304845194E-01  0.73048012495E-01  0.26786513255E-01  0.10222584330E+00  0.51100000000E-03 0. -1.
</event>
<event>
 8    1  0.1074844E+005  0.1043930E+01  0.7957747E-01            NaN
         13   -1    0    0    0    0  0.00000000000E+00  0.00000000000E+00  0.74505805969E-08  0.10566000000E+00  0.10566000000E+00 0.  1.
     999900   -1    0    0    0    0 -0.00000000000E+00 -0.00000000000E+00 -0.74505805969E-08  0.93827000000E+00  0.93827000000E+00 0. -1.
     999902    2    1    2    0    0  0.35592226680E-02 -0.34558160763E-02  0.23243819350E-01  0.10201626722E+01  0.10198857740E+01 0.  0.
     999903    2    3    3    0    0 -0.57146226246E-01  0.10674662211E+00  0.43696088707E-01  0.13097876313E+00  0.24198258506E-01 0.  0.
         14    1    1    2    0    0 -0.35592226680E-02  0.34558160763E-02 -0.23243819350E-01  0.23767327757E-01  0.00000000000E+00 0. -1.
     999901    1    3    3    0    0  0.60705448914E-01 -0.11020243819E+00 -0.20452269358E-01  0.88918390912E+00  0.88000000000E+00 0.  1.
        -11    1    4    4    0    0 -0.51616866000E-01  0.89436535752E-01  0.45230189116E-01  0.11273520263E+00  0.51100000000E-03 0. -1.
         11    1    4    4    0    0 -0.55293602465E-02  0.17310086361E-01 -0.15341004092E-02  0.18243560498E-01  0.51100000000E-03 0.  1.
</event>
<event>
 8    1  0.1074844E+005  0.1043930E+01  0.7957747E-01            NaN
         13   -1    0    0    0    0  0.00000000000E+00  0.00000000000E+00  0.74505805969E-08  0.10566000000E+00  0.10566000000E+00 0. -1.
     999900   -1    0    0    0    0 -0.00000000000E+00 -0.00000000000E+00 -0.74505805969E-08  0.93827000000E+00  0.93827000000E+00 0.  1.
     999902    2    1    2    0    0 -0.98092765450E-02 -0.14312338033E-01 -0.15970470640E-01  0.10203477851E+01  0.10200752334E+01 0.  0.
     999903    2    3    3    0    0  0.56405120889E-01 -0.11740705713E+00 -0.45710197061E-02  0.13178556725E+00  0.19508633728E-01 0.  0.
         14    1    1    2    0    0  0.98092765450E-02  0.14312338033E-01  0.15970470640E-01  0.23582214882E-01  0.00000000000E+00 0. -1.
     999901    1    3    3    0    0 -0.66214397434E-01  0.10309471909E+00 -0.11399450934E-01  0.88856221786E+00  0.88000000000E+00 0.  1.
        -11    1    4    4    0    0  0.36469114566E-01 -0.76290116689E-01 -0.12262591226E-01  0.85444780334E-01  0.51100000000E-03 0. -1.
         11    1    4    4    0    0  0.19936006323E-01 -0.41116940437E-01  0.76915715200E-02  0.46340786921E-01  0.51100000000E-03 0.  1.
</event>
<event>
 8    1  0.1074844E+005  0.1043930E+01  0.7957747E-01            NaN
         13   -1    0    0    0    0  0.00000000000E+00  0.00000000000E+00  0.74505805969E-08  0.10566000000E+00  0.10566000000E+00 0. -1.
     999900   -1    0    0    0    0 -0.00000000000E+00 -0.00000000000E+00 -0.74505805969E-08  0.93827000000E+00  0.93827000000E+00 0.  1.
     999902    2    1    2    0    0  0.12740015602E-01  0.19028424899E-01  0.42586457694E-03  0.10210265000E+01  0.10207695839E+01 0.  0.
     999903    2    3    3    0    0 -0.33965744729E-01 -0.98607048627E-01  0.73239151372E-01  0.12899437759E+00  0.19963824819E-01 0.  0.
         14    1    1    2    0    0 -0.12740015602E-01 -0.19028424899E-01 -0.42586457694E-03  0.22903500002E-01  0.00000000000E+00 0.  1.
     999901    1    3    3    0    0  0.46705760331E-01  0.11763547353E+00 -0.72813286795E-01  0.89203212241E+00  0.88000000000E+00 0.  1.
        -11    1    4    4    0    0 -0.14415308970E-01 -0.61206242204E-01  0.34602217550E-01  0.71774506601E-01  0.51100000000E-03 0. -1.
         11    1    4    4    0    0 -0.19550435759E-01 -0.37400806423E-01  0.38636933822E-01  0.57219870986E-01  0.51100000000E-03 0.  1.
</event>
<event>
 8    1  0.1074844E+005  0.1043930E+01  0.7957747E-01            NaN
         13   -1    0    0    0    0  0.00000000000E+00  0.00000000000E+00  0.74505805969E-08  0.10566000000E+00  0.10566000000E+00 0. -1.
     999900   -1    0    0    0    0 -0.00000000000E+00 -0.00000000000E+00 -0.74505805969E-08  0.93827000000E+00  0.93827000000E+00 0.  1.
     999902    2    1    2    0    0 -0.16532833324E-01  0.93363448413E-02  0.14875681378E-01  0.10198097220E+01  0.10195244388E+01 0.  0.
     999903    2    3    3    0    0 -0.34295937073E-02 -0.35345691292E-01  0.12495997986E+00  0.13172935855E+00  0.21829964053E-01 0.  0.
         14    1    1    2    0    0  0.16532833324E-01 -0.93363448413E-02 -0.14875681378E-01  0.24120277967E-01  0.00000000000E+00 0.  1.
     999901    1    3    3    0    0 -0.13103239617E-01  0.44682036134E-01 -0.11008429848E+00  0.88808036349E+00  0.88000000000E+00 0.  1.
        -11    1    4    4    0    0  0.50220826187E-02 -0.25718659600E-01  0.59366001955E-01  0.64894175968E-01  0.51100000000E-03 0. -1.
         11    1    4    4    0    0 -0.84516763259E-02 -0.96270316925E-02  0.65593977903E-01  0.66835182577E-01  0.51100000000E-03 0.  1.
</event>
<event>
 8    1  0.1074844E+005  0.1043930E+01  0.7957747E-01            NaN
         13   -1    0    0    0    0  0.00000000000E+00  0.00000000000E+00  0.74505805969E-08  0.10566000000E+00  0.10566000000E+00 0. -1.
     999900   -1    0    0    0    0 -0.00000000000E+00 -0.00000000000E+00 -0.74505805969E-08  0.93827000000E+00  0.93827000000E+00 0. -1.
     999902    2    1    2    0    0  0.65945020325E-02 -0.20276736812E-01  0.97044584460E-02  0.10205033053E+01  0.10202343780E+01 0.  0.
     999903    2    3    3    0    0  0.36855407935E-01 -0.12570825474E+00  0.18507734342E-01  0.13364986468E+00  0.18943698029E-01 0.  0.
         14    1    1    2    0    0 -0.65945020325E-02  0.20276736812E-01 -0.97044584460E-02  0.23426694742E-01  0.00000000000E+00 0. -1.
     999901    1    3    3    0    0 -0.30260905902E-01  0.10543151793E+00 -0.88032758964E-02  0.88685344058E+00  0.88000000000E+00 0. -1.
        -11    1    4    4    0    0  0.35120402786E-02 -0.20803491399E-01 -0.35045583738E-02  0.21393053351E-01  0.51100000000E-03 0. -1.
         11    1    4    4    0    0  0.33343367656E-01 -0.10490476334E+00  0.22012292716E-01  0.11225681133E+00  0.51100000000E-03 0.  1.
</event>
<event>
 8    1  0.1074844E+005  0.1043930E+01  0.7957747E-01            NaN
         13   -1    0    0    0    0  0.00000000000E+00  0.00000000000E+00  0.74505805969E-08  0.10566000000E+00  0.10566000000E+00 0.  1.
     999900   -1    0    0    0    0 -0.00000000000E+00 -0.00000000000E+00 -0.74505805969E-08  0.93827000000E+00  0.93827000000E+00 0. -1.
     999902    2    1    2    0    0 -0.39546992874E-02  0.20230773665E-01  0.11237538378E-01  0.10204522208E+01  0.10201821057E+01 0.  0.
     999903    2    3    3    0    0 -0.67014570898E-02 -0.92721831697E-02  0.12997060692E+00  0.13198415115E+00  0.19914180445E-01 0.  0.
         14    1    1    2    0    0  0.39546992874E-02 -0.20230773665E-01 -0.11237538378E-01  0.23477779246E-01  0.00000000000E+00 0. -1.
     999901    1    3    3    0    0  0.27467578024E-02  0.29502956835E-01 -0.11873306855E+00  0.88846806960E+00  0.88000000000E+00 0. -1.
        -11    1    4    4    0    0 -0.85885441184E-02 -0.14077142736E-01  0.76293103012E-01  0.78056567475E-01  0.51100000000E-03 0.  1.
         11    1    4    4    0    0  0.18870870286E-02  0.48049595667E-02  0.53677503911E-01  0.53927583675E-01  0.51100000000E-03 0. -1.
</event>
<event>
 8    1  0.1074844E+005  0.1043930E+01  0.7957747E-01            NaN
         13   -1    0    0    0    0  0.00000000000E+00  0.00000000000E+00  0.74505805969E-08  0.10566000000E+00  0.10566000000E+00 0. -1.
     999900   -1    0    0    0    0 -0.00000000000E+00 -0.00000000000E+00 -0.74505805969E-08  0.93827000000E+00  0.93827000000E+00 0.  1.
     999902    2    1    2    0    0 -0.17561482575E-01 -0.13390030486E-01 -0.95805125667E-02  0.10198575093E+01  0.10195733689E+01 0.  0.
     999903    2    3    3    0    0  0.52009355772E-01 -0.31085163081E-01  0.11165678577E+00  0.12864950791E+00  0.20302650664E-01 0.  0.
         14    1    1    2    0    0  0.17561482575E-01  0.13390030486E-01  0.95805125667E-02  0.24072490683E-01  0.00000000000E+00 0. -1.
     999901    1    3    3    0    0 -0.69570838346E-01  0.17695132595E-01 -0.12123729834E+00  0.89120800141E+00  0.88000000000E+00 0.  1.
        -11    1    4    4    0    0  0.17766117228E-01 -0.81027265360E-03  0.25128131244E-01  0.30789211811E-01  0.51100000000E-03 0. -1.
         11    1    4    4    0    0  0.34243238544E-01 -0.30274890428E-01  0.86528654530E-01  0.97860296097E-01  0.51100000000E-03 0.  1.
</event>
<event>
 8    1  0.1074844E+005  0.1043930E+01  0.7957747E-01            NaN
         13   -1    0    0    0    0  0.00000000000E+00  0.00000000000E+00  0.74505805969E-08  0.10566000000E+00  0.10566000000E+00 0. -1.
     999900   -1    0    0    0    0 -0.00000000000E+00 -0.00000000000E+00 -0.74505805969E-08  0.93827000000E+00  0.93827000000E+00 0.  1.
     999902    2    1    2    0    0  0.11496501293E-01 -0.12012090634E-01  0.18510690977E-01  0.10190481684E+01  0.10187443565E+01 0.  0.
     999903    2    3    3    0    0 -0.48540131441E-01 -0.10047940845E+00  0.66205027985E-01  0.13129504203E+00  0.20075518652E-01 0.  0.
         14    1    1    2    0    0 -0.11496501293E-01  0.12012090634E-01 -0.18510690977E-01  0.24881831601E-01  0.00000000000E+00 0.  1.
     999901    1    3    3    0    0  0.60036632734E-01  0.88467317815E-01 -0.47694337008E-01  0.88775312637E+00  0.88000000000E+00 0.  1.
        -11    1    4    4    0    0 -0.25452828988E-01 -0.56199347344E-01  0.25072571224E-01  0.66596607227E-01  0.51100000000E-03 0. -1.
         11    1    4    4    0    0 -0.23087302453E-01 -0.44280061105E-01  0.41132456761E-01  0.64698434805E-01  0.51100000000E-03 0.  1.
</event>
<event>
 8    1  0.1074844E+005  0.1043930E+01  0.7957747E-01            NaN
         13   -1    0    0    0    0  0.00000000000E+00  0.00000000000E+00  0.74505805969E-08  0.10566000000E+00  0.10566000000E+00 0. -1.
     999900   -1    0    0    0    0 -0.00000000000E+00 -0.00000000000E+00 -0.74505805969E-08  0.93827000000E+00  0.93827000000E+00 0.  1.
     999902    2    1    2    0    0 -0.22245716163E-02  0.22423071482E-01  0.78709845697E-02  0.10200617103E+01  0.10197824266E+01 0.  0.
     999903    2    3    3    0    0 -0.34788756823E-01 -0.33969621870E-01 -0.11755605301E+00  0.12878593720E+00  0.20054904855E-01 0.  0.
         14    1    1    2    0    0  0.22245716163E-02 -0.22423071482E-01 -0.78709845697E-02  0.23868289668E-01  0.00000000000E+00 0. -1.
     999901    1    3    3    0    0  0.32564185206E-01  0.56392693353E-01  0.12542703758E+00  0.89127577314E+00  0.88000000000E+00 0. -1.
        -11    1    4    4    0    0 -0.15978084742E-01 -0.11220117771E-01 -0.25554896573E-01  0.32163707726E-01  0.51100000000E-03 0. -1.
         11    1    4    4    0    0 -0.18810672080E-01 -0.22749504099E-01 -0.92001156439E-01  0.96622229471E-01  0.51100000000E-03 0.  1.
</event>
<event>
 8    1  0.1074844E+005  0.1043930E+01  0.7957747E-01            NaN
         13   -1    0    0    0    0  0.00000000000E+00  0.00000000000E+00  0.74505805969E-08  0.10566000000E+00  0.10566000000E+00 0. -1.
     999900   -1    0    0    0    0 -0.00000000000E+00 -0.00000000000E+00 -0.74505805969E-08  0.93827000000E+00  0.93827000000E+00 0. -1.
     999902    2    1    2    0    0  0.14557567313E-01  0.18415261119E-01 -0.92894997037E-02  0.10186844180E+01  0.10183715451E+01 0.  0.
     999903    2    3    3    0    0 -0.82163273806E-01  0.22025197328E-02 -0.97260972090E-01  0.12887727365E+00  0.19849441229E-01 0.  0.
         14    1    1    2    0    0 -0.14557567313E-01 -0.18415261119E-01  0.92894997037E-02  0.25245582047E-01  0.00000000000E+00 0. -1.
     999901    1    3    3    0    0  0.96720841119E-01  0.16212741387E-01  0.87971472386E-01  0.88980714430E+00  0.88000000000E+00 0.  1.
        -11    1    4    4    0    0 -0.64550007141E-01 -0.56716123356E-02 -0.69032084455E-01  0.94681362546E-01  0.51100000000E-03 0.  1.
         11    1    4    4    0    0 -0.17613266665E-01  0.78741320684E-02 -0.28228887635E-01  0.34195911108E-01  0.51100000000E-03 0. -1.
</event>
<event>
 8    1  0.1074844E+005  0.1043930E+01  0.7957747E-01            NaN
         13   -1    0    0    0    0  0.00000000000E+00  0.00000000000E+00  0.74505805969E-08  0.10566000000E+00  0.10566000000E+00 0.  1.
     999900   -1    0    0    0    0 -0.00000000000E+00 -0.00000000000E+00 -0.74505805969E-08  0.93827000000E+00  0.93827000000E+00 0. -1.
     999902    2    1    2    0    0  0.14915113835E-02  0.86315653197E-02 -0.22051012629E-01  0.10202028914E+01  0.10199269405E+01 0.  0.
     999903    2    3    3    0    0  0.66042086759E-01 -0.99397155419E-01 -0.49792017056E-01  0.13081740430E+00  0.19814049956E-01 0.  0.
         14    1    1    2    0    0 -0.14915113835E-02 -0.86315653197E-02  0.22051012629E-01  0.23727108632E-01  0.00000000000E+00 0.  1.
     999901    1    3    3    0    0 -0.64550575376E-01  0.10802872074E+00  0.27741004427E-01  0.88938548707E+00  0.88000000000E+00 0.  1.
        -11    1    4    4    0    0  0.38660880912E-01 -0.40443256423E-01 -0.22006228476E-01  0.60123671842E-01  0.51100000000E-03 0.  1.
         11    1    4    4    0    0  0.27381205847E-01 -0.58953898996E-01 -0.27785788580E-01  0.70693732455E-01  0.51100000000E-03 0. -1.
</event>
<event>
 8    1  0.1074844E+005  0.1043930E+01  0.7957747E-01            NaN
         13   -1    0    0    0    0  0.00000000000E+00  0.00000000000E+00  0.74505805969E-08  0.10566000000E+00  0.10566000000E+00 0. -1.
     999900   -1    0    0    0    0 -0.00000000000E+00 -0.00000000000E+00 -0.74505805969E-08  0.93827000000E+00  0.93827000000E+00 0.  1.
     999902    2    1    2    0    0  0.12294333565E-01 -0.18979229472E-01  0.70088753940E-02  0.10202554119E+01  0.10199806956E+01 0.  0.
     999903    2    3    3    0    0 -0.83092809199E-01  0.47789864598E-01  0.84720011775E-01  0.12919096995E+00  0.18014999916E-01 0.  0.
         14    1    1    2    0    0 -0.12294333565E-01  0.18979229472E-01 -0.70088753940E-02  0.23674588137E-01  0.00000000000E+00 0.  1.
     999901    1    3    3    0    0  0.95387142764E-01 -0.66769094070E-01 -0.77711136381E-01  0.89106444192E+00  0.88000000000E+00 0.  1.
        -11    1    4    4    0    0 -0.59176601790E-01  0.24947840057E-01  0.51603376621E-01  0.82385887885E-01  0.51100000000E-03 0.  1.
         11    1    4    4    0    0 -0.23916207409E-01  0.22842024541E-01  0.33116635155E-01  0.46805082063E-01  0.51100000000E-03 0. -1.
</event>
<event>
 8    1  0.1074844E+005  0.1043930E+01  0.7957747E-01            NaN
         13   -1    0    0    0    0  0.00000000000E+00  0.00000000000E+00  0.74505805969E-08  0.10566000000E+00  0.10566000000E+00 0. -1.
     999900   -1    0    0    0    0 -0.00000000000E+00 -0.00000000000E+00 -0.74505805969E-08  0.93827000000E+00  0.93827000000E+00 0. -1.
     999902    2    1    2    0    0  0.89479484528E-02 -0.16979947279E-01 -0.13683811588E-01  0.10203581717E+01  0.10200858628E+01 0.  0.
     999903    2    3    3    0    0 -0.72273890840E-01 -0.10391428685E+00 -0.32731753749E-01  0.13214795406E+00  0.19235897412E-01 0.  0.
         14    1    1    2    0    0 -0.89479484528E-02  0.16979947279E-01  0.13683811588E-01  0.23571828327E-01  0.00000000000E+00 0. -1.
     999901    1    3    3    0    0  0.81221839292E-01  0.86934339573E-01  0.19047942161E-01  0.88821021761E+00  0.88000000000E+00 0.  1.
        -11    1    4    4    0    0 -0.16055165293E-01 -0.21944833752E-01  0.91295319135E-03  0.27211002656E-01  0.51100000000E-03 0.  1.
         11    1    4    4    0    0 -0.56218725546E-01 -0.81969453100E-01 -0.33644706940E-01  0.10493695140E+00  0.51100000000E-03 0. -1.
</event>
<event>
 8    1  0.1074844E+005  0.1043930E+01  0.7957747E-01            NaN
         13   -1    0    0    0    0  0.00000000000E+00  0.00000000000E+00  0.74505805969E-08  0.10566000000E+00  0.10566000000E+00 0. -1.
     999900   -1    0    0    0    0 -0.00000000000E+00 -0.00000000000E+00 -0.74505805969E-08  0.93827000000E+00  0.93827000000E+00 0. -1.
     999902    2    1    2    0    0  0.10363251405E-01  0.10946723652E-01 -0.18787581851E-01  0.10198426388E+01  0.10195581430E+01 0.  0.
     999903    2    3    3    0    0  0.98470733921E-01 -0.80051445599E-01  0.19563151980E-01  0.12994692913E+00  0.19969178578E-01 0.  0.
         14    1    1    2    0    0 -0.10363251405E-01 -0.10946723652E-01  0.18787581851E-01  0.24087361214E-01  0.00000000000E+00 0.  1.
     999901    1    3    3    0    0 -0.88107482516E-01  0.90998169251E-01 -0.38350733831E-01  0.88989570966E+00  0.88000000000E+00 0.  1.
        -11    1    4    4    0    0  0.46589805204E-01 -0.40160518241E-01 -0.43527917655E-03  0.61513638840E-01  0.51100000000E-03 0. -1.
         11    1    4    4    0    0  0.51880928717E-01 -0.39890927357E-01  0.19998431157E-01  0.68433290288E-01  0.51100000000E-03 0.  1.
</event>
<event>
 8    1  0.1074844E+005  0.1043930E+01  0.7957747E-01            NaN
         13   -1    0    0    0    0  0.00000000000E+00  0.00000000000E+00  0.74505805969E-08  0.10566000000E+00  0.10566000000E+00 0.  1.
     999900   -1    0    0    0    0 -0.00000000000E+00 -0.00000000000E+00 -0.74505805969E-08  0.93827000000E+00  0.93827000000E+00 0.  1.
     999902    2    1    2    0    0  0.23475364556E-01  0.93596203121E-03 -0.68204488515E-02  0.10194660002E+01  0.10191724281E+01 0.  0.
     999903    2    3    3    0    0 -0.30707257779E-01  0.59915995072E-02 -0.12445554281E+00  0.12997213769E+00  0.20609208987E-01 0.  0.
         14    1    1    2    0    0 -0.23475364556E-01 -0.93596203121E-03  0.68204488515E-02  0.24463999847E-01  0.00000000000E+00 0. -1.
     999901    1    3    3    0    0  0.54182622335E-01 -0.50556374760E-02  0.11763509395E+00  0.88949386247E+00  0.88000000000E+00 0. -1.
        -11    1    4    4    0    0 -0.23198511642E-01  0.54456328759E-02 -0.52920584001E-01  0.58040289385E-01  0.51100000000E-03 0.  1.
         11    1    4    4    0    0 -0.75087461367E-02  0.54596663131E-03 -0.71534958805E-01  0.71931848303E-01  0.51100000000E-03 0. -1.
</event>
<event>
 8    1  0.1074844E+005  0.1043930E+01  0.7957747E-01            NaN
         13   -1    0    0    0    0  0.00000000000E+00  0.00000000000E+00  0.74505805969E-08  0.10566000000E+00  0.10566000000E+00 0. -1.
     999900   -1    0    0    0    0 -0.00000000000E+00 -0.00000000000E+00 -0.74505805969E-08  0.93827000000E+00  0.93827000000E+00 0.  1.
     999902    2    1    2    0    0 -0.91402253033E-02  0.19583263419E-01 -0.10413425942E-01  0.10199406823E+01  0.10196585252E+01 0.  0.
     999903    2    3    3    0    0  0.10917598683E+00  0.65337280559E-01  0.20976896097E-01  0.13029046537E+00  0.18633809743E-01 0.  0.
         14    1    1    2    0    0  0.91402253033E-02 -0.19583263419E-01  0.10413425942E-01  0.23989317718E-01  0.00000000000E+00 0. -1.
     999901    1    3    3    0    0 -0.11831621213E+00 -0.45754017140E-01 -0.31390322039E-01  0.88965021691E+00  0.88000000000E+00 0.  1.
        -11    1    4    4    0    0  0.52543497432E-01  0.28551065008E-01  0.18930035505E-01  0.62726308681E-01  0.51100000000E-03 0. -1.
         11    1    4    4    0    0  0.56632489394E-01  0.36786215551E-01  0.20468605920E-02  0.67564156687E-01  0.51100000000E-03 0.  1.
</event>
<event>
 8    1  0.1136247E+005  0.1043930E+01  0.7957747E-01            NaN
         13   -1    0    0    0    0  0.00000000000E+00  0.00000000000E+00  0.74505805969E-08  0.10566000000E+00  0.10566000000E+00 0. -1.
     999900   -1    0    0    0    0 -0.00000000000E+00 -0.00000000000E+00 -0.74505805969E-08  0.93827000000E+00  0.93827000000E+00 0.  1.
     999902    2    1    2    0    0  0.21771934313E-01 -0.12081326774E-01  0.77217809776E-03  0.10190187206E+01  0.10187141803E+01 0.  0.
     999903    2    3    3    0    0 -0.51645351472E-01 -0.11583120258E+00  0.14396803320E-01  0.12978322596E+00  0.23501233513E-01 0.  0.
         14    1    1    2    0    0 -0.21771934313E-01  0.12081326774E-01 -0.77217809776E-03  0.24911279360E-01  0.00000000000E+00 0. -1.
     999901    1    3    3    0    0  0.73417285785E-01  0.10374987580E+00 -0.13624625222E-01  0.88923549468E+00  0.88000000000E+00 0. -1.
        -11    1    4    4    0    0 -0.26962247601E-01 -0.53638166269E-01  0.18278963873E-01  0.62756651581E-01  0.51100000000E-03 0. -1.
         11    1    4    4    0    0 -0.24683103871E-01 -0.62193036307E-01 -0.38821605533E-02  0.67026574382E-01  0.51100000000E-03 0.  1.
</event>
<event>
 8    1  0.1074844E+005  0.1043930E+01  0.7957747E-01            NaN
         13   -1    0    0    0    0  0.00000000000E+00  0.00000000000E+00  0.74505805969E-08  0.10566000000E+00  0.10566000000E+00 0.  1.
     999900   -1    0    0    0    0 -0.00000000000E+00 -0.00000000000E+00 -0.74505805969E-08  0.93827000000E+00  0.93827000000E+00 0.  1.
     999902    2    1    2    0    0 -0.10695868781E-01 -0.10899936308E-01 -0.21239378549E-01  0.10177704621E+01  0.10174342201E+01 0.  0.
     999903    2    3    3    0    0 -0.76453534976E-01 -0.69239012263E-01 -0.78872956922E-01  0.13151477227E+00  0.20880808475E-01 0.  0.
         14    1    1    2    0    0  0.10695868781E-01  0.10899936308E-01  0.21239378549E-01  0.26159537872E-01  0.00000000000E+00 0.  1.
     999901    1    3    3    0    0  0.65757666195E-01  0.58339075955E-01  0.57633578373E-01  0.88625568986E+00  0.88000000000E+00 0. -1.
        -11    1    4    4    0    0 -0.45239888922E-01 -0.47688423114E-01 -0.60612502636E-01  0.89414595260E-01  0.51100000000E-03 0.  1.
         11    1    4    4    0    0 -0.31213646054E-01 -0.21550589149E-01 -0.18260454286E-01  0.42100177012E-01  0.51100000000E-03 0. -1.
</event>
<event>
 8    1  0.1074844E+005  0.1043930E+01  0.7957747E-01            NaN
         13   -1    0    0    0    0  0.00000000000E+00  0.00000000000E+00  0.74505805969E-08  0.10566000000E+00  0.10566000000E+00 0.  1.
     999900   -1    0    0    0    0 -0.00000000000E+00 -0.00000000000E+00 -0.74505805969E-08  0.93827000000E+00  0.93827000000E+00 0. -1.
     999902    2    1    2    0    0  0.92460127949E-02 -0.26237609801E-02  0.21847835706E-01  0.10200615941E+01  0.10197823077E+01 0.  0.
     999903    2    3    3    0    0 -0.50299428240E-01 -0.48711686163E-01  0.11192660211E+00  0.13226435344E+00  0.79645516152E-02 0.  0.
         14    1    1    2    0    0 -0.92460127949E-02  0.26237609801E-02 -0.21847835706E-01  0.23868405882E-01  0.00000000000E+00 0. -1.
     999901    1    3    3    0    0  0.59545441035E-01  0.46087925183E-01 -0.90078766400E-01  0.88779724068E+00  0.88000000000E+00 0. -1.
        -11    1    4    4    0    0 -0.37798177754E-01 -0.40399942803E-01  0.84703053040E-01  0.10117176452E+00  0.51100000000E-03 0. -1.
         11    1    4    4    0    0 -0.12501250486E-01 -0.83117433608E-02  0.27223549066E-01  0.31092588927E-01  0.51100000000E-03 0.  1.
</event>
<event>
 8    1  0.1074844E+005  0.1043930E+01  0.7957747E-01            NaN
         13   -1    0    0    0    0  0.00000000000E+00  0.00000000000E+00  0.74505805969E-08  0.10566000000E+00  0.10566000000E+00 0.  1.
     999900   -1    0    0    0    0 -0.00000000000E+00 -0.00000000000E+00 -0.74505805969E-08  0.93827000000E+00  0.93827000000E+00 0.  1.
     999902    2    1    2    0    0 -0.11850317832E-01  0.20668426908E-01 -0.28135007931E-02  0.10199398001E+01  0.10196576220E+01 0.  0.
     999903    2    3    3    0    0  0.80259542514E-01 -0.28537501220E-02  0.99024036232E-01  0.12898054003E+00  0.19505945282E-01 0.  0.
         14    1    1    2    0    0  0.11850317832E-01 -0.20668426908E-01  0.28135007931E-02  0.23990199880E-01  0.00000000000E+00 0. -1.
     999901    1    3    3    0    0 -0.92109860347E-01  0.23522177030E-01 -0.10183753703E+00  0.89095926009E+00  0.88000000000E+00 0. -1.
        -11    1    4    4    0    0  0.33006406179E-01 -0.38103315079E-03  0.56098720203E-01  0.65091440025E-01  0.51100000000E-03 0.  1.
         11    1    4    4    0    0  0.47253136336E-01 -0.24727169712E-02  0.42925316029E-01  0.63889100009E-01  0.51100000000E-03 0. -1.
</event>
<event>
 8    1  0.1074844E+005  0.1043930E+01  0.7957747E-01            NaN
         13   -1    0    0    0    0  0.00000000000E+00  0.00000000000E+00  0.74505805969E-08  0.10566000000E+00  0.10566000000E+00 0. -1.
     999900   -1    0    0    0    0 -0.00000000000E+00 -0.00000000000E+00 -0.74505805969E-08  0.93827000000E+00  0.93827000000E+00 0.  1.
     999902    2    1    2    0    0 -0.13198216849E-01 -0.13466006569E-01 -0.14183196846E-01  0.10203357352E+01  0.10200629015E+01 0.  0.
     999903    2    3    3    0    0  0.12498248958E+00  0.21081696029E-01 -0.12037098274E-01  0.12888071266E+00  0.20007142502E-01 0.  0.
         14    1    1    2    0    0  0.13198216849E-01  0.13466006569E-01  0.14183196846E-01  0.23594264848E-01  0.00000000000E+00 0. -1.
     999901    1    3    3    0    0 -0.13818070643E+00 -0.34547702598E-01 -0.21460985724E-02  0.89145502249E+00  0.88000000000E+00 0. -1.
        -11    1    4    4    0    0  0.56615897343E-01  0.98460142172E-02 -0.15458317855E-01  0.59510709455E-01  0.51100000000E-03 0. -1.
         11    1    4    4    0    0  0.68366592241E-01  0.11235681811E-01  0.34212195807E-02  0.69370003207E-01  0.51100000000E-03 0.  1.
</event>
<event>
 8    1  0.1074844E+005  0.1043930E+01  0.7957747E-01            NaN
         13   -1    0    0    0    0  0.00000000000E+00  0.00000000000E+00  0.74505805969E-08  0.10566000000E+00  0.10566000000E+00 0. -1.
     999900   -1    0    0    0    0 -0.00000000000E+00 -0.00000000000E+00 -0.74505805969E-08  0.93827000000E+00  0.93827000000E+00 0. -1.
     999902    2    1    2    0    0 -0.13085084230E-01 -0.18306597308E-01 -0.58989238629E-02  0.10206674069E+01  0.10204022772E+01 0.  0.
     999903    2    3    3    0    0 -0.86481203827E-01 -0.25324883471E-01 -0.94920541728E-01  0.13310834118E+00  0.24239903315E-01 0.  0.
         14    1    1    2    0    0  0.13085084230E-01  0.18306597308E-01  0.58989238629E-02  0.23262593085E-01  0.00000000000E+00 0. -1.
     999901    1    3    3    0    0  0.73396119596E-01  0.70182861634E-02  0.89021617865E-01  0.88755906573E+00  0.88000000000E+00 0.  1.
        -11    1    4    4    0    0 -0.42057818230E-01 -0.22334482937E-01 -0.59499404930E-01  0.76211085220E-01  0.51100000000E-03 0.  1.
         11    1    4    4    0    0 -0.44423385597E-01 -0.29904005344E-02 -0.35421136798E-01  0.56897255965E-01  0.51100000000E-03 0. -1.
</event>
<event>
 8    1  0.1074844E+005  0.1043930E+01  0.7957747E-01            NaN
         13   -1    0    0    0    0  0.00000000000E+00  0.00000000000E+00  0.74505805969E-08  0.10566000000E+00  0.10566000000E+00 0.  1.
     999900   -1    0    0    0    0 -0.00000000000E+00 -0.00000000000E+00 -0.74505805969E-08  0.93827000000E+00  0.93827000000E+00 0.  1.
     999902    2    1    2    0    0  0.11513817751E-01 -0.11497773425E-01 -0.64221481704E-02  0.10264368362E+01  0.10262877608E+01 0.  0.
     999903    2    3    3    0    0 -0.46633716389E-01 -0.91825167563E-02  0.12434126953E+00  0.13487328403E+00  0.21703209838E-01 0.  0.
         14    1    1    2    0    0 -0.11513817751E-01  0.11497773425E-01  0.64221481704E-02  0.17493163809E-01  0.00000000000E+00 0.  1.
     999901    1    3    3    0    0  0.58147534139E-01 -0.23152566689E-02 -0.13076341770E+00  0.89156355216E+00  0.88000000000E+00 0.  1.
        -11    1    4    4    0    0 -0.16859677784E-01 -0.11455230078E-01  0.33174299165E-01  0.38939263953E-01  0.51100000000E-03 0. -1.
         11    1    4    4    0    0 -0.29774038604E-01  0.22727133218E-02  0.91166970366E-01  0.95934020073E-01  0.51100000000E-03 0.  1.
</event>
<event>
 8    1  0.1074844E+005  0.1043930E+01  0.7957747E-01            NaN
         13   -1    0    0    0    0  0.00000000000E+00  0.00000000000E+00  0.74505805969E-08  0.10566000000E+00  0.10566000000E+00 0.  1.
     999900   -1    0    0    0    0 -0.00000000000E+00 -0.00000000000E+00 -0.74505805969E-08  0.93827000000E+00  0.93827000000E+00 0. -1.
     999902    2    1    2    0    0 -0.23007928396E-01  0.39266621837E-02 -0.22409362537E-02  0.10204820739E+01  0.10202126532E+01 0.  0.
     999903    2    3    3    0    0 -0.11150495866E+00  0.43459046878E-01  0.54879082259E-01  0.13331961392E+00  0.20984785554E-01 0.  0.
         14    1    1    2    0    0  0.23007928396E-01 -0.39266621837E-02  0.22409362537E-02  0.23447926141E-01  0.00000000000E+00 0.  1.
     999901    1    3    3    0    0  0.88497030268E-01 -0.39532384694E-01 -0.57120018513E-01  0.88716245994E+00  0.88000000000E+00 0. -1.
        -11    1    4    4    0    0 -0.31653387576E-01  0.21668856708E-01  0.22243091763E-01  0.44345152477E-01  0.51100000000E-03 0. -1.
         11    1    4    4    0    0 -0.79851571088E-01  0.21790190170E-01  0.32635990496E-01  0.88974461446E-01  0.51100000000E-03 0.  1.
</event>
<event>
 8    1  0.1074844E+005  0.1043930E+01  0.7957747E-01            NaN
         13   -1    0    0    0    0  0.00000000000E+00  0.00000000000E+00  0.74505805969E-08  0.10566000000E+00  0.10566000000E+00 0. -1.
     999900   -1    0    0    0    0 -0.00000000000E+00 -0.00000000000E+00 -0.74505805969E-08  0.93827000000E+00  0.93827000000E+00 0. -1.
     999902    2    1    2    0    0  0.57335635725E-02  0.31392821537E-02  0.24498596121E-01  0.10185743289E+01  0.10182586869E+01 0.  0.
     999903    2    3    3    0    0  0.12959103662E-01 -0.84482929157E-01 -0.91431221243E-01  0.12662725488E+00  0.19222116792E-01 0.  0.
         14    1    1    2    0    0 -0.57335635725E-02 -0.31392821537E-02 -0.24498596121E-01  0.25355671073E-01  0.00000000000E+00 0.  1.
     999901    1    3    3    0    0 -0.72255400891E-02  0.87622211311E-01  0.11592981736E+00  0.89194707405E+00  0.88000000000E+00 0.  1.
        -11    1    4    4    0    0  0.86025953729E-02 -0.82219077438E-01 -0.86355472549E-01  0.11954710411E+00  0.51100000000E-03 0.  1.
         11    1    4    4    0    0  0.43565082886E-02 -0.22638517195E-02 -0.50757486940E-02  0.70801507669E-02  0.51100000000E-03 0. -1.
</event>
<event>
 8    1  0.1074844E+005  0.1043930E+01  0.7957747E-01            NaN
         13   -1    0    0    0    0  0.00000000000E+00  0.00000000000E+00  0.74505805969E-08  0.10566000000E+00  0.10566000000E+00 0. -1.
     999900   -1    0    0    0    0 -0.00000000000E+00 -0.00000000000E+00 -0.74505805969E-08  0.93827000000E+00  0.93827000000E+00 0. -1.
     999902    2    1    2    0    0 -0.18289371511E-01  0.66833192212E-02  0.15652476817E-01  0.10189466476E+01  0.10186403206E+01 0.  0.
     999903    2    3    3    0    0  0.11405808241E+00  0.30286922867E-01 -0.44042316336E-01  0.12673790130E+00  0.14008074025E-01 0.  0.
         14    1    1    2    0    0  0.18289371511E-01 -0.66833192212E-02 -0.15652476817E-01  0.24983352389E-01  0.00000000000E+00 0.  1.
     999901    1    3    3    0    0 -0.13234745392E+00 -0.23603603646E-01  0.59694793153E-01  0.89220874631E+00  0.88000000000E+00 0.  1.
        -11    1    4    4    0    0  0.65103123143E-01  0.23332234648E-01 -0.29555728749E-01  0.75210451665E-01  0.51100000000E-03 0. -1.
         11    1    4    4    0    0  0.48954959267E-01  0.69546882190E-02 -0.14486587587E-01  0.51527449636E-01  0.51100000000E-03 0.  1.
</event>
<event>
 8    1  0.1074844E+005  0.1043930E+01  0.7957747E-01            NaN
         13   -1    0    0    0    0  0.00000000000E+00  0.00000000000E+00  0.74505805969E-08  0.10566000000E+00  0.10566000000E+00 0. -1.
     999900   -1    0    0    0    0 -0.00000000000E+00 -0.00000000000E+00 -0.74505805969E-08  0.93827000000E+00  0.93827000000E+00 0. -1.
     999902    2    1    2    0    0  0.11416973904E-02 -0.21496910056E-01 -0.97146726842E-02  0.10203123058E+01  0.10200389237E+01 0.  0.
     999903    2    3    3    0    0 -0.61362839188E-01 -0.11621893646E+00  0.14932578234E-02  0.13295403705E+00  0.20057590164E-01 0.  0.
         14    1    1    2    0    0 -0.11416973904E-02  0.21496910056E-01  0.97146726842E-02  0.23617694220E-01  0.00000000000E+00 0. -1.
     999901    1    3    3    0    0  0.62504536578E-01  0.94722026406E-01 -0.11207930508E-01  0.88735826873E+00  0.88000000000E+00 0. -1.
        -11    1    4    4    0    0 -0.20715367985E-01 -0.31004511966E-01 -0.77511565588E-02  0.38088683123E-01  0.51100000000E-03 0.  1.
         11    1    4    4    0    0 -0.40647471202E-01 -0.85214424496E-01  0.92444143823E-02  0.94865353927E-01  0.51100000000E-03 0. -1.
</event>
<event>
 8    1  0.1074844E+005  0.1043930E+01  0.7957747E-01            NaN
         13   -1    0    0    0    0  0.00000000000E+00  0.00000000000E+00  0.74505805969E-08  0.10566000000E+00  0.10566000000E+00 0.  1.
     999900   -1    0    0    0    0 -0.00000000000E+00 -0.00000000000E+00 -0.74505805969E-08  0.93827000000E+00  0.93827000000E+00 0. -1.
     999902    2    1    2    0    0 -0.20992693863E-01 -0.11673000220E-01  0.33543692869E-03  0.10199078301E+01  0.10196248904E+01 0.  0.
     999903    2    3    3    0    0 -0.10023733247E+00 -0.11706212045E-01 -0.83419995204E-01  0.13238617611E+00  0.19561334438E-01 0.  0.
         14    1    1    2    0    0  0.20992693863E-01  0.11673000220E-01 -0.33543692869E-03  0.24022169920E-01  0.00000000000E+00 0.  1.
     999901    1    3    3    0    0  0.79244638605E-01  0.33211825087E-04  0.83755432132E-01  0.88752165397E+00  0.88000000000E+00 0.  1.
        -11    1    4    4    0    0 -0.84997195658E-01 -0.16783497517E-01 -0.72279208579E-01  0.11283064377E+00  0.51100000000E-03 0.  1.
         11    1    4    4    0    0 -0.15240136810E-01  0.50772854721E-02 -0.11140786625E-01  0.19555532346E-01  0.51100000000E-03 0. -1.
</event>
<event>
 8    1  0.1074844E+005  0.1043930E+01  0.7957747E-01            NaN
         13   -1    0    0    0    0  0.00000000000E+00  0.00000000000E+00  0.74505805969E-08  0.10566000000E+00  0.10566000000E+00 0.  1.
     999900   -1    0    0    0    0 -0.00000000000E+00 -0.00000000000E+00 -0.74505805969E-08  0.93827000000E+00  0.93827000000E+00 0. -1.
     999902    2    1    2    0    0  0.23156725905E-01  0.33343183269E-02 -0.32502325447E-02  0.10203097620E+01  0.10200363203E+01 0.  0.
     999903    2    3    3    0    0  0.13101436244E+00 -0.13716872415E-01 -0.96807907933E-02  0.13353731937E+00  0.19636247064E-01 0.  0.
         14    1    1    2    0    0 -0.23156725905E-01 -0.33343183269E-02  0.32502325447E-02  0.23620238037E-01  0.00000000000E+00 0.  1.
     999901    1    3    3    0    0 -0.10785763654E+00  0.17051190742E-01  0.64305582485E-02  0.88677244259E+00  0.88000000000E+00 0.  1.
        -11    1    4    4    0    0  0.12532687094E+00 -0.16029081467E-01 -0.62904306742E-02  0.12650528317E+00  0.51100000000E-03 0. -1.
         11    1    4    4    0    0  0.56874915064E-02  0.23122090525E-02 -0.33903601191E-02  0.70320361969E-02  0.51100000000E-03 0.  1.
</event>
<event>
 8    1  0.1074844E+005  0.1043930E+01  0.7957747E-01            NaN
         13   -1    0    0    0    0  0.00000000000E+00  0.00000000000E+00  0.74505805969E-08  0.10566000000E+00  0.10566000000E+00 0. -1.
     999900   -1    0    0    0    0 -0.00000000000E+00 -0.00000000000E+00 -0.74505805969E-08  0.93827000000E+00  0.93827000000E+00 0.  1.
     999902    2    1    2    0    0 -0.63384662987E-02  0.38145500360E-02  0.27350047541E-01  0.10155971207E+01  0.10152018320E+01 0.  0.
     999903    2    3    3    0    0 -0.10734141765E+00 -0.59494873999E-01  0.28600882900E-01  0.12755925896E+00  0.19787219820E-01 0.  0.
         14    1    1    2    0    0  0.63384662987E-02 -0.38145500360E-02 -0.27350047541E-01  0.28332879266E-01  0.00000000000E+00 0.  1.
     999901    1    3    3    0    0  0.10100295135E+00  0.63309424035E-01 -0.12508353586E-02  0.88803786177E+00  0.88000000000E+00 0. -1.
        -11    1    4    4    0    0 -0.82282189788E-01 -0.52758952403E-01  0.27680946050E-01  0.10158918107E+00  0.51100000000E-03 0.  1.
         11    1    4    4    0    0 -0.25059227865E-01 -0.67359215951E-02  0.91993684989E-03  0.25970077892E-01  0.51100000000E-03 0. -1.
</event>
<event>
 8    1  0.1074844E+005  0.1043930E+01  0.7957747E-01            NaN
         13   -1    0    0    0    0  0.00000000000E+00  0.00000000000E+00  0.74505805969E-08  0.10566000000E+00  0.10566000000E+00 0. -1.
     999900   -1    0    0    0    0 -0.00000000000E+00 -0.00000000000E+00 -0.74505805969E-08  0.93827000000E+00  0.93827000000E+00 0. -1.
     999902    2    1    2    0    0  0.79309106423E-02  0.22454964329E-01 -0.22035412031E-02  0.10200138891E+01  0.10197334718E+01 0.  0.
     999903    2    3    3    0    0 -0.19874987652E-02 -0.26638549619E-01  0.12507862965E+00  0.12944704772E+00  0.19957757661E-01 0.  0.
         14    1    1    2    0    0 -0.79309106423E-02 -0.22454964329E-01  0.22035412031E-02  0.23916110897E-01  0.00000000000E+00 0. -1.
     999901    1    3    3    0    0  0.99184094075E-02  0.49093513948E-01 -0.12728217085E+00  0.89056684138E+00  0.88000000000E+00 0. -1.
        -11    1    4    4    0    0  0.23018405250E-02 -0.81621812085E-02  0.11519622817E-01  0.14313717293E-01  0.51100000000E-03 0. -1.
         11    1    4    4    0    0 -0.42893392902E-02 -0.18476368411E-01  0.11355900683E+00  0.11513333043E+00  0.51100000000E-03 0.  1.
</event>
<event>
 8    1  0.1074844E+005  0.1043930E+01  0.7957747E-01            NaN
         13   -1    0    0    0    0  0.00000000000E+00  0.00000000000E+00  0.74505805969E-08  0.10566000000E+00  0.10566000000E+00 0.  1.
     999900   -1    0    0    0    0 -0.00000000000E+00 -0.00000000000E+00 -0.74505805969E-08  0.93827000000E+00  0.93827000000E+00 0. -1.
     999902    2    1    2    0    0  0.24167642708E-01 -0.24727630201E-02 -0.10910455267E-01  0.10172986736E+01  0.10169500301E+01 0.  0.
     999903    2    3    3    0    0 -0.63872937574E-01 -0.66063427522E-01  0.82710398724E-01  0.12569350276E+00  0.22665347315E-01 0.  0.
         14    1    1    2    0    0 -0.24167642708E-01  0.24727630201E-02  0.10910455267E-01  0.26631326387E-01  0.00000000000E+00 0.  1.
     999901    1    3    3    0    0  0.88040580281E-01  0.63590664502E-01 -0.93620853991E-01  0.89160517085E+00  0.88000000000E+00 0. -1.
        -11    1    4    4    0    0 -0.44370925300E-01 -0.58918351408E-01  0.61960237839E-01  0.96330074944E-01  0.51100000000E-03 0. -1.
         11    1    4    4    0    0 -0.19502012273E-01 -0.71450761136E-02  0.20750160886E-01  0.29363427817E-01  0.51100000000E-03 0.  1.
</event>
<event>
 8    1  0.1074844E+005  0.1043930E+01  0.7957747E-01            NaN
         13   -1    0    0    0    0  0.00000000000E+00  0.00000000000E+00  0.74505805969E-08  0.10566000000E+00  0.10566000000E+00 0.  1.
     999900   -1    0    0    0    0 -0.00000000000E+00 -0.00000000000E+00 -0.74505805969E-08  0.93827000000E+00  0.93827000000E+00 0.  1.
     999902    2    1    2    0    0 -0.50955175635E-02 -0.22825628818E-01 -0.14568243141E-02  0.10204972032E+01  0.10202281341E+01 0.  0.
     999903    2    3    3    0    0  0.96471461729E-02  0.12371869550E+00 -0.23924477640E-01  0.12797416113E+00  0.20140065578E-01 0.  0.
         14    1    1    2    0    0  0.50955175635E-02  0.22825628818E-01  0.14568243141E-02  0.23432796830E-01  0.00000000000E+00 0. -1.
     999901    1    3    3    0    0 -0.14742663736E-01 -0.14654432432E+00  0.22467653326E-01  0.89252304204E+00  0.88000000000E+00 0. -1.
        -11    1    4    4    0    0  0.13750617570E-01  0.51670113623E-01 -0.12439539410E-01  0.54898846866E-01  0.51100000000E-03 0. -1.
         11    1    4    4    0    0 -0.41034713974E-02  0.72048581877E-01 -0.11484938230E-01  0.73075314266E-01  0.51100000000E-03 0.  1.
</event>
<event>
 8    1  0.1074844E+005  0.1043930E+01  0.7957747E-01            NaN
         13   -1    0    0    0    0  0.00000000000E+00  0.00000000000E+00  0.74505805969E-08  0.10566000000E+00  0.10566000000E+00 0.  1.
     999900   -1    0    0    0    0 -0.00000000000E+00 -0.00000000000E+00 -0.74505805969E-08  0.93827000000E+00  0.93827000000E+00 0. -1.
     999902    2    1    2    0    0  0.14415775301E-01  0.66547113163E-02 -0.16236971435E-01  0.10212201123E+01  0.10209675698E+01 0.  0.
     999903    2    3    3    0    0 -0.56510314782E-01  0.68963374746E-01 -0.95827655706E-01  0.13259895742E+00  0.21217473388E-01 0.  0.
         14    1    1    2    0    0 -0.14415775301E-01 -0.66547113163E-02  0.16236971435E-01  0.22709887750E-01  0.00000000000E+00 0.  1.
     999901    1    3    3    0    0  0.70926090083E-01 -0.62308663429E-01  0.79590684271E-01  0.88862115483E+00  0.88000000000E+00 0.  1.
        -11    1    4    4    0    0 -0.40861234595E-01  0.62520416794E-01 -0.76850303236E-01  0.10716656772E+00  0.51100000000E-03 0. -1.
         11    1    4    4    0    0 -0.15649080188E-01  0.64429579516E-02 -0.18977352470E-01  0.25432389696E-01  0.51100000000E-03 0.  1.
</event>
<event>
 8    1  0.1074844E+005  0.1043930E+01  0.7957747E-01            NaN
         13   -1    0    0    0    0  0.00000000000E+00  0.00000000000E+00  0.74505805969E-08  0.10566000000E+00  0.10566000000E+00 0. -1.
     999900   -1    0    0    0    0 -0.00000000000E+00 -0.00000000000E+00 -0.74505805969E-08  0.93827000000E+00  0.93827000000E+00 0. -1.
     999902    2    1    2    0    0 -0.11776062864E-01  0.40683469802E-02 -0.20036200856E-01  0.10203360082E+01  0.10200631810E+01 0.  0.
     999903    2    3    3    0    0  0.25433722172E-01 -0.60202540740E-01 -0.11322357740E+00  0.13230492640E+00  0.20341950148E-01 0.  0.
         14    1    1    2    0    0  0.11776062864E-01 -0.40683469802E-02  0.20036200856E-01  0.23593991787E-01  0.00000000000E+00 0.  1.
     999901    1    3    3    0    0 -0.37209785036E-01  0.64270887720E-01  0.93187376547E-01  0.88803108181E+00  0.88000000000E+00 0.  1.
        -11    1    4    4    0    0  0.28540820352E-01 -0.48154259449E-01 -0.91535299648E-01  0.10729577500E+00  0.51100000000E-03 0. -1.
         11    1    4    4    0    0 -0.31070981797E-02 -0.12048281291E-01 -0.21688277754E-01  0.25009151407E-01  0.51100000000E-03 0.  1.
</event>
<event>
 8    1  0.1074844E+005  0.1043930E+01  0.7957747E-01            NaN
         13   -1    0    0    0    0  0.00000000000E+00  0.00000000000E+00  0.74505805969E-08  0.10566000000E+00  0.10566000000E+00 0. -1.
     999900   -1    0    0    0    0 -0.00000000000E+00 -0.00000000000E+00 -0.74505805969E-08  0.93827000000E+00  0.93827000000E+00 0.  1.
     999902    2    1    2    0    0  0.17992944682E-01 -0.18302702264E-01  0.27467435242E-02  0.10181176082E+01  0.10177903441E+01 0.  0.
     999903    2    3    3    0    0 -0.19190328985E-01 -0.10599723321E+00 -0.69388156257E-01  0.13004307850E+00  0.22199186109E-01 0.  0.
         14    1    1    2    0    0 -0.17992944682E-01  0.18302702264E-01 -0.27467435242E-02  0.25812391763E-01  0.00000000000E+00 0. -1.
     999901    1    3    3    0    0  0.37183273668E-01  0.87694530941E-01  0.72134899782E-01  0.88807452974E+00  0.88000000000E+00 0. -1.
        -11    1    4    4    0    0 -0.21124360194E-01 -0.70404665430E-01 -0.54023497926E-01  0.91224201597E-01  0.51100000000E-03 0. -1.
         11    1    4    4    0    0  0.19340312083E-02 -0.35592567775E-01 -0.15364658332E-01  0.38818876905E-01  0.51100000000E-03 0.  1.
</event>
<event>
 8    1  0.1074844E+005  0.1043930E+01  0.7957747E-01            NaN
         13   -1    0    0    0    0  0.00000000000E+00  0.00000000000E+00  0.74505805969E-08  0.10566000000E+00  0.10566000000E+00 0. -1.
     999900   -1    0    0    0    0 -0.00000000000E+00 -0.00000000000E+00 -0.74505805969E-08  0.93827000000E+00  0.93827000000E+00 0.  1.
     999902    2    1    2    0    0  0.20559911388E-02 -0.20414278074E-01  0.79697745992E-02  0.10219189311E+01  0.10216818558E+01 0.  0.
     999903    2    3    3    0    0  0.12374760397E+00 -0.44277728637E-01 -0.48605570627E-02  0.13313159411E+00  0.20649687489E-01 0.  0.
         14    1    1    2    0    0 -0.20559911388E-02  0.20414278074E-01 -0.79697745992E-02  0.22011068943E-01  0.00000000000E+00 0. -1.
     999901    1    3    3    0    0 -0.12169161283E+00  0.23863450564E-01  0.12830331662E-01  0.88878733695E+00  0.88000000000E+00 0. -1.
        -11    1    4    4    0    0  0.58468717856E-01 -0.10301273558E-01  0.94747602897E-04  0.59371519289E-01  0.51100000000E-03 0.  1.
         11    1    4    4    0    0  0.65278886116E-01 -0.33976455079E-01 -0.49553046656E-02  0.73760074821E-01  0.51100000000E-03 0. -1.
</event>
<event>
 8    1  0.1074844E+005  0.1043930E+01  0.7957747E-01            NaN
         13   -1    0    0    0    0  0.00000000000E+00  0.00000000000E+00  0.74505805969E-08  0.10566000000E+00  0.10566000000E+00 0.  1.
     999900   -1    0    0    0    0 -0.00000000000E+00 -0.00000000000E+00 -0.74505805969E-08  0.93827000000E+00  0.93827000000E+00 0.  1.
     999902    2    1    2    0    0 -0.46042276368E-02 -0.16786977927E-01  0.14541012634E-01  0.10212486731E+01  0.10209967727E+01 0.  0.
     999903    2    3    3    0    0  0.47316321538E-01 -0.97570521342E-01  0.75319626912E-01  0.13394051682E+00  0.22542735586E-01 0.  0.
         14    1    1    2    0    0  0.46042276368E-02  0.16786977927E-01 -0.14541012634E-01  0.22681326868E-01  0.00000000000E+00 0. -1.
     999901    1    3    3    0    0 -0.51920549175E-01  0.80783543415E-01 -0.60778614278E-01  0.88730815632E+00  0.88000000000E+00 0.  1.
        -11    1    4    4    0    0 -0.98360462399E-03 -0.12726238999E-01  0.54710698932E-02  0.13896703346E-01  0.51100000000E-03 0.  1.
         11    1    4    4    0    0  0.48299926162E-01 -0.84844282343E-01  0.69848557019E-01  0.12004381347E+00  0.51100000000E-03 0. -1.
</event>
<event>
 8    1  0.1074844E+005  0.1043930E+01  0.7957747E-01            NaN
         13   -1    0    0    0    0  0.00000000000E+00  0.00000000000E+00  0.74505805969E-08  0.10566000000E+00  0.10566000000E+00 0.  1.
     999900   -1    0    0    0    0 -0.00000000000E+00 -0.00000000000E+00 -0.74505805969E-08  0.93827000000E+00  0.93827000000E+00 0. -1.
     999902    2    1    2    0    0  0.64884817759E-02 -0.12233962889E-01  0.19030981233E-01  0.10203938897E+01  0.10201224150E+01 0.  0.
     999903    2    3    3    0    0  0.11251698861E+00 -0.33322319597E-01  0.59002533158E-01  0.13287798105E+00  0.20119871284E-01 0.  0.
         14    1    1    2    0    0 -0.64884817759E-02  0.12233962889E-01 -0.19030981233E-01  0.23536110350E-01  0.00000000000E+00 0. -1.
     999901    1    3    3    0    0 -0.10602850683E+00  0.21088356708E-01 -0.39971551925E-01  0.88751590860E+00  0.88000000000E+00 0.  1.
        -11    1    4    4    0    0  0.74247794049E-01 -0.13259635526E-01  0.42843631867E-01  0.86743246238E-01  0.51100000000E-03 0.  1.
         11    1    4    4    0    0  0.38269194561E-01 -0.20062684071E-01  0.16158901291E-01  0.46134734815E-01  0.51100000000E-03 0. -1.
</event>
<event>
 8    1  0.1074844E+005  0.1043930E+01  0.7957747E-01            NaN
         13   -1    0    0    0    0  0.00000000000E+00  0.00000000000E+00  0.74505805969E-08  0.10566000000E+00  0.10566000000E+00 0. -1.
     999900   -1    0    0    0    0 -0.00000000000E+00 -0.00000000000E+00 -0.74505805969E-08  0.93827000000E+00  0.93827000000E+00 0.  1.
     999902    2    1    2    0    0  0.49380776259E-03  0.11543088239E-01 -0.11180952956E-01  0.10278520511E+01  0.10277262955E+01 0.  0.
     999903    2    3    3    0    0  0.67332786850E-01 -0.92045344506E-01 -0.73471845021E-01  0.13707813602E+00  0.19653339032E-01 0.  0.
         14    1    1    2    0    0 -0.49380776259E-03 -0.11543088239E-01  0.11180952956E-01  0.16077948911E-01  0.00000000000E+00 0. -1.
     999901    1    3    3    0    0 -0.66838979087E-01  0.10358843275E+00  0.62290892065E-01  0.89077391506E+00  0.88000000000E+00 0. -1.
        -11    1    4    4    0    0  0.63204879207E-02 -0.17478739303E-01 -0.18118236368E-01  0.25961250071E-01  0.51100000000E-03 0. -1.
         11    1    4    4    0    0  0.61012298929E-01 -0.74566605203E-01 -0.55353608652E-01  0.11111688595E+00  0.51100000000E-03 0.  1.
</event>
<event>
 8    1  0.1074844E+005  0.1043930E+01  0.7957747E-01            NaN
         13   -1    0    0    0    0  0.00000000000E+00  0.00000000000E+00  0.74505805969E-08  0.10566000000E+00  0.10566000000E+00 0. -1.
     999900   -1    0    0    0    0 -0.00000000000E+00 -0.00000000000E+00 -0.74505805969E-08  0.93827000000E+00  0.93827000000E+00 0.  1.
     999902    2    1    2    0    0 -0.15324341850E-01 -0.17231643823E-01  0.44983399410E-02  0.10204353184E+01  0.10201648097E+01 0.  0.
     999903    2    3    3    0    0 -0.92508169898E-01 -0.94143011489E-01  0.54185275147E-02  0.13371464730E+00  0.20726272008E-01 0.  0.
         14    1    1    2    0    0  0.15324341850E-01  0.17231643823E-01 -0.44983399410E-02  0.23494681616E-01  0.00000000000E+00 0. -1.
     999901    1    3    3    0    0  0.77183828047E-01  0.76911367665E-01 -0.92018757366E-03  0.88672067109E+00  0.88000000000E+00 0.  1.
        -11    1    4    4    0    0 -0.52847187721E-01 -0.67694987729E-01  0.52281910255E-02  0.86040872358E-01  0.51100000000E-03 0.  1.
         11    1    4    4    0    0 -0.39660982176E-01 -0.26448023760E-01  0.19033648915E-03  0.47673774939E-01  0.51100000000E-03 0. -1.
</event>
<event>
 8    1  0.1074844E+005  0.1043930E+01  0.7957747E-01            NaN
         13   -1    0    0    0    0  0.00000000000E+00  0.00000000000E+00  0.74505805969E-08  0.10566000000E+00  0.10566000000E+00 0. -1.
     999900   -1    0    0    0    0 -0.00000000000E+00 -0.00000000000E+00 -0.74505805969E-08  0.93827000000E+00  0.93827000000E+00 0. -1.
     999902    2    1    2    0    0  0.24484820707E-01  0.51838296317E-02  0.12590845987E-02  0.10188707935E+01  0.10185625803E+01 0.  0.
     999903    2    3    3    0    0 -0.91699778931E-01 -0.11391671639E-01  0.85064165677E-01  0.12713265930E+00  0.19702313036E-01 0.  0.
         14    1    1    2    0    0 -0.24484820707E-01 -0.51838296317E-02 -0.12590845987E-02  0.25059206467E-01  0.00000000000E+00 0.  1.
     999901    1    3    3    0    0  0.11618459964E+00  0.16575501270E-01 -0.83805081079E-01  0.89173813424E+00  0.88000000000E+00 0. -1.
        -11    1    4    4    0    0 -0.31123687897E-01 -0.26999973627E-02  0.41794214817E-01  0.52182290552E-01  0.51100000000E-03 0. -1.
         11    1    4    4    0    0 -0.60576091034E-01 -0.86916742758E-02  0.43269950861E-01  0.74950368746E-01  0.51100000000E-03 0.  1.
</event>
<event>
 8    1  0.1074844E+005  0.1043930E+01  0.7957747E-01            NaN
         13   -1    0    0    0    0  0.00000000000E+00  0.00000000000E+00  0.74505805969E-08  0.10566000000E+00  0.10566000000E+00 0.  1.
     999900   -1    0    0    0    0 -0.00000000000E+00 -0.00000000000E+00 -0.74505805969E-08  0.93827000000E+00  0.93827000000E+00 0. -1.
     999902    2    1    2    0    0 -0.13836396390E-01 -0.18112448884E-01 -0.31634028813E-02  0.10209188334E+01  0.10206594685E+01 0.  0.
     999903    2    3    3    0    0 -0.22522951112E-01  0.12492194686E+00 -0.14478362361E-01  0.12925616015E+00  0.19615193757E-01 0.  0.
         14    1    1    2    0    0  0.13836396390E-01  0.18112448884E-01  0.31634028813E-02  0.23011166581E-01  0.00000000000E+00 0.  1.
     999901    1    3    3    0    0  0.86865547215E-02 -0.14303439574E+00  0.11314959479E-01  0.89166267327E+00  0.88000000000E+00 0.  1.
        -11    1    4    4    0    0 -0.22406796391E-01  0.10768221760E+00 -0.18527688328E-01  0.11153950361E+00  0.51100000000E-03 0. -1.
         11    1    4    4    0    0 -0.11615472101E-03  0.17239729261E-01  0.40493259671E-02  0.17716656532E-01  0.51100000000E-03 0.  1.
</event>
<event>
 8    1  0.1074844E+005  0.1043930E+01  0.7957747E-01            NaN
         13   -1    0    0    0    0  0.00000000000E+00  0.00000000000E+00  0.74505805969E-08  0.10566000000E+00  0.10566000000E+00 0. -1.
     999900   -1    0    0    0    0 -0.00000000000E+00 -0.00000000000E+00 -0.74505805969E-08  0.93827000000E+00  0.93827000000E+00 0. -1.
     999902    2    1    2    0    0  0.64790200029E-02  0.22564094042E-01  0.18274591449E-02  0.10203831181E+01  0.10201113920E+01 0.  0.
     999903    2    3    3    0    0  0.83102635926E-02  0.13146298127E+00  0.10126077187E-01  0.13362994605E+00  0.20071101483E-01 0.  0.
         14    1    1    2    0    0 -0.64790200029E-02 -0.22564094042E-01 -0.18274591449E-02  0.23546881897E-01  0.00000000000E+00 0. -1.
     999901    1    3    3    0    0 -0.18312435897E-02 -0.10889888723E+00 -0.82986180422E-02  0.88675317206E+00  0.88000000000E+00 0. -1.
        -11    1    4    4    0    0  0.43440859907E-03  0.51433397723E-01  0.13369166917E-01  0.53146767138E-01  0.51100000000E-03 0.  1.
         11    1    4    4    0    0  0.78758549935E-02  0.80029583549E-01 -0.32430897299E-02  0.80483178907E-01  0.51100000000E-03 0. -1.
</event>
<event>
 8    1  0.1074844E+005  0.1043930E+01  0.7957747E-01            NaN
         13   -1    0    0    0    0  0.00000000000E+00  0.00000000000E+00  0.74505805969E-08  0.10566000000E+00  0.10566000000E+00 0.  1.
     999900   -1    0    0    0    0 -0.00000000000E+00 -0.00000000000E+00 -0.74505805969E-08  0.93827000000E+00  0.93827000000E+00 0. -1.
     999902    2    1    2    0    0 -0.17248065933E-01  0.91176249735E-02  0.15083340188E-01  0.10192696266E+01  0.10189712644E+01 0.  0.
     999903    2    3    3    0    0 -0.25555453034E-01  0.12405440762E+00 -0.25317995455E-01  0.13083744317E+00  0.20853259002E-01 0.  0.
         14    1    1    2    0    0  0.17248065933E-01 -0.91176249735E-02 -0.15083340188E-01  0.24660373371E-01  0.00000000000E+00 0. -1.
     999901    1    3    3    0    0  0.83073871003E-02 -0.11493678265E+00  0.40401335643E-01  0.88843218346E+00  0.88000000000E+00 0.  1.
        -11    1    4    4    0    0 -0.10818819671E-01  0.96525801971E-01 -0.19593373164E-01  0.99088035091E-01  0.51100000000E-03 0. -1.
         11    1    4    4    0    0 -0.14736633363E-01  0.27528605650E-01 -0.57246222907E-02  0.31749408077E-01  0.51100000000E-03 0.  1.
</event>
<event>
 8    1  0.1074844E+005  0.1043930E+01  0.7957747E-01            NaN
         13   -1    0    0    0    0  0.00000000000E+00  0.00000000000E+00  0.74505805969E-08  0.10566000000E+00  0.10566000000E+00 0. -1.
     999900   -1    0    0    0    0 -0.00000000000E+00 -0.00000000000E+00 -0.74505805969E-08  0.93827000000E+00  0.93827000000E+00 0. -1.
     999902    2    1    2    0    0 -0.10935478419E-01  0.21914568062E-01 -0.36644333626E-02  0.10191658918E+01  0.10188649832E+01 0.  0.
     999903    2    3    3    0    0  0.18059966366E-01 -0.10614719952E+00 -0.65031467713E-01  0.12731026167E+00  0.19632131378E-01 0.  0.
         14    1    1    2    0    0  0.10935478419E-01 -0.21914568062E-01  0.36644333626E-02  0.24764108170E-01  0.00000000000E+00 0. -1.
     999901    1    3    3    0    0 -0.28995444785E-01  0.12806176759E+00  0.61367034351E-01  0.89185563016E+00  0.88000000000E+00 0.  1.
        -11    1    4    4    0    0  0.21840664047E-02 -0.58313820860E-01 -0.41976967421E-01  0.71886012299E-01  0.51100000000E-03 0. -1.
         11    1    4    4    0    0  0.15875899962E-01 -0.47833378664E-01 -0.23054500292E-01  0.55424249375E-01  0.51100000000E-03 0.  1.
</event>
<event>
 8    1  0.1074844E+005  0.1043930E+01  0.7957747E-01            NaN
         13   -1    0    0    0    0  0.00000000000E+00  0.00000000000E+00  0.74505805969E-08  0.10566000000E+00  0.10566000000E+00 0.  1.
     999900   -1    0    0    0    0 -0.00000000000E+00 -0.00000000000E+00 -0.74505805969E-08  0.93827000000E+00  0.93827000000E+00 0.  1.
     999902    2    1    2    0    0  0.12079471905E-01 -0.52670328247E-02  0.16960017279E-01  0.10224521635E+01  0.10222265547E+01 0.  0.
     999903    2    3    3    0    0 -0.15975794370E-01  0.11846572462E+00 -0.49599642971E-01  0.13086533000E+00  0.19397321914E-01 0.  0.
         14    1    1    2    0    0 -0.12079471905E-01  0.52670328247E-02 -0.16960017279E-01  0.21477836539E-01  0.00000000000E+00 0.  1.
     999901    1    3    3    0    0  0.28055266276E-01 -0.12373275744E+00  0.66559660250E-01  0.89158683346E+00  0.88000000000E+00 0. -1.
        -11    1    4    4    0    0 -0.94205212370E-02  0.60293431637E-01 -0.35674446395E-01  0.70689259195E-01  0.51100000000E-03 0.  1.
         11    1    4    4    0    0 -0.65552731334E-02  0.58172292983E-01 -0.13925196576E-01  0.60176070804E-01  0.51100000000E-03 0. -1.
</event>
<event>
 8    1  0.1074844E+005  0.1043930E+01  0.7957747E-01            NaN
         13   -1    0    0    0    0  0.00000000000E+00  0.00000000000E+00  0.74505805969E-08  0.10566000000E+00  0.10566000000E+00 0. -1.
     999900   -1    0    0    0    0 -0.00000000000E+00 -0.00000000000E+00 -0.74505805969E-08  0.93827000000E+00  0.93827000000E+00 0. -1.
     999902    2    1    2    0    0  0.28347695693E-02 -0.16484262407E-02 -0.22923960830E-01  0.10207726857E+01  0.10205099777E+01 0.  0.
     999903    2    3    3    0    0  0.11871004519E-01 -0.28183302949E-01 -0.12868158812E+00  0.13399738776E+00  0.21473925891E-01 0.  0.
         14    1    1    2    0    0 -0.28347695693E-02  0.16484262407E-02  0.22923960830E-01  0.23157314346E-01  0.00000000000E+00 0. -1.
     999901    1    3    3    0    0 -0.90362349500E-02  0.26534876709E-01  0.10575762729E+00  0.88677529789E+00  0.88000000000E+00 0.  1.
        -11    1    4    4    0    0  0.58799500634E-02 -0.11101039521E-01 -0.94333691106E-01  0.95167816461E-01  0.51100000000E-03 0.  1.
         11    1    4    4    0    0  0.59910544559E-02 -0.17082263428E-01 -0.34347897010E-01  0.38829571300E-01  0.51100000000E-03 0. -1.
</event>
<event>
 8    1  0.1074844E+005  0.1043930E+01  0.7957747E-01            NaN
         13   -1    0    0    0    0  0.00000000000E+00  0.00000000000E+00  0.74505805969E-08  0.10566000000E+00  0.10566000000E+00 0.  1.
     999900   -1    0    0    0    0 -0.00000000000E+00 -0.00000000000E+00 -0.74505805969E-08  0.93827000000E+00  0.93827000000E+00 0.  1.
     999902    2    1    2    0    0 -0.13205136056E-01  0.19546168882E-01 -0.22516174350E-02  0.10202340485E+01  0.10199588303E+01 0.  0.
     999903    2    3    3    0    0  0.84982594750E-01  0.79280901394E-01  0.56225425696E-01  0.13083614356E+00  0.21196585338E-01 0.  0.
         14    1    1    2    0    0  0.13205136056E-01 -0.19546168882E-01  0.22516174350E-02  0.23695951496E-01  0.00000000000E+00 0.  1.
     999901    1    3    3    0    0 -0.98187730806E-01 -0.59734732512E-01 -0.58477043131E-01  0.88939790495E+00  0.88000000000E+00 0. -1.
        -11    1    4    4    0    0  0.53694996847E-01  0.43233530926E-01  0.22990394846E-01  0.72671247814E-01  0.51100000000E-03 0. -1.
         11    1    4    4    0    0  0.31287597903E-01  0.36047370468E-01  0.33235030850E-01  0.58164895743E-01  0.51100000000E-03 0.  1.
</event>
<event>
 8    1  0.1074844E+005  0.1043930E+01  0.7957747E-01            NaN
         13   -1    0    0    0    0  0.00000000000E+00  0.00000000000E+00  0.74505805969E-08  0.10566000000E+00  0.10566000000E+00 0. -1.
     999900   -1    0    0    0    0 -0.00000000000E+00 -0.00000000000E+00 -0.74505805969E-08  0.93827000000E+00  0.93827000000E+00 0. -1.
     999902    2    1    2    0    0  0.16300309414E-02 -0.26272983590E-02 -0.26506829565E-01  0.10172434545E+01  0.10168933445E+01 0.  0.
     999903    2    3    3    0    0  0.95402701231E-01  0.10361611704E-01  0.78981431719E-01  0.12590188206E+00  0.20104202310E-01 0.  0.
         14    1    1    2    0    0 -0.16300309414E-02  0.26272983590E-02  0.26506829565E-01  0.26686545508E-01  0.00000000000E+00 0. -1.
     999901    1    3    3    0    0 -0.93772670290E-01 -0.12988910063E-01 -0.10548826128E+00  0.89134157243E+00  0.88000000000E+00 0. -1.
        -11    1    4    4    0    0  0.56070054589E-01  0.11498653683E-01  0.35963342440E-01  0.67599505757E-01  0.51100000000E-03 0.  1.
         11    1    4    4    0    0  0.39332646642E-01 -0.11370419796E-02  0.43018089279E-01  0.58302376303E-01  0.51100000000E-03 0. -1.
</event>
<event>
 8    1  0.1074844E+005  0.1043930E+01  0.7957747E-01            NaN
         13   -1    0    0    0    0  0.00000000000E+00  0.00000000000E+00  0.74505805969E-08  0.10566000000E+00  0.10566000000E+00 0.  1.
     999900   -1    0    0    0    0 -0.00000000000E+00 -0.00000000000E+00 -0.74505805969E-08  0.93827000000E+00  0.93827000000E+00 0.  1.
     999902    2    1    2    0    0 -0.22107124427E-01  0.57090337431E-02 -0.42505384036E-02  0.10207053344E+01  0.10204410784E+01 0.  0.
     999903    2    3    3    0    0 -0.74336522067E-01  0.74099658986E-01 -0.79691212440E-01  0.13329534857E+00  0.20007064658E-01 0.  0.
         14    1    1    2    0    0  0.22107124427E-01 -0.57090337431E-02  0.42505384036E-02  0.23224665626E-01  0.00000000000E+00 0.  1.
     999901    1    3    3    0    0  0.52229397640E-01 -0.68390625243E-01  0.75440674036E-01  0.88740998580E+00  0.88000000000E+00 0.  1.
        -11    1    4    4    0    0 -0.40764389866E-01  0.44177162068E-01 -0.57331005805E-01  0.83069022368E-01  0.51100000000E-03 0. -1.
         11    1    4    4    0    0 -0.33572132201E-01  0.29922496918E-01 -0.22360206635E-01  0.50226326205E-01  0.51100000000E-03 0.  1.
</event>
<event>
 8    1  0.1074844E+005  0.1043930E+01  0.7957747E-01            NaN
         13   -1    0    0    0    0  0.00000000000E+00  0.00000000000E+00  0.74505805969E-08  0.10566000000E+00  0.10566000000E+00 0. -1.
     999900   -1    0    0    0    0 -0.00000000000E+00 -0.00000000000E+00 -0.74505805969E-08  0.93827000000E+00  0.93827000000E+00 0.  1.
     999902    2    1    2    0    0 -0.66303492437E-03  0.15590825966E-01  0.20100414649E-01  0.10184831900E+01  0.10181652460E+01 0.  0.
     999903    2    3    3    0    0  0.16364934812E-01 -0.10329902119E+00  0.72182639999E-01  0.12879936656E+00  0.20986768180E-01 0.  0.
         14    1    1    2    0    0  0.66303492437E-03 -0.15590825966E-01 -0.20100414649E-01  0.25446809990E-01  0.00000000000E+00 0.  1.
     999901    1    3    3    0    0 -0.17027969736E-01  0.11888984716E+00 -0.52082225351E-01  0.88968382345E+00  0.88000000000E+00 0.  1.
        -11    1    4    4    0    0  0.12443808779E-01 -0.59050178508E-01  0.29425380092E-01  0.67140792916E-01  0.51100000000E-03 0. -1.
         11    1    4    4    0    0  0.39211260331E-02 -0.44248842684E-01  0.42757259907E-01  0.61658573645E-01  0.51100000000E-03 0.  1.
</event>
<event>
 8    1  0.1074844E+005  0.1043930E+01  0.7957747E-01            NaN
         13   -1    0    0    0    0  0.00000000000E+00  0.00000000000E+00  0.74505805969E-08  0.10566000000E+00  0.10566000000E+00 0.  1.
     999900   -1    0    0    0    0 -0.00000000000E+00 -0.00000000000E+00 -0.74505805969E-08  0.93827000000E+00  0.93827000000E+00 0.  1.
     999902    2    1    2    0    0  0.14464973689E-01 -0.22175566546E-01 -0.68041463438E-02  0.10165934380E+01  0.10162258265E+01 0.  0.
     999903    2    3    3    0    0 -0.12225352287E+00  0.40978538967E-02 -0.20226296307E-01  0.12554776349E+00  0.19759088895E-01 0.  0.
         14    1    1    2    0    0 -0.14464973689E-01  0.22175566546E-01  0.68041463438E-02  0.27336562017E-01  0.00000000000E+00 0. -1.
     999901    1    3    3    0    0  0.13671849656E+00 -0.26273420443E-01  0.13422149964E-01  0.89104567449E+00  0.88000000000E+00 0.  1.
        -11    1    4    4    0    0 -0.42672437129E-01  0.10864566893E-01 -0.69322828708E-02  0.44579068755E-01  0.51100000000E-03 0. -1.
         11    1    4    4    0    0 -0.79581085742E-01 -0.67667129966E-02 -0.13294013437E-01  0.80968694734E-01  0.51100000000E-03 0.  1.
</event>
<event>
 8    1  0.1074844E+005  0.1043930E+01  0.7957747E-01            NaN
         13   -1    0    0    0    0  0.00000000000E+00  0.00000000000E+00  0.74505805969E-08  0.10566000000E+00  0.10566000000E+00 0. -1.
     999900   -1    0    0    0    0 -0.00000000000E+00 -0.00000000000E+00 -0.74505805969E-08  0.93827000000E+00  0.93827000000E+00 0. -1.
     999902    2    1    2    0    0  0.12491708202E-01  0.91497415490E-02  0.17408919312E-01  0.10206312658E+01  0.10203653021E+01 0.  0.
     999903    2    3    3    0    0 -0.40226260833E-01 -0.23810423632E-01  0.12215023486E+00  0.13224154279E+00  0.19546289381E-01 0.  0.
         14    1    1    2    0    0 -0.12491708202E-01 -0.91497415490E-02 -0.17408919312E-01  0.23298734211E-01  0.00000000000E+00 0.  1.
     999901    1    3    3    0    0  0.52717969035E-01  0.32960165181E-01 -0.10474131555E+00  0.88838972300E+00  0.88000000000E+00 0. -1.
        -11    1    4    4    0    0 -0.35254203334E-01 -0.11253148176E-01  0.84943992166E-01  0.92656543874E-01  0.51100000000E-03 0. -1.
         11    1    4    4    0    0 -0.49720574988E-02 -0.12557275455E-01  0.37206242696E-01  0.39584998916E-01  0.51100000000E-03 0.  1.
</event>
<event>
 8    1  0.1074844E+005  0.1043930E+01  0.7957747E-01            NaN
         13   -1    0    0    0    0  0.00000000000E+00  0.00000000000E+00  0.74505805969E-08  0.10566000000E+00  0.10566000000E+00 0.  1.
     999900   -1    0    0    0    0 -0.00000000000E+00 -0.00000000000E+00 -0.74505805969E-08  0.93827000000E+00  0.93827000000E+00 0.  1.
     999902    2    1    2    0    0 -0.11324297606E-01 -0.45877218291E-02 -0.20360540297E-01  0.10201847161E+01  0.10199083372E+01 0.  0.
     999903    2    3    3    0    0 -0.79544238978E-01  0.42732998842E-01  0.90515199904E-01  0.12934991614E+00  0.19621525066E-01 0.  0.
         14    1    1    2    0    0  0.11324297606E-01  0.45877218291E-02  0.20360540297E-01  0.23745283932E-01  0.00000000000E+00 0.  1.
     999901    1    3    3    0    0  0.68219941373E-01 -0.47320720671E-01 -0.11087574020E+00  0.89083479993E+00  0.88000000000E+00 0.  1.
        -11    1    4    4    0    0 -0.50982443147E-01  0.37406629215E-01  0.59055452114E-01  0.86523251001E-01  0.51100000000E-03 0. -1.
         11    1    4    4    0    0 -0.28561795831E-01  0.53263696274E-02  0.31459747790E-01  0.42826665134E-01  0.51100000000E-03 0.  1.
</event>
<event>
 8    1  0.1074844E+005  0.1043930E+01  0.7957747E-01            NaN
         13   -1    0    0    0    0  0.00000000000E+00  0.00000000000E+00  0.74505805969E-08  0.10566000000E+00  0.10566000000E+00 0.  1.
     999900   -1    0    0    0    0 -0.00000000000E+00 -0.00000000000E+00 -0.74505805969E-08  0.93827000000E+00  0.93827000000E+00 0.  1.
     999902    2    1    2    0    0 -0.25254419935E-02  0.18246259279E-01  0.14535578169E-01  0.10204654125E+01  0.10201956044E+01 0.  0.
     999903    2    3    3    0    0 -0.11253600361E+00  0.51975978444E-02 -0.62129471790E-01  0.13021257136E+00  0.20096650055E-01 0.  0.
         14    1    1    2    0    0  0.25254419935E-02 -0.18246259279E-01 -0.14535578169E-01  0.23464587524E-01  0.00000000000E+00 0. -1.
     999901    1    3    3    0    0  0.11001056162E+00  0.13048661434E-01  0.76665049959E-01  0.89025284112E+00  0.88000000000E+00 0.  1.
        -11    1    4    4    0    0 -0.40905827969E-01  0.27674979655E-02 -0.33821296689E-01  0.53151547838E-01  0.51100000000E-03 0.  1.
         11    1    4    4    0    0 -0.71630175640E-01  0.24300998789E-02 -0.28308175101E-01  0.77061023522E-01  0.51100000000E-03 0. -1.
</event>
<event>
 8    1  0.1074844E+005  0.1043930E+01  0.7957747E-01            NaN
         13   -1    0    0    0    0  0.00000000000E+00  0.00000000000E+00  0.74505805969E-08  0.10566000000E+00  0.10566000000E+00 0.  1.
     999900   -1    0    0    0    0 -0.00000000000E+00 -0.00000000000E+00 -0.74505805969E-08  0.93827000000E+00  0.93827000000E+00 0. -1.
     999902    2    1    2    0    0  0.49348400835E-02  0.19663473878E-01 -0.10290635869E-01  0.10211945203E+01  0.10209414019E+01 0.  0.
     999903    2    3    3    0    0 -0.84767436787E-01  0.10028749192E+00 -0.50739266192E-02  0.13295246722E+00  0.20186986754E-01 0.  0.
         14    1    1    2    0    0 -0.49348400835E-02 -0.19663473878E-01  0.10290635869E-01  0.22735479722E-01  0.00000000000E+00 0. -1.
     999901    1    3    3    0    0  0.89702276871E-01 -0.80624018042E-01 -0.52167092496E-02  0.88824205306E+00  0.88000000000E+00 0. -1.
        -11    1    4    4    0    0 -0.40267285593E-01  0.41975275684E-01 -0.11579305591E-01  0.59310365845E-01  0.51100000000E-03 0.  1.
         11    1    4    4    0    0 -0.44500151195E-01  0.58312216236E-01  0.65053789719E-02  0.73642101377E-01  0.51100000000E-03 0. -1.
</event>
<event>
 8    1  0.1074844E+005  0.1043930E+01  0.7957747E-01            NaN
         13   -1    0    0    0    0  0.00000000000E+00  0.00000000000E+00  0.74505805969E-08  0.10566000000E+00  0.10566000000E+00 0.  1.
     999900   -1    0    0    0    0 -0.00000000000E+00 -0.00000000000E+00 -0.74505805969E-08  0.93827000000E+00  0.93827000000E+00 0.  1.
     999902    2    1    2    0    0 -0.85459099594E-02  0.18820417335E-01 -0.11884784143E-01  0.10200869973E+01  0.10198083120E+01 0.  0.
     999903    2    3    3    0    0 -0.59821286413E-01 -0.30130600336E-01 -0.11142566534E+00  0.13164242758E+00  0.20678744106E-01 0.  0.
         14    1    1    2    0    0  0.85459099594E-02 -0.18820417335E-01  0.11884784143E-01  0.23843002744E-01  0.00000000000E+00 0.  1.
     999901    1    3    3    0    0  0.51275376453E-01  0.48951017671E-01  0.99540881196E-01  0.88844456968E+00  0.88000000000E+00 0.  1.
        -11    1    4    4    0    0 -0.16159049699E-01 -0.17954560847E-01 -0.47282831566E-01  0.53098101889E-01  0.51100000000E-03 0. -1.
         11    1    4    4    0    0 -0.43662236713E-01 -0.12176039489E-01 -0.64142833773E-01  0.78544325689E-01  0.51100000000E-03 0.  1.
</event>
<event>
 8    1  0.1074844E+005  0.1043930E+01  0.7957747E-01            NaN
         13   -1    0    0    0    0  0.00000000000E+00  0.00000000000E+00  0.74505805969E-08  0.10566000000E+00  0.10566000000E+00 0. -1.
     999900   -1    0    0    0    0 -0.00000000000E+00 -0.00000000000E+00 -0.74505805969E-08  0.93827000000E+00  0.93827000000E+00 0.  1.
     999902    2    1    2    0    0 -0.61244052230E-02 -0.20594664489E-01  0.10558077829E-01  0.10199900428E+01  0.10197090594E+01 0.  0.
     999903    2    3    3    0    0  0.11264546104E+00  0.16031493253E-02  0.62590964546E-01  0.13021116835E+00  0.18594341558E-01 0.  0.
         14    1    1    2    0    0  0.61244052230E-02  0.20594664489E-01 -0.10558077829E-01  0.23939957231E-01  0.00000000000E+00 0.  1.
     999901    1    3    3    0    0 -0.11876986627E+00 -0.22197813814E-01 -0.52032886717E-01  0.88977887442E+00  0.88000000000E+00 0.  1.
        -11    1    4    4    0    0  0.33701462220E-01  0.78199392401E-02  0.14163596287E-01  0.37387278402E-01  0.51100000000E-03 0. -1.
         11    1    4    4    0    0  0.78943998822E-01 -0.62167899148E-02  0.48427368259E-01  0.92823889944E-01  0.51100000000E-03 0.  1.
</event>
<event>
 8    1  0.1074844E+005  0.1043930E+01  0.7957747E-01            NaN
         13   -1    0    0    0    0  0.00000000000E+00  0.00000000000E+00  0.74505805969E-08  0.10566000000E+00  0.10566000000E+00 0.  1.
     999900   -1    0    0    0    0 -0.00000000000E+00 -0.00000000000E+00 -0.74505805969E-08  0.93827000000E+00  0.93827000000E+00 0.  1.
     999902    2    1    2    0    0 -0.23586776071E-01  0.48210833687E-03 -0.21192177764E-02  0.10202433050E+01  0.10199683044E+01 0.  0.
     999903    2    3    3    0    0  0.31088597448E-01  0.12399031069E+00 -0.11764628162E-01  0.12988567664E+00  0.19793546541E-01 0.  0.
         14    1    1    2    0    0  0.23586776071E-01 -0.48210833687E-03  0.21192177764E-02  0.23686694954E-01  0.00000000000E+00 0. -1.
     999901    1    3    3    0    0 -0.54675373519E-01 -0.12350820235E+00  0.96454103855E-02  0.89035762841E+00  0.88000000000E+00 0.  1.
        -11    1    4    4    0    0  0.88347009005E-02  0.67172476008E-01 -0.72126947994E-04  0.67752932012E-01  0.51100000000E-03 0.  1.
         11    1    4    4    0    0  0.22253896548E-01  0.56817834681E-01 -0.11692501214E-01  0.62132744628E-01  0.51100000000E-03 0. -1.
</event>
<event>
 8    1  0.1074844E+005  0.1043930E+01  0.7957747E-01            NaN
         13   -1    0    0    0    0  0.00000000000E+00  0.00000000000E+00  0.74505805969E-08  0.10566000000E+00  0.10566000000E+00 0.  1.
     999900   -1    0    0    0    0 -0.00000000000E+00 -0.00000000000E+00 -0.74505805969E-08  0.93827000000E+00  0.93827000000E+00 0.  1.
     999902    2    1    2    0    0  0.32610799273E-02 -0.20984167238E-01  0.11216382082E-01  0.10199138150E+01  0.10196310180E+01 0.  0.
     999903    2    3    3    0    0  0.63954638139E-01 -0.82924980078E-01 -0.76706396027E-01  0.13129084248E+00  0.19663826362E-01 0.  0.
         14    1    1    2    0    0 -0.32610799273E-02  0.20984167238E-01 -0.11216382082E-01  0.24016185042E-01  0.00000000000E+00 0. -1.
     999901    1    3    3    0    0 -0.60693558212E-01  0.61940812840E-01  0.87922778110E-01  0.88862297248E+00  0.88000000000E+00 0. -1.
        -11    1    4    4    0    0  0.16887077938E-01 -0.19572569307E-01 -0.92312831890E-02  0.27454263437E-01  0.51100000000E-03 0.  1.
         11    1    4    4    0    0  0.47067560201E-01 -0.63352410771E-01 -0.67475112838E-01  0.10383657904E+00  0.51100000000E-03 0. -1.
</event>
<event>
 8    1  0.1074844E+005  0.1043930E+01  0.7957747E-01            NaN
         13   -1    0    0    0    0  0.00000000000E+00  0.00000000000E+00  0.74505805969E-08  0.10566000000E+00  0.10566000000E+00 0.  1.
     999900   -1    0    0    0    0 -0.00000000000E+00 -0.00000000000E+00 -0.74505805969E-08  0.93827000000E+00  0.93827000000E+00 0. -1.
     999902    2    1    2    0    0 -0.18141950723E-01 -0.51775032826E-02 -0.13649031390E-01  0.10206441035E+01  0.10203784362E+01 0.  0.
     999903    2    3    3    0    0  0.76437517058E-01  0.17663408516E-01  0.99263103027E-01  0.12811055622E+00  0.20111215254E-01 0.  0.
         14    1    1    2    0    0  0.18141950723E-01  0.51775032826E-02  0.13649031390E-01  0.23285896465E-01  0.00000000000E+00 0. -1.
     999901    1    3    3    0    0 -0.94579467781E-01 -0.22840911798E-01 -0.11291213442E+00  0.89253354731E+00  0.88000000000E+00 0. -1.
        -11    1    4    4    0    0 -0.26392415122E-03 -0.45632694893E-03  0.58270161643E-02  0.58730851025E-02  0.51100000000E-03 0.  1.
         11    1    4    4    0    0  0.76701441210E-01  0.18119735465E-01  0.93436086863E-01  0.12223747112E+00  0.51100000000E-03 0. -1.
</event>
<event>
 8    1  0.1074844E+005  0.1043930E+01  0.7957747E-01            NaN
         13   -1    0    0    0    0  0.00000000000E+00  0.00000000000E+00  0.74505805969E-08  0.10566000000E+00  0.10566000000E+00 0.  1.
     999900   -1    0    0    0    0 -0.00000000000E+00 -0.00000000000E+00 -0.74505805969E-08  0.93827000000E+00  0.93827000000E+00 0. -1.
     999902    2    1    2    0    0 -0.12649797603E-01  0.17045095528E-01  0.11923802528E-01  0.10195839587E+01  0.10192932449E+01 0.  0.
     999903    2    3    3    0    0  0.79762521486E-01  0.14854791306E-02 -0.97353659208E-01  0.12788686773E+00  0.22650595879E-01 0.  0.
         14    1    1    2    0    0  0.12649797603E-01 -0.17045095528E-01 -0.11923802528E-01  0.24346041314E-01  0.00000000000E+00 0.  1.
     999901    1    3    3    0    0 -0.92412319089E-01  0.15559616398E-01  0.10927746174E+00  0.89169709096E+00  0.88000000000E+00 0.  1.
        -11    1    4    4    0    0  0.78749127192E-01  0.96540802237E-03 -0.86581538873E-01  0.11704264625E+00  0.51100000000E-03 0.  1.
         11    1    4    4    0    0  0.10133942933E-02  0.52007110824E-03 -0.10772120335E-01  0.10844221478E-01  0.51100000000E-03 0. -1.
</event>
<event>
 8    1  0.1074844E+005  0.1043930E+01  0.7957747E-01            NaN
         13   -1    0    0    0    0  0.00000000000E+00  0.00000000000E+00  0.74505805969E-08  0.10566000000E+00  0.10566000000E+00 0.  1.
     999900   -1    0    0    0    0 -0.00000000000E+00 -0.00000000000E+00 -0.74505805969E-08  0.93827000000E+00  0.93827000000E+00 0.  1.
     999902    2    1    2    0    0 -0.24491834370E-01 -0.81184943752E-03 -0.27714925516E-02  0.10192684870E+01  0.10189700969E+01 0.  0.
     999903    2    3    3    0    0  0.31080248712E-01 -0.34618142179E-01  0.11816358783E+00  0.12861905235E+00  0.20391898178E-01 0.  0.
         14    1    1    2    0    0  0.24491834370E-01  0.81184943752E-03  0.27714925516E-02  0.24661512956E-01  0.00000000000E+00 0.  1.
     999901    1    3    3    0    0 -0.55572083082E-01  0.33806292742E-01 -0.12093508038E+00  0.89064943469E+00  0.88000000000E+00 0.  1.
        -11    1    4    4    0    0  0.66718770557E-02 -0.13745446867E-01  0.62598554577E-01  0.64438275964E-01  0.51100000000E-03 0.  1.
         11    1    4    4    0    0  0.24408371656E-01 -0.20872695313E-01  0.55565033254E-01  0.64180776390E-01  0.51100000000E-03 0. -1.
</event>
<event>
 8    1  0.1074844E+005  0.1043930E+01  0.7957747E-01            NaN
         13   -1    0    0    0    0  0.00000000000E+00  0.00000000000E+00  0.74505805969E-08  0.10566000000E+00  0.10566000000E+00 0.  1.
     999900   -1    0    0    0    0 -0.00000000000E+00 -0.00000000000E+00 -0.74505805969E-08  0.93827000000E+00  0.93827000000E+00 0.  1.
     999902    2    1    2    0    0  0.31116230387E-03 -0.17887149476E-02 -0.24286998827E-01  0.10195752338E+01  0.10192843091E+01 0.  0.
     999903    2    3    3    0    0  0.88398959153E-01 -0.50318703461E-01  0.75613609889E-01  0.12823088322E+00  0.19478026452E-01 0.  0.
         14    1    1    2    0    0 -0.31116230387E-03  0.17887149476E-02  0.24286998827E-01  0.24354766169E-01  0.00000000000E+00 0.  1.
     999901    1    3    3    0    0 -0.88087796849E-01  0.48529988514E-01 -0.99900608715E-01  0.89134435061E+00  0.88000000000E+00 0.  1.
        -11    1    4    4    0    0  0.41663855471E-01 -0.27297552295E-01  0.48390546834E-01  0.69447385536E-01  0.51100000000E-03 0. -1.
         11    1    4    4    0    0  0.46735103682E-01 -0.23021151167E-01  0.27223063055E-01  0.58783497687E-01  0.51100000000E-03 0.  1.
</event>
<event>
 8    1  0.1074844E+005  0.1043930E+01  0.7957747E-01            NaN
         13   -1    0    0    0    0  0.00000000000E+00  0.00000000000E+00  0.74505805969E-08  0.10566000000E+00  0.10566000000E+00 0.  1.
     999900   -1    0    0    0    0 -0.00000000000E+00 -0.00000000000E+00 -0.74505805969E-08  0.93827000000E+00  0.93827000000E+00 0.  1.
     999902    2    1    2    0    0 -0.18937730304E-01 -0.62647161268E-02  0.14044153858E-01  0.10195348662E+01  0.10192429645E+01 0.  0.
     999903    2    3    3    0    0  0.77842134121E-01  0.53113735387E-02 -0.97972733707E-01  0.12709543903E+00  0.21609848177E-01 0.  0.
         14    1    1    2    0    0  0.18937730304E-01  0.62647161268E-02 -0.14044153858E-01  0.24395133835E-01  0.00000000000E+00 0. -1.
     999901    1    3    3    0    0 -0.96779864425E-01 -0.11576089666E-01  0.11201688756E+00  0.89243942714E+00  0.88000000000E+00 0. -1.
        -11    1    4    4    0    0  0.64591597466E-01 -0.22239555279E-02 -0.86652816490E-01  0.10810176765E+00  0.51100000000E-03 0. -1.
         11    1    4    4    0    0  0.13250536654E-01  0.75353290666E-02 -0.11319917217E-01  0.18993671382E-01  0.51100000000E-03 0.  1.
</event>
<event>
 8    1  0.1074844E+005  0.1043930E+01  0.7957747E-01            NaN
         13   -1    0    0    0    0  0.00000000000E+00  0.00000000000E+00  0.74505805969E-08  0.10566000000E+00  0.10566000000E+00 0.  1.
     999900   -1    0    0    0    0 -0.00000000000E+00 -0.00000000000E+00 -0.74505805969E-08  0.93827000000E+00  0.93827000000E+00 0.  1.
     999902    2    1    2    0    0  0.23006957584E-01  0.32656792019E-02  0.12872610420E-01  0.10173651951E+01  0.10170183142E+01 0.  0.
     999903    2    3    3    0    0  0.11957902810E+00 -0.11307113052E-01  0.48934753950E-01  0.13122806734E+00  0.19980008664E-01 0.  0.
         14    1    1    2    0    0 -0.23006957584E-01 -0.32656792019E-02 -0.12872610420E-01  0.26564804854E-01  0.00000000000E+00 0.  1.
     999901    1    3    3    0    0 -0.96572070519E-01  0.14572792254E-01 -0.36062143530E-01  0.88613712780E+00  0.88000000000E+00 0. -1.
        -11    1    4    4    0    0  0.74532554343E-01 -0.16590755523E-01  0.28945887903E-01  0.81660763976E-01  0.51100000000E-03 0.  1.
         11    1    4    4    0    0  0.45046473760E-01  0.52836424709E-02  0.19988866047E-01  0.49567303365E-01  0.51100000000E-03 0. -1.
</event>
<event>
 8    1  0.1074844E+005  0.1043930E+01  0.7957747E-01            NaN
         13   -1    0    0    0    0  0.00000000000E+00  0.00000000000E+00  0.74505805969E-08  0.10566000000E+00  0.10566000000E+00 0. -1.
     999900   -1    0    0    0    0 -0.00000000000E+00 -0.00000000000E+00 -0.74505805969E-08  0.93827000000E+00  0.93827000000E+00 0.  1.
     999902    2    1    2    0    0 -0.15752023283E-01 -0.46547924754E-03 -0.17632848476E-01  0.10202813160E+01  0.10200072076E+01 0.  0.
     999903    2    3    3    0    0 -0.14710373664E-01  0.86880633501E-01 -0.96525220283E-01  0.13244437448E+00  0.21441889121E-01 0.  0.
         14    1    1    2    0    0  0.15752023283E-01  0.46547924754E-03  0.17632848476E-01  0.23648683976E-01  0.00000000000E+00 0. -1.
     999901    1    3    3    0    0 -0.10416496190E-02 -0.87346112748E-01  0.78892371807E-01  0.88783694155E+00  0.88000000000E+00 0.  1.
        -11    1    4    4    0    0  0.40908973241E-02  0.10000444657E-01 -0.17680063279E-01  0.20726555257E-01  0.51100000000E-03 0. -1.
         11    1    4    4    0    0 -0.18801270988E-01  0.76880188843E-01 -0.78845157004E-01  0.11171781922E+00  0.51100000000E-03 0.  1.
</event>
<event>
 8    1  0.1074844E+005  0.1043930E+01  0.7957747E-01            NaN
         13   -1    0    0    0    0  0.00000000000E+00  0.00000000000E+00  0.74505805969E-08  0.10566000000E+00  0.10566000000E+00 0. -1.
     999900   -1    0    0    0    0 -0.00000000000E+00 -0.00000000000E+00 -0.74505805969E-08  0.93827000000E+00  0.93827000000E+00 0.  1.
     999902    2    1    2    0    0 -0.10340966842E-01  0.14103945007E-01 -0.14482244016E-01  0.10212233434E+01  0.10209708737E+01 0.  0.
     999903    2    3    3    0    0  0.81082196166E-01  0.62595288442E-01 -0.79670279232E-01  0.13276451770E+00  0.28045874847E-01 0.  0.
         14    1    1    2    0    0  0.10340966842E-01 -0.14103945007E-01  0.14482244016E-01  0.22706656551E-01  0.00000000000E+00 0. -1.
     999901    1    3    3    0    0 -0.91423163008E-01 -0.48491343435E-01  0.65188035216E-01  0.88845882575E+00  0.88000000000E+00 0. -1.
        -11    1    4    4    0    0  0.27179448995E-01  0.35633182092E-01 -0.43579633888E-01  0.62513132416E-01  0.51100000000E-03 0. -1.
         11    1    4    4    0    0  0.53902747171E-01  0.26962106350E-01 -0.36090645343E-01  0.70251385280E-01  0.51100000000E-03 0.  1.
</event>
<event>
 8    1  0.1074844E+005  0.1043930E+01  0.7957747E-01            NaN
         13   -1    0    0    0    0  0.00000000000E+00  0.00000000000E+00  0.74505805969E-08  0.10566000000E+00  0.10566000000E+00 0.  1.
     999900   -1    0    0    0    0 -0.00000000000E+00 -0.00000000000E+00 -0.74505805969E-08  0.93827000000E+00  0.93827000000E+00 0. -1.
     999902    2    1    2    0    0 -0.15650586374E-02 -0.35914337596E-02 -0.22930669842E-01  0.10206670805E+01  0.10204019432E+01 0.  0.
     999903    2    3    3    0    0 -0.36688721717E-01  0.31683134781E-01 -0.12293998961E+00  0.13360460752E+00  0.19648582010E-01 0.  0.
         14    1    1    2    0    0  0.15650586374E-02  0.35914337596E-02  0.22930669842E-01  0.23262919516E-01  0.00000000000E+00 0.  1.
     999901    1    3    3    0    0  0.35123663080E-01 -0.35274568540E-01  0.10000931977E+00  0.88706247296E+00  0.88000000000E+00 0.  1.
        -11    1    4    4    0    0 -0.19915376805E-01  0.12444702447E-01 -0.35930694005E-01  0.42927482397E-01  0.51100000000E-03 0. -1.
         11    1    4    4    0    0 -0.16773344913E-01  0.19238432333E-01 -0.87009295607E-01  0.90677125127E-01  0.51100000000E-03 0.  1.
</event>
<event>
 8    1  0.1074844E+005  0.1043930E+01  0.7957747E-01            NaN
         13   -1    0    0    0    0  0.00000000000E+00  0.00000000000E+00  0.74505805969E-08  0.10566000000E+00  0.10566000000E+00 0.  1.
     999900   -1    0    0    0    0 -0.00000000000E+00 -0.00000000000E+00 -0.74505805969E-08  0.93827000000E+00  0.93827000000E+00 0. -1.
     999902    2    1    2    0    0  0.13036451301E-01 -0.61131566945E-02 -0.18796254832E-01  0.10202526069E+01  0.10199778248E+01 0.  0.
     999903    2    3    3    0    0 -0.94538107081E-02  0.15250748391E-01 -0.12983218404E+00  0.13273291367E+00  0.20968321263E-01 0.  0.
         14    1    1    2    0    0 -0.13036451301E-01  0.61131566945E-02  0.18796254832E-01  0.23677393079E-01  0.00000000000E+00 0.  1.
     999901    1    3    3    0    0  0.22490262009E-01 -0.21363905086E-01  0.11103592921E+00  0.88751969325E+00  0.88000000000E+00 0.  1.
        -11    1    4    4    0    0 -0.94948070475E-03  0.17702631242E-01 -0.10176411500E+00  0.10329801977E+00  0.51100000000E-03 0. -1.
         11    1    4    4    0    0 -0.85043300034E-02 -0.24518828504E-02 -0.28068069042E-01  0.29434893902E-01  0.51100000000E-03 0.  1.
</event>
<event>
 8    1  0.1074844E+005  0.1043930E+01  0.7957747E-01            NaN
         13   -1    0    0    0    0  0.00000000000E+00  0.00000000000E+00  0.74505805969E-08  0.10566000000E+00  0.10566000000E+00 0. -1.
     999900   -1    0    0    0    0 -0.00000000000E+00 -0.00000000000E+00 -0.74505805969E-08  0.93827000000E+00  0.93827000000E+00 0.  1.
     999902    2    1    2    0    0 -0.91350456697E-02 -0.19400885488E-01  0.88725692272E-02  0.10207229773E+01  0.10204591273E+01 0.  0.
     999903    2    3    3    0    0  0.38510751506E-01 -0.12043888440E+00 -0.33837387428E-01  0.13263348880E+00  0.21402586446E-01 0.  0.
         14    1    1    2    0    0  0.91350456697E-02  0.19400885488E-01 -0.88725692272E-02  0.23207022683E-01  0.00000000000E+00 0.  1.
     999901    1    3    3    0    0 -0.47645797176E-01  0.10103799891E+00  0.42709956655E-01  0.88808948851E+00  0.88000000000E+00 0.  1.
        -11    1    4    4    0    0  0.13480242059E-01 -0.74975618268E-01 -0.23411911924E-01  0.79695915840E-01  0.51100000000E-03 0.  1.
         11    1    4    4    0    0  0.25030509447E-01 -0.45463266133E-01 -0.10425475504E-01  0.52937572963E-01  0.51100000000E-03 0. -1.
</event>
<event>
 8    1  0.1074844E+005  0.1043930E+01  0.7957747E-01            NaN
         13   -1    0    0    0    0  0.00000000000E+00  0.00000000000E+00  0.74505805969E-08  0.10566000000E+00  0.10566000000E+00 0. -1.
     999900   -1    0    0    0    0 -0.00000000000E+00 -0.00000000000E+00 -0.74505805969E-08  0.93827000000E+00  0.93827000000E+00 0.  1.
     999902    2    1    2    0    0  0.11481711265E-01 -0.17057677889E-01 -0.11767363649E-01  0.10202389697E+01  0.10199638672E+01 0.  0.
     999903    2    3    3    0    0  0.21576599462E-01 -0.98218974299E-02  0.12557003976E+00  0.12950004856E+00  0.20985909034E-01 0.  0.
         14    1    1    2    0    0 -0.11481711265E-01  0.17057677889E-01  0.11767363649E-01  0.23691030281E-01  0.00000000000E+00 0.  1.
     999901    1    3    3    0    0 -0.10094888198E-01 -0.72357804588E-02 -0.13733740341E+00  0.89073892116E+00  0.88000000000E+00 0.  1.
        -11    1    4    4    0    0  0.65262986977E-02 -0.12504606539E-01  0.36648957044E-01  0.39272954215E-01  0.51100000000E-03 0.  1.
         11    1    4    4    0    0  0.15050300765E-01  0.26827091095E-02  0.88921082720E-01  0.90227094347E-01  0.51100000000E-03 0. -1.
</event>
<event>
 8    1  0.1074844E+005  0.1043930E+01  0.7957747E-01            NaN
         13   -1    0    0    0    0  0.00000000000E+00  0.00000000000E+00  0.74505805969E-08  0.10566000000E+00  0.10566000000E+00 0.  1.
     999900   -1    0    0    0    0 -0.00000000000E+00 -0.00000000000E+00 -0.74505805969E-08  0.93827000000E+00  0.93827000000E+00 0.  1.
     999902    2    1    2    0    0 -0.76140444259E-02  0.19346715423E-01 -0.10348839407E-01  0.10207057121E+01  0.10204414649E+01 0.  0.
     999903    2    3    3    0    0 -0.11441607710E+00  0.61606212214E-01  0.14679056804E-01  0.13288876318E+00  0.23613229062E-01 0.  0.
         14    1    1    2    0    0  0.76140444259E-02 -0.19346715423E-01  0.10348839407E-01  0.23224287874E-01  0.00000000000E+00 0.  1.
     999901    1    3    3    0    0  0.10680203268E+00 -0.42259496791E-01 -0.25027896212E-01  0.88781694895E+00  0.88000000000E+00 0. -1.
        -11    1    4    4    0    0 -0.69957497068E-01  0.44667747222E-01 -0.31357153026E-03  0.83003725736E-01  0.51100000000E-03 0.  1.
         11    1    4    4    0    0 -0.44458580035E-01  0.16938464992E-01  0.14992628335E-01  0.49885037440E-01  0.51100000000E-03 0. -1.
</event>
<event>
 8    1  0.1074844E+005  0.1043930E+01  0.7957747E-01            NaN
         13   -1    0    0    0    0  0.00000000000E+00  0.00000000000E+00  0.74505805969E-08  0.10566000000E+00  0.10566000000E+00 0. -1.
     999900   -1    0    0    0    0 -0.00000000000E+00 -0.00000000000E+00 -0.74505805969E-08  0.93827000000E+00  0.93827000000E+00 0. -1.
     999902    2    1    2    0    0  0.28479141025E-02  0.12472723021E-01 -0.19985002316E-01  0.10202006985E+01  0.10199246959E+01 0.  0.
     999903    2    3    3    0    0 -0.19693225129E-01 -0.10734694971E+00  0.63701655255E-01  0.12786202195E+00  0.19483455720E-01 0.  0.
         14    1    1    2    0    0 -0.28479141025E-02 -0.12472723021E-01  0.19985002316E-01  0.23729301546E-01  0.00000000000E+00 0. -1.
     999901    1    3    3    0    0  0.22541139232E-01  0.11981967273E+00 -0.83686657571E-01  0.89233867650E+00  0.88000000000E+00 0.  1.
        -11    1    4    4    0    0 -0.16123359931E-01 -0.38464966182E-01  0.27529242684E-01  0.49976361238E-01  0.51100000000E-03 0.  1.
         11    1    4    4    0    0 -0.35698651987E-02 -0.68881983527E-01  0.36172412571E-01  0.77885660711E-01  0.51100000000E-03 0. -1.
</event>
<event>
 8    1  0.1074844E+005  0.1043930E+01  0.7957747E-01            NaN
         13   -1    0    0    0    0  0.00000000000E+00  0.00000000000E+00  0.74505805969E-08  0.10566000000E+00  0.10566000000E+00 0.  1.
     999900   -1    0    0    0    0 -0.00000000000E+00 -0.00000000000E+00 -0.74505805969E-08  0.93827000000E+00  0.93827000000E+00 0. -1.
     999902    2    1    2    0    0 -0.19983657346E-02 -0.22256171245E-01 -0.80021762089E-02  0.10201946793E+01  0.10199185351E+01 0.  0.
     999903    2    3    3    0    0  0.11106221900E+00  0.52913973449E-01 -0.34890317725E-01  0.12937695462E+00  0.19655967049E-01 0.  0.
         14    1    1    2    0    0  0.19983657346E-02  0.22256171245E-01  0.80021762089E-02  0.23735320688E-01  0.00000000000E+00 0.  1.
     999901    1    3    3    0    0 -0.11306058473E+00 -0.75170144693E-01  0.26888141516E-01  0.89081772469E+00  0.88000000000E+00 0.  1.
        -11    1    4    4    0    0  0.91872826740E-01  0.35247809666E-01 -0.25542107919E-01  0.10166456992E+00  0.51100000000E-03 0.  1.
         11    1    4    4    0    0  0.19189392258E-01  0.17666163782E-01 -0.93482098057E-02  0.27712384697E-01  0.51100000000E-03 0. -1.
</event>
<event>
 8    1  0.1074844E+005  0.1043930E+01  0.7957747E-01            NaN
         13   -1    0    0    0    0  0.00000000000E+00  0.00000000000E+00  0.74505805969E-08  0.10566000000E+00  0.10566000000E+00 0.  1.
     999900   -1    0    0    0    0 -0.00000000000E+00 -0.00000000000E+00 -0.74505805969E-08  0.93827000000E+00  0.93827000000E+00 0. -1.
     999902    2    1    2    0    0 -0.15088571303E-01  0.14920031679E-01 -0.95253743250E-02  0.10206704840E+01  0.10204054252E+01 0.  0.
     999903    2    3    3    0    0 -0.94352388738E-01 -0.21671158417E-01  0.86528448578E-01  0.13114926173E+00  0.18464670896E-01 0.  0.
         14    1    1    2    0    0  0.15088571303E-01 -0.14920031679E-01  0.95253743250E-02  0.23259516016E-01  0.00000000000E+00 0.  1.
     999901    1    3    3    0    0  0.79263817435E-01  0.36591190096E-01 -0.96053822903E-01  0.88952122225E+00  0.88000000000E+00 0.  1.
        -11    1    4    4    0    0 -0.15093281472E-01  0.28610110554E-02  0.10514836837E-01  0.18622981624E-01  0.51100000000E-03 0. -1.
         11    1    4    4    0    0 -0.79259107266E-01 -0.24532169472E-01  0.76013611740E-01  0.11252628011E+00  0.51100000000E-03 0.  1.
</event>
<event>
 8    1  0.1074844E+005  0.1043930E+01  0.7957747E-01            NaN
         13   -1    0    0    0    0  0.00000000000E+00  0.00000000000E+00  0.74505805969E-08  0.10566000000E+00  0.10566000000E+00 0.  1.
     999900   -1    0    0    0    0 -0.00000000000E+00 -0.00000000000E+00 -0.74505805969E-08  0.93827000000E+00  0.93827000000E+00 0.  1.
     999902    2    1    2    0    0 -0.77516360838E-02  0.68671962182E-02 -0.21491547894E-01  0.10200734940E+01  0.10197944893E+01 0.  0.
     999903    2    3    3    0    0  0.82591000357E-01  0.97687348849E-01 -0.18507950631E-01  0.13079345157E+00  0.20007280452E-01 0.  0.
         14    1    1    2    0    0  0.77516360838E-02 -0.68671962182E-02  0.21491547894E-01  0.23856505963E-01  0.00000000000E+00 0.  1.
     999901    1    3    3    0    0 -0.90342636441E-01 -0.90820152631E-01 -0.29835972636E-02  0.88928004247E+00  0.88000000000E+00 0. -1.
        -11    1    4    4    0    0  0.19312486736E-01  0.37252496691E-01 -0.67653312261E-02  0.42505899369E-01  0.51100000000E-03 0. -1.
         11    1    4    4    0    0  0.63278513621E-01  0.60434852159E-01 -0.11742619404E-01  0.88287552198E-01  0.51100000000E-03 0.  1.
</event>
<event>
 8    1  0.1074844E+005  0.1043930E+01  0.7957747E-01            NaN
         13   -1    0    0    0    0  0.00000000000E+00  0.00000000000E+00  0.74505805969E-08  0.10566000000E+00  0.10566000000E+00 0.  1.
     999900   -1    0    0    0    0 -0.00000000000E+00 -0.00000000000E+00 -0.74505805969E-08  0.93827000000E+00  0.93827000000E+00 0. -1.
     999902    2    1    2    0    0 -0.11972866280E-01  0.19450181858E-01 -0.43322464646E-03  0.10210860340E+01  0.10208304668E+01 0.  0.
     999903    2    3    3    0    0 -0.12390986099E+00 -0.41021776806E-01  0.60979896700E-02  0.13191259455E+00  0.18091636232E-01 0.  0.
         14    1    1    2    0    0  0.11972866280E-01 -0.19450181858E-01  0.43322464646E-03  0.22843966049E-01  0.00000000000E+00 0.  1.
     999901    1    3    3    0    0  0.11193699471E+00  0.60471958663E-01 -0.65312143165E-02  0.88917343940E+00  0.88000000000E+00 0. -1.
        -11    1    4    4    0    0 -0.59786064611E-01 -0.16964263294E-01  0.11524657854E-01  0.63207899905E-01  0.51100000000E-03 0.  1.
         11    1    4    4    0    0 -0.64123796377E-01 -0.24057513511E-01 -0.54266681844E-02  0.68704694648E-01  0.51100000000E-03 0. -1.
</event>
<event>
 8    1  0.1074844E+005  0.1043930E+01  0.7957747E-01            NaN
         13   -1    0    0    0    0  0.00000000000E+00  0.00000000000E+00  0.74505805969E-08  0.10566000000E+00  0.10566000000E+00 0. -1.
     999900   -1    0    0    0    0 -0.00000000000E+00 -0.00000000000E+00 -0.74505805969E-08  0.93827000000E+00  0.93827000000E+00 0. -1.
     999902    2    1    2    0    0 -0.49272422413E-02 -0.56036880140E-02 -0.22803174747E-01  0.10199370049E+01  0.10196547603E+01 0.  0.
     999903    2    3    3    0    0 -0.66766156699E-01 -0.65679477478E-01 -0.92233064410E-01  0.13300202340E+00  0.20275271057E-01 0.  0.
         14    1    1    2    0    0  0.49272422413E-02  0.56036880140E-02  0.22803174747E-01  0.23992995103E-01  0.00000000000E+00 0. -1.
     999901    1    3    3    0    0  0.61838914458E-01  0.60075789464E-01  0.69429889662E-01  0.88693498150E+00  0.88000000000E+00 0.  1.
        -11    1    4    4    0    0 -0.30701583220E-01 -0.16567349026E-01 -0.33996133034E-01  0.48714088806E-01  0.51100000000E-03 0.  1.
         11    1    4    4    0    0 -0.36064573479E-01 -0.49112128452E-01 -0.58236931376E-01  0.84287934596E-01  0.51100000000E-03 0. -1.
</event>
<event>
 8    1  0.1074844E+005  0.1043930E+01  0.7957747E-01            NaN
         13   -1    0    0    0    0  0.00000000000E+00  0.00000000000E+00  0.74505805969E-08  0.10566000000E+00  0.10566000000E+00 0. -1.
     999900   -1    0    0    0    0 -0.00000000000E+00 -0.00000000000E+00 -0.74505805969E-08  0.93827000000E+00  0.93827000000E+00 0.  1.
     999902    2    1    2    0    0  0.14771525467E-01 -0.18172090573E-01  0.26361170066E-02  0.10203636691E+01  0.10200914886E+01 0.  0.
     999903    2    3    3    0    0  0.68525298589E-01  0.47507685518E-01 -0.98421962575E-01  0.13052321340E+00  0.19918076923E-01 0.  0.
         14    1    1    2    0    0 -0.14771525467E-01  0.18172090573E-01 -0.26361170066E-02  0.23566330926E-01  0.00000000000E+00 0.  1.
     999901    1    3    3    0    0 -0.53753773122E-01 -0.65679776091E-01  0.10105807958E+00  0.88984045568E+00  0.88000000000E+00 0. -1.
        -11    1    4    4    0    0  0.75203464969E-02 -0.12272444406E-02 -0.93107305378E-02  0.12042116280E-01  0.51100000000E-03 0. -1.
         11    1    4    4    0    0  0.61004952092E-01  0.48734929958E-01 -0.89111232037E-01  0.11848109712E+00  0.51100000000E-03 0.  1.
</event>
<event>
 8    1  0.1074844E+005  0.1043930E+01  0.7957747E-01            NaN
         13   -1    0    0    0    0  0.00000000000E+00  0.00000000000E+00  0.74505805969E-08  0.10566000000E+00  0.10566000000E+00 0. -1.
     999900   -1    0    0    0    0 -0.00000000000E+00 -0.00000000000E+00 -0.74505805969E-08  0.93827000000E+00  0.93827000000E+00 0.  1.
     999902    2    1    2    0    0 -0.55373302312E-02  0.18713019017E-01  0.11705419916E-01  0.10211735512E+01  0.10209199605E+01 0.  0.
     999903    2    3    3    0    0  0.79702566460E-01  0.71125926513E-01 -0.73880086676E-01  0.13137703974E+00  0.19755071265E-01 0.  0.
         14    1    1    2    0    0  0.55373302312E-02 -0.18713019017E-01 -0.11705419916E-01  0.22756448806E-01  0.00000000000E+00 0.  1.
     999901    1    3    3    0    0 -0.85239896691E-01 -0.52412907495E-01  0.85585506592E-01  0.88979651146E+00  0.88000000000E+00 0. -1.
        -11    1    4    4    0    0  0.39155956608E-01  0.42870523638E-01 -0.30348350580E-01  0.65516060923E-01  0.51100000000E-03 0. -1.
         11    1    4    4    0    0  0.40546609852E-01  0.28255402874E-01 -0.43531736096E-01  0.65860978816E-01  0.51100000000E-03 0.  1.
</event>
<event>
 8    1  0.1074844E+005  0.1043930E+01  0.7957747E-01            NaN
         13   -1    0    0    0    0  0.00000000000E+00  0.00000000000E+00  0.74505805969E-08  0.10566000000E+00  0.10566000000E+00 0. -1.
     999900   -1    0    0    0    0 -0.00000000000E+00 -0.00000000000E+00 -0.74505805969E-08  0.93827000000E+00  0.93827000000E+00 0. -1.
     999902    2    1    2    0    0  0.19774427240E-02 -0.49298517056E-02  0.23054726257E-01  0.10202712993E+01  0.10199969559E+01 0.  0.
     999903    2    3    3    0    0 -0.64911577688E-01  0.10038476375E+00  0.49762750919E-01  0.13107018149E+00  0.20308800687E-01 0.  0.
         14    1    1    2    0    0 -0.19774427240E-02  0.49298517056E-02 -0.23054726257E-01  0.23658700732E-01  0.00000000000E+00 0.  1.
     999901    1    3    3    0    0  0.66889020412E-01 -0.10531461545E+00 -0.26708024662E-01  0.88920111778E+00  0.88000000000E+00 0.  1.
        -11    1    4    4    0    0 -0.44666646603E-01  0.81821001692E-01  0.43611893571E-01  0.10291765649E+00  0.51100000000E-03 0.  1.
         11    1    4    4    0    0 -0.20244931085E-01  0.18563762057E-01  0.61508573482E-02  0.28152524993E-01  0.51100000000E-03 0. -1.
</event>
<event>
 8    1  0.1074844E+005  0.1043930E+01  0.7957747E-01            NaN
         13   -1    0    0    0    0  0.00000000000E+00  0.00000000000E+00  0.74505805969E-08  0.10566000000E+00  0.10566000000E+00 0.  1.
     999900   -1    0    0    0    0 -0.00000000000E+00 -0.00000000000E+00 -0.74505805969E-08  0.93827000000E+00  0.93827000000E+00 0. -1.
     999902    2    1    2    0    0  0.20527634154E-01 -0.34596983512E-02 -0.12481142523E-01  0.10196579544E+01  0.10193690263E+01 0.  0.
     999903    2    3    3    0    0 -0.88707040892E-01 -0.68089487369E-01  0.58278681758E-01  0.12774081895E+00  0.20400850097E-01 0.  0.
         14    1    1    2    0    0 -0.20527634154E-01  0.34596983512E-02  0.12481142523E-01  0.24272045553E-01  0.00000000000E+00 0.  1.
     999901    1    3    3    0    0  0.10923467505E+00  0.64629789018E-01 -0.70759824281E-01  0.89191713550E+00  0.88000000000E+00 0.  1.
        -11    1    4    4    0    0 -0.40097757006E-01 -0.23695272192E-01  0.14909847943E-01  0.48906653207E-01  0.51100000000E-03 0. -1.
         11    1    4    4    0    0 -0.48609283886E-01 -0.44394215177E-01  0.43368833814E-01  0.78834165744E-01  0.51100000000E-03 0.  1.
</event>
<event>
 8    1  0.1074844E+005  0.1043930E+01  0.7957747E-01            NaN
         13   -1    0    0    0    0  0.00000000000E+00  0.00000000000E+00  0.74505805969E-08  0.10566000000E+00  0.10566000000E+00 0. -1.
     999900   -1    0    0    0    0 -0.00000000000E+00 -0.00000000000E+00 -0.74505805969E-08  0.93827000000E+00  0.93827000000E+00 0. -1.
     999902    2    1    2    0    0 -0.18041401873E-01  0.21367329265E-02  0.15084893813E-01  0.10203161941E+01  0.10200429030E+01 0.  0.
     999903    2    3    3    0    0 -0.80020111826E-01 -0.77962032761E-01  0.68706991235E-01  0.13288591394E+00  0.21370976381E-01 0.  0.
         14    1    1    2    0    0  0.18041401873E-01 -0.21367329265E-02 -0.15084893813E-01  0.23613805930E-01  0.00000000000E+00 0. -1.
     999901    1    3    3    0    0  0.61978709953E-01  0.80098765687E-01 -0.53622097422E-01  0.88743028013E+00  0.88000000000E+00 0. -1.
        -11    1    4    4    0    0 -0.49698842314E-01 -0.48602971389E-01  0.30351534734E-01  0.75853151133E-01  0.51100000000E-03 0.  1.
         11    1    4    4    0    0 -0.30321269512E-01 -0.29359061372E-01  0.38355456501E-01  0.57032762811E-01  0.51100000000E-03 0. -1.
</event>
<event>
 8    1  0.1074844E+005  0.1043930E+01  0.7957747E-01            NaN
         13   -1    0    0    0    0  0.00000000000E+00  0.00000000000E+00  0.74505805969E-08  0.10566000000E+00  0.10566000000E+00 0.  1.
     999900   -1    0    0    0    0 -0.00000000000E+00 -0.00000000000E+00 -0.74505805969E-08  0.93827000000E+00  0.93827000000E+00 0.  1.
     999902    2    1    2    0    0  0.12340851840E-01 -0.16600924268E-01  0.42424785862E-02  0.10228139887E+01  0.10225959952E+01 0.  0.
     999903    2    3    3    0    0 -0.10397861080E+00  0.39869051178E-01  0.66428308839E-01  0.13119402869E+00  0.19951446147E-01 0.  0.
         14    1    1    2    0    0 -0.12340851840E-01  0.16600924268E-01 -0.42424785862E-02  0.21116011348E-01  0.00000000000E+00 0.  1.
     999901    1    3    3    0    0  0.11631946264E+00 -0.56469975446E-01 -0.62185830253E-01  0.89161995996E+00  0.88000000000E+00 0.  1.
        -11    1    4    4    0    0 -0.73247880350E-01  0.29745864019E-01  0.57080805676E-01  0.97511783389E-01  0.51100000000E-03 0.  1.
         11    1    4    4    0    0 -0.30730730450E-01  0.10123187159E-01  0.93475031623E-02  0.33682245303E-01  0.51100000000E-03 0. -1.
</event>
<event>
 8    1  0.1074844E+005  0.1043930E+01  0.7957747E-01            NaN
         13   -1    0    0    0    0  0.00000000000E+00  0.00000000000E+00  0.74505805969E-08  0.10566000000E+00  0.10566000000E+00 0.  1.
     999900   -1    0    0    0    0 -0.00000000000E+00 -0.00000000000E+00 -0.74505805969E-08  0.93827000000E+00  0.93827000000E+00 0.  1.
     999902    2    1    2    0    0  0.38729685663E-02  0.10121354596E-01  0.21239516844E-01  0.10200855294E+01  0.10198068094E+01 0.  0.
     999903    2    3    3    0    0 -0.14899682076E-01  0.12885639947E+00  0.12489807487E-01  0.13186991325E+00  0.20191743773E-01 0.  0.
         14    1    1    2    0    0 -0.38729685663E-02 -0.10121354596E-01 -0.21239516844E-01  0.23844470641E-01  0.00000000000E+00 0. -1.
     999901    1    3    3    0    0  0.18772650643E-01 -0.11873504488E+00  0.87497093571E-02  0.88821561611E+00  0.88000000000E+00 0. -1.
        -11    1    4    4    0    0 -0.70939637417E-02  0.92370024916E-01  0.39835855317E-03  0.92644296290E-01  0.51100000000E-03 0.  1.
         11    1    4    4    0    0 -0.78057183347E-02  0.36486374559E-01  0.12091448934E-01  0.39225616955E-01  0.51100000000E-03 0. -1.
</event>
<event>
 7    1  0.1074844E+005  0.1043930E+01  0.7957747E-01            NaN
         13   -1    0    0    0    0  0.00000000000E+00  0.00000000000E+00  0.74505805969E-08  0.10566000000E+00  0.10566000000E+00 0.  1.
     999900   -1    0    0    0    0 -0.00000000000E+00 -0.00000000000E+00 -0.74505805969E-08  0.93827000000E+00  0.93827000000E+00 0. -1.
     999903    2    1    2    0    0  0.66500047608E-02 -0.77288793874E-01 -0.44944134442E-01  0.91818505635E-01  0.19821264701E-01 0.  0.
         14    1    1    2    0    0 -0.17579381570E-01  0.45939932844E-01 -0.45304513727E-01  0.66873096609E-01  0.00000000000E+00 0. -1.
     999901    1    1    2    0    0  0.10929376809E-01  0.31348861031E-01  0.90248648169E-01  0.88523839776E+00  0.88000000000E+00 0.  1.
        -11    1    3    3    0    0 -0.45798328999E-02 -0.49044335587E-01 -0.32231385949E-01  0.58868031085E-01  0.51100000000E-03 0.  1.
         11    1    3    3    0    0  0.11229837661E-01 -0.28244458287E-01 -0.12712748493E-01  0.32950474550E-01  0.51100000000E-03 0. -1.
</event>
<event>
 8    1  0.1074844E+005  0.1043930E+01  0.7957747E-01            NaN
         13   -1    0    0    0    0  0.00000000000E+00  0.00000000000E+00  0.74505805969E-08  0.10566000000E+00  0.10566000000E+00 0.  1.
     999900   -1    0    0    0    0 -0.00000000000E+00 -0.00000000000E+00 -0.74505805969E-08  0.93827000000E+00  0.93827000000E+00 0. -1.
     999902    2    1    2    0    0  0.87490202931E-02  0.17896430050E-02  0.22372002116E-01  0.10198415244E+01  0.10195570020E+01 0.  0.
     999903    2    3    3    0    0 -0.41820117706E-01  0.22545847984E-01  0.12218689394E+00  0.13251347323E+00  0.19311810659E-01 0.  0.
         14    1    1    2    0    0 -0.87490202931E-02 -0.17896430050E-02 -0.22372002116E-01  0.24088475603E-01  0.00000000000E+00 0. -1.
     999901    1    3    3    0    0  0.50569137999E-01 -0.20756204979E-01 -0.99814891820E-01  0.88732805117E+00  0.88000000000E+00 0. -1.
        -11    1    4    4    0    0 -0.33255618863E-02  0.86473674480E-02  0.13555081620E-01  0.16426736875E-01  0.51100000000E-03 0.  1.
         11    1    4    4    0    0 -0.38494555820E-01  0.13898480536E-01  0.10863181232E+00  0.11608673635E+00  0.51100000000E-03 0. -1.
</event>
<event>
 8    1  0.1074844E+005  0.1043930E+01  0.7957747E-01            NaN
         13   -1    0    0    0    0  0.00000000000E+00  0.00000000000E+00  0.74505805969E-08  0.10566000000E+00  0.10566000000E+00 0.  1.
     999900   -1    0    0    0    0 -0.00000000000E+00 -0.00000000000E+00 -0.74505805969E-08  0.93827000000E+00  0.93827000000E+00 0. -1.
     999902    2    1    2    0    0  0.22195051689E-02  0.24051819370E-01  0.87379827398E-03  0.10197601895E+01  0.10194737193E+01 0.  0.
     999903    2    3    3    0    0  0.79847157928E-01  0.10406617047E+00 -0.21641298843E-02  0.13272153311E+00  0.20124249721E-01 0.  0.
         14    1    1    2    0    0 -0.22195051689E-02 -0.24051819370E-01 -0.87379827398E-03  0.24169810542E-01  0.00000000000E+00 0. -1.
     999901    1    3    3    0    0 -0.77627652759E-01 -0.80014351097E-01  0.30379281583E-02  0.88703865635E+00  0.88000000000E+00 0.  1.
        -11    1    4    4    0    0  0.30423232462E-01  0.45909987248E-01  0.82484751834E-02  0.55691996431E-01  0.51100000000E-03 0.  1.
         11    1    4    4    0    0  0.49423925466E-01  0.58156183219E-01 -0.10412605068E-01  0.77029536676E-01  0.51100000000E-03 0. -1.
</event>
<event>
 8    1  0.1074844E+005  0.1043930E+01  0.7957747E-01            NaN
         13   -1    0    0    0    0  0.00000000000E+00  0.00000000000E+00  0.74505805969E-08  0.10566000000E+00  0.10566000000E+00 0.  1.
     999900   -1    0    0    0    0 -0.00000000000E+00 -0.00000000000E+00 -0.74505805969E-08  0.93827000000E+00  0.93827000000E+00 0. -1.
     999902    2    1    2    0    0 -0.24090558089E-01 -0.64314554421E-02 -0.65739214227E-02  0.10181436654E+01  0.10178170702E+01 0.  0.
     999903    2    3    3    0    0 -0.12597908611E-01 -0.12025290389E+00 -0.43139714088E-01  0.12998576262E+00  0.20391060705E-01 0.  0.
         14    1    1    2    0    0  0.24090558089E-01  0.64314554421E-02  0.65739214227E-02  0.25786334579E-01  0.00000000000E+00 0. -1.
     999901    1    3    3    0    0 -0.11492649478E-01  0.11382144845E+00  0.36565792665E-01  0.88815790280E+00  0.88000000000E+00 0. -1.
        -11    1    4    4    0    0  0.50360522989E-02 -0.31081468141E-01 -0.14601642964E-01  0.34711505050E-01  0.51100000000E-03 0. -1.
         11    1    4    4    0    0 -0.17633960910E-01 -0.89171435747E-01 -0.28538071123E-01  0.95274257567E-01  0.51100000000E-03 0.  1.
</event>
<event>
 8    1  0.1074844E+005  0.1043930E+01  0.7957747E-01            NaN
         13   -1    0    0    0    0  0.00000000000E+00  0.00000000000E+00  0.74505805969E-08  0.10566000000E+00  0.10566000000E+00 0. -1.
     999900   -1    0    0    0    0 -0.00000000000E+00 -0.00000000000E+00 -0.74505805969E-08  0.93827000000E+00  0.93827000000E+00 0. -1.
     999902    2    1    2    0    0  0.67082829930E-02 -0.21187867935E-01 -0.81608228718E-02  0.10202545731E+01  0.10199798371E+01 0.  0.
     999903    2    3    3    0    0  0.11997446278E+00 -0.85233254965E-02 -0.50378888365E-01  0.13190104936E+00  0.19832691004E-01 0.  0.
         14    1    1    2    0    0 -0.67082829930E-02  0.21187867935E-01  0.81608228718E-02  0.23675426887E-01  0.00000000000E+00 0. -1.
     999901    1    3    3    0    0 -0.11326617978E+00 -0.12664542438E-01  0.42218065493E-01  0.88835352376E+00  0.88000000000E+00 0.  1.
        -11    1    4    4    0    0  0.43496388577E-01  0.27689225262E-02 -0.10158815385E-01  0.44755618667E-01  0.51100000000E-03 0.  1.
         11    1    4    4    0    0  0.76478074198E-01 -0.11292248023E-01 -0.40220072979E-01  0.87145430689E-01  0.51100000000E-03 0. -1.
</event>
<event>
 8    1  0.1074844E+005  0.1043930E+01  0.7957747E-01            NaN
         13   -1    0    0    0    0  0.00000000000E+00  0.00000000000E+00  0.74505805969E-08  0.10566000000E+00  0.10566000000E+00 0.  1.
     999900   -1    0    0    0    0 -0.00000000000E+00 -0.00000000000E+00 -0.74505805969E-08  0.93827000000E+00  0.93827000000E+00 0.  1.
     999902    2    1    2    0    0 -0.23124387820E-02 -0.15731826224E-01 -0.19794443966E-01  0.10185398889E+01  0.10182233780E+01 0.  0.
     999903    2    3    3    0    0 -0.68686886253E-01  0.69874150612E-01  0.77477991265E-01  0.12657807515E+00  0.20466673167E-01 0.  0.
         14    1    1    2    0    0  0.23124387820E-02  0.15731826224E-01  0.19794443966E-01  0.25390111095E-01  0.00000000000E+00 0.  1.
     999901    1    3    3    0    0  0.66374447471E-01 -0.85605976837E-01 -0.97272435231E-01  0.89196181376E+00  0.88000000000E+00 0.  1.
        -11    1    4    4    0    0 -0.34442244340E-01  0.49273265708E-01  0.45699304770E-01  0.75516954959E-01  0.51100000000E-03 0.  1.
         11    1    4    4    0    0 -0.34244641912E-01  0.20600884904E-01  0.31778686495E-01  0.51061120188E-01  0.51100000000E-03 0. -1.
</event>
<event>
 8    1  0.1074844E+005  0.1043930E+01  0.7957747E-01            NaN
         13   -1    0    0    0    0  0.00000000000E+00  0.00000000000E+00  0.74505805969E-08  0.10566000000E+00  0.10566000000E+00 0. -1.
     999900   -1    0    0    0    0 -0.00000000000E+00 -0.00000000000E+00 -0.74505805969E-08  0.93827000000E+00  0.93827000000E+00 0.  1.
     999902    2    1    2    0    0  0.23136669460E-02 -0.74083242197E-02 -0.23616886158E-01  0.10190705222E+01  0.10187672628E+01 0.  0.
     999903    2    3    3    0    0  0.99776848957E-01 -0.61683260573E-01  0.48994225232E-01  0.12906085148E+00  0.22271619945E-01 0.  0.
         14    1    1    2    0    0 -0.23136669460E-02  0.74083242197E-02  0.23616886158E-01  0.24859477755E-01  0.00000000000E+00 0. -1.
     999901    1    3    3    0    0 -0.97463182011E-01  0.54274936353E-01 -0.72611111390E-01  0.89000967077E+00  0.88000000000E+00 0.  1.
        -11    1    4    4    0    0  0.39968247426E-01 -0.22657238234E-01  0.77663981613E-02  0.46598168506E-01  0.51100000000E-03 0. -1.
         11    1    4    4    0    0  0.59808601531E-01 -0.39026022339E-01  0.41227827071E-01  0.82462682970E-01  0.51100000000E-03 0.  1.
</event>
<event>
 7    1  0.1074844E+005  0.1043930E+01  0.7957747E-01            NaN
         13   -1    0    0    0    0  0.00000000000E+00  0.00000000000E+00  0.74505805969E-08  0.10566000000E+00  0.10566000000E+00 0.  1.
     999900   -1    0    0    0    0 -0.00000000000E+00 -0.00000000000E+00 -0.74505805969E-08  0.93827000000E+00  0.93827000000E+00 0. -1.
     999903    2    1    2    0    0  0.85666373511E-01  0.21930354635E-02  0.78114682254E-01  0.11751384548E+00  0.19080443964E-01 0.  0.
         14    1    1    2    0    0  0.13583990902E-01  0.97120915559E-02 -0.36083438387E-01  0.39760081200E-01  0.00000000000E+00 0. -1.
     999901    1    1    2    0    0 -0.99250364412E-01 -0.11905127019E-01 -0.42031243867E-01  0.88665607331E+00  0.88000000000E+00 0. -1.
        -11    1    3    3    0    0  0.17844636492E-01 -0.46265330590E-02  0.25166122978E-01  0.31199851385E-01  0.51100000000E-03 0. -1.
         11    1    3    3    0    0  0.67821737019E-01  0.68195685224E-02  0.52948559277E-01  0.86313994100E-01  0.51100000000E-03 0.  1.
</event>
<event>
 8    1  0.1074844E+005  0.1043930E+01  0.7957747E-01            NaN
         13   -1    0    0    0    0  0.00000000000E+00  0.00000000000E+00  0.74505805969E-08  0.10566000000E+00  0.10566000000E+00 0. -1.
     999900   -1    0    0    0    0 -0.00000000000E+00 -0.00000000000E+00 -0.74505805969E-08  0.93827000000E+00  0.93827000000E+00 0.  1.
     999902    2    1    2    0    0  0.40415432520E-03 -0.23651063310E-01  0.78253807955E-03  0.10202625434E+01  0.10199879945E+01 0.  0.
     999903    2    3    3    0    0 -0.18533223293E-01 -0.97399273551E-01  0.86268761239E-01  0.13284758007E+00  0.19392821098E-01 0.  0.
         14    1    1    2    0    0 -0.40415432520E-03  0.23651063310E-01 -0.78253807955E-03  0.23667456607E-01  0.00000000000E+00 0. -1.
     999901    1    3    3    0    0  0.18937377618E-01  0.73748210241E-01 -0.85486223159E-01  0.88741496333E+00  0.88000000000E+00 0.  1.
        -11    1    4    4    0    0 -0.12572014010E-01 -0.41237178235E-01  0.26463405709E-01  0.50587877676E-01  0.51100000000E-03 0.  1.
         11    1    4    4    0    0 -0.59612092829E-02 -0.56162095316E-01  0.59805355530E-01  0.82259702391E-01  0.51100000000E-03 0. -1.
</event>
<event>
 8    1  0.1074844E+005  0.1043930E+01  0.7957747E-01            NaN
         13   -1    0    0    0    0  0.00000000000E+00  0.00000000000E+00  0.74505805969E-08  0.10566000000E+00  0.10566000000E+00 0.  1.
     999900   -1    0    0    0    0 -0.00000000000E+00 -0.00000000000E+00 -0.74505805969E-08  0.93827000000E+00  0.93827000000E+00 0.  1.
     999902    2    1    2    0    0  0.23137733154E-01 -0.18870384696E-01  0.10558073522E-01  0.10122611031E+01  0.10117655963E+01 0.  0.
     999903    2    3    3    0    0  0.12136487654E+00 -0.17499458631E-01 -0.22576527870E-01  0.12617512932E+00  0.19359734925E-01 0.  0.
         14    1    1    2    0    0 -0.23137733154E-01  0.18870384696E-01 -0.10558073522E-01  0.31668896895E-01  0.00000000000E+00 0. -1.
     999901    1    3    3    0    0 -0.98227143389E-01 -0.13709260643E-02  0.33134601392E-01  0.88608597379E+00  0.88000000000E+00 0.  1.
        -11    1    4    4    0    0  0.10148036686E+00 -0.21767733073E-01 -0.19296734820E-01  0.10556857561E+00  0.51100000000E-03 0.  1.
         11    1    4    4    0    0  0.19884509685E-01  0.42682744419E-02 -0.32797930498E-02  0.20606553705E-01  0.51100000000E-03 0. -1.
</event>
<event>
 8    1  0.1074844E+005  0.1043930E+01  0.7957747E-01            NaN
         13   -1    0    0    0    0  0.00000000000E+00  0.00000000000E+00  0.74505805969E-08  0.10566000000E+00  0.10566000000E+00 0. -1.
     999900   -1    0    0    0    0 -0.00000000000E+00 -0.00000000000E+00 -0.74505805969E-08  0.93827000000E+00  0.93827000000E+00 0. -1.
     999902    2    1    2    0    0  0.26010203865E-02 -0.48506706956E-02  0.23198249452E-01  0.10200877457E+01  0.10198090781E+01 0.  0.
     999903    2    3    3    0    0  0.50166673953E-01  0.92354322875E-01  0.76934804541E-01  0.13183163423E+00  0.20361716680E-01 0.  0.
         14    1    1    2    0    0 -0.26010203865E-02  0.48506706956E-02 -0.23198249452E-01  0.23842254316E-01  0.00000000000E+00 0.  1.
     999901    1    3    3    0    0 -0.47565653566E-01 -0.97204993570E-01 -0.53736555089E-01  0.88825611145E+00  0.88000000000E+00 0. -1.
        -11    1    4    4    0    0  0.23044198125E-01  0.38697503947E-01  0.45344547111E-01  0.63913386334E-01  0.51100000000E-03 0. -1.
         11    1    4    4    0    0  0.27122475827E-01  0.53656818928E-01  0.31590257430E-01  0.67918247901E-01  0.51100000000E-03 0.  1.
</event>
<event>
 8    1  0.1074844E+005  0.1043930E+01  0.7957747E-01            NaN
         13   -1    0    0    0    0  0.00000000000E+00  0.00000000000E+00  0.74505805969E-08  0.10566000000E+00  0.10566000000E+00 0.  1.
     999900   -1    0    0    0    0 -0.00000000000E+00 -0.00000000000E+00 -0.74505805969E-08  0.93827000000E+00  0.93827000000E+00 0. -1.
     999902    2    1    2    0    0 -0.69873501799E-02  0.11628884754E-01  0.13591844340E-01  0.10247260354E+01  0.10245460729E+01 0.  0.
     999903    2    3    3    0    0  0.11836081335E+00 -0.57351141265E-01 -0.19693368860E-02  0.13303519412E+00  0.19900981046E-01 0.  0.
         14    1    1    2    0    0  0.69873501799E-02 -0.11628884754E-01 -0.13591844340E-01  0.19203964583E-01  0.00000000000E+00 0. -1.
     999901    1    3    3    0    0 -0.12534816353E+00  0.68980026019E-01  0.15561181226E-01  0.89169084130E+00  0.88000000000E+00 0.  1.
        -11    1    4    4    0    0  0.43828609278E-01 -0.22970467306E-01 -0.10253285952E-01  0.50536920695E-01  0.51100000000E-03 0.  1.
         11    1    4    4    0    0  0.74532204069E-01 -0.34380673959E-01  0.82839490656E-02  0.82498273426E-01  0.51100000000E-03 0. -1.
</event>
<event>
 8    1  0.1074844E+005  0.1043930E+01  0.7957747E-01            NaN
         13   -1    0    0    0    0  0.00000000000E+00  0.00000000000E+00  0.74505805969E-08  0.10566000000E+00  0.10566000000E+00 0. -1.
     999900   -1    0    0    0    0 -0.00000000000E+00 -0.00000000000E+00 -0.74505805969E-08  0.93827000000E+00  0.93827000000E+00 0. -1.
     999902    2    1    2    0    0 -0.36437202980E-02  0.22764489876E-01  0.87005303676E-03  0.10208593327E+01  0.10205986094E+01 0.  0.
     999903    2    3    3    0    0  0.58177900555E-01  0.11565158521E+00 -0.26147230798E-01  0.13340237099E+00  0.18776518067E-01 0.  0.
         14    1    1    2    0    0  0.36437202980E-02 -0.22764489876E-01 -0.87005303676E-03  0.23070667290E-01  0.00000000000E+00 0.  1.
     999901    1    3    3    0    0 -0.61821620853E-01 -0.92887095338E-01  0.27017283835E-01  0.88745696172E+00  0.88000000000E+00 0. -1.
        -11    1    4    4    0    0  0.45080999481E-01  0.84282439147E-01 -0.11104346215E-01  0.96225743378E-01  0.51100000000E-03 0.  1.
         11    1    4    4    0    0  0.13096901074E-01  0.31369146068E-01 -0.15042884583E-01  0.37176627608E-01  0.51100000000E-03 0. -1.
</event>
<event>
 8    1  0.1095833E+005  0.1043930E+01  0.7957747E-01            NaN
         13   -1    0    0    0    0  0.00000000000E+00  0.00000000000E+00  0.74505805969E-08  0.10566000000E+00  0.10566000000E+00 0. -1.
     999900   -1    0    0    0    0 -0.00000000000E+00 -0.00000000000E+00 -0.74505805969E-08  0.93827000000E+00  0.93827000000E+00 0. -1.
     999902    2    1    2    0    0  0.12855081717E-01  0.25123014424E-01  0.39558858994E-02  0.10154331929E+01  0.10150332513E+01 0.  0.
     999903    2    3    3    0    0 -0.11061537686E+00 -0.33139985017E-01 -0.40080916064E-01  0.12381737254E+00  0.19754536321E-01 0.  0.
         14    1    1    2    0    0 -0.12855081717E-01 -0.25123014424E-01 -0.39558858994E-02  0.28496807066E-01  0.00000000000E+00 0. -1.
     999901    1    3    3    0    0  0.12347045858E+00  0.58262999441E-01  0.44036801963E-01  0.89161582039E+00  0.88000000000E+00 0.  1.
        -11    1    4    4    0    0 -0.83702296363E-01 -0.16053147095E-01 -0.27757305912E-01  0.89635412091E-01  0.51100000000E-03 0. -1.
         11    1    4    4    0    0 -0.26913080500E-01 -0.17086837922E-01 -0.12323610151E-01  0.34181960452E-01  0.51100000000E-03 0.  1.
</event>
<event>
 8    1  0.1074844E+005  0.1043930E+01  0.7957747E-01            NaN
         13   -1    0    0    0    0  0.00000000000E+00  0.00000000000E+00  0.74505805969E-08  0.10566000000E+00  0.10566000000E+00 0.  1.
     999900   -1    0    0    0    0 -0.00000000000E+00 -0.00000000000E+00 -0.74505805969E-08  0.93827000000E+00  0.93827000000E+00 0. -1.
     999902    2    1    2    0    0  0.18010660848E-01  0.94264457218E-02 -0.12157967440E-01  0.10202433380E+01  0.10199683382E+01 0.  0.
     999903    2    3    3    0    0  0.51006784367E-01  0.75852732105E-02  0.11788585523E+00  0.13007283195E+00  0.19043065068E-01 0.  0.
         14    1    1    2    0    0 -0.18010660848E-01 -0.94264457218E-02  0.12157967440E-01  0.23686661972E-01  0.00000000000E+00 0.  1.
     999901    1    3    3    0    0 -0.32996123519E-01  0.18411725113E-02 -0.13004382267E+00  0.89017050608E+00  0.88000000000E+00 0. -1.
        -11    1    4    4    0    0  0.33120592932E-01 -0.37820193152E-03  0.90750431077E-01  0.96607549262E-01  0.51100000000E-03 0.  1.
         11    1    4    4    0    0  0.17886191435E-01  0.79634751421E-02  0.27135424149E-01  0.33465282684E-01  0.51100000000E-03 0. -1.
</event>
<event>
 8    1  0.1074844E+005  0.1043930E+01  0.7957747E-01            NaN
         13   -1    0    0    0    0  0.00000000000E+00  0.00000000000E+00  0.74505805969E-08  0.10566000000E+00  0.10566000000E+00 0. -1.
     999900   -1    0    0    0    0 -0.00000000000E+00 -0.00000000000E+00 -0.74505805969E-08  0.93827000000E+00  0.93827000000E+00 0.  1.
     999902    2    1    2    0    0 -0.71334621676E-02 -0.12302249050E-01 -0.19102725516E-01  0.10201151782E+01  0.10198371591E+01 0.  0.
     999903    2    3    3    0    0 -0.12794315021E+00  0.19169081951E-01 -0.11545525701E-01  0.13127180807E+00  0.19028532263E-01 0.  0.
         14    1    1    2    0    0  0.71334621676E-02  0.12302249050E-01  0.19102725516E-01  0.23814821778E-01  0.00000000000E+00 0. -1.
     999901    1    3    3    0    0  0.12080968804E+00 -0.31471331001E-01 -0.75571998149E-02  0.88884337016E+00  0.88000000000E+00 0.  1.
        -11    1    4    4    0    0 -0.87171576789E-01  0.81526108984E-02 -0.26218103843E-03  0.87553861846E-01  0.51100000000E-03 0. -1.
         11    1    4    4    0    0 -0.40771573424E-01  0.11016471053E-01 -0.11283344663E-01  0.43717946220E-01  0.51100000000E-03 0.  1.
</event>
<event>
 8    1  0.1074844E+005  0.1043930E+01  0.7957747E-01            NaN
         13   -1    0    0    0    0  0.00000000000E+00  0.00000000000E+00  0.74505805969E-08  0.10566000000E+00  0.10566000000E+00 0.  1.
     999900   -1    0    0    0    0 -0.00000000000E+00 -0.00000000000E+00 -0.74505805969E-08  0.93827000000E+00  0.93827000000E+00 0. -1.
     999902    2    1    2    0    0  0.22972804619E-01  0.25594945584E-02  0.41644793554E-02  0.10204429045E+01  0.10201725726E+01 0.  0.
     999903    2    3    3    0    0 -0.14004302365E-01  0.68621126462E-01 -0.10785353384E+00  0.13011741298E+00  0.19828689272E-01 0.  0.
         14    1    1    2    0    0 -0.22972804619E-01 -0.25594945584E-02 -0.41644793554E-02  0.23487095452E-01  0.00000000000E+00 0. -1.
     999901    1    3    3    0    0  0.36977106985E-01 -0.66061631903E-01  0.11201801319E+00  0.89032549157E+00  0.88000000000E+00 0.  1.
        -11    1    4    4    0    0 -0.18207374827E-01  0.41310053785E-01 -0.66263337063E-01  0.80181793454E-01  0.51100000000E-03 0. -1.
         11    1    4    4    0    0  0.42030724618E-02  0.27311072677E-01 -0.41590196775E-01  0.49935619528E-01  0.51100000000E-03 0.  1.
</event>
<event>
 8    1  0.1074844E+005  0.1043930E+01  0.7957747E-01            NaN
         13   -1    0    0    0    0  0.00000000000E+00  0.00000000000E+00  0.74505805969E-08  0.10566000000E+00  0.10566000000E+00 0. -1.
     999900   -1    0    0    0    0 -0.00000000000E+00 -0.00000000000E+00 -0.74505805969E-08  0.93827000000E+00  0.93827000000E+00 0.  1.
     999902    2    1    2    0    0 -0.23539773613E-01 -0.31202291173E-02  0.93275449415E-03  0.10201660188E+01  0.10198891994E+01 0.  0.
     999903    2    3    3    0    0 -0.15428008597E-02  0.84461269080E-01  0.97318985507E-01  0.13030946229E+00  0.19325755174E-01 0.  0.
         14    1    1    2    0    0  0.23539773613E-01  0.31202291173E-02 -0.93275449415E-03  0.23763981199E-01  0.00000000000E+00 0. -1.
     999901    1    3    3    0    0 -0.21996972753E-01 -0.87581498198E-01 -0.96386231013E-01  0.88985655651E+00  0.88000000000E+00 0.  1.
        -11    1    4    4    0    0 -0.69751242755E-02  0.12306849301E-01  0.18793003484E-01  0.23527622050E-01  0.51100000000E-03 0. -1.
         11    1    4    4    0    0  0.54323234157E-02  0.72154419779E-01  0.78525982023E-01  0.10678184024E+00  0.51100000000E-03 0.  1.
</event>
<event>
 8    1  0.1074844E+005  0.1043930E+01  0.7957747E-01            NaN
         13   -1    0    0    0    0  0.00000000000E+00  0.00000000000E+00  0.74505805969E-08  0.10566000000E+00  0.10566000000E+00 0.  1.
     999900   -1    0    0    0    0 -0.00000000000E+00 -0.00000000000E+00 -0.74505805969E-08  0.93827000000E+00  0.93827000000E+00 0.  1.
     999902    2    1    2    0    0  0.20098192335E-01 -0.40092246034E-03 -0.12261125355E-01  0.10203835933E+01  0.10201118783E+01 0.  0.
     999903    2    3    3    0    0  0.12275791139E+00 -0.24722599896E-01 -0.41340123038E-01  0.13360506964E+00  0.21461526184E-01 0.  0.
         14    1    1    2    0    0 -0.20098192335E-01  0.40092246034E-03  0.12261125355E-01  0.23546406710E-01  0.00000000000E+00 0. -1.
     999901    1    3    3    0    0 -0.10265971905E+00  0.24321677436E-01  0.29078997682E-01  0.88677852365E+00  0.88000000000E+00 0. -1.
        -11    1    4    4    0    0  0.35699882234E-01  0.52292348744E-03 -0.54886890803E-02  0.36126747284E-01  0.51100000000E-03 0. -1.
         11    1    4    4    0    0  0.87058029152E-01 -0.25245523384E-01 -0.35851433957E-01  0.97478322352E-01  0.51100000000E-03 0.  1.
</event>
<event>
 8    1  0.1074844E+005  0.1043930E+01  0.7957747E-01            NaN
         13   -1    0    0    0    0  0.00000000000E+00  0.00000000000E+00  0.74505805969E-08  0.10566000000E+00  0.10566000000E+00 0.  1.
     999900   -1    0    0    0    0 -0.00000000000E+00 -0.00000000000E+00 -0.74505805969E-08  0.93827000000E+00  0.93827000000E+00 0. -1.
     999902    2    1    2    0    0 -0.74449043910E-02 -0.99175838479E-02 -0.20620234371E-01  0.10198680147E+01  0.10195841252E+01 0.  0.
     999903    2    3    3    0    0  0.41818930834E-01 -0.10355882364E+00 -0.67898095259E-01  0.13226968022E+00  0.20294433628E-01 0.  0.
         14    1    1    2    0    0  0.74449043910E-02  0.99175838479E-02  0.20620234371E-01  0.24061985294E-01  0.00000000000E+00 0.  1.
     999901    1    3    3    0    0 -0.49263835225E-01  0.93641239791E-01  0.47277860889E-01  0.88759833449E+00  0.88000000000E+00 0. -1.
        -11    1    4    4    0    0  0.38480208791E-01 -0.95912990434E-01 -0.68342716340E-01  0.12389921792E+00  0.51100000000E-03 0.  1.
         11    1    4    4    0    0  0.33387220423E-02 -0.76458332054E-02  0.44462108104E-03  0.83704623042E-02  0.51100000000E-03 0. -1.
</event>
<event>
 8    1  0.1074844E+005  0.1043930E+01  0.7957747E-01            NaN
         13   -1    0    0    0    0  0.00000000000E+00  0.00000000000E+00  0.74505805969E-08  0.10566000000E+00  0.10566000000E+00 0.  1.
     999900   -1    0    0    0    0 -0.00000000000E+00 -0.00000000000E+00 -0.74505805969E-08  0.93827000000E+00  0.93827000000E+00 0.  1.
     999902    2    1    2    0    0  0.21099253223E-01 -0.11761766821E-01  0.30553267194E-02  0.10195814340E+01  0.10192906592E+01 0.  0.
     999903    2    3    3    0    0 -0.31984633425E-01  0.12173269905E+00  0.87632419464E-02  0.12791375389E+00  0.21053912471E-01 0.  0.
         14    1    1    2    0    0 -0.21099253223E-01  0.11761766821E-01 -0.30553267194E-02  0.24348566009E-01  0.00000000000E+00 0. -1.
     999901    1    3    3    0    0  0.53083886649E-01 -0.13349446588E+00 -0.57079152270E-02  0.89166768010E+00  0.88000000000E+00 0. -1.
        -11    1    4    4    0    0 -0.28002963392E-01  0.66498393503E-01  0.27493625583E-02  0.72208187989E-01  0.51100000000E-03 0.  1.
         11    1    4    4    0    0 -0.39816700333E-02  0.55234305551E-01  0.60138793881E-02  0.55705565900E-01  0.51100000000E-03 0. -1.
</event>
<event>
 8    1  0.1074844E+005  0.1043930E+01  0.7957747E-01            NaN
         13   -1    0    0    0    0  0.00000000000E+00  0.00000000000E+00  0.74505805969E-08  0.10566000000E+00  0.10566000000E+00 0.  1.
     999900   -1    0    0    0    0 -0.00000000000E+00 -0.00000000000E+00 -0.74505805969E-08  0.93827000000E+00  0.93827000000E+00 0. -1.
     999902    2    1    2    0    0  0.13876079059E-01  0.13145917832E-01 -0.13794578236E-01  0.10203577469E+01  0.10200854281E+01 0.  0.
     999903    2    3    3    0    0  0.35110220433E-01  0.10855349721E+00 -0.66298696605E-01  0.13339090573E+00  0.19519918624E-01 0.  0.
         14    1    1    2    0    0 -0.13876079059E-01 -0.13145917832E-01  0.13794578236E-01  0.23572253062E-01  0.00000000000E+00 0.  1.
     999901    1    3    3    0    0 -0.21234141374E-01 -0.95407579380E-01  0.52504118369E-01  0.88696684121E+00  0.88000000000E+00 0.  1.
        -11    1    4    4    0    0  0.28928607691E-01  0.99856144043E-01 -0.54173518370E-01  0.11723116079E+00  0.51100000000E-03 0. -1.
         11    1    4    4    0    0  0.61816127420E-02  0.86973531688E-02 -0.12125178235E-01  0.16159744938E-01  0.51100000000E-03 0.  1.
</event>
<event>
 8    1  0.1074844E+005  0.1043930E+01  0.7957747E-01            NaN
         13   -1    0    0    0    0  0.00000000000E+00  0.00000000000E+00  0.74505805969E-08  0.10566000000E+00  0.10566000000E+00 0. -1.
     999900   -1    0    0    0    0 -0.00000000000E+00 -0.00000000000E+00 -0.74505805969E-08  0.93827000000E+00  0.93827000000E+00 0.  1.
     999902    2    1    2    0    0  0.40046359200E-02 -0.99963671309E-02  0.21043678691E-01  0.10202910305E+01  0.10200171499E+01 0.  0.
     999903    2    3    3    0    0  0.10353651253E+00  0.38543741963E-01 -0.63794813584E-01  0.12930264316E+00  0.21070496368E-01 0.  0.
         14    1    1    2    0    0 -0.40046359200E-02  0.99963671309E-02 -0.21043678691E-01  0.23638969468E-01  0.00000000000E+00 0.  1.
     999901    1    3    3    0    0 -0.99531876612E-01 -0.48540109094E-01  0.84838492275E-01  0.89098838737E+00  0.88000000000E+00 0. -1.
        -11    1    4    4    0    0  0.44063021515E-01  0.27438642949E-01 -0.31487624163E-01  0.60713759465E-01  0.51100000000E-03 0. -1.
         11    1    4    4    0    0  0.59473491016E-01  0.11105099014E-01 -0.32307189422E-01  0.68588883699E-01  0.51100000000E-03 0.  1.
</event>
<event>
 8    1  0.1074844E+005  0.1043930E+01  0.7957747E-01            NaN
         13   -1    0    0    0    0  0.00000000000E+00  0.00000000000E+00  0.74505805969E-08  0.10566000000E+00  0.10566000000E+00 0.  1.
     999900   -1    0    0    0    0 -0.00000000000E+00 -0.00000000000E+00 -0.74505805969E-08  0.93827000000E+00  0.93827000000E+00 0. -1.
     999902    2    1    2    0    0 -0.15509018570E-01  0.67534686687E-02 -0.12511026363E-01  0.10228903998E+01  0.10226739975E+01 0.  0.
     999903    2    3    3    0    0  0.26139404857E-01  0.12913655122E+00  0.26457430615E-03  0.13335376422E+00  0.20582494610E-01 0.  0.
         14    1    1    2    0    0  0.15509018570E-01 -0.67534686687E-02  0.12511026363E-01  0.21039600203E-01  0.00000000000E+00 0.  1.
     999901    1    3    3    0    0 -0.41648423427E-01 -0.12238308255E+00 -0.12775600669E-01  0.88953663558E+00  0.88000000000E+00 0.  1.
        -11    1    4    4    0    0  0.95723972702E-02  0.17897458521E-01 -0.44612996667E-02  0.20787354972E-01  0.51100000000E-03 0. -1.
         11    1    4    4    0    0  0.16567007587E-01  0.11123909270E+00  0.47258739729E-02  0.11256640924E+00  0.51100000000E-03 0.  1.
</event>
<event>
 8    1  0.1074844E+005  0.1043930E+01  0.7957747E-01            NaN
         13   -1    0    0    0    0  0.00000000000E+00  0.00000000000E+00  0.74505805969E-08  0.10566000000E+00  0.10566000000E+00 0.  1.
     999900   -1    0    0    0    0 -0.00000000000E+00 -0.00000000000E+00 -0.74505805969E-08  0.93827000000E+00  0.93827000000E+00 0.  1.
     999902    2    1    2    0    0 -0.17290451284E-01 -0.11987456160E-01  0.10535150357E-01  0.10204002698E+01  0.10201289440E+01 0.  0.
     999903    2    3    3    0    0 -0.97931470708E-01  0.56708811065E-01  0.65613593726E-01  0.13233732941E+00  0.20039033583E-01 0.  0.
         14    1    1    2    0    0  0.17290451284E-01  0.11987456160E-01 -0.10535150357E-01  0.23529730212E-01  0.00000000000E+00 0. -1.
     999901    1    3    3    0    0  0.80641019425E-01 -0.68696267225E-01 -0.55078443369E-01  0.88806294038E+00  0.88000000000E+00 0.  1.
        -11    1    4    4    0    0 -0.61634125999E-01  0.26498611802E-01  0.31752667042E-01  0.74225567700E-01  0.51100000000E-03 0.  1.
         11    1    4    4    0    0 -0.36297344709E-01  0.30210199263E-01  0.33860926684E-01  0.58111761713E-01  0.51100000000E-03 0. -1.
</event>
<event>
 8    1  0.1074844E+005  0.1043930E+01  0.7957747E-01            NaN
         13   -1    0    0    0    0  0.00000000000E+00  0.00000000000E+00  0.74505805969E-08  0.10566000000E+00  0.10566000000E+00 0. -1.
     999900   -1    0    0    0    0 -0.00000000000E+00 -0.00000000000E+00 -0.74505805969E-08  0.93827000000E+00  0.93827000000E+00 0. -1.
     999902    2    1    2    0    0 -0.11164333520E-01  0.18985998483E-01  0.42635702142E-02  0.10214959074E+01  0.10212495289E+01 0.  0.
     999903    2    3    3    0    0 -0.49231424061E-01  0.82786697347E-01 -0.90131536301E-01  0.13333484726E+00  0.19419507838E-01 0.  0.
         14    1    1    2    0    0  0.11164333520E-01 -0.18985998483E-01 -0.42635702142E-02  0.22434092634E-01  0.00000000000E+00 0.  1.
     999901    1    3    3    0    0  0.38067090541E-01 -0.63800698864E-01  0.94395106515E-01  0.88816106011E+00  0.88000000000E+00 0.  1.
        -11    1    4    4    0    0 -0.16340097231E-01  0.12389499047E-01 -0.17277721532E-01  0.26819381919E-01  0.51100000000E-03 0.  1.
         11    1    4    4    0    0 -0.32891326830E-01  0.70397198299E-01 -0.72853814769E-01  0.10651546534E+00  0.51100000000E-03 0. -1.
</event>
<event>
 8    1  0.1074844E+005  0.1043930E+01  0.7957747E-01            NaN
         13   -1    0    0    0    0  0.00000000000E+00  0.00000000000E+00  0.74505805969E-08  0.10566000000E+00  0.10566000000E+00 0.  1.
     999900   -1    0    0    0    0 -0.00000000000E+00 -0.00000000000E+00 -0.74505805969E-08  0.93827000000E+00  0.93827000000E+00 0.  1.
     999902    2    1    2    0    0 -0.12096089575E-01 -0.72545036077E-02 -0.17870041038E-01  0.10211642017E+01  0.10209104002E+01 0.  0.
     999903    2    3    3    0    0 -0.53739607665E-01 -0.31567851804E-01 -0.11733773129E+00  0.13424867985E+00  0.19237727448E-01 0.  0.
         14    1    1    2    0    0  0.12096089575E-01  0.72545036077E-02  0.17870041038E-01  0.22765798301E-01  0.00000000000E+00 0.  1.
     999901    1    3    3    0    0  0.41643518090E-01  0.24313348196E-01  0.99467690250E-01  0.88691552185E+00  0.88000000000E+00 0. -1.
        -11    1    4    4    0    0 -0.23299278552E-01 -0.24074372357E-01 -0.67702959874E-01  0.75540609490E-01  0.51100000000E-03 0. -1.
         11    1    4    4    0    0 -0.30440329113E-01 -0.74934794466E-02 -0.49634771413E-01  0.58708070356E-01  0.51100000000E-03 0.  1.
</event>
<event>
 8    1  0.1074844E+005  0.1043930E+01  0.7957747E-01            NaN
         13   -1    0    0    0    0  0.00000000000E+00  0.00000000000E+00  0.74505805969E-08  0.10566000000E+00  0.10566000000E+00 0. -1.
     999900   -1    0    0    0    0 -0.00000000000E+00 -0.00000000000E+00 -0.74505805969E-08  0.93827000000E+00  0.93827000000E+00 0.  1.
     999902    2    1    2    0    0  0.13081763052E-01 -0.29082285916E-02  0.20967002903E-01  0.10190461593E+01  0.10187422977E+01 0.  0.
     999903    2    3    3    0    0 -0.11889213298E+00 -0.17024442804E-03 -0.40762031598E-01  0.12706237048E+00  0.18653002515E-01 0.  0.
         14    1    1    2    0    0 -0.13081763052E-01  0.29082285916E-02 -0.20967002903E-01  0.24883840717E-01  0.00000000000E+00 0.  1.
     999901    1    3    3    0    0  0.13197389604E+00 -0.27379841636E-02  0.61729034501E-01  0.89198378881E+00  0.88000000000E+00 0. -1.
        -11    1    4    4    0    0 -0.10790883429E+00 -0.49565312335E-02 -0.39437571271E-01  0.11499768201E+00  0.51100000000E-03 0. -1.
         11    1    4    4    0    0 -0.10983298694E-01  0.47862868054E-02 -0.13244603264E-02  0.12064688464E-01  0.51100000000E-03 0.  1.
</event>
<event>
 8    1  0.1074844E+005  0.1043930E+01  0.7957747E-01            NaN
         13   -1    0    0    0    0  0.00000000000E+00  0.00000000000E+00  0.74505805969E-08  0.10566000000E+00  0.10566000000E+00 0. -1.
     999900   -1    0    0    0    0 -0.00000000000E+00 -0.00000000000E+00 -0.74505805969E-08  0.93827000000E+00  0.93827000000E+00 0. -1.
     999902    2    1    2    0    0  0.97949354236E-02 -0.45817331625E-02 -0.17643967498E-01  0.10232359760E+01  0.10230266957E+01 0.  0.
     999903    2    3    3    0    0 -0.10239461144E+00  0.66910481982E-01 -0.47966966946E-01  0.13272089163E+00  0.18770618182E-01 0.  0.
         14    1    1    2    0    0 -0.97949354236E-02  0.45817331625E-02  0.17643967498E-01  0.20694023964E-01  0.00000000000E+00 0.  1.
     999901    1    3    3    0    0  0.11218954686E+00 -0.71492215145E-01  0.30322999448E-01  0.89051508440E+00  0.88000000000E+00 0.  1.
        -11    1    4    4    0    0 -0.19420450474E-01  0.12409630512E-01 -0.17287609573E-01  0.28814499680E-01  0.51100000000E-03 0.  1.
         11    1    4    4    0    0 -0.82974160967E-01  0.54500851470E-01 -0.30679357373E-01  0.10390639195E+00  0.51100000000E-03 0. -1.
</event>
<event>
 8    1  0.1074844E+005  0.1043930E+01  0.7957747E-01            NaN
         13   -1    0    0    0    0  0.00000000000E+00  0.00000000000E+00  0.74505805969E-08  0.10566000000E+00  0.10566000000E+00 0. -1.
     999900   -1    0    0    0    0 -0.00000000000E+00 -0.00000000000E+00 -0.74505805969E-08  0.93827000000E+00  0.93827000000E+00 0. -1.
     999902    2    1    2    0    0 -0.29196700102E-02  0.17277682829E-01 -0.52120973640E-03  0.10263996133E+01  0.10262498973E+01 0.  0.
     999903    2    3    3    0    0  0.89296685478E-01  0.16527002288E-01 -0.99356322478E-01  0.13607787416E+00  0.19961692769E-01 0.  0.
         14    1    1    2    0    0  0.29196700102E-02 -0.17277682829E-01  0.52120973640E-03  0.17530386661E-01  0.00000000000E+00 0.  1.
     999901    1    3    3    0    0 -0.92216355488E-01  0.75068054095E-03  0.98835112741E-01  0.89032173918E+00  0.88000000000E+00 0.  1.
        -11    1    4    4    0    0  0.17477103416E-01  0.38980422085E-02 -0.32677463122E-01  0.37265555061E-01  0.51100000000E-03 0.  1.
         11    1    4    4    0    0  0.71819582062E-01  0.12628960079E-01 -0.66678859355E-01  0.98812319101E-01  0.51100000000E-03 0. -1.
</event>
<event>
 8    1  0.1074844E+005  0.1043930E+01  0.7957747E-01            NaN
         13   -1    0    0    0    0  0.00000000000E+00  0.00000000000E+00  0.74505805969E-08  0.10566000000E+00  0.10566000000E+00 0. -1.
     999900   -1    0    0    0    0 -0.00000000000E+00 -0.00000000000E+00 -0.74505805969E-08  0.93827000000E+00  0.93827000000E+00 0.  1.
     999902    2    1    2    0    0 -0.30939540313E-02 -0.25715446128E-01 -0.19600530078E-02  0.10179550403E+01  0.10176235874E+01 0.  0.
     999903    2    3    3    0    0 -0.55610905339E-01  0.84649284548E-01 -0.73430424987E-01  0.12663780276E+00  0.19673118893E-01 0.  0.
         14    1    1    2    0    0  0.30939540313E-02  0.25715446128E-01  0.19600530078E-02  0.25974959652E-01  0.00000000000E+00 0. -1.
     999901    1    3    3    0    0  0.52516951307E-01 -0.11036473068E+00  0.71470371979E-01  0.89131723759E+00  0.88000000000E+00 0. -1.
        -11    1    4    4    0    0 -0.21629783331E-01  0.29389990760E-01 -0.15450827698E-01  0.39630900588E-01  0.51100000000E-03 0.  1.
         11    1    4    4    0    0 -0.33981122008E-01  0.55259293788E-01 -0.57979597289E-01  0.87006902172E-01  0.51100000000E-03 0. -1.
</event>
<event>
 8    1  0.1074844E+005  0.1043930E+01  0.7957747E-01            NaN
         13   -1    0    0    0    0  0.00000000000E+00  0.00000000000E+00  0.74505805969E-08  0.10566000000E+00  0.10566000000E+00 0. -1.
     999900   -1    0    0    0    0 -0.00000000000E+00 -0.00000000000E+00 -0.74505805969E-08  0.93827000000E+00  0.93827000000E+00 0.  1.
     999902    2    1    2    0    0 -0.10091694531E-01 -0.21114728480E-01  0.21816033773E-02  0.10204260971E+01  0.10201553736E+01 0.  0.
     999903    2    3    3    0    0  0.11101857735E+00 -0.38095642454E-01  0.53453462200E-01  0.13049078885E+00  0.19853736729E-01 0.  0.
         14    1    1    2    0    0  0.10091694531E-01  0.21114728480E-01 -0.21816033773E-02  0.23503902880E-01  0.00000000000E+00 0.  1.
     999901    1    3    3    0    0 -0.12111027189E+00  0.16980913974E-01 -0.51271858822E-01  0.88993530827E+00  0.88000000000E+00 0. -1.
        -11    1    4    4    0    0  0.10099629741E+00 -0.32312432948E-01  0.53790561222E-01  0.11890345248E+00  0.51100000000E-03 0.  1.
         11    1    4    4    0    0  0.10022279945E-01 -0.57832095066E-02 -0.33709902280E-03  0.11587336374E-01  0.51100000000E-03 0. -1.
</event>
<event>
 8    1  0.1074844E+005  0.1043930E+01  0.7957747E-01            NaN
         13   -1    0    0    0    0  0.00000000000E+00  0.00000000000E+00  0.74505805969E-08  0.10566000000E+00  0.10566000000E+00 0. -1.
     999900   -1    0    0    0    0 -0.00000000000E+00 -0.00000000000E+00 -0.74505805969E-08  0.93827000000E+00  0.93827000000E+00 0.  1.
     999902    2    1    2    0    0 -0.20544632053E-01  0.86481413887E-02  0.94553032475E-02  0.10197168834E+01  0.10194293734E+01 0.  0.
     999903    2    3    3    0    0  0.26423870606E-01 -0.10104849144E+00 -0.71430342929E-01  0.12798717141E+00  0.19219875022E-01 0.  0.
         14    1    1    2    0    0  0.20544632053E-01 -0.86481413887E-02 -0.94553032475E-02  0.24213116594E-01  0.00000000000E+00 0.  1.
     999901    1    3    3    0    0 -0.46968502660E-01  0.10969663282E+00  0.80885646177E-01  0.89172971199E+00  0.88000000000E+00 0. -1.
        -11    1    4    4    0    0  0.12502448317E-01 -0.79880694543E-01 -0.53876872708E-01  0.97160769390E-01  0.51100000000E-03 0.  1.
         11    1    4    4    0    0  0.13921422289E-01 -0.21167796893E-01 -0.17553470221E-01  0.30826402023E-01  0.51100000000E-03 0. -1.
</event>
<event>
 8    1  0.1074844E+005  0.1043930E+01  0.7957747E-01            NaN
         13   -1    0    0    0    0  0.00000000000E+00  0.00000000000E+00  0.74505805969E-08  0.10566000000E+00  0.10566000000E+00 0.  1.
     999900   -1    0    0    0    0 -0.00000000000E+00 -0.00000000000E+00 -0.74505805969E-08  0.93827000000E+00  0.93827000000E+00 0.  1.
     999902    2    1    2    0    0  0.20742040642E-01  0.13192562113E-01 -0.73459068881E-02  0.10182738449E+01  0.10179505808E+01 0.  0.
     999903    2    3    3    0    0 -0.36639199784E-01  0.98429617795E-01 -0.72134443324E-01  0.12992958910E+00  0.25446013222E-01 0.  0.
         14    1    1    2    0    0 -0.20742040642E-01 -0.13192562113E-01  0.73459068881E-02  0.25656155073E-01  0.00000000000E+00 0.  1.
     999901    1    3    3    0    0  0.57381240426E-01 -0.85237055681E-01  0.64788536436E-01  0.88834425583E+00  0.88000000000E+00 0. -1.
        -11    1    4    4    0    0 -0.29756645095E-01  0.43650850747E-01 -0.36625912812E-01  0.64285093984E-01  0.51100000000E-03 0.  1.
         11    1    4    4    0    0 -0.68825546890E-02  0.54778767048E-01 -0.35508530512E-01  0.65644495112E-01  0.51100000000E-03 0. -1.
</event>
<event>
 8    1  0.1074844E+005  0.1043930E+01  0.7957747E-01            NaN
         13   -1    0    0    0    0  0.00000000000E+00  0.00000000000E+00  0.74505805969E-08  0.10566000000E+00  0.10566000000E+00 0.  1.
     999900   -1    0    0    0    0 -0.00000000000E+00 -0.00000000000E+00 -0.74505805969E-08  0.93827000000E+00  0.93827000000E+00 0.  1.
     999902    2    1    2    0    0  0.19173599187E-01  0.13645378018E-01  0.70694004297E-02  0.10193576645E+01  0.10190614548E+01 0.  0.
     999903    2    3    3    0    0 -0.63603088990E-01 -0.10791487121E+00 -0.61829467324E-02  0.12705474569E+00  0.20339793877E-01 0.  0.
         14    1    1    2    0    0 -0.19173599187E-01 -0.13645378018E-01 -0.70694004297E-02  0.24572335450E-01  0.00000000000E+00 0. -1.
     999901    1    3    3    0    0  0.82776688177E-01  0.12156024923E+00  0.13252347162E-01  0.89230291886E+00  0.88000000000E+00 0. -1.
        -11    1    4    4    0    0 -0.45893737933E-01 -0.59233939364E-01 -0.46725958019E-03  0.74935800567E-01  0.51100000000E-03 0.  1.
         11    1    4    4    0    0 -0.17709351057E-01 -0.48680931846E-01 -0.57156871522E-02  0.52118945125E-01  0.51100000000E-03 0. -1.
</event>
<event>
 8    1  0.1074844E+005  0.1043930E+01  0.7957747E-01            NaN
         13   -1    0    0    0    0  0.00000000000E+00  0.00000000000E+00  0.74505805969E-08  0.10566000000E+00  0.10566000000E+00 0. -1.
     999900   -1    0    0    0    0 -0.00000000000E+00 -0.00000000000E+00 -0.74505805969E-08  0.93827000000E+00  0.93827000000E+00 0.  1.
     999902    2    1    2    0    0 -0.23103047760E-01 -0.15311116975E-02  0.44026534421E-02  0.10203614091E+01  0.10200891759E+01 0.  0.
     999903    2    3    3    0    0  0.93047088733E-01  0.78788558465E-01  0.35250654907E-01  0.12856899896E+00  0.20542179909E-01 0.  0.
         14    1    1    2    0    0  0.23103047760E-01  0.15311116975E-02 -0.44026534421E-02  0.23568590882E-01  0.00000000000E+00 0. -1.
     999901    1    3    3    0    0 -0.11615013649E+00 -0.80319670162E-01 -0.30848001465E-01  0.89179241016E+00  0.88000000000E+00 0.  1.
        -11    1    4    4    0    0  0.40795671151E-01  0.41155163410E-01  0.74452519499E-02  0.58427109783E-01  0.51100000000E-03 0.  1.
         11    1    4    4    0    0  0.52251417582E-01  0.37633395055E-01  0.27805402957E-01  0.70141889177E-01  0.51100000000E-03 0. -1.
</event>
<event>
 8    1  0.1074844E+005  0.1043930E+01  0.7957747E-01            NaN
         13   -1    0    0    0    0  0.00000000000E+00  0.00000000000E+00  0.74505805969E-08  0.10566000000E+00  0.10566000000E+00 0.  1.
     999900   -1    0    0    0    0 -0.00000000000E+00 -0.00000000000E+00 -0.74505805969E-08  0.93827000000E+00  0.93827000000E+00 0.  1.
     999902    2    1    2    0    0  0.28535913060E-02  0.78179604662E-02 -0.21321109287E-01  0.10210421606E+01  0.10207855997E+01 0.  0.
     999903    2    3    3    0    0 -0.42747750676E-01  0.90404554737E-01  0.80776546207E-01  0.13013029115E+00  0.20216046923E-01 0.  0.
         14    1    1    2    0    0 -0.28535913060E-02 -0.78179604662E-02  0.21321109287E-01  0.22887839356E-01  0.00000000000E+00 0.  1.
     999901    1    3    3    0    0  0.45601341982E-01 -0.82586594270E-01 -0.10209765549E+00  0.89091186949E+00  0.88000000000E+00 0. -1.
        -11    1    4    4    0    0 -0.25507730005E-01  0.69134066240E-01  0.50660862393E-01  0.89425653502E-01  0.51100000000E-03 0.  1.
         11    1    4    4    0    0 -0.17240020672E-01  0.21270488497E-01  0.30115683814E-01  0.40704637650E-01  0.51100000000E-03 0. -1.
</event>
<event>
 8    1  0.1074844E+005  0.1043930E+01  0.7957747E-01            NaN
         13   -1    0    0    0    0  0.00000000000E+00  0.00000000000E+00  0.74505805969E-08  0.10566000000E+00  0.10566000000E+00 0.  1.
     999900   -1    0    0    0    0 -0.00000000000E+00 -0.00000000000E+00 -0.74505805969E-08  0.93827000000E+00  0.93827000000E+00 0.  1.
     999902    2    1    2    0    0  0.41622812199E-02  0.22213440501E-01  0.61227153179E-02  0.10205152788E+01  0.10202466296E+01 0.  0.
     999903    2    3    3    0    0  0.79862236089E-01 -0.29161038306E-01 -0.96049585749E-01  0.12989246343E+00  0.20449602056E-01 0.  0.
         14    1    1    2    0    0 -0.41622812199E-02 -0.22213440501E-01 -0.61227153179E-02  0.23414721154E-01  0.00000000000E+00 0.  1.
     999901    1    3    3    0    0 -0.75699954869E-01  0.51374478807E-01  0.10217230107E+00  0.89062281542E+00  0.88000000000E+00 0. -1.
        -11    1    4    4    0    0  0.38989420087E-01 -0.16259189828E-01 -0.62599034596E-01  0.75521098945E-01  0.51100000000E-03 0. -1.
         11    1    4    4    0    0  0.40872816003E-01 -0.12901848478E-01 -0.33450551154E-01  0.54371364482E-01  0.51100000000E-03 0.  1.
</event>
<event>
 7    1  0.1074844E+005  0.1043930E+01  0.7957747E-01            NaN
         13   -1    0    0    0    0  0.00000000000E+00  0.00000000000E+00  0.74505805969E-08  0.10566000000E+00  0.10566000000E+00 0.  1.
     999900   -1    0    0    0    0 -0.00000000000E+00 -0.00000000000E+00 -0.74505805969E-08  0.93827000000E+00  0.93827000000E+00 0. -1.
     999903    2    1    2    0    0  0.94370648520E-01  0.50443387518E-01  0.36231645804E-01  0.11468052586E+00  0.19711321781E-01 0.  0.
         14    1    1    2    0    0 -0.41685701549E-01  0.62216218632E-02  0.14042326282E-01  0.44425141752E-01  0.00000000000E+00 0.  1.
     999901    1    1    2    0    0 -0.52684946971E-01 -0.56665009382E-01 -0.50273972086E-01  0.88482433239E+00  0.88000000000E+00 0. -1.
        -11    1    3    3    0    0  0.19027827890E-01  0.18436303539E-01  0.13401522814E-01  0.29695411381E-01  0.51100000000E-03 0.  1.
         11    1    3    3    0    0  0.75342820631E-01  0.32007083980E-01  0.22830122990E-01  0.84985114474E-01  0.51100000000E-03 0. -1.
</event>
<event>
 8    1  0.1074844E+005  0.1043930E+01  0.7957747E-01            NaN
         13   -1    0    0    0    0  0.00000000000E+00  0.00000000000E+00  0.74505805969E-08  0.10566000000E+00  0.10566000000E+00 0.  1.
     999900   -1    0    0    0    0 -0.00000000000E+00 -0.00000000000E+00 -0.74505805969E-08  0.93827000000E+00  0.93827000000E+00 0. -1.
     999902    2    1    2    0    0 -0.27421482697E-01  0.82357073683E-02 -0.51861179724E-02  0.10148325704E+01  0.10144153417E+01 0.  0.
     999903    2    3    3    0    0  0.57297668072E-01 -0.58003216212E-01  0.90583327547E-01  0.12312818206E+00  0.17544632544E-01 0.  0.
         14    1    1    2    0    0  0.27421482697E-01 -0.82357073683E-02  0.51861179724E-02  0.29097429590E-01  0.00000000000E+00 0. -1.
     999901    1    3    3    0    0 -0.84719150768E-01  0.66238923580E-01 -0.95769445519E-01  0.89170438835E+00  0.88000000000E+00 0. -1.
        -11    1    4    4    0    0  0.11069053698E-01 -0.19531734771E-01  0.32593821949E-01  0.39580689271E-01  0.51100000000E-03 0.  1.
         11    1    4    4    0    0  0.46228614374E-01 -0.38471481441E-01  0.57989505598E-01  0.83547492791E-01  0.51100000000E-03 0. -1.
</event>
<event>
 8    1  0.1074844E+005  0.1043930E+01  0.7957747E-01            NaN
         13   -1    0    0    0    0  0.00000000000E+00  0.00000000000E+00  0.74505805969E-08  0.10566000000E+00  0.10566000000E+00 0. -1.
     999900   -1    0    0    0    0 -0.00000000000E+00 -0.00000000000E+00 -0.74505805969E-08  0.93827000000E+00  0.93827000000E+00 0. -1.
     999902    2    1    2    0    0  0.57936964065E-03 -0.15150457763E-01 -0.21250014263E-01  0.10178256872E+01  0.10174908817E+01 0.  0.
     999903    2    3    3    0    0  0.11212645710E+00 -0.59476487635E-01  0.11684755668E-01  0.12906686239E+00  0.20295972194E-01 0.  0.
         14    1    1    2    0    0 -0.57936964065E-03  0.15150457763E-01  0.21250014263E-01  0.26104312781E-01  0.00000000000E+00 0. -1.
     999901    1    3    3    0    0 -0.11154708746E+00  0.44326029872E-01 -0.32934769931E-01  0.88875882483E+00  0.88000000000E+00 0. -1.
        -11    1    4    4    0    0  0.80370256952E-02 -0.71013869680E-02  0.62319484543E-02  0.12414579390E-01  0.51100000000E-03 0.  1.
         11    1    4    4    0    0  0.10408943141E+00 -0.52375100667E-01  0.54528072137E-02  0.11665228300E+00  0.51100000000E-03 0. -1.
</event>
<event>
 8    1  0.1074844E+005  0.1043930E+01  0.7957747E-01            NaN
         13   -1    0    0    0    0  0.00000000000E+00  0.00000000000E+00  0.74505805969E-08  0.10566000000E+00  0.10566000000E+00 0. -1.
     999900   -1    0    0    0    0 -0.00000000000E+00 -0.00000000000E+00 -0.74505805969E-08  0.93827000000E+00  0.93827000000E+00 0.  1.
     999902    2    1    2    0    0 -0.34738124025E-02 -0.57734149000E-02 -0.26932005420E-01  0.10161679286E+01  0.10157886230E+01 0.  0.
     999903    2    3    3    0    0  0.80023179296E-01  0.55577951379E-01 -0.81118580382E-01  0.12843377770E+00  0.20552208352E-01 0.  0.
         14    1    1    2    0    0  0.34738124025E-02  0.57734149000E-02  0.26932005420E-01  0.27762071396E-01  0.00000000000E+00 0. -1.
     999901    1    3    3    0    0 -0.83496991698E-01 -0.61351366279E-01  0.54186574962E-01  0.88773415090E+00  0.88000000000E+00 0. -1.
        -11    1    4    4    0    0  0.12796914320E-01  0.17646296316E-01 -0.12382233976E-01  0.25074561392E-01  0.51100000000E-03 0. -1.
         11    1    4    4    0    0  0.67226264976E-01  0.37931655064E-01 -0.68736346406E-01  0.10335921631E+00  0.51100000000E-03 0.  1.
</event>
<event>
 8    1  0.1074844E+005  0.1043930E+01  0.7957747E-01            NaN
         13   -1    0    0    0    0  0.00000000000E+00  0.00000000000E+00  0.74505805969E-08  0.10566000000E+00  0.10566000000E+00 0.  1.
     999900   -1    0    0    0    0 -0.00000000000E+00 -0.00000000000E+00 -0.74505805969E-08  0.93827000000E+00  0.93827000000E+00 0.  1.
     999902    2    1    2    0    0  0.15424173837E-01  0.11125007363E-01 -0.13066367030E-01  0.10208561864E+01  0.10205953911E+01 0.  0.
     999903    2    3    3    0    0  0.19628917118E-01 -0.11651130475E+00 -0.52643478142E-01  0.13075784589E+00  0.19133738493E-01 0.  0.
         14    1    1    2    0    0 -0.15424173837E-01 -0.11125007363E-01  0.13066367030E-01  0.23073813615E-01  0.00000000000E+00 0.  1.
     999901    1    3    3    0    0 -0.42047432814E-02  0.12763631211E+00  0.39577111113E-01  0.89009834050E+00  0.88000000000E+00 0. -1.
        -11    1    4    4    0    0  0.67879718225E-02 -0.60230587973E-01 -0.36734642302E-01  0.70876620652E-01  0.51100000000E-03 0.  1.
         11    1    4    4    0    0  0.12840945295E-01 -0.56280716775E-01 -0.15908835840E-01  0.59881225234E-01  0.51100000000E-03 0. -1.
</event>
<event>
 8    1  0.1074844E+005  0.1043930E+01  0.7957747E-01            NaN
         13   -1    0    0    0    0  0.00000000000E+00  0.00000000000E+00  0.74505805969E-08  0.10566000000E+00  0.10566000000E+00 0. -1.
     999900   -1    0    0    0    0 -0.00000000000E+00 -0.00000000000E+00 -0.74505805969E-08  0.93827000000E+00  0.93827000000E+00 0. -1.
     999902    2    1    2    0    0 -0.13646928923E-01  0.22733758733E-02 -0.15989630128E-01  0.10227858477E+01  0.10225672667E+01 0.  0.
     999903    2    3    3    0    0 -0.26480436405E-01  0.12441912759E+00  0.32917504675E-01  0.13291159170E+00  0.20014901197E-01 0.  0.
         14    1    1    2    0    0  0.13646928923E-01 -0.22733758733E-02  0.15989630128E-01  0.21144152348E-01  0.00000000000E+00 0. -1.
     999901    1    3    3    0    0  0.12833507482E-01 -0.12214575172E+00 -0.48907134802E-01  0.88987425596E+00  0.88000000000E+00 0. -1.
        -11    1    4    4    0    0 -0.21095175703E-01  0.52393869959E-01  0.16447643244E-01  0.58829500563E-01  0.51100000000E-03 0.  1.
         11    1    4    4    0    0 -0.53852607026E-02  0.72025257635E-01  0.16469861431E-01  0.74082091134E-01  0.51100000000E-03 0. -1.
</event>
<event>
 8    1  0.1074844E+005  0.1043930E+01  0.7957747E-01            NaN
         13   -1    0    0    0    0  0.00000000000E+00  0.00000000000E+00  0.74505805969E-08  0.10566000000E+00  0.10566000000E+00 0. -1.
     999900   -1    0    0    0    0 -0.00000000000E+00 -0.00000000000E+00 -0.74505805969E-08  0.93827000000E+00  0.93827000000E+00 0.  1.
     999902    2    1    2    0    0 -0.96878019024E-02 -0.98021932488E-02  0.19600266542E-01  0.10199694711E+01  0.10196879988E+01 0.  0.
     999903    2    3    3    0    0 -0.90421571904E-01  0.58930074876E-01 -0.68288068379E-01  0.12925828010E+00  0.19890407258E-01 0.  0.
         14    1    1    2    0    0  0.96878019024E-02  0.98021932488E-02 -0.19600266542E-01  0.23960528932E-01  0.00000000000E+00 0.  1.
     999901    1    3    3    0    0  0.80733770002E-01 -0.68732268125E-01  0.87888334921E-01  0.89071119097E+00  0.88000000000E+00 0. -1.
        -11    1    4    4    0    0 -0.34802661707E-01  0.31407764690E-01 -0.21709286957E-01  0.51664564315E-01  0.51100000000E-03 0. -1.
         11    1    4    4    0    0 -0.55618910197E-01  0.27522310187E-01 -0.46578781422E-01  0.77593715785E-01  0.51100000000E-03 0.  1.
</event>
<event>
 8    1  0.1074844E+005  0.1043930E+01  0.7957747E-01            NaN
         13   -1    0    0    0    0  0.00000000000E+00  0.00000000000E+00  0.74505805969E-08  0.10566000000E+00  0.10566000000E+00 0. -1.
     999900   -1    0    0    0    0 -0.00000000000E+00 -0.00000000000E+00 -0.74505805969E-08  0.93827000000E+00  0.93827000000E+00 0. -1.
     999902    2    1    2    0    0 -0.13171780128E-01 -0.19398512174E-02  0.19989314159E-01  0.10199126834E+01  0.10196298595E+01 0.  0.
     999903    2    3    3    0    0 -0.82611065959E-01 -0.67789373540E-01  0.76446210947E-01  0.13292601206E+00  0.20132414888E-01 0.  0.
         14    1    1    2    0    0  0.13171780128E-01  0.19398512174E-02 -0.19989314159E-01  0.24017316566E-01  0.00000000000E+00 0.  1.
     999901    1    3    3    0    0  0.69439285831E-01  0.65849522322E-01 -0.56456896787E-01  0.88698667138E+00  0.88000000000E+00 0. -1.
        -11    1    4    4    0    0 -0.48323010836E-01 -0.28639054819E-01  0.33150745939E-01  0.65226849644E-01  0.51100000000E-03 0.  1.
         11    1    4    4    0    0 -0.34288055123E-01 -0.39150318721E-01  0.43295465008E-01  0.67699162412E-01  0.51100000000E-03 0. -1.
</event>
<event>
 8    1  0.1074844E+005  0.1043930E+01  0.7957747E-01            NaN
         13   -1    0    0    0    0  0.00000000000E+00  0.00000000000E+00  0.74505805969E-08  0.10566000000E+00  0.10566000000E+00 0. -1.
     999900   -1    0    0    0    0 -0.00000000000E+00 -0.00000000000E+00 -0.74505805969E-08  0.93827000000E+00  0.93827000000E+00 0. -1.
     999902    2    1    2    0    0  0.45304263336E-02  0.22574850223E-01 -0.40026964621E-02  0.10205597154E+01  0.10202920966E+01 0.  0.
     999903    2    3    3    0    0  0.47464837186E-01 -0.27652883412E-02  0.11984645828E+00  0.13048999933E+00  0.20097481752E-01 0.  0.
         14    1    1    2    0    0 -0.45304263336E-02 -0.22574850223E-01  0.40026964621E-02  0.23370284644E-01  0.00000000000E+00 0. -1.
     999901    1    3    3    0    0 -0.42934410852E-01  0.25340138564E-01 -0.12384915475E+00  0.89006971603E+00  0.88000000000E+00 0. -1.
        -11    1    4    4    0    0  0.20111345130E-01  0.81018231688E-02  0.59906538889E-01  0.63711539490E-01  0.51100000000E-03 0. -1.
         11    1    4    4    0    0  0.27353492056E-01 -0.10867111510E-01  0.59939919396E-01  0.66778459839E-01  0.51100000000E-03 0.  1.
</event>
<event>
 8    1  0.1074844E+005  0.1043930E+01  0.7957747E-01            NaN
         13   -1    0    0    0    0  0.00000000000E+00  0.00000000000E+00  0.74505805969E-08  0.10566000000E+00  0.10566000000E+00 0. -1.
     999900   -1    0    0    0    0 -0.00000000000E+00 -0.00000000000E+00 -0.74505805969E-08  0.93827000000E+00  0.93827000000E+00 0.  1.
     999902    2    1    2    0    0 -0.17661999469E-01  0.13134067039E-02 -0.15352727663E-01  0.10204911965E+01  0.10202219879E+01 0.  0.
     999903    2    3    3    0    0  0.23020370678E-01 -0.11691970203E+00  0.46655106436E-01  0.12949226568E+00  0.19783673219E-01 0.  0.
         14    1    1    2    0    0  0.17661999469E-01 -0.13134067039E-02  0.15352727663E-01  0.23438803492E-01  0.00000000000E+00 0. -1.
     999901    1    3    3    0    0 -0.40682370148E-01  0.11823310873E+00 -0.62007834099E-01  0.89099893083E+00  0.88000000000E+00 0.  1.
        -11    1    4    4    0    0  0.25772929752E-01 -0.10951194023E+00  0.40924224709E-01  0.11971700903E+00  0.51100000000E-03 0. -1.
         11    1    4    4    0    0 -0.27525590736E-02 -0.74077617991E-02  0.57308817268E-02  0.97752566561E-02  0.51100000000E-03 0.  1.
</event>
<event>
 8    1  0.1074844E+005  0.1043930E+01  0.7957747E-01            NaN
         13   -1    0    0    0    0  0.00000000000E+00  0.00000000000E+00  0.74505805969E-08  0.10566000000E+00  0.10566000000E+00 0. -1.
     999900   -1    0    0    0    0 -0.00000000000E+00 -0.00000000000E+00 -0.74505805969E-08  0.93827000000E+00  0.93827000000E+00 0. -1.
     999902    2    1    2    0    0 -0.45904663822E-02  0.21474463021E-01  0.88697842198E-02  0.10202467144E+01  0.10199717939E+01 0.  0.
     999903    2    3    3    0    0 -0.11582663848E+00  0.55437132992E-01  0.24713616537E-01  0.13245283296E+00  0.21069034667E-01 0.  0.
         14    1    1    2    0    0  0.45904663822E-02 -0.21474463021E-01 -0.88697842198E-02  0.23683285578E-01  0.00000000000E+00 0.  1.
     999901    1    3    3    0    0  0.11123617210E+00 -0.33962669970E-01 -0.15843832317E-01  0.88779388146E+00  0.88000000000E+00 0. -1.
        -11    1    4    4    0    0 -0.55784863559E-01  0.27060232484E-01  0.22642651759E-01  0.66008772024E-01  0.51100000000E-03 0.  1.
         11    1    4    4    0    0 -0.60041774920E-01  0.28376900508E-01  0.20709647782E-02  0.66444060939E-01  0.51100000000E-03 0. -1.
</event>
<event>
 8    1  0.1074844E+005  0.1043930E+01  0.7957747E-01            NaN
         13   -1    0    0    0    0  0.00000000000E+00  0.00000000000E+00  0.74505805969E-08  0.10566000000E+00  0.10566000000E+00 0. -1.
     999900   -1    0    0    0    0 -0.00000000000E+00 -0.00000000000E+00 -0.74505805969E-08  0.93827000000E+00  0.93827000000E+00 0.  1.
     999902    2    1    2    0    0 -0.16354201002E-01 -0.15962123878E-01  0.40988337847E-02  0.10207125555E+01  0.10204484658E+01 0.  0.
     999903    2    3    3    0    0 -0.61498025521E-01 -0.67331820525E-01  0.95204456612E-01  0.13336986799E+00  0.20200295318E-01 0.  0.
         14    1    1    2    0    0  0.16354201002E-01  0.15962123878E-01 -0.40988337847E-02  0.23217444465E-01  0.00000000000E+00 0.  1.
     999901    1    3    3    0    0  0.45143824519E-01  0.51369696647E-01 -0.91105622828E-01  0.88734268754E+00  0.88000000000E+00 0.  1.
        -11    1    4    4    0    0 -0.51223150811E-01 -0.44019692430E-01  0.74303621795E-01  0.10041331502E+00  0.51100000000E-03 0.  1.
         11    1    4    4    0    0 -0.10274874710E-01 -0.23312128095E-01  0.20900834817E-01  0.32956552970E-01  0.51100000000E-03 0. -1.
</event>
<event>
 8    1  0.1266253E+005  0.1043930E+01  0.7957747E-01            NaN
         13   -1    0    0    0    0  0.00000000000E+00  0.00000000000E+00  0.74505805969E-08  0.10566000000E+00  0.10566000000E+00 0. -1.
     999900   -1    0    0    0    0 -0.00000000000E+00 -0.00000000000E+00 -0.74505805969E-08  0.93827000000E+00  0.93827000000E+00 0. -1.
     999902    2    1    2    0    0  0.16480520158E-01  0.10221950404E-01 -0.13568511251E-01  0.10202614489E+01  0.10199868743E+01 0.  0.
     999903    2    3    3    0    0  0.13136079626E+00  0.27300813797E-02 -0.18981114933E-02  0.13268621028E+00  0.18409655972E-01 0.  0.
         14    1    1    2    0    0 -0.16480520158E-01 -0.10221950404E-01  0.13568511251E-01  0.23668551124E-01  0.00000000000E+00 0.  1.
     999901    1    3    3    0    0 -0.11488027610E+00  0.74918690248E-02 -0.11670399758E-01  0.88757523860E+00  0.88000000000E+00 0.  1.
        -11    1    4    4    0    0  0.91777804097E-01  0.36041321567E-02  0.69540238191E-02  0.92112836574E-01  0.51100000000E-03 0.  1.
         11    1    4    4    0    0  0.39582992163E-01 -0.87405077699E-03 -0.88521353123E-02  0.40573373706E-01  0.51100000000E-03 0. -1.
</event>
<event>
 8    1  0.1074844E+005  0.1043930E+01  0.7957747E-01            NaN
         13   -1    0    0    0    0  0.00000000000E+00  0.00000000000E+00  0.74505805969E-08  0.10566000000E+00  0.10566000000E+00 0.  1.
     999900   -1    0    0    0    0 -0.00000000000E+00 -0.00000000000E+00 -0.74505805969E-08  0.93827000000E+00  0.93827000000E+00 0.  1.
     999902    2    1    2    0    0 -0.93750274279E-03 -0.23085992221E-01  0.23675105980E-02  0.10207040005E+01  0.10204397138E+01 0.  0.
     999903    2    3    3    0    0 -0.46946470532E-01 -0.89607575127E-01  0.84369059038E-01  0.13319839481E+00  0.19753117273E-01 0.  0.
         14    1    1    2    0    0  0.93750274279E-03  0.23085992221E-01 -0.23675105980E-02  0.23225999541E-01  0.00000000000E+00 0. -1.
     999901    1    3    3    0    0  0.46008967789E-01  0.66521582906E-01 -0.82001548440E-01  0.88750560565E+00  0.88000000000E+00 0.  1.
        -11    1    4    4    0    0 -0.19881178495E-01 -0.42521481901E-01  0.51635246219E-01  0.69783934072E-01  0.51100000000E-03 0.  1.
         11    1    4    4    0    0 -0.27065292037E-01 -0.47086093226E-01  0.32733812818E-01  0.63414460740E-01  0.51100000000E-03 0. -1.
</event>
<event>
 8    1  0.1074844E+005  0.1043930E+01  0.7957747E-01            NaN
         13   -1    0    0    0    0  0.00000000000E+00  0.00000000000E+00  0.74505805969E-08  0.10566000000E+00  0.10566000000E+00 0.  1.
     999900   -1    0    0    0    0 -0.00000000000E+00 -0.00000000000E+00 -0.74505805969E-08  0.93827000000E+00  0.93827000000E+00 0. -1.
     999902    2    1    2    0    0  0.12450380577E-01 -0.18748005803E-01  0.71575804126E-02  0.10203136782E+01  0.10200403283E+01 0.  0.
     999903    2    3    3    0    0 -0.37891215589E-01  0.11404667331E+00 -0.38178088840E-01  0.12777570925E+00  0.20656173290E-01 0.  0.
         14    1    1    2    0    0 -0.12450380577E-01  0.18748005803E-01 -0.71575804126E-02  0.23616321802E-01  0.00000000000E+00 0. -1.
     999901    1    3    3    0    0  0.50341596166E-01 -0.13279467911E+00  0.45335669253E-01  0.89253796895E+00  0.88000000000E+00 0. -1.
        -11    1    4    4    0    0 -0.31725766626E-01  0.67009373712E-01 -0.28005468286E-01  0.79254954471E-01  0.51100000000E-03 0. -1.
         11    1    4    4    0    0 -0.61654489636E-02  0.47037299599E-01 -0.10172620554E-01  0.48520754780E-01  0.51100000000E-03 0.  1.
</event>
<event>
 8    1  0.1074844E+005  0.1043930E+01  0.7957747E-01            NaN
         13   -1    0    0    0    0  0.00000000000E+00  0.00000000000E+00  0.74505805969E-08  0.10566000000E+00  0.10566000000E+00 0. -1.
     999900   -1    0    0    0    0 -0.00000000000E+00 -0.00000000000E+00 -0.74505805969E-08  0.93827000000E+00  0.93827000000E+00 0. -1.
     999902    2    1    2    0    0 -0.38699739082E-02  0.58453503555E-03 -0.23774478328E-01  0.10198355152E+01  0.10195508491E+01 0.  0.
     999903    2    3    3    0    0  0.12593287078E+00 -0.35263903881E-02 -0.26883275431E-01  0.13029892637E+00  0.19585105191E-01 0.  0.
         14    1    1    2    0    0  0.38699739082E-02 -0.58453503555E-03  0.23774478328E-01  0.24094484826E-01  0.00000000000E+00 0. -1.
     999901    1    3    3    0    0 -0.12980284468E+00  0.41109254236E-02  0.31087971034E-02  0.88953658880E+00  0.88000000000E+00 0. -1.
        -11    1    4    4    0    0  0.33209166648E-01 -0.88086824401E-02 -0.10970488053E-01  0.36070131201E-01  0.51100000000E-03 0.  1.
         11    1    4    4    0    0  0.92723704128E-01  0.52822920520E-02 -0.15912787378E-01  0.94228795172E-01  0.51100000000E-03 0. -1.
</event>
<event>
 8    1  0.1074844E+005  0.1043930E+01  0.7957747E-01            NaN
         13   -1    0    0    0    0  0.00000000000E+00  0.00000000000E+00  0.74505805969E-08  0.10566000000E+00  0.10566000000E+00 0.  1.
     999900   -1    0    0    0    0 -0.00000000000E+00 -0.00000000000E+00 -0.74505805969E-08  0.93827000000E+00  0.93827000000E+00 0. -1.
     999902    2    1    2    0    0  0.97152461561E-02  0.21954943963E-01  0.17022424271E-02  0.10198612817E+01  0.10195772313E+01 0.  0.
     999903    2    3    3    0    0  0.13474884692E-01 -0.69860543179E-02 -0.12726754874E+00  0.12998211949E+00  0.21632035365E-01 0.  0.
         14    1    1    2    0    0 -0.97152461561E-02 -0.21954943963E-01 -0.17022424271E-02  0.24068718320E-01  0.00000000000E+00 0. -1.
     999901    1    3    3    0    0 -0.37596385357E-02  0.28940998281E-01  0.12896979116E+00  0.88987916219E+00  0.88000000000E+00 0.  1.
        -11    1    4    4    0    0  0.12920521261E-01  0.49360276782E-02 -0.53915033911E-01  0.55663239589E-01  0.51100000000E-03 0.  1.
         11    1    4    4    0    0  0.55436343072E-03 -0.11922081996E-01 -0.73352514825E-01  0.74318879904E-01  0.51100000000E-03 0. -1.
</event>
<event>
 8    1  0.1074844E+005  0.1043930E+01  0.7957747E-01            NaN
         13   -1    0    0    0    0  0.00000000000E+00  0.00000000000E+00  0.74505805969E-08  0.10566000000E+00  0.10566000000E+00 0.  1.
     999900   -1    0    0    0    0 -0.00000000000E+00 -0.00000000000E+00 -0.74505805969E-08  0.93827000000E+00  0.93827000000E+00 0.  1.
     999902    2    1    2    0    0  0.12848503541E-01 -0.37369183989E-02  0.16745858926E-01  0.10224946928E+01  0.10222699861E+01 0.  0.
     999903    2    3    3    0    0 -0.11399581062E+00 -0.24185489914E-01  0.59120926870E-01  0.13215584132E+00  0.19745876536E-01 0.  0.
         14    1    1    2    0    0 -0.12848503541E-01  0.37369183989E-02 -0.16745858926E-01  0.21435307172E-01  0.00000000000E+00 0. -1.
     999901    1    3    3    0    0  0.12684431416E+00  0.20448571515E-01 -0.42375067944E-01  0.89033885150E+00  0.88000000000E+00 0.  1.
        -11    1    4    4    0    0 -0.43728935974E-01 -0.20173177199E-02  0.29237652105E-01  0.52644000929E-01  0.51100000000E-03 0. -1.
         11    1    4    4    0    0 -0.70266874650E-01 -0.22168172194E-01  0.29883274766E-01  0.79511840396E-01  0.51100000000E-03 0.  1.
</event>
<event>
 8    1  0.1074844E+005  0.1043930E+01  0.7957747E-01            NaN
         13   -1    0    0    0    0  0.00000000000E+00  0.00000000000E+00  0.74505805969E-08  0.10566000000E+00  0.10566000000E+00 0. -1.
     999900   -1    0    0    0    0 -0.00000000000E+00 -0.00000000000E+00 -0.74505805969E-08  0.93827000000E+00  0.93827000000E+00 0. -1.
     999902    2    1    2    0    0  0.81482178218E-02 -0.20622401041E-01 -0.89334811593E-02  0.10200242692E+01  0.10197440982E+01 0.  0.
     999903    2    3    3    0    0  0.77751462766E-02  0.70985370719E-04 -0.12937468374E+00  0.13157931386E+00  0.22690286591E-01 0.  0.
         14    1    1    2    0    0 -0.81482178218E-02  0.20622401041E-01  0.89334811593E-02  0.23905730777E-01  0.00000000000E+00 0.  1.
     999901    1    3    3    0    0  0.37307154517E-03 -0.20693386412E-01  0.12044120258E+00  0.88844495536E+00  0.88000000000E+00 0.  1.
        -11    1    4    4    0    0  0.15749080240E-01 -0.12794745051E-02 -0.90253637696E-01  0.91627784114E-01  0.51100000000E-03 0. -1.
         11    1    4    4    0    0 -0.79739339638E-02  0.13504598758E-02 -0.39121046044E-01  0.39951529749E-01  0.51100000000E-03 0.  1.
</event>
<event>
 8    1  0.1074844E+005  0.1043930E+01  0.7957747E-01            NaN
         13   -1    0    0    0    0  0.00000000000E+00  0.00000000000E+00  0.74505805969E-08  0.10566000000E+00  0.10566000000E+00 0. -1.
     999900   -1    0    0    0    0 -0.00000000000E+00 -0.00000000000E+00 -0.74505805969E-08  0.93827000000E+00  0.93827000000E+00 0.  1.
     999902    2    1    2    0    0  0.12860411167E-01  0.18002426715E-01 -0.97467969130E-02  0.10197540286E+01  0.10194674106E+01 0.  0.
     999903    2    3    3    0    0 -0.18216764257E-01 -0.77238060799E-02 -0.12785547601E+00  0.13094736235E+00  0.20215867039E-01 0.  0.
         14    1    1    2    0    0 -0.12860411167E-01 -0.18002426715E-01  0.97467969130E-02  0.24175971399E-01  0.00000000000E+00 0.  1.
     999901    1    3    3    0    0  0.31077175424E-01  0.25726232795E-01  0.11810867910E+00  0.88880666625E+00  0.88000000000E+00 0. -1.
        -11    1    4    4    0    0 -0.91066974128E-02  0.62291877171E-02 -0.64295253636E-01  0.65237071352E-01  0.51100000000E-03 0. -1.
         11    1    4    4    0    0 -0.91100668439E-02 -0.13952993797E-01 -0.63560222378E-01  0.65710291002E-01  0.51100000000E-03 0.  1.
</event>
<event>
 8    1  0.1074844E+005  0.1043930E+01  0.7957747E-01            NaN
         13   -1    0    0    0    0  0.00000000000E+00  0.00000000000E+00  0.74505805969E-08  0.10566000000E+00  0.10566000000E+00 0.  1.
     999900   -1    0    0    0    0 -0.00000000000E+00 -0.00000000000E+00 -0.74505805969E-08  0.93827000000E+00  0.93827000000E+00 0.  1.
     999902    2    1    2    0    0 -0.15087410933E-01  0.48992105525E-02  0.18636851347E-01  0.10194562496E+01  0.10191624406E+01 0.  0.
     999903    2    3    3    0    0  0.67474561672E-01  0.10086878091E+00  0.42315937014E-01  0.13008156088E+00  0.20080999010E-01 0.  0.
         14    1    1    2    0    0  0.15087410933E-01 -0.48992105525E-02 -0.18636851347E-01  0.24473750444E-01  0.00000000000E+00 0. -1.
     999901    1    3    3    0    0 -0.82561972604E-01 -0.95969570357E-01 -0.23679085667E-01  0.88937468867E+00  0.88000000000E+00 0.  1.
        -11    1    4    4    0    0  0.48358837712E-01  0.59795848008E-01  0.33693536070E-01  0.83962111203E-01  0.51100000000E-03 0.  1.
         11    1    4    4    0    0  0.19115723960E-01  0.41072932902E-01  0.86224009444E-02  0.46119449679E-01  0.51100000000E-03 0. -1.
</event>
<event>
 8    1  0.1074844E+005  0.1043930E+01  0.7957747E-01            NaN
         13   -1    0    0    0    0  0.00000000000E+00  0.00000000000E+00  0.74505805969E-08  0.10566000000E+00  0.10566000000E+00 0.  1.
     999900   -1    0    0    0    0 -0.00000000000E+00 -0.00000000000E+00 -0.74505805969E-08  0.93827000000E+00  0.93827000000E+00 0. -1.
     999902    2    1    2    0    0  0.48830332855E-02 -0.20631861737E-01  0.14453010951E-01  0.10182705523E+01  0.10179472041E+01 0.  0.
     999903    2    3    3    0    0  0.52258204090E-01  0.10962135027E+00  0.32910867600E-01  0.12723127225E+00  0.18892091016E-01 0.  0.
         14    1    1    2    0    0 -0.48830332855E-02  0.20631861737E-01 -0.14453010951E-01  0.25659447740E-01  0.00000000000E+00 0. -1.
     999901    1    3    3    0    0 -0.47375170804E-01 -0.13025321201E+00 -0.18457856649E-01  0.89103928001E+00  0.88000000000E+00 0.  1.
        -11    1    4    4    0    0  0.18825429192E-02  0.14134667203E-01  0.82754048647E-02  0.16494733446E-01  0.51100000000E-03 0. -1.
         11    1    4    4    0    0  0.50375661170E-01  0.95486683065E-01  0.24635462736E-01  0.11073653880E+00  0.51100000000E-03 0.  1.
</event>
<event>
 8    1  0.1074844E+005  0.1043930E+01  0.7957747E-01            NaN
         13   -1    0    0    0    0  0.00000000000E+00  0.00000000000E+00  0.74505805969E-08  0.10566000000E+00  0.10566000000E+00 0.  1.
     999900   -1    0    0    0    0 -0.00000000000E+00 -0.00000000000E+00 -0.74505805969E-08  0.93827000000E+00  0.93827000000E+00 0. -1.
     999902    2    1    2    0    0 -0.69059194619E-03  0.23237219640E-01  0.43742544422E-02  0.10202745694E+01  0.10200003028E+01 0.  0.
     999903    2    3    3    0    0  0.10161288302E+00 -0.29696942466E-01  0.71324135481E-01  0.13024630410E+00  0.25882060220E-01 0.  0.
         14    1    1    2    0    0  0.69059194619E-03 -0.23237219640E-01 -0.43742544422E-02  0.23655430577E-01  0.00000000000E+00 0. -1.
     999901    1    3    3    0    0 -0.10230347497E+00  0.52934162106E-01 -0.66949881038E-01  0.89002826533E+00  0.88000000000E+00 0. -1.
        -11    1    4    4    0    0  0.63355075277E-01 -0.73579526953E-02  0.50170804155E-01  0.81150328045E-01  0.51100000000E-03 0. -1.
         11    1    4    4    0    0  0.38257807744E-01 -0.22338989771E-01  0.21153331325E-01  0.49095976052E-01  0.51100000000E-03 0.  1.
</event>
<event>
 8    1  0.1074844E+005  0.1043930E+01  0.7957747E-01            NaN
         13   -1    0    0    0    0  0.00000000000E+00  0.00000000000E+00  0.74505805969E-08  0.10566000000E+00  0.10566000000E+00 0. -1.
     999900   -1    0    0    0    0 -0.00000000000E+00 -0.00000000000E+00 -0.74505805969E-08  0.93827000000E+00  0.93827000000E+00 0. -1.
     999902    2    1    2    0    0  0.24445739463E-02 -0.15797020832E-01 -0.17114225241E-01  0.10205116629E+01  0.10202429297E+01 0.  0.
     999903    2    3    3    0    0 -0.43714340111E-01 -0.94531919378E-01  0.76627199281E-01  0.13083909148E+00  0.19997821780E-01 0.  0.
         14    1    1    2    0    0 -0.24445739463E-02  0.15797020832E-01  0.17114225241E-01  0.23418337143E-01  0.00000000000E+00 0.  1.
     999901    1    3    3    0    0  0.46158914058E-01  0.78734898546E-01 -0.93741424522E-01  0.88967257138E+00  0.88000000000E+00 0. -1.
        -11    1    4    4    0    0 -0.34742878539E-01 -0.77415976878E-01  0.71173774101E-01  0.11075318653E+00  0.51100000000E-03 0. -1.
         11    1    4    4    0    0 -0.89714615724E-02 -0.17115942500E-01  0.54534251796E-02  0.20085904948E-01  0.51100000000E-03 0.  1.
</event>
<event>
 8    1  0.1074844E+005  0.1043930E+01  0.7957747E-01            NaN
         13   -1    0    0    0    0  0.00000000000E+00  0.00000000000E+00  0.74505805969E-08  0.10566000000E+00  0.10566000000E+00 0.  1.
     999900   -1    0    0    0    0 -0.00000000000E+00 -0.00000000000E+00 -0.74505805969E-08  0.93827000000E+00  0.93827000000E+00 0. -1.
     999902    2    1    2    0    0 -0.28023449554E-02 -0.13796398795E-01 -0.18102852554E-01  0.10209973371E+01  0.10207397589E+01 0.  0.
     999903    2    3    3    0    0 -0.63630534906E-02 -0.91314894645E-01  0.91302215007E-01  0.13083372032E+00  0.20061641821E-01 0.  0.
         14    1    1    2    0    0  0.28023449554E-02  0.13796398795E-01  0.18102852554E-01  0.22932662897E-01  0.00000000000E+00 0. -1.
     999901    1    3    3    0    0  0.35607085352E-02  0.77518495850E-01 -0.10940506756E+00  0.89016361679E+00  0.88000000000E+00 0. -1.
        -11    1    4    4    0    0 -0.11044440261E-01 -0.85426215622E-01  0.83025460047E-01  0.11963739429E+00  0.51100000000E-03 0.  1.
         11    1    4    4    0    0  0.46813867701E-02 -0.58886790227E-02  0.82767549602E-02  0.11196326022E-01  0.51100000000E-03 0. -1.
</event>
<event>
 8    1  0.1074844E+005  0.1043930E+01  0.7957747E-01            NaN
         13   -1    0    0    0    0  0.00000000000E+00  0.00000000000E+00  0.74505805969E-08  0.10566000000E+00  0.10566000000E+00 0. -1.
     999900   -1    0    0    0    0 -0.00000000000E+00 -0.00000000000E+00 -0.74505805969E-08  0.93827000000E+00  0.93827000000E+00 0. -1.
     999902    2    1    2    0    0 -0.17640195178E-01  0.15191969493E-01  0.53825506503E-02  0.10200355598E+01  0.10197556565E+01 0.  0.
     999903    2    3    3    0    0 -0.64778895616E-02 -0.85877637996E-01 -0.93449694643E-01  0.12868407166E+00  0.20243841268E-01 0.  0.
         14    1    1    2    0    0  0.17640195178E-01 -0.15191969493E-01 -0.53825506503E-02  0.23894440242E-01  0.00000000000E+00 0.  1.
     999901    1    3    3    0    0 -0.11162305616E-01  0.10106960749E+00  0.98832245293E-01  0.89135148810E+00  0.88000000000E+00 0.  1.
        -11    1    4    4    0    0 -0.13058386730E-01 -0.40010518802E-01 -0.42582368458E-01  0.59873886656E-01  0.51100000000E-03 0.  1.
         11    1    4    4    0    0  0.65804971681E-02 -0.45867119194E-01 -0.50867326184E-01  0.68810185004E-01  0.51100000000E-03 0. -1.
</event>
<event>
 8    1  0.1074844E+005  0.1043930E+01  0.7957747E-01            NaN
         13   -1    0    0    0    0  0.00000000000E+00  0.00000000000E+00  0.74505805969E-08  0.10566000000E+00  0.10566000000E+00 0.  1.
     999900   -1    0    0    0    0 -0.00000000000E+00 -0.00000000000E+00 -0.74505805969E-08  0.93827000000E+00  0.93827000000E+00 0. -1.
     999902    2    1    2    0    0 -0.22462640096E-01 -0.11345012297E-01  0.17971599647E-01  0.10130065801E+01  0.10125344801E+01 0.  0.
     999903    2    3    3    0    0 -0.61481519493E-01 -0.10517045553E+00 -0.25564999098E-01  0.12608994243E+00  0.20107273504E-01 0.  0.
         14    1    1    2    0    0  0.22462640096E-01  0.11345012297E-01 -0.17971599647E-01  0.30923419895E-01  0.00000000000E+00 0. -1.
     999901    1    3    3    0    0  0.39018879396E-01  0.93825443237E-01  0.43536598745E-01  0.88691663767E+00  0.88000000000E+00 0.  1.
        -11    1    4    4    0    0 -0.46248059173E-01 -0.89432156719E-01 -0.26658704278E-01  0.10415345058E+00  0.51100000000E-03 0.  1.
         11    1    4    4    0    0 -0.15233460319E-01 -0.15738298815E-01  0.10937051793E-02  0.21936491855E-01  0.51100000000E-03 0. -1.
</event>
<event>
 8    1  0.1235748E+005  0.1043930E+01  0.7957747E-01            NaN
         13   -1    0    0    0    0  0.00000000000E+00  0.00000000000E+00  0.74505805969E-08  0.10566000000E+00  0.10566000000E+00 0. -1.
     999900   -1    0    0    0    0 -0.00000000000E+00 -0.00000000000E+00 -0.74505805969E-08  0.93827000000E+00  0.93827000000E+00 0.  1.
     999902    2    1    2    0    0 -0.18282655895E-01 -0.84945685111E-02  0.11488060750E-01  0.10207267946E+01  0.10204630324E+01 0.  0.
     999903    2    3    3    0    0 -0.22171049538E-01 -0.12703524128E+00  0.23929426534E-01  0.13268299034E+00  0.20066153310E-01 0.  0.
         14    1    1    2    0    0  0.18282655895E-01  0.84945685111E-02 -0.11488060750E-01  0.23203205394E-01  0.00000000000E+00 0.  1.
     999901    1    3    3    0    0  0.38883936422E-02  0.11854067277E+00 -0.12441365784E-01  0.88804380426E+00  0.88000000000E+00 0.  1.
        -11    1    4    4    0    0  0.14647778261E-02 -0.40475495647E-01  0.11425493682E-01  0.42085797471E-01  0.51100000000E-03 0.  1.
         11    1    4    4    0    0 -0.23635827364E-01 -0.86559745630E-01  0.12503932852E-01  0.90597192873E-01  0.51100000000E-03 0. -1.
</event>
<event>
 8    1  0.1074844E+005  0.1043930E+01  0.7957747E-01            NaN
         13   -1    0    0    0    0  0.00000000000E+00  0.00000000000E+00  0.74505805969E-08  0.10566000000E+00  0.10566000000E+00 0.  1.
     999900   -1    0    0    0    0 -0.00000000000E+00 -0.00000000000E+00 -0.74505805969E-08  0.93827000000E+00  0.93827000000E+00 0.  1.
     999902    2    1    2    0    0  0.15083457059E-01  0.14867228127E-01 -0.10464919655E-01  0.10203067129E+01  0.10200331998E+01 0.  0.
     999903    2    3    3    0    0  0.11430416971E+00 -0.47289734004E-01 -0.41410758123E-01  0.13201290867E+00  0.20268078643E-01 0.  0.
         14    1    1    2    0    0 -0.15083457059E-01 -0.14867228127E-01  0.10464919655E-01  0.23623287079E-01  0.00000000000E+00 0.  1.
     999901    1    3    3    0    0 -0.99220712647E-01  0.62156962131E-01  0.30945838468E-01  0.88829380426E+00  0.88000000000E+00 0. -1.
        -11    1    4    4    0    0  0.65021780339E-01 -0.17367734888E-01 -0.17110696659E-01  0.69444274024E-01  0.51100000000E-03 0.  1.
         11    1    4    4    0    0  0.49282389366E-01 -0.29921999116E-01 -0.24300061464E-01  0.62568634642E-01  0.51100000000E-03 0. -1.
</event>
<event>
 8    1  0.1074844E+005  0.1043930E+01  0.7957747E-01            NaN
         13   -1    0    0    0    0  0.00000000000E+00  0.00000000000E+00  0.74505805969E-08  0.10566000000E+00  0.10566000000E+00 0.  1.
     999900   -1    0    0    0    0 -0.00000000000E+00 -0.00000000000E+00 -0.74505805969E-08  0.93827000000E+00  0.93827000000E+00 0.  1.
     999902    2    1    2    0    0  0.12805702423E-01 -0.17755574300E-01 -0.88350241047E-02  0.10203227112E+01  0.10200495728E+01 0.  0.
     999903    2    3    3    0    0 -0.72666971593E-01  0.56655140618E-01 -0.88721062221E-01  0.12946676798E+00  0.19998085161E-01 0.  0.
         14    1    1    2    0    0 -0.12805702423E-01  0.17755574300E-01  0.88350241047E-02  0.23607288794E-01  0.00000000000E+00 0.  1.
     999901    1    3    3    0    0  0.85472674016E-01 -0.74410714918E-01  0.79886038117E-01  0.89085594323E+00  0.88000000000E+00 0. -1.
        -11    1    4    4    0    0 -0.42504959986E-01  0.27620998142E-01 -0.60710026106E-01  0.79092095386E-01  0.51100000000E-03 0. -1.
         11    1    4    4    0    0 -0.30162011607E-01  0.29034142476E-01 -0.28011036115E-01  0.50374672592E-01  0.51100000000E-03 0.  1.
</event>
<event>
 8    1  0.1074844E+005  0.1043930E+01  0.7957747E-01            NaN
         13   -1    0    0    0    0  0.00000000000E+00  0.00000000000E+00  0.74505805969E-08  0.10566000000E+00  0.10566000000E+00 0.  1.
     999900   -1    0    0    0    0 -0.00000000000E+00 -0.00000000000E+00 -0.74505805969E-08  0.93827000000E+00  0.93827000000E+00 0.  1.
     999902    2    1    2    0    0  0.13148155376E-01 -0.31549255647E-02 -0.19433149420E-01  0.10202556501E+01  0.10199809394E+01 0.  0.
     999903    2    3    3    0    0  0.79111186720E-01 -0.10342855352E-02  0.10060410542E+00  0.12965778288E+00  0.20743794770E-01 0.  0.
         14    1    1    2    0    0 -0.13148155376E-01  0.31549255647E-02  0.19433149420E-01  0.23674349864E-01  0.00000000000E+00 0.  1.
     999901    1    3    3    0    0 -0.65963031343E-01 -0.21206400295E-02 -0.12003725484E+00  0.89059786726E+00  0.88000000000E+00 0.  1.
        -11    1    4    4    0    0  0.36547081458E-01  0.82183686218E-02  0.55424109467E-01  0.66897860781E-01  0.51100000000E-03 0.  1.
         11    1    4    4    0    0  0.42564105262E-01 -0.92526541571E-02  0.45179995956E-01  0.62759922094E-01  0.51100000000E-03 0. -1.
</event>
<event>
 8    1  0.1074844E+005  0.1043930E+01  0.7957747E-01            NaN
         13   -1    0    0    0    0  0.00000000000E+00  0.00000000000E+00  0.74505805969E-08  0.10566000000E+00  0.10566000000E+00 0. -1.
     999900   -1    0    0    0    0 -0.00000000000E+00 -0.00000000000E+00 -0.74505805969E-08  0.93827000000E+00  0.93827000000E+00 0.  1.
     999902    2    1    2    0    0 -0.16354774478E-01 -0.10669557022E-01  0.15916522168E-01  0.10187376644E+01  0.10184261265E+01 0.  0.
     999903    2    3    3    0    0 -0.85221263930E-01  0.33004051782E-01  0.92101785249E-01  0.13168965454E+00  0.22527649842E-01 0.  0.
         14    1    1    2    0    0  0.16354774478E-01  0.10669557022E-01 -0.15916522168E-01  0.25192335605E-01  0.00000000000E+00 0.  1.
     999901    1    3    3    0    0  0.68866489452E-01 -0.43673608804E-01 -0.76185263081E-01  0.88704800985E+00  0.88000000000E+00 0.  1.
        -11    1    4    4    0    0 -0.24005594762E-01  0.12311958863E-01  0.42003456697E-01  0.49923986283E-01  0.51100000000E-03 0.  1.
         11    1    4    4    0    0 -0.61215669168E-01  0.20692092918E-01  0.50098328552E-01  0.81765668258E-01  0.51100000000E-03 0. -1.
</event>
<event>
 8    1  0.1074844E+005  0.1043930E+01  0.7957747E-01            NaN
         13   -1    0    0    0    0  0.00000000000E+00  0.00000000000E+00  0.74505805969E-08  0.10566000000E+00  0.10566000000E+00 0.  1.
     999900   -1    0    0    0    0 -0.00000000000E+00 -0.00000000000E+00 -0.74505805969E-08  0.93827000000E+00  0.93827000000E+00 0.  1.
     999902    2    1    2    0    0 -0.16567708833E-01  0.35209772566E-02  0.16262487114E-01  0.10204490557E+01  0.10201788670E+01 0.  0.
     999903    2    3    3    0    0 -0.16573245943E-01  0.43047120686E-02  0.13035738499E+00  0.13308314473E+00  0.20612437086E-01 0.  0.
         14    1    1    2    0    0  0.16567708833E-01 -0.35209772566E-02 -0.16262487114E-01  0.23480944273E-01  0.00000000000E+00 0. -1.
     999901    1    3    3    0    0  0.55371096178E-05 -0.78373481196E-03 -0.11409489788E+00  0.88736591099E+00  0.88000000000E+00 0.  1.
        -11    1    4    4    0    0 -0.12728488804E-01  0.12413817619E-01  0.84075518155E-01  0.85936436796E-01  0.51100000000E-03 0. -1.
         11    1    4    4    0    0 -0.38447571389E-02 -0.81091055502E-02  0.46281866838E-01  0.47146707937E-01  0.51100000000E-03 0.  1.
</event>
<event>
 8    1  0.1074844E+005  0.1043930E+01  0.7957747E-01            NaN
         13   -1    0    0    0    0  0.00000000000E+00  0.00000000000E+00  0.74505805969E-08  0.10566000000E+00  0.10566000000E+00 0.  1.
     999900   -1    0    0    0    0 -0.00000000000E+00 -0.00000000000E+00 -0.74505805969E-08  0.93827000000E+00  0.93827000000E+00 0. -1.
     999902    2    1    2    0    0 -0.39821562456E-02 -0.10585535379E-01 -0.20526759947E-01  0.10204937247E+01  0.10202245748E+01 0.  0.
     999903    2    3    3    0    0 -0.69805141495E-03  0.35657494149E-01 -0.12658607938E+00  0.13291399170E+00  0.19239270580E-01 0.  0.
         14    1    1    2    0    0  0.39821562456E-02  0.10585535379E-01  0.20526759947E-01  0.23436275334E-01  0.00000000000E+00 0.  1.
     999901    1    3    3    0    0 -0.32841048307E-02 -0.46243029528E-01  0.10605931944E+00  0.88757973296E+00  0.88000000000E+00 0.  1.
        -11    1    4    4    0    0 -0.52322877185E-02  0.15468661900E-01 -0.83882321977E-01  0.85458536127E-01  0.51100000000E-03 0.  1.
         11    1    4    4    0    0  0.45342363036E-02  0.20188832250E-01 -0.42703757406E-01  0.47455455577E-01  0.51100000000E-03 0. -1.
</event>
<event>
 8    1  0.1074844E+005  0.1043930E+01  0.7957747E-01            NaN
         13   -1    0    0    0    0  0.00000000000E+00  0.00000000000E+00  0.74505805969E-08  0.10566000000E+00  0.10566000000E+00 0.  1.
     999900   -1    0    0    0    0 -0.00000000000E+00 -0.00000000000E+00 -0.74505805969E-08  0.93827000000E+00  0.93827000000E+00 0. -1.
     999902    2    1    2    0    0 -0.18802497719E-01  0.88233601184E-02  0.19088063416E-01  0.10157211402E+01  0.10153293529E+01 0.  0.
     999903    2    3    3    0    0 -0.10052987271E+00  0.77880450187E-01 -0.39019153849E-02  0.12894225876E+00  0.20958562017E-01 0.  0.
         14    1    1    2    0    0  0.18802497719E-01 -0.88233601184E-02 -0.19088063416E-01  0.28208859765E-01  0.00000000000E+00 0. -1.
     999901    1    3    3    0    0  0.81727374987E-01 -0.69057090069E-01  0.22989978801E-01  0.88677888148E+00  0.88000000000E+00 0.  1.
        -11    1    4    4    0    0 -0.63102314532E-01  0.42475850143E-01 -0.11259952443E-01  0.76896993404E-01  0.51100000000E-03 0. -1.
         11    1    4    4    0    0 -0.37427558175E-01  0.35404600045E-01  0.73580370577E-02  0.52045265352E-01  0.51100000000E-03 0.  1.
</event>
<event>
 7    1  0.1074844E+005  0.1043930E+01  0.7957747E-01            NaN
         13   -1    0    0    0    0  0.00000000000E+00  0.00000000000E+00  0.74505805969E-08  0.10566000000E+00  0.10566000000E+00 0.  1.
     999900   -1    0    0    0    0 -0.00000000000E+00 -0.00000000000E+00 -0.74505805969E-08  0.93827000000E+00  0.93827000000E+00 0.  1.
     999903    2    1    2    0    0 -0.58310980782E-01 -0.88939634753E-01 -0.82529111540E-02  0.10821954623E+00  0.18246384111E-01 0.  0.
         14    1    1    2    0    0 -0.36733679736E-02  0.38668629806E-01 -0.33241993437E-01  0.51125206024E-01  0.00000000000E+00 0. -1.
     999901    1    1    2    0    0  0.61984348756E-01  0.50271004947E-01  0.41494904591E-01  0.88458524775E+00  0.88000000000E+00 0. -1.
        -11    1    3    3    0    0 -0.15577959622E-01 -0.37506427183E-01 -0.77370239958E-02  0.41346433550E-01  0.51100000000E-03 0.  1.
         11    1    3    3    0    0 -0.42733021160E-01 -0.51433207570E-01 -0.51588715816E-03  0.66873112676E-01  0.51100000000E-03 0. -1.
</event>
<event>
 8    1  0.1074844E+005  0.1043930E+01  0.7957747E-01            NaN
         13   -1    0    0    0    0  0.00000000000E+00  0.00000000000E+00  0.74505805969E-08  0.10566000000E+00  0.10566000000E+00 0.  1.
     999900   -1    0    0    0    0 -0.00000000000E+00 -0.00000000000E+00 -0.74505805969E-08  0.93827000000E+00  0.93827000000E+00 0. -1.
     999902    2    1    2    0    0 -0.18707519564E-02  0.24623581437E-01  0.69946300443E-02  0.10182639655E+01  0.10179404492E+01 0.  0.
     999903    2    3    3    0    0 -0.45316976388E-01  0.65971060139E-01 -0.10037780788E+00  0.12971119342E+00  0.18533220406E-01 0.  0.
         14    1    1    2    0    0  0.18707519564E-02 -0.24623581437E-01 -0.69946300443E-02  0.25666034465E-01  0.00000000000E+00 0.  1.
     999901    1    3    3    0    0  0.43446224432E-01 -0.41347478702E-01  0.10737243792E+00  0.88855277212E+00  0.88000000000E+00 0. -1.
        -11    1    4    4    0    0 -0.25943141907E-01  0.38397288425E-01 -0.72135461599E-01  0.85739047764E-01  0.51100000000E-03 0.  1.
         11    1    4    4    0    0 -0.19373834481E-01  0.27573771714E-01 -0.28242346279E-01  0.43972145654E-01  0.51100000000E-03 0. -1.
</event>
<event>
 8    1  0.1074844E+005  0.1043930E+01  0.7957747E-01            NaN
         13   -1    0    0    0    0  0.00000000000E+00  0.00000000000E+00  0.74505805969E-08  0.10566000000E+00  0.10566000000E+00 0.  1.
     999900   -1    0    0    0    0 -0.00000000000E+00 -0.00000000000E+00 -0.74505805969E-08  0.93827000000E+00  0.93827000000E+00 0.  1.
     999902    2    1    2    0    0  0.15710325640E-02  0.21263900248E-01 -0.11314500519E-01  0.10197920730E+01  0.10195063672E+01 0.  0.
     999903    2    3    3    0    0  0.65404463473E-01 -0.96203639847E-01 -0.51534479445E-01  0.12878647450E+00  0.19931615123E-01 0.  0.
         14    1    1    2    0    0 -0.15710325640E-02 -0.21263900248E-01  0.11314500519E-01  0.24137926983E-01  0.00000000000E+00 0.  1.
     999901    1    3    3    0    0 -0.63833430909E-01  0.11746754009E+00  0.40219978927E-01  0.89100559851E+00  0.88000000000E+00 0. -1.
        -11    1    4    4    0    0  0.33492764534E-01 -0.45307892456E-01 -0.14384407531E-01  0.58152753125E-01  0.51100000000E-03 0.  1.
         11    1    4    4    0    0  0.31911698938E-01 -0.50895747390E-01 -0.37150071914E-01  0.70633721378E-01  0.51100000000E-03 0. -1.
</event>
<event>
 8    1  0.1074844E+005  0.1043930E+01  0.7957747E-01            NaN
         13   -1    0    0    0    0  0.00000000000E+00  0.00000000000E+00  0.74505805969E-08  0.10566000000E+00  0.10566000000E+00 0.  1.
     999900   -1    0    0    0    0 -0.00000000000E+00 -0.00000000000E+00 -0.74505805969E-08  0.93827000000E+00  0.93827000000E+00 0. -1.
     999902    2    1    2    0    0  0.11481333769E-01  0.13641638370E-01 -0.15656544131E-01  0.10202014793E+01  0.10199254951E+01 0.  0.
     999903    2    3    3    0    0 -0.60872989665E-01 -0.10411715412E+00 -0.40493395100E-01  0.12906784702E+00  0.21746067127E-01 0.  0.
         14    1    1    2    0    0 -0.11481333769E-01 -0.13641638370E-01  0.15656544131E-01  0.23728520743E-01  0.00000000000E+00 0. -1.
     999901    1    3    3    0    0  0.72354323434E-01  0.11775879249E+00  0.24836850969E-01  0.89113363223E+00  0.88000000000E+00 0.  1.
        -11    1    4    4    0    0 -0.10900603932E-01 -0.33168709093E-01 -0.18616517739E-01  0.39570472358E-01  0.51100000000E-03 0. -1.
         11    1    4    4    0    0 -0.49972385733E-01 -0.70948445031E-01 -0.21876877361E-01  0.89497374667E-01  0.51100000000E-03 0.  1.
</event>
<event>
 8    1  0.1074844E+005  0.1043930E+01  0.7957747E-01            NaN
         13   -1    0    0    0    0  0.00000000000E+00  0.00000000000E+00  0.74505805969E-08  0.10566000000E+00  0.10566000000E+00 0.  1.
     999900   -1    0    0    0    0 -0.00000000000E+00 -0.00000000000E+00 -0.74505805969E-08  0.93827000000E+00  0.93827000000E+00 0. -1.
     999902    2    1    2    0    0 -0.14288777895E-01 -0.22085755138E-02 -0.18649282530E-01  0.10203324849E+01  0.10200595752E+01 0.  0.
     999903    2    3    3    0    0 -0.12593035776E+00  0.34738190396E-01 -0.33312712645E-02  0.13237778599E+00  0.21156180620E-01 0.  0.
         14    1    1    2    0    0  0.14288777895E-01  0.22085755138E-02  0.18649282530E-01  0.23597515090E-01  0.00000000000E+00 0.  1.
     999901    1    3    3    0    0  0.11164157986E+00 -0.36946765910E-01 -0.15318011265E-01  0.88795469892E+00  0.88000000000E+00 0. -1.
        -11    1    4    4    0    0 -0.39541659793E-01  0.21257349494E-01 -0.16085001451E-02  0.44925117255E-01  0.51100000000E-03 0. -1.
         11    1    4    4    0    0 -0.86388697965E-01  0.13480840902E-01 -0.17227711194E-02  0.87452668735E-01  0.51100000000E-03 0.  1.
</event>
<event>
 8    1  0.1074844E+005  0.1043930E+01  0.7957747E-01            NaN
         13   -1    0    0    0    0  0.00000000000E+00  0.00000000000E+00  0.74505805969E-08  0.10566000000E+00  0.10566000000E+00 0. -1.
     999900   -1    0    0    0    0 -0.00000000000E+00 -0.00000000000E+00 -0.74505805969E-08  0.93827000000E+00  0.93827000000E+00 0.  1.
     999902    2    1    2    0    0 -0.14889810908E-01 -0.99955849602E-02 -0.15100221761E-01  0.10204857068E+01  0.10202163706E+01 0.  0.
     999903    2    3    3    0    0 -0.75339487167E-01 -0.10270326452E+00 -0.34382751534E-01  0.13334383922E+00  0.19349599123E-01 0.  0.
         14    1    1    2    0    0  0.14889810908E-01  0.99955849602E-02  0.15100221761E-01  0.23444293225E-01  0.00000000000E+00 0. -1.
     999901    1    3    3    0    0  0.60449676260E-01  0.92707679559E-01  0.19282529773E-01  0.88714186755E+00  0.88000000000E+00 0. -1.
        -11    1    4    4    0    0 -0.59151830361E-01 -0.74474163607E-01 -0.17588490167E-01  0.96721022469E-01  0.51100000000E-03 0.  1.
         11    1    4    4    0    0 -0.16187656806E-01 -0.28229100913E-01 -0.16794261367E-01  0.36622816755E-01  0.51100000000E-03 0. -1.
</event>
<event>
 8    1  0.1074844E+005  0.1043930E+01  0.7957747E-01            NaN
         13   -1    0    0    0    0  0.00000000000E+00  0.00000000000E+00  0.74505805969E-08  0.10566000000E+00  0.10566000000E+00 0. -1.
     999900   -1    0    0    0    0 -0.00000000000E+00 -0.00000000000E+00 -0.74505805969E-08  0.93827000000E+00  0.93827000000E+00 0. -1.
     999902    2    1    2    0    0  0.16225362012E-01 -0.63902668656E-02  0.16252018297E-01  0.10200925089E+01  0.10198139540E+01 0.  0.
     999903    2    3    3    0    0 -0.71274315658E-01  0.98958614806E-01 -0.34787552602E-01  0.12803891283E+00  0.17633884062E-01 0.  0.
         14    1    1    2    0    0 -0.16225362012E-01  0.63902668656E-02 -0.16252018297E-01  0.23837491096E-01  0.00000000000E+00 0. -1.
     999901    1    3    3    0    0  0.87499677670E-01 -0.10534888167E+00  0.51039570899E-01  0.89205359607E+00  0.88000000000E+00 0.  1.
        -11    1    4    4    0    0 -0.43179374445E-01  0.52232132463E-01 -0.11458249172E-01  0.68732864296E-01  0.51100000000E-03 0.  1.
         11    1    4    4    0    0 -0.28094941213E-01  0.46726482342E-01 -0.23329303430E-01  0.59306048539E-01  0.51100000000E-03 0. -1.
</event>
<event>
 8    1  0.1074844E+005  0.1043930E+01  0.7957747E-01            NaN
         13   -1    0    0    0    0  0.00000000000E+00  0.00000000000E+00  0.74505805969E-08  0.10566000000E+00  0.10566000000E+00 0.  1.
     999900   -1    0    0    0    0 -0.00000000000E+00 -0.00000000000E+00 -0.74505805969E-08  0.93827000000E+00  0.93827000000E+00 0.  1.
     999902    2    1    2    0    0 -0.20583544274E-01 -0.55374192632E-02 -0.10135470783E-01  0.10203276045E+01  0.10200545806E+01 0.  0.
     999903    2    3    3    0    0 -0.92897116672E-01  0.59415173620E-01 -0.71305499743E-01  0.13286500553E+00  0.20213813527E-01 0.  0.
         14    1    1    2    0    0  0.20583544274E-01  0.55374192632E-02  0.10135470783E-01  0.23602395534E-01  0.00000000000E+00 0.  1.
     999901    1    3    3    0    0  0.72313572398E-01 -0.64952592883E-01  0.61170028960E-01  0.88746259894E+00  0.88000000000E+00 0. -1.
        -11    1    4    4    0    0 -0.51644175781E-01  0.40334974465E-01 -0.51207076130E-01  0.83165238074E-01  0.51100000000E-03 0.  1.
         11    1    4    4    0    0 -0.41252940890E-01  0.19080199156E-01 -0.20098423614E-01  0.49699767451E-01  0.51100000000E-03 0. -1.
</event>
<event>
 8    1  0.1074844E+005  0.1043930E+01  0.7957747E-01            NaN
         13   -1    0    0    0    0  0.00000000000E+00  0.00000000000E+00  0.74505805969E-08  0.10566000000E+00  0.10566000000E+00 0. -1.
     999900   -1    0    0    0    0 -0.00000000000E+00 -0.00000000000E+00 -0.74505805969E-08  0.93827000000E+00  0.93827000000E+00 0. -1.
     999902    2    1    2    0    0  0.20349080190E-01  0.39697612821E-02  0.12426782570E-01  0.10197583432E+01  0.10194718287E+01 0.  0.
     999903    2    3    3    0    0  0.42014898730E-01  0.69191584987E-03  0.12438514895E+00  0.13239436611E+00  0.17054982750E-01 0.  0.
         14    1    1    2    0    0 -0.20349080190E-01 -0.39697612821E-02 -0.12426782570E-01  0.24171656838E-01  0.00000000000E+00 0.  1.
     999901    1    3    3    0    0 -0.21665818540E-01  0.32778454322E-02 -0.11195836638E+00  0.88736397705E+00  0.88000000000E+00 0. -1.
        -11    1    4    4    0    0  0.18825481392E-01  0.78209397169E-02  0.68439313357E-01  0.71412650010E-01  0.51100000000E-03 0.  1.
         11    1    4    4    0    0  0.23189417338E-01 -0.71290238671E-02  0.55945835592E-01  0.60981716103E-01  0.51100000000E-03 0. -1.
</event>
<event>
 8    1  0.1074844E+005  0.1043930E+01  0.7957747E-01            NaN
         13   -1    0    0    0    0  0.00000000000E+00  0.00000000000E+00  0.74505805969E-08  0.10566000000E+00  0.10566000000E+00 0.  1.
     999900   -1    0    0    0    0 -0.00000000000E+00 -0.00000000000E+00 -0.74505805969E-08  0.93827000000E+00  0.93827000000E+00 0.  1.
     999902    2    1    2    0    0  0.21606770402E-01  0.10339051785E-01 -0.10269896666E-02  0.10199549457E+01  0.10196731281E+01 0.  0.
     999903    2    3    3    0    0  0.52223901849E-01 -0.60624016356E-01  0.10141149111E+00  0.13064802003E+00  0.19545007673E-01 0.  0.
         14    1    1    2    0    0 -0.21606770402E-01 -0.10339051785E-01  0.10269896666E-02  0.23975054261E-01  0.00000000000E+00 0.  1.
     999901    1    3    3    0    0 -0.30617131447E-01  0.70963068141E-01 -0.10243848077E+00  0.88930692571E+00  0.88000000000E+00 0.  1.
        -11    1    4    4    0    0  0.14951353504E-01 -0.23115633675E-01  0.48929322925E-01  0.56144592390E-01  0.51100000000E-03 0. -1.
         11    1    4    4    0    0  0.37272548346E-01 -0.37508382681E-01  0.52482168181E-01  0.74503427636E-01  0.51100000000E-03 0.  1.
</event>
<event>
 8    1  0.1137014E+005  0.1043930E+01  0.7957747E-01            NaN
         13   -1    0    0    0    0  0.00000000000E+00  0.00000000000E+00  0.74505805969E-08  0.10566000000E+00  0.10566000000E+00 0.  1.
     999900   -1    0    0    0    0 -0.00000000000E+00 -0.00000000000E+00 -0.74505805969E-08  0.93827000000E+00  0.93827000000E+00 0. -1.
     999902    2    1    2    0    0  0.89546109566E-02  0.13863947493E-01  0.17208455881E-01  0.10200862366E+01  0.10198075334E+01 0.  0.
     999903    2    3    3    0    0 -0.11544449816E+00  0.22787382805E-01 -0.46339845604E-01  0.12902330246E+00  0.25552579459E-01 0.  0.
         14    1    1    2    0    0 -0.89546109566E-02 -0.13863947493E-01 -0.17208455881E-01  0.23843763362E-01  0.00000000000E+00 0.  1.
     999901    1    3    3    0    0  0.12439910911E+00 -0.89234353119E-02  0.63548301485E-01  0.89106293418E+00  0.88000000000E+00 0. -1.
        -11    1    4    4    0    0 -0.68972104213E-01  0.26267217446E-01 -0.27978623550E-01  0.78931504285E-01  0.51100000000E-03 0. -1.
         11    1    4    4    0    0 -0.46472393944E-01 -0.34798346409E-02 -0.18361222053E-01  0.50091798174E-01  0.51100000000E-03 0.  1.
</event>
<event>
 8    1  0.1074844E+005  0.1043930E+01  0.7957747E-01            NaN
         13   -1    0    0    0    0  0.00000000000E+00  0.00000000000E+00  0.74505805969E-08  0.10566000000E+00  0.10566000000E+00 0.  1.
     999900   -1    0    0    0    0 -0.00000000000E+00 -0.00000000000E+00 -0.74505805969E-08  0.93827000000E+00  0.93827000000E+00 0. -1.
     999902    2    1    2    0    0 -0.23337520579E-01 -0.33737865084E-02 -0.42419657038E-02  0.10199713570E+01  0.10196899296E+01 0.  0.
     999903    2    3    3    0    0 -0.11509892648E+00  0.52887546488E-01  0.34272607043E-01  0.13257693198E+00  0.18899096554E-01 0.  0.
         14    1    1    2    0    0  0.23337520579E-01  0.33737865084E-02  0.42419657038E-02  0.23958643017E-01  0.00000000000E+00 0.  1.
     999901    1    3    3    0    0  0.91761405901E-01 -0.56261332996E-01 -0.38514572747E-01  0.88739442500E+00  0.88000000000E+00 0. -1.
        -11    1    4    4    0    0 -0.37547107660E-02  0.37028787047E-02  0.52102783604E-02  0.74308334142E-02  0.51100000000E-03 0. -1.
         11    1    4    4    0    0 -0.11134421571E+00  0.49184667783E-01  0.29062328683E-01  0.12514609857E+00  0.51100000000E-03 0.  1.
</event>
<event>
 8    1  0.1074844E+005  0.1043930E+01  0.7957747E-01            NaN
         13   -1    0    0    0    0  0.00000000000E+00  0.00000000000E+00  0.74505805969E-08  0.10566000000E+00  0.10566000000E+00 0.  1.
     999900   -1    0    0    0    0 -0.00000000000E+00 -0.00000000000E+00 -0.74505805969E-08  0.93827000000E+00  0.93827000000E+00 0. -1.
     999902    2    1    2    0    0  0.34844819357E-02  0.26131656667E-01 -0.13841872620E-01  0.10141541284E+01  0.10137169198E+01 0.  0.
     999903    2    3    3    0    0  0.10577124582E+00 -0.45096452129E-01 -0.44248951532E-01  0.12485068408E+00  0.20210818076E-01 0.  0.
         14    1    1    2    0    0 -0.34844819357E-02 -0.26131656667E-01  0.13841872620E-01  0.29775871644E-01  0.00000000000E+00 0.  1.
     999901    1    3    3    0    0 -0.10228676388E+00  0.71228108796E-01  0.30407078912E-01  0.88930344427E+00  0.88000000000E+00 0.  1.
        -11    1    4    4    0    0  0.31255075345E-01 -0.21879577295E-01 -0.20234109342E-01  0.43188840448E-01  0.51100000000E-03 0.  1.
         11    1    4    4    0    0  0.74516170475E-01 -0.23216874834E-01 -0.24014842190E-01  0.81661843635E-01  0.51100000000E-03 0. -1.
</event>
<event>
 8    1  0.1074844E+005  0.1043930E+01  0.7957747E-01            NaN
         13   -1    0    0    0    0  0.00000000000E+00  0.00000000000E+00  0.74505805969E-08  0.10566000000E+00  0.10566000000E+00 0.  1.
     999900   -1    0    0    0    0 -0.00000000000E+00 -0.00000000000E+00 -0.74505805969E-08  0.93827000000E+00  0.93827000000E+00 0.  1.
     999902    2    1    2    0    0 -0.22610565015E-01 -0.25675511273E-02  0.88750831230E-02  0.10195046634E+01  0.10192120297E+01 0.  0.
     999903    2    3    3    0    0 -0.10949055445E+00  0.41293506306E-01 -0.56707942044E-01  0.13171355161E+00  0.20960291299E-01 0.  0.
         14    1    1    2    0    0  0.22610565015E-01  0.25675511273E-02 -0.88750831230E-02  0.24425336630E-01  0.00000000000E+00 0. -1.
     999901    1    3    3    0    0  0.86879989434E-01 -0.43861057433E-01  0.65583025167E-01  0.88779111176E+00  0.88000000000E+00 0. -1.
        -11    1    4    4    0    0 -0.61278553481E-01  0.13064995061E-01 -0.24908368237E-01  0.67427317476E-01  0.51100000000E-03 0. -1.
         11    1    4    4    0    0 -0.48212000967E-01  0.28228511245E-01 -0.31799573806E-01  0.64286234138E-01  0.51100000000E-03 0.  1.
</event>
<event>
 8    1  0.1074844E+005  0.1043930E+01  0.7957747E-01            NaN
         13   -1    0    0    0    0  0.00000000000E+00  0.00000000000E+00  0.74505805969E-08  0.10566000000E+00  0.10566000000E+00 0. -1.
     999900   -1    0    0    0    0 -0.00000000000E+00 -0.00000000000E+00 -0.74505805969E-08  0.93827000000E+00  0.93827000000E+00 0.  1.
     999902    2    1    2    0    0 -0.11306543761E-01 -0.74921787517E-03 -0.19581311571E-01  0.10213064056E+01  0.10210558002E+01 0.  0.
     999903    2    3    3    0    0 -0.12707130049E+00  0.31502193687E-01 -0.13589000243E-01  0.13311862130E+00  0.19909866715E-01 0.  0.
         14    1    1    2    0    0  0.11306543761E-01  0.74921787517E-03  0.19581311571E-01  0.22623594367E-01  0.00000000000E+00 0.  1.
     999901    1    3    3    0    0  0.11576475673E+00 -0.32251411562E-01 -0.59923113282E-02  0.88818778434E+00  0.88000000000E+00 0.  1.
        -11    1    4    4    0    0 -0.48883790753E-01  0.92307098774E-02  0.40942250775E-02  0.49918481580E-01  0.51100000000E-03 0.  1.
         11    1    4    4    0    0 -0.78187509738E-01  0.22271483810E-01 -0.17683225321E-01  0.83200139717E-01  0.51100000000E-03 0. -1.
</event>
<event>
 8    1  0.1074844E+005  0.1043930E+01  0.7957747E-01            NaN
         13   -1    0    0    0    0  0.00000000000E+00  0.00000000000E+00  0.74505805969E-08  0.10566000000E+00  0.10566000000E+00 0. -1.
     999900   -1    0    0    0    0 -0.00000000000E+00 -0.00000000000E+00 -0.74505805969E-08  0.93827000000E+00  0.93827000000E+00 0.  1.
     999902    2    1    2    0    0 -0.12916266613E-01 -0.20052043740E-01 -0.80450555353E-03  0.10200645096E+01  0.10197852922E+01 0.  0.
     999903    2    3    3    0    0 -0.47687264115E-01  0.11629640942E+00 -0.21747249456E-01  0.12863951477E+00  0.16620827262E-01 0.  0.
         14    1    1    2    0    0  0.12916266613E-01  0.20052043740E-01  0.80450555353E-03  0.23865490370E-01  0.00000000000E+00 0. -1.
     999901    1    3    3    0    0  0.34770997502E-01 -0.13634845316E+00  0.20942743903E-01  0.89142499486E+00  0.88000000000E+00 0. -1.
        -11    1    4    4    0    0 -0.25175144044E-01  0.59507424541E-01 -0.19554477951E-01  0.67509704355E-01  0.51100000000E-03 0.  1.
         11    1    4    4    0    0 -0.22512120072E-01  0.56788984874E-01 -0.21927715052E-02  0.61129810412E-01  0.51100000000E-03 0. -1.
</event>
<event>
 8    1  0.1074844E+005  0.1043930E+01  0.7957747E-01            NaN
         13   -1    0    0    0    0  0.00000000000E+00  0.00000000000E+00  0.74505805969E-08  0.10566000000E+00  0.10566000000E+00 0.  1.
     999900   -1    0    0    0    0 -0.00000000000E+00 -0.00000000000E+00 -0.74505805969E-08  0.93827000000E+00  0.93827000000E+00 0.  1.
     999902    2    1    2    0    0  0.10643245476E-01 -0.16022772193E-01 -0.13927137898E-01  0.10201818827E+01  0.10199054372E+01 0.  0.
     999903    2    3    3    0    0 -0.16705238581E-01  0.93635382064E-01 -0.86623283234E-01  0.12998101782E+00  0.18569384055E-01 0.  0.
         14    1    1    2    0    0 -0.10643245476E-01  0.16022772193E-01  0.13927137898E-01  0.23748117253E-01  0.00000000000E+00 0.  1.
     999901    1    3    3    0    0  0.27348484057E-01 -0.10965815426E+00  0.72696145336E-01  0.89020086493E+00  0.88000000000E+00 0.  1.
        -11    1    4    4    0    0 -0.79428643286E-02  0.39050686658E-01 -0.48747726257E-01  0.62965444161E-01  0.51100000000E-03 0.  1.
         11    1    4    4    0    0 -0.87623742523E-02  0.54584695406E-01 -0.37875556977E-01  0.67015573656E-01  0.51100000000E-03 0. -1.
</event>
<event>
 8    1  0.1074844E+005  0.1043930E+01  0.7957747E-01            NaN
         13   -1    0    0    0    0  0.00000000000E+00  0.00000000000E+00  0.74505805969E-08  0.10566000000E+00  0.10566000000E+00 0.  1.
     999900   -1    0    0    0    0 -0.00000000000E+00 -0.00000000000E+00 -0.74505805969E-08  0.93827000000E+00  0.93827000000E+00 0.  1.
     999902    2    1    2    0    0 -0.19347668710E-01  0.11465990789E-01 -0.79625779035E-02  0.10200720060E+01  0.10197929661E+01 0.  0.
     999903    2    3    3    0    0  0.75722509399E-01  0.55751574890E-01  0.85939191182E-01  0.12888342107E+00  0.19576902563E-01 0.  0.
         14    1    1    2    0    0  0.19347668710E-01 -0.11465990789E-01  0.79625779035E-02  0.23857993967E-01  0.00000000000E+00 0.  1.
     999901    1    3    3    0    0 -0.95070178109E-01 -0.44285584101E-01 -0.93901769086E-01  0.89118858496E+00  0.88000000000E+00 0. -1.
        -11    1    4    4    0    0  0.51665310248E-01  0.44473765886E-01  0.51795468199E-01  0.85616889584E-01  0.51100000000E-03 0.  1.
         11    1    4    4    0    0  0.24057199151E-01  0.11277809005E-01  0.34143722983E-01  0.43266531489E-01  0.51100000000E-03 0. -1.
</event>
<event>
 8    1  0.1074844E+005  0.1043930E+01  0.7957747E-01            NaN
         13   -1    0    0    0    0  0.00000000000E+00  0.00000000000E+00  0.74505805969E-08  0.10566000000E+00  0.10566000000E+00 0.  1.
     999900   -1    0    0    0    0 -0.00000000000E+00 -0.00000000000E+00 -0.74505805969E-08  0.93827000000E+00  0.93827000000E+00 0.  1.
     999902    2    1    2    0    0  0.81954518344E-02  0.18196152196E-01  0.13105065113E-01  0.10200551572E+01  0.10197757183E+01 0.  0.
     999903    2    3    3    0    0  0.12434793078E+00  0.38056274744E-01  0.60048389461E-02  0.13217214915E+00  0.22863310825E-01 0.  0.
         14    1    1    2    0    0 -0.81954518344E-02 -0.18196152196E-01 -0.13105065113E-01  0.23874842767E-01  0.00000000000E+00 0. -1.
     999901    1    3    3    0    0 -0.11615247895E+00 -0.19860122548E-01  0.71002261673E-02  0.88788300808E+00  0.88000000000E+00 0. -1.
        -11    1    4    4    0    0  0.88754692196E-01  0.33089833262E-01 -0.41778337363E-02  0.94815862954E-01  0.51100000000E-03 0.  1.
         11    1    4    4    0    0  0.35593238589E-01  0.49664414828E-02  0.10182672682E-01  0.37356286194E-01  0.51100000000E-03 0. -1.
</event>
<event>
 8    1  0.1074844E+005  0.1043930E+01  0.7957747E-01            NaN
         13   -1    0    0    0    0  0.00000000000E+00  0.00000000000E+00  0.74505805969E-08  0.10566000000E+00  0.10566000000E+00 0. -1.
     999900   -1    0    0    0    0 -0.00000000000E+00 -0.00000000000E+00 -0.74505805969E-08  0.93827000000E+00  0.93827000000E+00 0. -1.
     999902    2    1    2    0    0 -0.12432745916E-01  0.20146665566E-01 -0.28886305479E-02  0.10200803566E+01  0.10198015142E+01 0.  0.
     999903    2    3    3    0    0 -0.75363899335E-03 -0.12633962604E+00  0.30381904192E-02  0.12787535639E+00  0.19509154040E-01 0.  0.
         14    1    1    2    0    0  0.12432745916E-01 -0.20146665566E-01  0.28886305479E-02  0.23849643412E-01  0.00000000000E+00 0.  1.
     999901    1    3    3    0    0 -0.11679106923E-01  0.14648629161E+00 -0.59268209671E-02  0.89220500020E+00  0.88000000000E+00 0. -1.
        -11    1    4    4    0    0  0.80338612235E-04 -0.86607440407E-01  0.11113335455E-01  0.87319084593E-01  0.51100000000E-03 0. -1.
         11    1    4    4    0    0 -0.83397760559E-03 -0.39732185634E-01 -0.80751450356E-02  0.40556271800E-01  0.51100000000E-03 0.  1.
</event>
<event>
 8    1  0.1074844E+005  0.1043930E+01  0.7957747E-01            NaN
         13   -1    0    0    0    0  0.00000000000E+00  0.00000000000E+00  0.74505805969E-08  0.10566000000E+00  0.10566000000E+00 0. -1.
     999900   -1    0    0    0    0 -0.00000000000E+00 -0.00000000000E+00 -0.74505805969E-08  0.93827000000E+00  0.93827000000E+00 0.  1.
     999902    2    1    2    0    0 -0.14048478204E-01 -0.80165929792E-02 -0.17313444970E-01  0.10202365224E+01  0.10199613624E+01 0.  0.
     999903    2    3    3    0    0  0.12487275147E+00  0.20150302307E-01  0.73528505972E-02  0.12855221272E+00  0.21734034132E-01 0.  0.
         14    1    1    2    0    0  0.14048478204E-01  0.80165929792E-02  0.17313444970E-01  0.23693477574E-01  0.00000000000E+00 0. -1.
     999901    1    3    3    0    0 -0.13892122967E+00 -0.28166895287E-01 -0.24666295567E-01  0.89168430971E+00  0.88000000000E+00 0.  1.
        -11    1    4    4    0    0  0.17605713982E-01 -0.21234858162E-02  0.67863535973E-02  0.18994369507E-01  0.51100000000E-03 0.  1.
         11    1    4    4    0    0  0.10726703749E+00  0.22273788124E-01  0.56649699985E-03  0.10955784321E+00  0.51100000000E-03 0. -1.
</event>
<event>
 8    1  0.1074844E+005  0.1043930E+01  0.7957747E-01            NaN
         13   -1    0    0    0    0  0.00000000000E+00  0.00000000000E+00  0.74505805969E-08  0.10566000000E+00  0.10566000000E+00 0. -1.
     999900   -1    0    0    0    0 -0.00000000000E+00 -0.00000000000E+00 -0.74505805969E-08  0.93827000000E+00  0.93827000000E+00 0.  1.
     999902    2    1    2    0    0 -0.83707889950E-03 -0.20105340701E-01 -0.99397182090E-02  0.10214862164E+01  0.10212396226E+01 0.  0.
     999903    2    3    3    0    0 -0.23257347393E-01 -0.12139600299E+00 -0.49123347206E-01  0.13452633932E+00  0.20157851579E-01 0.  0.
         14    1    1    2    0    0  0.83707889950E-03  0.20105340701E-01  0.99397182090E-02  0.22443783635E-01  0.00000000000E+00 0.  1.
     999901    1    3    3    0    0  0.22420268494E-01  0.10129066229E+00  0.39183628997E-01  0.88695987705E+00  0.88000000000E+00 0. -1.
        -11    1    4    4    0    0 -0.26731287029E-01 -0.98928439718E-01 -0.39298527655E-01  0.10975442264E+00  0.51100000000E-03 0. -1.
         11    1    4    4    0    0  0.34739396361E-02 -0.22467563272E-01 -0.98248195510E-02  0.24771916684E-01  0.51100000000E-03 0.  1.
</event>
<event>
 8    1  0.1074844E+005  0.1043930E+01  0.7957747E-01            NaN
         13   -1    0    0    0    0  0.00000000000E+00  0.00000000000E+00  0.74505805969E-08  0.10566000000E+00  0.10566000000E+00 0. -1.
     999900   -1    0    0    0    0 -0.00000000000E+00 -0.00000000000E+00 -0.74505805969E-08  0.93827000000E+00  0.93827000000E+00 0.  1.
     999902    2    1    2    0    0  0.33497292222E-02  0.18650081731E-01  0.15270484354E-01  0.10195941432E+01  0.10193036755E+01 0.  0.
     999903    2    3    3    0    0 -0.82294639702E-01 -0.50279847247E-01 -0.81320274380E-01  0.12750890751E+00  0.18575890468E-01 0.  0.
         14    1    1    2    0    0 -0.33497292222E-02 -0.18650081731E-01 -0.15270484354E-01  0.24335856813E-01  0.00000000000E+00 0. -1.
     999901    1    3    3    0    0  0.85644368924E-01  0.68929928978E-01  0.96590758734E-01  0.89208523568E+00  0.88000000000E+00 0. -1.
        -11    1    4    4    0    0 -0.73054275242E-01 -0.39457985487E-01 -0.62581683726E-01  0.10397397756E+00  0.51100000000E-03 0. -1.
         11    1    4    4    0    0 -0.92403644595E-02 -0.10821861760E-01 -0.18738590654E-01  0.23534929955E-01  0.51100000000E-03 0.  1.
</event>
<event>
 8    1  0.1074844E+005  0.1043930E+01  0.7957747E-01            NaN
         13   -1    0    0    0    0  0.00000000000E+00  0.00000000000E+00  0.74505805969E-08  0.10566000000E+00  0.10566000000E+00 0.  1.
     999900   -1    0    0    0    0 -0.00000000000E+00 -0.00000000000E+00 -0.74505805969E-08  0.93827000000E+00  0.93827000000E+00 0. -1.
     999902    2    1    2    0    0 -0.20314774333E-01  0.57401813382E-02  0.10015554201E-01  0.10205644043E+01  0.10202968941E+01 0.  0.
     999903    2    3    3    0    0 -0.46837331257E-01 -0.88612979534E-01  0.83937575440E-01  0.13204291876E+00  0.18542386079E-01 0.  0.
         14    1    1    2    0    0  0.20314774333E-01 -0.57401813382E-02 -0.10015554201E-01  0.23365595733E-01  0.00000000000E+00 0. -1.
     999901    1    3    3    0    0  0.26522556924E-01  0.94353160873E-01 -0.73922021239E-01  0.88852148551E+00  0.88000000000E+00 0. -1.
        -11    1    4    4    0    0 -0.33216243206E-01 -0.77058077444E-01  0.71825751640E-01  0.11045571887E+00  0.51100000000E-03 0.  1.
         11    1    4    4    0    0 -0.13621088051E-01 -0.11554902090E-01  0.12111823800E-01  0.21587199882E-01  0.51100000000E-03 0. -1.
</event>
<event>
 8    1  0.1074844E+005  0.1043930E+01  0.7957747E-01            NaN
         13   -1    0    0    0    0  0.00000000000E+00  0.00000000000E+00  0.74505805969E-08  0.10566000000E+00  0.10566000000E+00 0.  1.
     999900   -1    0    0    0    0 -0.00000000000E+00 -0.00000000000E+00 -0.74505805969E-08  0.93827000000E+00  0.93827000000E+00 0. -1.
     999902    2    1    2    0    0  0.95399977975E-02 -0.21730255854E-01  0.23030232712E-02  0.10200863532E+01  0.10198076527E+01 0.  0.
     999903    2    3    3    0    0  0.11944229888E-01 -0.75192421821E-01 -0.10583277195E+00  0.13185365071E+00  0.19703925001E-01 0.  0.
         14    1    1    2    0    0 -0.95399977975E-02  0.21730255854E-01 -0.23030232712E-02  0.23843646820E-01  0.00000000000E+00 0. -1.
     999901    1    3    3    0    0 -0.24042320900E-02  0.53462165967E-01  0.10813579522E+00  0.88823270247E+00  0.88000000000E+00 0.  1.
        -11    1    4    4    0    0  0.95911711832E-02 -0.69580414910E-01 -0.85655594074E-01  0.11077258966E+00  0.51100000000E-03 0.  1.
         11    1    4    4    0    0  0.23530587043E-02 -0.56120069111E-02 -0.20177177878E-01  0.21081061050E-01  0.51100000000E-03 0. -1.
</event>
<event>
 8    1  0.1074844E+005  0.1043930E+01  0.7957747E-01            NaN
         13   -1    0    0    0    0  0.00000000000E+00  0.00000000000E+00  0.74505805969E-08  0.10566000000E+00  0.10566000000E+00 0.  1.
     999900   -1    0    0    0    0 -0.00000000000E+00 -0.00000000000E+00 -0.74505805969E-08  0.93827000000E+00  0.93827000000E+00 0.  1.
     999902    2    1    2    0    0 -0.33132877640E-02 -0.17826377035E-01 -0.15212543380E-01  0.10202618976E+01  0.10199873336E+01 0.  0.
     999903    2    3    3    0    0  0.16908720179E-01  0.78412758217E-01  0.97211750951E-01  0.12767569858E+00  0.20408185041E-01 0.  0.
         14    1    1    2    0    0  0.33132877640E-02  0.17826377035E-01  0.15212543380E-01  0.23668102377E-01  0.00000000000E+00 0. -1.
     999901    1    3    3    0    0 -0.20222007944E-01 -0.96239135252E-01 -0.11242429433E+00  0.89258619904E+00  0.88000000000E+00 0.  1.
        -11    1    4    4    0    0 -0.29850949297E-02  0.33533405754E-01  0.40367292254E-01  0.52565953793E-01  0.51100000000E-03 0.  1.
         11    1    4    4    0    0  0.19893815109E-01  0.44879352463E-01  0.56844458697E-01  0.75109744791E-01  0.51100000000E-03 0. -1.
</event>
<event>
 8    1  0.1074844E+005  0.1043930E+01  0.7957747E-01            NaN
         13   -1    0    0    0    0  0.00000000000E+00  0.00000000000E+00  0.74505805969E-08  0.10566000000E+00  0.10566000000E+00 0.  1.
     999900   -1    0    0    0    0 -0.00000000000E+00 -0.00000000000E+00 -0.74505805969E-08  0.93827000000E+00  0.93827000000E+00 0. -1.
     999902    2    1    2    0    0 -0.23466894384E-01 -0.39871625604E-02 -0.61002300660E-03  0.10201189789E+01  0.10198410496E+01 0.  0.
     999903    2    3    3    0    0 -0.57633581045E-01 -0.36140621706E-01  0.11117282600E+00  0.13180787758E+00  0.19650576296E-01 0.  0.
         14    1    1    2    0    0  0.23466894384E-01  0.39871625604E-02  0.61002300660E-03  0.23811021091E-01  0.00000000000E+00 0.  1.
     999901    1    3    3    0    0  0.34166686661E-01  0.32153459145E-01 -0.11178284901E+00  0.88831110133E+00  0.88000000000E+00 0. -1.
        -11    1    4    4    0    0 -0.55378391166E-01 -0.38161586239E-01  0.10238663442E+00  0.12250043633E+00  0.51100000000E-03 0. -1.
         11    1    4    4    0    0 -0.22551898790E-02  0.20209645333E-02  0.87861915821E-02  0.93074412463E-02  0.51100000000E-03 0.  1.
</event>
<event>
 8    1  0.1074844E+005  0.1043930E+01  0.7957747E-01            NaN
         13   -1    0    0    0    0  0.00000000000E+00  0.00000000000E+00  0.74505805969E-08  0.10566000000E+00  0.10566000000E+00 0. -1.
     999900   -1    0    0    0    0 -0.00000000000E+00 -0.00000000000E+00 -0.74505805969E-08  0.93827000000E+00  0.93827000000E+00 0. -1.
     999902    2    1    2    0    0  0.10887136742E-01  0.18849580980E-01  0.92653042349E-02  0.10202723942E+01  0.10199980765E+01 0.  0.
     999903    2    3    3    0    0  0.12355099617E+00  0.11255749277E-01  0.41180396501E-01  0.13248335135E+00  0.21551630625E-01 0.  0.
         14    1    1    2    0    0 -0.10887136742E-01 -0.18849580980E-01 -0.92653042349E-02  0.23657605798E-01  0.00000000000E+00 0. -1.
     999901    1    3    3    0    0 -0.11266385942E+00  0.75938317028E-02 -0.31915092267E-01  0.88778904286E+00  0.88000000000E+00 0. -1.
        -11    1    4    4    0    0  0.93081342083E-01  0.12240449890E-01  0.21885752283E-01  0.96401307727E-01  0.51100000000E-03 0.  1.
         11    1    4    4    0    0  0.30469654082E-01 -0.98470061371E-03  0.19294644218E-01  0.36082043619E-01  0.51100000000E-03 0. -1.
</event>
<event>
 8    1  0.1074844E+005  0.1043930E+01  0.7957747E-01            NaN
         13   -1    0    0    0    0  0.00000000000E+00  0.00000000000E+00  0.74505805969E-08  0.10566000000E+00  0.10566000000E+00 0.  1.
     999900   -1    0    0    0    0 -0.00000000000E+00 -0.00000000000E+00 -0.74505805969E-08  0.93827000000E+00  0.93827000000E+00 0.  1.
     999902    2    1    2    0    0 -0.21647488030E-01  0.11115922194E-01  0.60237115370E-02  0.10188608444E+01  0.10185523833E+01 0.  0.
     999903    2    3    3    0    0  0.67272935022E-01  0.75236167851E-01  0.77852386748E-01  0.12915437246E+00  0.20826162982E-01 0.  0.
         14    1    1    2    0    0  0.21647488030E-01 -0.11115922194E-01 -0.60237115370E-02  0.25069155648E-01  0.00000000000E+00 0.  1.
     999901    1    3    3    0    0 -0.88920423053E-01 -0.64120245657E-01 -0.71828675211E-01  0.88970647189E+00  0.88000000000E+00 0.  1.
        -11    1    4    4    0    0  0.26813007893E-01  0.44005217396E-01  0.33359828412E-01  0.61388401372E-01  0.51100000000E-03 0.  1.
         11    1    4    4    0    0  0.40459927129E-01  0.31230950455E-01  0.44492558336E-01  0.67765971091E-01  0.51100000000E-03 0. -1.
</event>
<event>
 8    1  0.1074844E+005  0.1043930E+01  0.7957747E-01            NaN
         13   -1    0    0    0    0  0.00000000000E+00  0.00000000000E+00  0.74505805969E-08  0.10566000000E+00  0.10566000000E+00 0. -1.
     999900   -1    0    0    0    0 -0.00000000000E+00 -0.00000000000E+00 -0.74505805969E-08  0.93827000000E+00  0.93827000000E+00 0.  1.
     999902    2    1    2    0    0  0.26940471513E-02 -0.71193017740E-02 -0.23608315829E-01  0.10191248609E+01  0.10188229421E+01 0.  0.
     999903    2    3    3    0    0  0.87891278044E-01  0.87485422836E-01 -0.33048020626E-01  0.12991300198E+00  0.20165327972E-01 0.  0.
         14    1    1    2    0    0 -0.26940471513E-02  0.71193017740E-02  0.23608315829E-01  0.24805139066E-01  0.00000000000E+00 0. -1.
     999901    1    3    3    0    0 -0.85197230892E-01 -0.94604724610E-01  0.94397047966E-02  0.88921185895E+00  0.88000000000E+00 0.  1.
        -11    1    4    4    0    0  0.35807885561E-01  0.49842743592E-01 -0.16384522715E-01  0.63523361551E-01  0.51100000000E-03 0.  1.
         11    1    4    4    0    0  0.52083392483E-01  0.37642679244E-01 -0.16663497911E-01  0.66389640433E-01  0.51100000000E-03 0. -1.
</event>
<event>
 8    1  0.1074844E+005  0.1043930E+01  0.7957747E-01            NaN
         13   -1    0    0    0    0  0.00000000000E+00  0.00000000000E+00  0.74505805969E-08  0.10566000000E+00  0.10566000000E+00 0.  1.
     999900   -1    0    0    0    0 -0.00000000000E+00 -0.00000000000E+00 -0.74505805969E-08  0.93827000000E+00  0.93827000000E+00 0.  1.
     999902    2    1    2    0    0  0.22496819470E-01  0.43964498812E-02  0.22816190514E-02  0.10208943441E+01  0.10206344205E+01 0.  0.
     999903    2    3    3    0    0 -0.78729131737E-01 -0.24629570899E-01 -0.97093162329E-01  0.12906221288E+00  0.20617484711E-01 0.  0.
         14    1    1    2    0    0 -0.22496819470E-01 -0.43964498812E-02 -0.22816190514E-02  0.23035655912E-01  0.00000000000E+00 0. -1.
     999901    1    3    3    0    0  0.10122595121E+00  0.29026020780E-01  0.99374781380E-01  0.89183213121E+00  0.88000000000E+00 0. -1.
        -11    1    4    4    0    0 -0.44698413901E-01 -0.78718272652E-02 -0.65519942689E-01  0.79705946332E-01  0.51100000000E-03 0. -1.
         11    1    4    4    0    0 -0.34030717836E-01 -0.16757743634E-01 -0.31573219640E-01  0.49356266548E-01  0.51100000000E-03 0.  1.
</event>
<event>
 8    1  0.1074844E+005  0.1043930E+01  0.7957747E-01            NaN
         13   -1    0    0    0    0  0.00000000000E+00  0.00000000000E+00  0.74505805969E-08  0.10566000000E+00  0.10566000000E+00 0.  1.
     999900   -1    0    0    0    0 -0.00000000000E+00 -0.00000000000E+00 -0.74505805969E-08  0.93827000000E+00  0.93827000000E+00 0.  1.
     999902    2    1    2    0    0 -0.24091503460E-01  0.75510208788E-02  0.52786230879E-02  0.10181369328E+01  0.10178101648E+01 0.  0.
     999903    2    3    3    0    0  0.59671882018E-01 -0.85959374328E-01 -0.67030026958E-01  0.12629107186E+00  0.22509170989E-01 0.  0.
         14    1    1    2    0    0  0.24091503460E-01 -0.75510208788E-02 -0.52786230879E-02  0.25793067228E-01  0.00000000000E+00 0. -1.
     999901    1    3    3    0    0 -0.83763385479E-01  0.93510395207E-01  0.72308650045E-01  0.89184586091E+00  0.88000000000E+00 0.  1.
        -11    1    4    4    0    0  0.43543686774E-01 -0.43540831859E-01 -0.36319684003E-01  0.71492917579E-01  0.51100000000E-03 0. -1.
         11    1    4    4    0    0  0.16128195245E-01 -0.42418542469E-01 -0.30710342954E-01  0.54798154279E-01  0.51100000000E-03 0.  1.
</event>
<event>
 8    1  0.1074844E+005  0.1043930E+01  0.7957747E-01            NaN
         13   -1    0    0    0    0  0.00000000000E+00  0.00000000000E+00  0.74505805969E-08  0.10566000000E+00  0.10566000000E+00 0.  1.
     999900   -1    0    0    0    0 -0.00000000000E+00 -0.00000000000E+00 -0.74505805969E-08  0.93827000000E+00  0.93827000000E+00 0.  1.
     999902    2    1    2    0    0  0.51693032621E-02  0.22103144104E-01  0.60614534139E-03  0.10212223342E+01  0.10209698417E+01 0.  0.
     999903    2    3    3    0    0 -0.57547583175E-01 -0.10736769343E+00  0.36917256114E-01  0.12880169210E+00  0.19683652306E-01 0.  0.
         14    1    1    2    0    0 -0.51693032621E-02 -0.22103144104E-01 -0.60614534139E-03  0.22707665835E-01  0.00000000000E+00 0. -1.
     999901    1    3    3    0    0  0.62716886437E-01  0.12947083753E+00 -0.36311110772E-01  0.89242064206E+00  0.88000000000E+00 0.  1.
        -11    1    4    4    0    0 -0.15670116707E-01 -0.44843563350E-01  0.79574627330E-02  0.48167209445E-01  0.51100000000E-03 0.  1.
         11    1    4    4    0    0 -0.41877466468E-01 -0.62524130077E-01  0.28959793381E-01  0.80634482657E-01  0.51100000000E-03 0. -1.
</event>
<event>
 8    1  0.1074844E+005  0.1043930E+01  0.7957747E-01            NaN
         13   -1    0    0    0    0  0.00000000000E+00  0.00000000000E+00  0.74505805969E-08  0.10566000000E+00  0.10566000000E+00 0.  1.
     999900   -1    0    0    0    0 -0.00000000000E+00 -0.00000000000E+00 -0.74505805969E-08  0.93827000000E+00  0.93827000000E+00 0.  1.
     999902    2    1    2    0    0  0.65065322705E-02  0.83298733936E-02  0.21059758335E-01  0.10203665713E+01  0.10200944586E+01 0.  0.
     999903    2    3    3    0    0  0.60978506889E-01  0.14280434866E-01  0.11617528566E+00  0.13354665226E+00  0.20388776552E-01 0.  0.
         14    1    1    2    0    0 -0.65065322705E-02 -0.83298733936E-02 -0.21059758335E-01  0.23563428742E-01  0.00000000000E+00 0. -1.
     999901    1    3    3    0    0 -0.54471974619E-01 -0.59505614728E-02 -0.95115527321E-01  0.88681991900E+00  0.88000000000E+00 0.  1.
        -11    1    4    4    0    0  0.59263492544E-01  0.13589620270E-01  0.11667177635E+00  0.13156520758E+00  0.51100000000E-03 0. -1.
         11    1    4    4    0    0  0.17150143455E-02  0.69081459682E-03 -0.49649069185E-03  0.19814446799E-02  0.51100000000E-03 0.  1.
</event>
<event>
 8    1  0.1074844E+005  0.1043930E+01  0.7957747E-01            NaN
         13   -1    0    0    0    0  0.00000000000E+00  0.00000000000E+00  0.74505805969E-08  0.10566000000E+00  0.10566000000E+00 0.  1.
     999900   -1    0    0    0    0 -0.00000000000E+00 -0.00000000000E+00 -0.74505805969E-08  0.93827000000E+00  0.93827000000E+00 0.  1.
     999902    2    1    2    0    0 -0.14406163516E-01  0.10583569536E-01  0.14693874184E-01  0.10207900037E+01  0.10205276930E+01 0.  0.
     999903    2    3    3    0    0  0.64703603883E-01  0.52887314764E-01 -0.96532436303E-01  0.12926364158E+00  0.20173085009E-01 0.  0.
         14    1    1    2    0    0  0.14406163516E-01 -0.10583569536E-01 -0.14693874184E-01  0.23139996325E-01  0.00000000000E+00 0. -1.
     999901    1    3    3    0    0 -0.79109767398E-01 -0.42303745228E-01  0.11122631049E+00  0.89152636209E+00  0.88000000000E+00 0. -1.
        -11    1    4    4    0    0  0.36712877837E-01  0.17230252989E-01 -0.48303449370E-01  0.63072984384E-01  0.51100000000E-03 0.  1.
         11    1    4    4    0    0  0.27990726046E-01  0.35657061775E-01 -0.48228986933E-01  0.66190657200E-01  0.51100000000E-03 0. -1.
</event>
<event>
 8    1  0.1074844E+005  0.1043930E+01  0.7957747E-01            NaN
         13   -1    0    0    0    0  0.00000000000E+00  0.00000000000E+00  0.74505805969E-08  0.10566000000E+00  0.10566000000E+00 0.  1.
     999900   -1    0    0    0    0 -0.00000000000E+00 -0.00000000000E+00 -0.74505805969E-08  0.93827000000E+00  0.93827000000E+00 0. -1.
     999902    2    1    2    0    0 -0.14232676300E-01  0.26722667522E-02 -0.18901637012E-01  0.10201186169E+01  0.10198406790E+01 0.  0.
     999903    2    3    3    0    0 -0.18156210559E-01  0.12519796475E+00  0.25234293249E-01  0.13052549577E+00  0.19898671560E-01 0.  0.
         14    1    1    2    0    0  0.14232676300E-01 -0.26722667522E-02  0.18901637012E-01  0.23811383118E-01  0.00000000000E+00 0.  1.
     999901    1    3    3    0    0  0.39235342588E-02 -0.12252569800E+00 -0.44135930261E-01  0.88959312111E+00  0.88000000000E+00 0. -1.
        -11    1    4    4    0    0 -0.18353513793E-01  0.61880893808E-01  0.16349384509E-01  0.66585734071E-01  0.51100000000E-03 0.  1.
         11    1    4    4    0    0  0.19730323387E-03  0.63317070945E-01  0.88849087401E-02  0.63939761698E-01  0.51100000000E-03 0. -1.
</event>
<event>
 8    1  0.1074844E+005  0.1043930E+01  0.7957747E-01            NaN
         13   -1    0    0    0    0  0.00000000000E+00  0.00000000000E+00  0.74505805969E-08  0.10566000000E+00  0.10566000000E+00 0. -1.
     999900   -1    0    0    0    0 -0.00000000000E+00 -0.00000000000E+00 -0.74505805969E-08  0.93827000000E+00  0.93827000000E+00 0.  1.
     999902    2    1    2    0    0  0.17700884673E-01  0.16892075211E-01 -0.47303080897E-02  0.10190093391E+01  0.10187045666E+01 0.  0.
     999903    2    3    3    0    0 -0.69080621875E-01 -0.39872888427E-01 -0.98121623021E-01  0.12801257782E+00  0.19934583661E-01 0.  0.
         14    1    1    2    0    0 -0.17700884673E-01 -0.16892075211E-01  0.47303080897E-02  0.24920660862E-01  0.00000000000E+00 0. -1.
     999901    1    3    3    0    0  0.86781506548E-01  0.56764963638E-01  0.93391314931E-01  0.89099676132E+00  0.88000000000E+00 0. -1.
        -11    1    4    4    0    0 -0.41720188281E-01 -0.23965998256E-01 -0.43409723203E-01  0.64804385439E-01  0.51100000000E-03 0.  1.
         11    1    4    4    0    0 -0.27360433594E-01 -0.15906890171E-01 -0.54711899818E-01  0.63208192381E-01  0.51100000000E-03 0. -1.
</event>
<event>
 8    1  0.1074844E+005  0.1043930E+01  0.7957747E-01            NaN
         13   -1    0    0    0    0  0.00000000000E+00  0.00000000000E+00  0.74505805969E-08  0.10566000000E+00  0.10566000000E+00 0.  1.
     999900   -1    0    0    0    0 -0.00000000000E+00 -0.00000000000E+00 -0.74505805969E-08  0.93827000000E+00  0.93827000000E+00 0. -1.
     999902    2    1    2    0    0 -0.11356362760E-01  0.16766384587E-02  0.20894163837E-01  0.10200900299E+01  0.10198114164E+01 0.  0.
     999903    2    3    3    0    0  0.80018885760E-01 -0.85978080110E-01  0.53180753908E-01  0.13044110498E+00  0.19784765440E-01 0.  0.
         14    1    1    2    0    0  0.11356362760E-01 -0.16766384587E-02 -0.20894163837E-01  0.23839970095E-01  0.00000000000E+00 0. -1.
     999901    1    3    3    0    0 -0.91375248520E-01  0.87654718568E-01 -0.32286590071E-01  0.88964892493E+00  0.88000000000E+00 0. -1.
        -11    1    4    4    0    0  0.53175121941E-01 -0.69539168048E-01  0.36927519684E-01  0.95011537811E-01  0.51100000000E-03 0. -1.
         11    1    4    4    0    0  0.26843763820E-01 -0.16438912062E-01  0.16253234224E-01  0.35429567165E-01  0.51100000000E-03 0.  1.
</event>
<event>
 8    1  0.1074844E+005  0.1043930E+01  0.7957747E-01            NaN
         13   -1    0    0    0    0  0.00000000000E+00  0.00000000000E+00  0.74505805969E-08  0.10566000000E+00  0.10566000000E+00 0. -1.
     999900   -1    0    0    0    0 -0.00000000000E+00 -0.00000000000E+00 -0.74505805969E-08  0.93827000000E+00  0.93827000000E+00 0.  1.
     999902    2    1    2    0    0 -0.11582788661E-01 -0.19383407471E-02  0.25040847137E-01  0.10162720503E+01  0.10158956236E+01 0.  0.
     999903    2    3    3    0    0 -0.46540901171E-01  0.98243461859E-01  0.66350913528E-01  0.12893615852E+00  0.20106117666E-01 0.  0.
         14    1    1    2    0    0  0.11582788661E-01  0.19383407471E-02 -0.25040847137E-01  0.27657949731E-01  0.00000000000E+00 0.  1.
     999901    1    3    3    0    0  0.34958112510E-01 -0.10018180261E+00 -0.41310066391E-01  0.88733589175E+00  0.88000000000E+00 0. -1.
        -11    1    4    4    0    0 -0.40139042101E-02  0.26445651029E-01  0.11808237063E-01  0.29243451726E-01  0.51100000000E-03 0.  1.
         11    1    4    4    0    0 -0.42526996961E-01  0.71797810830E-01  0.54542676465E-01  0.99692706792E-01  0.51100000000E-03 0. -1.
</event>
<event>
 8    1  0.1074844E+005  0.1043930E+01  0.7957747E-01            NaN
         13   -1    0    0    0    0  0.00000000000E+00  0.00000000000E+00  0.74505805969E-08  0.10566000000E+00  0.10566000000E+00 0.  1.
     999900   -1    0    0    0    0 -0.00000000000E+00 -0.00000000000E+00 -0.74505805969E-08  0.93827000000E+00  0.93827000000E+00 0.  1.
     999902    2    1    2    0    0  0.18790524971E-01 -0.21586287534E-02 -0.25221871623E-01  0.10124040374E+01  0.10119130638E+01 0.  0.
     999903    2    3    3    0    0 -0.11361976340E+00 -0.12811778491E-01 -0.38417956557E-01  0.12233656207E+00  0.20413297881E-01 0.  0.
         14    1    1    2    0    0 -0.18790524971E-01  0.21586287534E-02  0.25221871623E-01  0.31525962554E-01  0.00000000000E+00 0.  1.
     999901    1    3    3    0    0  0.13241028837E+00  0.10653149738E-01  0.13196084934E-01  0.89006747538E+00  0.88000000000E+00 0.  1.
        -11    1    4    4    0    0 -0.37540907468E-01 -0.11120569962E-01 -0.59741881617E-02  0.39609832807E-01  0.51100000000E-03 0.  1.
         11    1    4    4    0    0 -0.76078855929E-01 -0.16912085294E-02 -0.32443768395E-01  0.82726729263E-01  0.51100000000E-03 0. -1.
</event>
<event>
 8    1  0.1074844E+005  0.1043930E+01  0.7957747E-01            NaN
         13   -1    0    0    0    0  0.00000000000E+00  0.00000000000E+00  0.74505805969E-08  0.10566000000E+00  0.10566000000E+00 0.  1.
     999900   -1    0    0    0    0 -0.00000000000E+00 -0.00000000000E+00 -0.74505805969E-08  0.93827000000E+00  0.93827000000E+00 0.  1.
     999902    2    1    2    0    0 -0.46080653978E-02  0.92299436885E-02  0.23521989275E-01  0.10182451775E+01  0.10179211813E+01 0.  0.
     999903    2    3    3    0    0  0.11816509197E+00  0.45592316244E-01  0.13317056075E-01  0.12891980905E+00  0.20033095694E-01 0.  0.
         14    1    1    2    0    0  0.46080653978E-02 -0.92299436885E-02 -0.23521989275E-01  0.25684822496E-01  0.00000000000E+00 0. -1.
     999901    1    3    3    0    0 -0.12277315737E+00 -0.36362372556E-01  0.10204933200E-01  0.88932536845E+00  0.88000000000E+00 0. -1.
        -11    1    4    4    0    0  0.50043925898E-01  0.29942265114E-01  0.51516145660E-02  0.58546853144E-01  0.51100000000E-03 0. -1.
         11    1    4    4    0    0  0.68121166072E-01  0.15650051130E-01  0.81654415092E-02  0.70372955909E-01  0.51100000000E-03 0.  1.
</event>
<event>
 8    1  0.1074844E+005  0.1043930E+01  0.7957747E-01            NaN
         13   -1    0    0    0    0  0.00000000000E+00  0.00000000000E+00  0.74505805969E-08  0.10566000000E+00  0.10566000000E+00 0.  1.
     999900   -1    0    0    0    0 -0.00000000000E+00 -0.00000000000E+00 -0.74505805969E-08  0.93827000000E+00  0.93827000000E+00 0.  1.
     999902    2    1    2    0    0 -0.19319096561E-01 -0.84458396560E-03  0.13098520208E-01  0.10205738007E+01  0.10203065082E+01 0.  0.
     999903    2    3    3    0    0  0.77162332385E-01 -0.79335845863E-01  0.65777566050E-01  0.13026788350E+00  0.19870362338E-01 0.  0.
         14    1    1    2    0    0  0.19319096561E-01  0.84458396560E-03 -0.13098520208E-01  0.23356199298E-01  0.00000000000E+00 0. -1.
     999901    1    3    3    0    0 -0.96481428946E-01  0.78491261897E-01 -0.52679045841E-01  0.89030591720E+00  0.88000000000E+00 0.  1.
        -11    1    4    4    0    0  0.25920015823E-01 -0.24391102560E-01  0.32102654676E-01  0.47933439920E-01  0.51100000000E-03 0. -1.
         11    1    4    4    0    0  0.51242316563E-01 -0.54944743303E-01  0.33674911374E-01  0.82334443584E-01  0.51100000000E-03 0.  1.
</event>
<event>
 8    1  0.1074844E+005  0.1043930E+01  0.7957747E-01            NaN
         13   -1    0    0    0    0  0.00000000000E+00  0.00000000000E+00  0.74505805969E-08  0.10566000000E+00  0.10566000000E+00 0. -1.
     999900   -1    0    0    0    0 -0.00000000000E+00 -0.00000000000E+00 -0.74505805969E-08  0.93827000000E+00  0.93827000000E+00 0. -1.
     999902    2    1    2    0    0 -0.15929068039E-01  0.74733140063E-02 -0.15618594429E-01  0.10204028641E+01  0.10201315989E+01 0.  0.
     999903    2    3    3    0    0 -0.85083696550E-02 -0.10242069081E+00  0.75664886233E-01  0.12885116461E+00  0.17749854990E-01 0.  0.
         14    1    1    2    0    0  0.15929068039E-01 -0.74733140063E-02  0.15618594429E-01  0.23527135881E-01  0.00000000000E+00 0.  1.
     999901    1    3    3    0    0 -0.74206983841E-02  0.10989400482E+00 -0.91283480662E-01  0.89155169951E+00  0.88000000000E+00 0.  1.
        -11    1    4    4    0    0 -0.92608909120E-02 -0.70707367203E-01  0.61240187612E-01  0.93999561579E-01  0.51100000000E-03 0.  1.
         11    1    4    4    0    0  0.75252125704E-03 -0.31713323606E-01  0.14424698621E-01  0.34851603029E-01  0.51100000000E-03 0. -1.
</event>
<event>
 8    1  0.1074844E+005  0.1043930E+01  0.7957747E-01            NaN
         13   -1    0    0    0    0  0.00000000000E+00  0.00000000000E+00  0.74505805969E-08  0.10566000000E+00  0.10566000000E+00 0. -1.
     999900   -1    0    0    0    0 -0.00000000000E+00 -0.00000000000E+00 -0.74505805969E-08  0.93827000000E+00  0.93827000000E+00 0. -1.
     999902    2    1    2    0    0  0.63793442841E-02  0.23292679276E-01 -0.43104001208E-02  0.10193978886E+01  0.10191026596E+01 0.  0.
     999903    2    3    3    0    0  0.60579818510E-01  0.77434950786E-01 -0.87053295895E-01  0.13220260919E+00  0.15269824409E-01 0.  0.
         14    1    1    2    0    0 -0.63793442841E-02 -0.23292679276E-01  0.43104001208E-02  0.24532111416E-01  0.00000000000E+00 0. -1.
     999901    1    3    3    0    0 -0.54200474226E-01 -0.54142271511E-01  0.82742895774E-01  0.88719527939E+00  0.88000000000E+00 0.  1.
        -11    1    4    4    0    0  0.24483984287E-01  0.42736950331E-01 -0.47005986044E-01  0.68086241306E-01  0.51100000000E-03 0. -1.
         11    1    4    4    0    0  0.36095834224E-01  0.34698000455E-01 -0.40047309851E-01  0.64116367888E-01  0.51100000000E-03 0.  1.
</event>
<event>
 8    1  0.1074844E+005  0.1043930E+01  0.7957747E-01            NaN
         13   -1    0    0    0    0  0.00000000000E+00  0.00000000000E+00  0.74505805969E-08  0.10566000000E+00  0.10566000000E+00 0.  1.
     999900   -1    0    0    0    0 -0.00000000000E+00 -0.00000000000E+00 -0.74505805969E-08  0.93827000000E+00  0.93827000000E+00 0. -1.
     999902    2    1    2    0    0 -0.20565609032E-01  0.77248749394E-02 -0.11723697688E-01  0.10190289347E+01  0.10187246471E+01 0.  0.
     999903    2    3    3    0    0  0.28238061255E-01 -0.11760536289E+00  0.35883498894E-01  0.12753809796E+00  0.18706454905E-01 0.  0.
         14    1    1    2    0    0  0.20565609032E-01 -0.77248749394E-02  0.11723697688E-01  0.24901065342E-01  0.00000000000E+00 0. -1.
     999901    1    3    3    0    0 -0.48803670287E-01  0.12533023783E+00 -0.47607196582E-01  0.89149083670E+00  0.88000000000E+00 0.  1.
        -11    1    4    4    0    0  0.22776301689E-01 -0.56721770492E-01  0.15004106955E-01  0.62940475950E-01  0.51100000000E-03 0.  1.
         11    1    4    4    0    0  0.54617595655E-02 -0.60883592397E-01  0.20879391939E-01  0.64597622011E-01  0.51100000000E-03 0. -1.
</event>
<event>
 8    1  0.1074844E+005  0.1043930E+01  0.7957747E-01            NaN
         13   -1    0    0    0    0  0.00000000000E+00  0.00000000000E+00  0.74505805969E-08  0.10566000000E+00  0.10566000000E+00 0.  1.
     999900   -1    0    0    0    0 -0.00000000000E+00 -0.00000000000E+00 -0.74505805969E-08  0.93827000000E+00  0.93827000000E+00 0. -1.
     999902    2    1    2    0    0 -0.21713961594E-01  0.55797291244E-02 -0.88894610617E-02  0.10198125370E+01  0.10195273211E+01 0.  0.
     999903    2    3    3    0    0  0.12582917779E+00  0.28394838712E-02 -0.40402457419E-02  0.12751213810E+00  0.20049367197E-01 0.  0.
         14    1    1    2    0    0  0.21713961594E-01 -0.55797291244E-02  0.88894610617E-02  0.24117463034E-01  0.00000000000E+00 0.  1.
     999901    1    3    3    0    0 -0.14754313939E+00  0.27402452532E-02 -0.48492153198E-02  0.89230039886E+00  0.88000000000E+00 0. -1.
        -11    1    4    4    0    0  0.38515870709E-01 -0.55922207098E-02  0.53539595979E-02  0.39289581740E-01  0.51100000000E-03 0. -1.
         11    1    4    4    0    0  0.87313307084E-01  0.84317045811E-02 -0.93942053398E-02  0.88222556362E-01  0.51100000000E-03 0.  1.
</event>
<event>
 8    1  0.1074844E+005  0.1043930E+01  0.7957747E-01            NaN
         13   -1    0    0    0    0  0.00000000000E+00  0.00000000000E+00  0.74505805969E-08  0.10566000000E+00  0.10566000000E+00 0.  1.
     999900   -1    0    0    0    0 -0.00000000000E+00 -0.00000000000E+00 -0.74505805969E-08  0.93827000000E+00  0.93827000000E+00 0.  1.
     999902    2    1    2    0    0  0.12702723295E-01 -0.19178739896E-01  0.12653523204E-01  0.10176755738E+01  0.10173368561E+01 0.  0.
     999903    2    3    3    0    0 -0.82500805591E-01 -0.94721026067E-01  0.22644655331E-01  0.12926678752E+00  0.20461335174E-01 0.  0.
         14    1    1    2    0    0 -0.12702723295E-01  0.19178739896E-01 -0.12653523204E-01  0.26254426152E-01  0.00000000000E+00 0. -1.
     999901    1    3    3    0    0  0.95203528886E-01  0.75542286171E-01 -0.99911321278E-02  0.88840878633E+00  0.88000000000E+00 0. -1.
        -11    1    4    4    0    0 -0.42621630292E-01 -0.51186652992E-01  0.22237633270E-01  0.70224285455E-01  0.51100000000E-03 0. -1.
         11    1    4    4    0    0 -0.39879175299E-01 -0.43534373075E-01  0.40702206191E-03  0.59042502060E-01  0.51100000000E-03 0.  1.
</event>
<event>
 8    1  0.1074844E+005  0.1043930E+01  0.7957747E-01            NaN
         13   -1    0    0    0    0  0.00000000000E+00  0.00000000000E+00  0.74505805969E-08  0.10566000000E+00  0.10566000000E+00 0. -1.
     999900   -1    0    0    0    0 -0.00000000000E+00 -0.00000000000E+00 -0.74505805969E-08  0.93827000000E+00  0.93827000000E+00 0.  1.
     999902    2    1    2    0    0  0.13500999803E-01 -0.13297996770E-01 -0.14171427418E-01  0.10202668838E+01  0.10199924368E+01 0.  0.
     999903    2    3    3    0    0  0.38340542784E-01  0.10513814905E+00 -0.63758174276E-01  0.13060235769E+00  0.21629688850E-01 0.  0.
         14    1    1    2    0    0 -0.13500999803E-01  0.13297996770E-01  0.14171427418E-01  0.23663116211E-01  0.00000000000E+00 0. -1.
     999901    1    3    3    0    0 -0.24839542981E-01 -0.11843614582E+00  0.49586746858E-01  0.88966452610E+00  0.88000000000E+00 0. -1.
        -11    1    4    4    0    0  0.30581628114E-01  0.67732762579E-01 -0.51726651678E-01  0.90547615758E-01  0.51100000000E-03 0.  1.
         11    1    4    4    0    0  0.77589146703E-02  0.37405386475E-01 -0.12031522598E-01  0.40054741932E-01  0.51100000000E-03 0. -1.
</event>
<event>
 8    1  0.1074844E+005  0.1043930E+01  0.7957747E-01            NaN
         13   -1    0    0    0    0  0.00000000000E+00  0.00000000000E+00  0.74505805969E-08  0.10566000000E+00  0.10566000000E+00 0. -1.
     999900   -1    0    0    0    0 -0.00000000000E+00 -0.00000000000E+00 -0.74505805969E-08  0.93827000000E+00  0.93827000000E+00 0.  1.
     999902    2    1    2    0    0  0.73430638982E-02  0.30361156577E-01  0.23945974958E-02  0.10126018256E+01  0.10121170894E+01 0.  0.
     999903    2    3    3    0    0 -0.36151350284E-01  0.35583564199E-01  0.11246195281E+00  0.12466384332E+00  0.17896168142E-01 0.  0.
         14    1    1    2    0    0 -0.73430638982E-02 -0.30361156577E-01 -0.23945974958E-02  0.31328174433E-01  0.00000000000E+00 0. -1.
     999901    1    3    3    0    0  0.43494414182E-01 -0.52224076219E-02 -0.11006735531E+00  0.88793798224E+00  0.88000000000E+00 0.  1.
        -11    1    4    4    0    0 -0.20863049102E-01  0.31523709914E-01  0.74782341574E-01  0.83795410596E-01  0.51100000000E-03 0.  1.
         11    1    4    4    0    0 -0.15288301182E-01  0.40598542851E-02  0.37679611233E-01  0.40868432727E-01  0.51100000000E-03 0. -1.
</event>
<event>
 8    1  0.1074844E+005  0.1043930E+01  0.7957747E-01            NaN
         13   -1    0    0    0    0  0.00000000000E+00  0.00000000000E+00  0.74505805969E-08  0.10566000000E+00  0.10566000000E+00 0.  1.
     999900   -1    0    0    0    0 -0.00000000000E+00 -0.00000000000E+00 -0.74505805969E-08  0.93827000000E+00  0.93827000000E+00 0. -1.
     999902    2    1    2    0    0  0.23280503450E-02 -0.22145818471E-01 -0.57916608240E-02  0.10209212967E+01  0.10206619879E+01 0.  0.
     999903    2    3    3    0    0  0.11030457206E+00  0.47002178893E-01  0.47349773818E-01  0.13004286115E+00  0.17112604072E-01 0.  0.
         14    1    1    2    0    0 -0.23280503450E-02  0.22145818471E-01  0.57916608240E-02  0.23008703337E-01  0.00000000000E+00 0.  1.
     999901    1    3    3    0    0 -0.10797652171E+00 -0.69147997364E-01 -0.53141434642E-01  0.89087843551E+00  0.88000000000E+00 0.  1.
        -11    1    4    4    0    0  0.79634736699E-01  0.41988150323E-01  0.34563679047E-01  0.96434460059E-01  0.51100000000E-03 0. -1.
         11    1    4    4    0    0  0.30669835361E-01  0.50140285707E-02  0.12786094771E-01  0.33608401094E-01  0.51100000000E-03 0.  1.
</event>
<event>
 8    1  0.1074844E+005  0.1043930E+01  0.7957747E-01            NaN
         13   -1    0    0    0    0  0.00000000000E+00  0.00000000000E+00  0.74505805969E-08  0.10566000000E+00  0.10566000000E+00 0.  1.
     999900   -1    0    0    0    0 -0.00000000000E+00 -0.00000000000E+00 -0.74505805969E-08  0.93827000000E+00  0.93827000000E+00 0.  1.
     999902    2    1    2    0    0 -0.16480682130E-01  0.79652916344E-02  0.13895897081E-01  0.10209483832E+01  0.10206896916E+01 0.  0.
     999903    2    3    3    0    0  0.64477506764E-01 -0.50455332911E-01 -0.96886639654E-01  0.12840148352E+00  0.19920605608E-01 0.  0.
         14    1    1    2    0    0  0.16480682130E-01 -0.79652916344E-02 -0.13895897081E-01  0.22981616783E-01  0.00000000000E+00 0. -1.
     999901    1    3    3    0    0 -0.80958188895E-01  0.58420624545E-01  0.11078253673E+00  0.89254689970E+00  0.88000000000E+00 0. -1.
        -11    1    4    4    0    0  0.11485530294E-01 -0.87635424161E-02 -0.70736948289E-02  0.16093954186E-01  0.51100000000E-03 0. -1.
         11    1    4    4    0    0  0.52991976471E-01 -0.41691790494E-01 -0.89812944825E-01  0.11230752933E+00  0.51100000000E-03 0.  1.
</event>
<event>
 8    1  0.1074844E+005  0.1043930E+01  0.7957747E-01            NaN
         13   -1    0    0    0    0  0.00000000000E+00  0.00000000000E+00  0.74505805969E-08  0.10566000000E+00  0.10566000000E+00 0.  1.
     999900   -1    0    0    0    0 -0.00000000000E+00 -0.00000000000E+00 -0.74505805969E-08  0.93827000000E+00  0.93827000000E+00 0. -1.
     999902    2    1    2    0    0 -0.46592979517E-02 -0.23252940067E-01  0.60817853683E-02  0.10194474268E+01  0.10191534033E+01 0.  0.
     999903    2    3    3    0    0  0.52142460984E-01  0.78506881926E-01  0.84531675339E-01  0.12830440433E+00  0.20838648890E-01 0.  0.
         14    1    1    2    0    0  0.46592979517E-02  0.23252940067E-01 -0.60817853683E-02  0.24482573239E-01  0.00000000000E+00 0. -1.
     999901    1    3    3    0    0 -0.56801758936E-01 -0.10175982199E+00 -0.78449889971E-01  0.89114302243E+00  0.88000000000E+00 0.  1.
        -11    1    4    4    0    0  0.51796973952E-01  0.66352997160E-01  0.71175074832E-01  0.11023519919E+00  0.51100000000E-03 0.  1.
         11    1    4    4    0    0  0.34548703280E-03  0.12153884766E-01  0.13356600507E-01  0.18069205137E-01  0.51100000000E-03 0. -1.
</event>
<event>
 8    1  0.1074844E+005  0.1043930E+01  0.7957747E-01            NaN
         13   -1    0    0    0    0  0.00000000000E+00  0.00000000000E+00  0.74505805969E-08  0.10566000000E+00  0.10566000000E+00 0.  1.
     999900   -1    0    0    0    0 -0.00000000000E+00 -0.00000000000E+00 -0.74505805969E-08  0.93827000000E+00  0.93827000000E+00 0. -1.
     999902    2    1    2    0    0 -0.89065341035E-02 -0.15979317960E-01  0.13288952628E-01  0.10213189139E+01  0.10210685886E+01 0.  0.
     999903    2    3    3    0    0 -0.10353470337E+00 -0.68781870884E-01  0.45899921466E-01  0.13407256971E+00  0.20451664781E-01 0.  0.
         14    1    1    2    0    0  0.89065341035E-02  0.15979317960E-01 -0.13288952628E-01  0.22611086090E-01  0.00000000000E+00 0. -1.
     999901    1    3    3    0    0  0.94628169269E-01  0.52802552924E-01 -0.32610968838E-01  0.88724634420E+00  0.88000000000E+00 0. -1.
        -11    1    4    4    0    0 -0.10315991313E+00 -0.66552433822E-01  0.47065079766E-01  0.13147842780E+00  0.51100000000E-03 0. -1.
         11    1    4    4    0    0 -0.37479024763E-03 -0.22294370619E-02 -0.11651582999E-02  0.25941419017E-02  0.51100000000E-03 0.  1.
</event>
<event>
 8    1  0.1074844E+005  0.1043930E+01  0.7957747E-01            NaN
         13   -1    0    0    0    0  0.00000000000E+00  0.00000000000E+00  0.74505805969E-08  0.10566000000E+00  0.10566000000E+00 0.  1.
     999900   -1    0    0    0    0 -0.00000000000E+00 -0.00000000000E+00 -0.74505805969E-08  0.93827000000E+00  0.93827000000E+00 0.  1.
     999902    2    1    2    0    0 -0.40683999525E-02  0.21292203276E-01 -0.88106016250E-02  0.10205305022E+01  0.10202622062E+01 0.  0.
     999903    2    3    3    0    0  0.41274623589E-01 -0.14344388554E-01  0.11999108096E+00  0.12928652327E+00  0.20193799839E-01 0.  0.
         14    1    1    2    0    0  0.40683999525E-02 -0.21292203276E-01  0.88106016250E-02  0.23399497848E-01  0.00000000000E+00 0.  1.
     999901    1    3    3    0    0 -0.45343023542E-01  0.35636591830E-01 -0.12880168259E+00  0.89124397889E+00  0.88000000000E+00 0.  1.
        -11    1    4    4    0    0  0.24841704113E-01 -0.18209101457E-01  0.68805508380E-01  0.75386608516E-01  0.51100000000E-03 0.  1.
         11    1    4    4    0    0  0.16432919476E-01  0.38647129031E-02  0.51185572585E-01  0.53899914751E-01  0.51100000000E-03 0. -1.
</event>
<event>
 8    1  0.1074844E+005  0.1043930E+01  0.7957747E-01            NaN
         13   -1    0    0    0    0  0.00000000000E+00  0.00000000000E+00  0.74505805969E-08  0.10566000000E+00  0.10566000000E+00 0. -1.
     999900   -1    0    0    0    0 -0.00000000000E+00 -0.00000000000E+00 -0.74505805969E-08  0.93827000000E+00  0.93827000000E+00 0. -1.
     999902    2    1    2    0    0  0.91042054021E-02 -0.21769300198E-01  0.68782097738E-02  0.10193515794E+01  0.10190552212E+01 0.  0.
     999903    2    3    3    0    0  0.79083525804E-01 -0.75617079569E-01 -0.70337335967E-01  0.13156842511E+00  0.19767723142E-01 0.  0.
         14    1    1    2    0    0 -0.91042054021E-02  0.21769300198E-01 -0.68782097738E-02  0.24578420551E-01  0.00000000000E+00 0.  1.
     999901    1    3    3    0    0 -0.69979320402E-01  0.53847779372E-01  0.77215545741E-01  0.88778315434E+00  0.88000000000E+00 0.  1.
        -11    1    4    4    0    0  0.11888720892E-01 -0.19238618081E-01 -0.21327790164E-01  0.31090221363E-01  0.51100000000E-03 0. -1.
         11    1    4    4    0    0  0.67194804912E-01 -0.56378461488E-01 -0.49009545802E-01  0.10047820374E+00  0.51100000000E-03 0.  1.
</event>
<event>
 8    1  0.1121873E+005  0.1043930E+01  0.7957747E-01            NaN
         13   -1    0    0    0    0  0.00000000000E+00  0.00000000000E+00  0.74505805969E-08  0.10566000000E+00  0.10566000000E+00 0.  1.
     999900   -1    0    0    0    0 -0.00000000000E+00 -0.00000000000E+00 -0.74505805969E-08  0.93827000000E+00  0.93827000000E+00 0. -1.
     999902    2    1    2    0    0  0.21117704632E-01  0.12281699011E-01 -0.19406869984E-01  0.10127302535E+01  0.10122495454E+01 0.  0.
     999903    2    3    3    0    0 -0.67746925857E-01 -0.86450359542E-01 -0.49925997799E-01  0.12223805302E+00  0.19652626347E-01 0.  0.
         14    1    1    2    0    0 -0.21117704632E-01 -0.12281699011E-01  0.19406869984E-01  0.31199746507E-01  0.00000000000E+00 0.  1.
     999901    1    3    3    0    0  0.88864630489E-01  0.98732058553E-01  0.30519127815E-01  0.89049220047E+00  0.88000000000E+00 0. -1.
        -11    1    4    4    0    0 -0.41847101807E-01 -0.37559902167E-01 -0.26160444776E-01  0.62020610867E-01  0.51100000000E-03 0.  1.
         11    1    4    4    0    0 -0.25899824050E-01 -0.48890457375E-01 -0.23765553023E-01  0.60217442155E-01  0.51100000000E-03 0. -1.
</event>
<event>
 8    1  0.1074844E+005  0.1043930E+01  0.7957747E-01            NaN
         13   -1    0    0    0    0  0.00000000000E+00  0.00000000000E+00  0.74505805969E-08  0.10566000000E+00  0.10566000000E+00 0.  1.
     999900   -1    0    0    0    0 -0.00000000000E+00 -0.00000000000E+00 -0.74505805969E-08  0.93827000000E+00  0.93827000000E+00 0. -1.
     999902    2    1    2    0    0 -0.15449343938E-01  0.60491880664E-02  0.20711814775E-01  0.10173922123E+01  0.10170460459E+01 0.  0.
     999903    2    3    3    0    0 -0.10861887652E+00  0.55299524558E-01  0.43355331153E-01  0.13081515064E+00  0.19411881478E-01 0.  0.
         14    1    1    2    0    0  0.15449343938E-01 -0.60491880664E-02 -0.20711814775E-01  0.26537787693E-01  0.00000000000E+00 0. -1.
     999901    1    3    3    0    0  0.93169532587E-01 -0.49250336492E-01 -0.22643516378E-01  0.88657706167E+00  0.88000000000E+00 0. -1.
        -11    1    4    4    0    0 -0.71989692326E-01  0.38969550349E-01  0.38338472478E-01  0.90394918267E-01  0.51100000000E-03 0. -1.
         11    1    4    4    0    0 -0.36629184199E-01  0.16329974209E-01  0.50168586753E-02  0.40420232369E-01  0.51100000000E-03 0.  1.
</event>
<event>
 8    1  0.1074844E+005  0.1043930E+01  0.7957747E-01            NaN
         13   -1    0    0    0    0  0.00000000000E+00  0.00000000000E+00  0.74505805969E-08  0.10566000000E+00  0.10566000000E+00 0.  1.
     999900   -1    0    0    0    0 -0.00000000000E+00 -0.00000000000E+00 -0.74505805969E-08  0.93827000000E+00  0.93827000000E+00 0.  1.
     999902    2    1    2    0    0  0.22167808581E-01  0.86068683927E-03 -0.32379936103E-02  0.10215104299E+01  0.10212643739E+01 0.  0.
     999903    2    3    3    0    0  0.90189394533E-01  0.51367147010E-02  0.96148896403E-01  0.13329706904E+00  0.19052181279E-01 0.  0.
         14    1    1    2    0    0 -0.22167808581E-01 -0.86068683927E-03  0.32379936103E-02  0.22419570061E-01  0.00000000000E+00 0.  1.
     999901    1    3    3    0    0 -0.68021585952E-01 -0.42760278617E-02 -0.99386890013E-01  0.88821336090E+00  0.88000000000E+00 0.  1.
        -11    1    4    4    0    0  0.80737431976E-01  0.39497068740E-02  0.93067491024E-01  0.12327186262E+00  0.51100000000E-03 0. -1.
         11    1    4    4    0    0  0.94519625570E-02  0.11870078270E-02  0.30814053790E-02  0.10025206425E-01  0.51100000000E-03 0.  1.
</event>
<event>
 8    1  0.1074844E+005  0.1043930E+01  0.7957747E-01            NaN
         13   -1    0    0    0    0  0.00000000000E+00  0.00000000000E+00  0.74505805969E-08  0.10566000000E+00  0.10566000000E+00 0.  1.
     999900   -1    0    0    0    0 -0.00000000000E+00 -0.00000000000E+00 -0.74505805969E-08  0.93827000000E+00  0.93827000000E+00 0.  1.
     999902    2    1    2    0    0  0.39117311321E-02  0.25738648145E-01  0.29774877682E-02  0.10177260865E+01  0.10173886878E+01 0.  0.
     999903    2    3    3    0    0 -0.12588945254E+00 -0.75005094340E-02 -0.17179127575E-02  0.12757147316E+00  0.19160314115E-01 0.  0.
         14    1    1    2    0    0 -0.39117311321E-02 -0.25738648145E-01 -0.29774877682E-02  0.26203913490E-01  0.00000000000E+00 0.  1.
     999901    1    3    3    0    0  0.12980118368E+00  0.33239157579E-01  0.46954005256E-02  0.89015461335E+00  0.88000000000E+00 0.  1.
        -11    1    4    4    0    0 -0.85785514567E-01 -0.33269808186E-03  0.64069005235E-02  0.86026592940E-01  0.51100000000E-03 0.  1.
         11    1    4    4    0    0 -0.40103937976E-01 -0.71678113521E-02 -0.81248132810E-02  0.41544880221E-01  0.51100000000E-03 0. -1.
</event>
<event>
 8    1  0.1074844E+005  0.1043930E+01  0.7957747E-01            NaN
         13   -1    0    0    0    0  0.00000000000E+00  0.00000000000E+00  0.74505805969E-08  0.10566000000E+00  0.10566000000E+00 0. -1.
     999900   -1    0    0    0    0 -0.00000000000E+00 -0.00000000000E+00 -0.74505805969E-08  0.93827000000E+00  0.93827000000E+00 0.  1.
     999902    2    1    2    0    0  0.11371062072E-01 -0.87339773647E-02  0.22299891060E-01  0.10174183317E+01  0.10170728554E+01 0.  0.
     999903    2    3    3    0    0  0.40394075934E-01  0.50415383300E-01 -0.10621402114E+00  0.12564660767E+00  0.18227986402E-01 0.  0.
         14    1    1    2    0    0 -0.11371062072E-01  0.87339773647E-02 -0.22299891060E-01  0.26511668272E-01  0.00000000000E+00 0.  1.
     999901    1    3    3    0    0 -0.29023013862E-01 -0.59149360665E-01  0.12851391220E+00  0.89177172406E+00  0.88000000000E+00 0. -1.
        -11    1    4    4    0    0  0.77068029381E-02  0.23460061347E-01 -0.41573266801E-01  0.48356663692E-01  0.51100000000E-03 0.  1.
         11    1    4    4    0    0  0.32687272996E-01  0.26955321953E-01 -0.64640754339E-01  0.77289943978E-01  0.51100000000E-03 0. -1.
</event>
<event>
 8    1  0.1074844E+005  0.1043930E+01  0.7957747E-01            NaN
         13   -1    0    0    0    0  0.00000000000E+00  0.00000000000E+00  0.74505805969E-08  0.10566000000E+00  0.10566000000E+00 0.  1.
     999900   -1    0    0    0    0 -0.00000000000E+00 -0.00000000000E+00 -0.74505805969E-08  0.93827000000E+00  0.93827000000E+00 0. -1.
     999902    2    1    2    0    0  0.20801305277E-02  0.11254491036E-01  0.23792930720E-01  0.10175274610E+01  0.10171848602E+01 0.  0.
     999903    2    3    3    0    0  0.45143790100E-01 -0.29904402860E-01  0.11672489789E+00  0.13063125299E+00  0.22529699869E-01 0.  0.
         14    1    1    2    0    0 -0.20801305277E-02 -0.11254491036E-01 -0.23792930720E-01  0.26402538964E-01  0.00000000000E+00 0. -1.
     999901    1    3    3    0    0 -0.43063659572E-01  0.41158893897E-01 -0.92931967167E-01  0.88689620804E+00  0.88000000000E+00 0. -1.
        -11    1    4    4    0    0  0.34236386672E-01 -0.17166318385E-01  0.57604135585E-01  0.69175936688E-01  0.51100000000E-03 0.  1.
         11    1    4    4    0    0  0.10907403428E-01 -0.12738084475E-01  0.59120762303E-01  0.61455316303E-01  0.51100000000E-03 0. -1.
</event>
<event>
 8    1  0.1074844E+005  0.1043930E+01  0.7957747E-01            NaN
         13   -1    0    0    0    0  0.00000000000E+00  0.00000000000E+00  0.74505805969E-08  0.10566000000E+00  0.10566000000E+00 0. -1.
     999900   -1    0    0    0    0 -0.00000000000E+00 -0.00000000000E+00 -0.74505805969E-08  0.93827000000E+00  0.93827000000E+00 0. -1.
     999902    2    1    2    0    0 -0.17297830137E-01 -0.11631988195E-01 -0.10124201119E-01  0.10207563614E+01  0.10204932787E+01 0.  0.
     999903    2    3    3    0    0  0.37951616867E-01 -0.11185775189E+00 -0.56616472957E-01  0.13212863484E+00  0.17322507136E-01 0.  0.
         14    1    1    2    0    0  0.17297830137E-01  0.11631988195E-01  0.10124201119E-01  0.23173638582E-01  0.00000000000E+00 0.  1.
     999901    1    3    3    0    0 -0.55249447003E-01  0.10022576370E+00  0.46492271838E-01  0.88862772658E+00  0.88000000000E+00 0.  1.
        -11    1    4    4    0    0  0.37153343805E-02 -0.85633705341E-02  0.23508959464E-03  0.93515459995E-02  0.51100000000E-03 0.  1.
         11    1    4    4    0    0  0.34236282486E-01 -0.10329438136E+00 -0.56851562552E-01  0.12277708884E+00  0.51100000000E-03 0. -1.
</event>
<event>
 7    1  0.1074844E+005  0.1043930E+01  0.7957747E-01            NaN
         13   -1    0    0    0    0  0.00000000000E+00  0.00000000000E+00  0.74505805969E-08  0.10566000000E+00  0.10566000000E+00 0.  1.
     999900   -1    0    0    0    0 -0.00000000000E+00 -0.00000000000E+00 -0.74505805969E-08  0.93827000000E+00  0.93827000000E+00 0. -1.
     999902    2    1    2    0    0  0.14560161515E-01 -0.10353144049E-01 -0.14508129662E-01  0.10209154020E+01  0.10206559588E+01 0.  0.
         14    1    1    2    0    0 -0.14560161515E-01  0.10353144049E-01  0.14508129662E-01  0.23014598005E-01  0.00000000000E+00 0.  1.
     999901    1    3    3    0    0  0.61542511231E-01  0.36576957464E-01 -0.11807592655E+00  0.89076780304E+00  0.88000000000E+00 0.  1.
        -11    1    3    3    0    0 -0.14769291701E-01 -0.34914231815E-01  0.79797961598E-01  0.88346541284E-01  0.51100000000E-03 0.  1.
         11    1    3    3    0    0 -0.32213058015E-01 -0.12015869698E-01  0.23769835295E-01  0.41801057668E-01  0.51100000000E-03 0. -1.
</event>
<event>
 8    1  0.1074844E+005  0.1043930E+01  0.7957747E-01            NaN
         13   -1    0    0    0    0  0.00000000000E+00  0.00000000000E+00  0.74505805969E-08  0.10566000000E+00  0.10566000000E+00 0. -1.
     999900   -1    0    0    0    0 -0.00000000000E+00 -0.00000000000E+00 -0.74505805969E-08  0.93827000000E+00  0.93827000000E+00 0.  1.
     999902    2    1    2    0    0  0.18007146129E-01 -0.15265799115E-01 -0.39758113594E-02  0.10199903047E+01  0.10197093276E+01 0.  0.
     999903    2    3    3    0    0 -0.80253523238E-01  0.84746573673E-01  0.46383002528E-01  0.12746935595E+00  0.21781736398E-01 0.  0.
         14    1    1    2    0    0 -0.18007146129E-01  0.15265799115E-01  0.39758113594E-02  0.23939695284E-01  0.00000000000E+00 0.  1.
     999901    1    3    3    0    0  0.98260669368E-01 -0.10001237279E+00 -0.50358813887E-01  0.89252094877E+00  0.88000000000E+00 0.  1.
        -11    1    4    4    0    0 -0.17635002884E-01  0.12285303739E-01  0.16642386768E-01  0.27187353181E-01  0.51100000000E-03 0.  1.
         11    1    4    4    0    0 -0.62618520355E-01  0.72461269934E-01  0.29740615759E-01  0.10028200277E+00  0.51100000000E-03 0. -1.
</event>
<event>
 8    1  0.1074844E+005  0.1043930E+01  0.7957747E-01            NaN
         13   -1    0    0    0    0  0.00000000000E+00  0.00000000000E+00  0.74505805969E-08  0.10566000000E+00  0.10566000000E+00 0.  1.
     999900   -1    0    0    0    0 -0.00000000000E+00 -0.00000000000E+00 -0.74505805969E-08  0.93827000000E+00  0.93827000000E+00 0.  1.
     999902    2    1    2    0    0 -0.23081116027E-01  0.23141718470E-02  0.52207597612E-02  0.10201529177E+01  0.10198757895E+01 0.  0.
     999903    2    3    3    0    0 -0.11904022794E+00 -0.51945751725E-02  0.56490084398E-01  0.13342123561E+00  0.20311006781E-01 0.  0.
         14    1    1    2    0    0  0.23081116027E-01 -0.23141718470E-02 -0.52207597612E-02  0.23777082261E-01  0.00000000000E+00 0. -1.
     999901    1    3    3    0    0  0.95959111917E-01  0.75087470196E-02 -0.51269324636E-01  0.88673168213E+00  0.88000000000E+00 0. -1.
        -11    1    4    4    0    0 -0.57196800395E-01 -0.12622572004E-01  0.28091052595E-01  0.64962848277E-01  0.51100000000E-03 0. -1.
         11    1    4    4    0    0 -0.61843427549E-01  0.74279968317E-02  0.28399031803E-01  0.68458387333E-01  0.51100000000E-03 0.  1.
</event>
<event>
 8    1  0.1074844E+005  0.1043930E+01  0.7957747E-01            NaN
         13   -1    0    0    0    0  0.00000000000E+00  0.00000000000E+00  0.74505805969E-08  0.10566000000E+00  0.10566000000E+00 0.  1.
     999900   -1    0    0    0    0 -0.00000000000E+00 -0.00000000000E+00 -0.74505805969E-08  0.93827000000E+00  0.93827000000E+00 0.  1.
     999902    2    1    2    0    0 -0.65844837795E-02 -0.46138618852E-02 -0.21584920742E-01  0.10208962866E+01  0.10206364074E+01 0.  0.
     999903    2    3    3    0    0  0.98568342763E-01 -0.81093304908E-01 -0.23184860034E-01  0.13134090222E+00  0.20519565400E-01 0.  0.
         14    1    1    2    0    0  0.65844837795E-02  0.46138618852E-02  0.21584920742E-01  0.23033713369E-01  0.00000000000E+00 0.  1.
     999901    1    3    3    0    0 -0.10515282654E+00  0.76479443023E-01  0.15999392926E-02  0.88955538441E+00  0.88000000000E+00 0.  1.
        -11    1    4    4    0    0  0.37852575378E-01 -0.44311124560E-01 -0.11193161798E-01  0.59345102701E-01  0.51100000000E-03 0.  1.
         11    1    4    4    0    0  0.60715767385E-01 -0.36782180349E-01 -0.11991698237E-01  0.71995799516E-01  0.51100000000E-03 0. -1.
</event>
<event>
 8    1  0.1074844E+005  0.1043930E+01  0.7957747E-01            NaN
         13   -1    0    0    0    0  0.00000000000E+00  0.00000000000E+00  0.74505805969E-08  0.10566000000E+00  0.10566000000E+00 0.  1.
     999900   -1    0    0    0    0 -0.00000000000E+00 -0.00000000000E+00 -0.74505805969E-08  0.93827000000E+00  0.93827000000E+00 0.  1.
     999902    2    1    2    0    0  0.84561185609E-02  0.20759476415E-01 -0.80807508182E-02  0.10201022780E+01  0.10198239540E+01 0.  0.
     999903    2    3    3    0    0  0.29356404533E-01 -0.13580240133E-01 -0.12572425519E+00  0.13136382817E+00  0.20090933257E-01 0.  0.
         14    1    1    2    0    0 -0.84561185609E-02 -0.20759476415E-01  0.80807508182E-02  0.23827722005E-01  0.00000000000E+00 0.  1.
     999901    1    3    3    0    0 -0.20900285972E-01  0.34339716548E-01  0.11764350437E+00  0.88873844983E+00  0.88000000000E+00 0. -1.
        -11    1    4    4    0    0  0.11460970503E-02 -0.88326953032E-02 -0.40290253381E-01  0.41266156633E-01  0.51100000000E-03 0.  1.
         11    1    4    4    0    0  0.28210307483E-01 -0.47475448297E-02 -0.85434001805E-01  0.90097671533E-01  0.51100000000E-03 0. -1.
</event>
<event>
 8    1  0.1074844E+005  0.1043930E+01  0.7957747E-01            NaN
         13   -1    0    0    0    0  0.00000000000E+00  0.00000000000E+00  0.74505805969E-08  0.10566000000E+00  0.10566000000E+00 0. -1.
     999900   -1    0    0    0    0 -0.00000000000E+00 -0.00000000000E+00 -0.74505805969E-08  0.93827000000E+00  0.93827000000E+00 0.  1.
     999902    2    1    2    0    0 -0.14998708597E-01  0.14945831769E-01  0.10297740171E-01  0.10203846693E+01  0.10201129794E+01 0.  0.
     999903    2    3    3    0    0  0.21145981013E-01 -0.45188206355E-01  0.11923695550E+00  0.13089588700E+00  0.20667732584E-01 0.  0.
         14    1    1    2    0    0  0.14998708597E-01 -0.14945831769E-01 -0.10297740171E-01  0.23545330736E-01  0.00000000000E+00 0. -1.
     999901    1    3    3    0    0 -0.36144689610E-01  0.60134038124E-01 -0.10893921533E+00  0.88948878226E+00  0.88000000000E+00 0.  1.
        -11    1    4    4    0    0  0.16266551795E-01 -0.11540890254E-01  0.41449777996E-01  0.46001500758E-01  0.51100000000E-03 0.  1.
         11    1    4    4    0    0  0.48794292183E-02 -0.33647316102E-01  0.77787177509E-01  0.84894386246E-01  0.51100000000E-03 0. -1.
</event>
<event>
 8    1  0.1074844E+005  0.1043930E+01  0.7957747E-01            NaN
         13   -1    0    0    0    0  0.00000000000E+00  0.00000000000E+00  0.74505805969E-08  0.10566000000E+00  0.10566000000E+00 0. -1.
     999900   -1    0    0    0    0 -0.00000000000E+00 -0.00000000000E+00 -0.74505805969E-08  0.93827000000E+00  0.93827000000E+00 0. -1.
     999902    2    1    2    0    0 -0.93300330909E-02  0.15558137992E-01 -0.15746821863E-01  0.10199077692E+01  0.10196248281E+01 0.  0.
     999903    2    3    3    0    0  0.11370213077E+00  0.58377949955E-01 -0.14489702856E-01  0.13031683510E+00  0.20889385771E-01 0.  0.
         14    1    1    2    0    0  0.93300330909E-02 -0.15558137992E-01  0.15746821863E-01  0.24022230830E-01  0.00000000000E+00 0. -1.
     999901    1    3    3    0    0 -0.12303216386E+00 -0.42819811963E-01 -0.12571190070E-02  0.88959093408E+00  0.88000000000E+00 0.  1.
        -11    1    4    4    0    0  0.74825978426E-01  0.45808190075E-01 -0.17044440526E-01  0.89376123206E-01  0.51100000000E-03 0. -1.
         11    1    4    4    0    0  0.38876152343E-01  0.12569759880E-01  0.25547376704E-02  0.40940711889E-01  0.51100000000E-03 0.  1.
</event>
<event>
 8    1  0.1074844E+005  0.1043930E+01  0.7957747E-01            NaN
         13   -1    0    0    0    0  0.00000000000E+00  0.00000000000E+00  0.74505805969E-08  0.10566000000E+00  0.10566000000E+00 0. -1.
     999900   -1    0    0    0    0 -0.00000000000E+00 -0.00000000000E+00 -0.74505805969E-08  0.93827000000E+00  0.93827000000E+00 0.  1.
     999902    2    1    2    0    0  0.19296746351E-01  0.16256560147E-02  0.13622463137E-01  0.10202534572E+01  0.10199786950E+01 0.  0.
     999903    2    3    3    0    0 -0.36502523911E-01  0.10176882784E+00  0.70936000472E-01  0.13096888239E+00  0.20775067294E-01 0.  0.
         14    1    1    2    0    0 -0.19296746351E-01 -0.16256560147E-02 -0.13622463137E-01  0.23676542804E-01  0.00000000000E+00 0.  1.
     999901    1    3    3    0    0  0.55799270262E-01 -0.10014317182E+00 -0.57313537336E-01  0.88928457480E+00  0.88000000000E+00 0. -1.
        -11    1    4    4    0    0 -0.14810871159E-01  0.60619682347E-01  0.31105504936E-01  0.69727479165E-01  0.51100000000E-03 0. -1.
         11    1    4    4    0    0 -0.21691652752E-01  0.41149145488E-01  0.39830495536E-01  0.61241403226E-01  0.51100000000E-03 0.  1.
</event>
<event>
 8    1  0.1074844E+005  0.1043930E+01  0.7957747E-01            NaN
         13   -1    0    0    0    0  0.00000000000E+00  0.00000000000E+00  0.74505805969E-08  0.10566000000E+00  0.10566000000E+00 0.  1.
     999900   -1    0    0    0    0 -0.00000000000E+00 -0.00000000000E+00 -0.74505805969E-08  0.93827000000E+00  0.93827000000E+00 0. -1.
     999902    2    1    2    0    0 -0.17491824897E-01 -0.65044301383E-02  0.14835654550E-01  0.10200895261E+01  0.10198109006E+01 0.  0.
     999903    2    3    3    0    0 -0.94053690299E-01 -0.84609222689E-01  0.35939604076E-01  0.13306784963E+00  0.20262779689E-01 0.  0.
         14    1    1    2    0    0  0.17491824897E-01  0.65044301383E-02 -0.14835654550E-01  0.23840473896E-01  0.00000000000E+00 0. -1.
     999901    1    3    3    0    0  0.76561865401E-01  0.78104792550E-01 -0.21103949526E-01  0.88702167648E+00  0.88000000000E+00 0. -1.
        -11    1    4    4    0    0 -0.64294441872E-01 -0.50000917772E-01  0.14883260051E-01  0.82798789752E-01  0.51100000000E-03 0.  1.
         11    1    4    4    0    0 -0.29759248426E-01 -0.34608304917E-01  0.21056344024E-01  0.50269059875E-01  0.51100000000E-03 0. -1.
</event>
<event>
 8    1  0.1074844E+005  0.1043930E+01  0.7957747E-01            NaN
         13   -1    0    0    0    0  0.00000000000E+00  0.00000000000E+00  0.74505805969E-08  0.10566000000E+00  0.10566000000E+00 0. -1.
     999900   -1    0    0    0    0 -0.00000000000E+00 -0.00000000000E+00 -0.74505805969E-08  0.93827000000E+00  0.93827000000E+00 0.  1.
     999902    2    1    2    0    0  0.16318267074E-01  0.81555831317E-02  0.15286886652E-01  0.10201289857E+01  0.10198512927E+01 0.  0.
     999903    2    3    3    0    0 -0.72217724664E-01  0.28169692120E-01  0.10375054014E+00  0.13104799708E+00  0.20011787802E-01 0.  0.
         14    1    1    2    0    0 -0.16318267074E-01 -0.81555831317E-02 -0.15286886652E-01  0.23801014265E-01  0.00000000000E+00 0. -1.
     999901    1    3    3    0    0  0.88535991737E-01 -0.20014108989E-01 -0.88463653487E-01  0.88908098865E+00  0.88000000000E+00 0.  1.
        -11    1    4    4    0    0 -0.10898530367E-01  0.11684947539E-01  0.27611258379E-01  0.31905464632E-01  0.51100000000E-03 0.  1.
         11    1    4    4    0    0 -0.61319194296E-01  0.16484744581E-01  0.76139281761E-01  0.99142532452E-01  0.51100000000E-03 0. -1.
</event>
<event>
 8    1  0.1074844E+005  0.1043930E+01  0.7957747E-01            NaN
         13   -1    0    0    0    0  0.00000000000E+00  0.00000000000E+00  0.74505805969E-08  0.10566000000E+00  0.10566000000E+00 0. -1.
     999900   -1    0    0    0    0 -0.00000000000E+00 -0.00000000000E+00 -0.74505805969E-08  0.93827000000E+00  0.93827000000E+00 0.  1.
     999902    2    1    2    0    0 -0.58425645167E-02  0.21727103414E-01  0.54780630269E-02  0.10207737534E+01  0.10205110699E+01 0.  0.
     999903    2    3    3    0    0 -0.35863425693E-01  0.57950591961E-01  0.11258733583E+00  0.13303179225E+00  0.19418886450E-01 0.  0.
         14    1    1    2    0    0  0.58425645167E-02 -0.21727103414E-01 -0.54780630269E-02  0.23156246617E-01  0.00000000000E+00 0.  1.
     999901    1    3    3    0    0  0.30020861176E-01 -0.36223488547E-01 -0.10710927280E+00  0.88774196113E+00  0.88000000000E+00 0.  1.
        -11    1    4    4    0    0 -0.58062180213E-02  0.44046248894E-03  0.72891396713E-02  0.93433855247E-02  0.51100000000E-03 0.  1.
         11    1    4    4    0    0 -0.30057207671E-01  0.57510129472E-01  0.10529819616E+00  0.12368840673E+00  0.51100000000E-03 0. -1.
</event>
<event>
 8    1  0.1074844E+005  0.1043930E+01  0.7957747E-01            NaN
         13   -1    0    0    0    0  0.00000000000E+00  0.00000000000E+00  0.74505805969E-08  0.10566000000E+00  0.10566000000E+00 0.  1.
     999900   -1    0    0    0    0 -0.00000000000E+00 -0.00000000000E+00 -0.74505805969E-08  0.93827000000E+00  0.93827000000E+00 0. -1.
     999902    2    1    2    0    0 -0.48160344441E-02  0.18309585699E-01  0.14261677426E-01  0.10202270348E+01  0.10199516518E+01 0.  0.
     999903    2    3    3    0    0 -0.45657775448E-02  0.12370691078E+00 -0.41738621629E-01  0.13217034052E+00  0.20065898381E-01 0.  0.
         14    1    1    2    0    0  0.48160344441E-02 -0.18309585699E-01 -0.14261677426E-01  0.23702965200E-01  0.00000000000E+00 0. -1.
     999901    1    3    3    0    0 -0.25025689931E-03 -0.10539732508E+00  0.56000299055E-01  0.88805669428E+00  0.88000000000E+00 0.  1.
        -11    1    4    4    0    0 -0.14807010053E-02  0.63378290637E-01 -0.10841686138E-01  0.64317987211E-01  0.51100000000E-03 0.  1.
         11    1    4    4    0    0 -0.30850765395E-02  0.60328620144E-01 -0.30896935491E-01  0.67852353308E-01  0.51100000000E-03 0. -1.
</event>
<event>
 8    1  0.1074844E+005  0.1043930E+01  0.7957747E-01            NaN
         13   -1    0    0    0    0  0.00000000000E+00  0.00000000000E+00  0.74505805969E-08  0.10566000000E+00  0.10566000000E+00 0.  1.
     999900   -1    0    0    0    0 -0.00000000000E+00 -0.00000000000E+00 -0.74505805969E-08  0.93827000000E+00  0.93827000000E+00 0.  1.
     999902    2    1    2    0    0 -0.23052047196E-01  0.15809838444E-02  0.41745688712E-02  0.10204497228E+01  0.10201795496E+01 0.  0.
     999903    2    3    3    0    0  0.95063395765E-02 -0.84047292109E-01  0.98501779251E-01  0.13068016121E+00  0.14845410619E-01 0.  0.
         14    1    1    2    0    0  0.23052047196E-01 -0.15809838444E-02 -0.41745688712E-02  0.23480277152E-01  0.00000000000E+00 0. -1.
     999901    1    3    3    0    0 -0.32558386773E-01  0.85628275954E-01 -0.94327210379E-01  0.88976956163E+00  0.88000000000E+00 0.  1.
        -11    1    4    4    0    0  0.12778658792E-01 -0.52725998275E-01  0.58881342694E-01  0.80066214180E-01  0.51100000000E-03 0.  1.
         11    1    4    4    0    0 -0.32723192156E-02 -0.31321293834E-01  0.39620436557E-01  0.50613947035E-01  0.51100000000E-03 0. -1.
</event>
<event>
 8    1  0.1074844E+005  0.1043930E+01  0.7957747E-01            NaN
         13   -1    0    0    0    0  0.00000000000E+00  0.00000000000E+00  0.74505805969E-08  0.10566000000E+00  0.10566000000E+00 0. -1.
     999900   -1    0    0    0    0 -0.00000000000E+00 -0.00000000000E+00 -0.74505805969E-08  0.93827000000E+00  0.93827000000E+00 0.  1.
     999902    2    1    2    0    0  0.87071259820E-02  0.14971849902E-01 -0.15986960586E-01  0.10203598231E+01  0.10200875527E+01 0.  0.
     999903    2    3    3    0    0 -0.84787537372E-01  0.77250588091E-01 -0.62297284036E-01  0.13201048897E+00  0.19729109127E-01 0.  0.
         14    1    1    2    0    0 -0.87071259820E-02 -0.14971849902E-01  0.15986960586E-01  0.23570176944E-01  0.00000000000E+00 0. -1.
     999901    1    3    3    0    0  0.93494663354E-01 -0.62278738189E-01  0.46310323449E-01  0.88834933408E+00  0.88000000000E+00 0. -1.
        -11    1    4    4    0    0 -0.70665653732E-01  0.62356562848E-01 -0.42137719722E-01  0.10323673809E+00  0.51100000000E-03 0. -1.
         11    1    4    4    0    0 -0.14121883639E-01  0.14894025243E-01 -0.20159564314E-01  0.28773750881E-01  0.51100000000E-03 0.  1.
</event>
<event>
 8    1  0.1074844E+005  0.1043930E+01  0.7957747E-01            NaN
         13   -1    0    0    0    0  0.00000000000E+00  0.00000000000E+00  0.74505805969E-08  0.10566000000E+00  0.10566000000E+00 0. -1.
     999900   -1    0    0    0    0 -0.00000000000E+00 -0.00000000000E+00 -0.74505805969E-08  0.93827000000E+00  0.93827000000E+00 0.  1.
     999902    2    1    2    0    0  0.10464326359E-01 -0.24839574054E-01  0.40034559738E-02  0.10166805188E+01  0.10163152774E+01 0.  0.
     999903    2    3    3    0    0  0.10968701590E+00 -0.33411437972E-01  0.56759787210E-01  0.12949291213E+00  0.19979369415E-01 0.  0.
         14    1    1    2    0    0 -0.10464326359E-01  0.24839574054E-01 -0.40034559738E-02  0.27249481189E-01  0.00000000000E+00 0.  1.
     999901    1    3    3    0    0 -0.99222689541E-01  0.85718639186E-02 -0.52756331236E-01  0.88718760669E+00  0.88000000000E+00 0.  1.
        -11    1    4    4    0    0  0.82764286634E-01 -0.18135484496E-01  0.47709887129E-01  0.97238456337E-01  0.51100000000E-03 0.  1.
         11    1    4    4    0    0  0.26922729266E-01 -0.15275953476E-01  0.90499000804E-02  0.32254455789E-01  0.51100000000E-03 0. -1.
</event>
<event>
 8    1  0.1074844E+005  0.1043930E+01  0.7957747E-01            NaN
         13   -1    0    0    0    0  0.00000000000E+00  0.00000000000E+00  0.74505805969E-08  0.10566000000E+00  0.10566000000E+00 0. -1.
     999900   -1    0    0    0    0 -0.00000000000E+00 -0.00000000000E+00 -0.74505805969E-08  0.93827000000E+00  0.93827000000E+00 0. -1.
     999902    2    1    2    0    0  0.83707195114E-02 -0.16767833117E-01 -0.13183790995E-01  0.10210162156E+01  0.10207590660E+01 0.  0.
     999903    2    3    3    0    0 -0.91635840824E-01 -0.89953955612E-01 -0.23812635409E-01  0.13226963021E+00  0.20961202637E-01 0.  0.
         14    1    1    2    0    0 -0.83707195114E-02  0.16767833117E-01  0.13183790995E-01  0.22913784445E-01  0.00000000000E+00 0. -1.
     999901    1    3    3    0    0  0.10000656034E+00  0.73186122495E-01  0.10628844414E-01  0.88874658535E+00  0.88000000000E+00 0. -1.
        -11    1    4    4    0    0 -0.50162346468E-01 -0.42569970917E-01 -0.21636537970E-01  0.69259398809E-01  0.51100000000E-03 0. -1.
         11    1    4    4    0    0 -0.41473494356E-01 -0.47383984695E-01 -0.21760974388E-02  0.63010231398E-01  0.51100000000E-03 0.  1.
</event>
<event>
 8    1  0.1074844E+005  0.1043930E+01  0.7957747E-01            NaN
         13   -1    0    0    0    0  0.00000000000E+00  0.00000000000E+00  0.74505805969E-08  0.10566000000E+00  0.10566000000E+00 0.  1.
     999900   -1    0    0    0    0 -0.00000000000E+00 -0.00000000000E+00 -0.74505805969E-08  0.93827000000E+00  0.93827000000E+00 0.  1.
     999902    2    1    2    0    0 -0.15351801448E-01 -0.39922525622E-02  0.15246503747E-01  0.10219283690E+01  0.10216914993E+01 0.  0.
     999903    2    3    3    0    0  0.42284525409E-01  0.10255814393E+00 -0.64712141314E-01  0.13003806296E+00  0.20398103104E-01 0.  0.
         14    1    1    2    0    0  0.15351801448E-01  0.39922525622E-02 -0.15246503747E-01  0.22001630956E-01  0.00000000000E+00 0. -1.
     999901    1    3    3    0    0 -0.57636326858E-01 -0.10655039649E+00  0.79958645061E-01  0.89189030608E+00  0.88000000000E+00 0.  1.
        -11    1    4    4    0    0  0.12548783628E-01  0.28425109505E-01 -0.80384729366E-02  0.32098862738E-01  0.51100000000E-03 0.  1.
         11    1    4    4    0    0  0.29735741782E-01  0.74133034422E-01 -0.56673668377E-01  0.97939200222E-01  0.51100000000E-03 0. -1.
</event>
<event>
 8    1  0.1074844E+005  0.1043930E+01  0.7957747E-01            NaN
         13   -1    0    0    0    0  0.00000000000E+00  0.00000000000E+00  0.74505805969E-08  0.10566000000E+00  0.10566000000E+00 0. -1.
     999900   -1    0    0    0    0 -0.00000000000E+00 -0.00000000000E+00 -0.74505805969E-08  0.93827000000E+00  0.93827000000E+00 0. -1.
     999902    2    1    2    0    0  0.10549047494E-01  0.17979233273E-01 -0.50126033573E-02  0.10224902839E+01  0.10222654838E+01 0.  0.
     999903    2    3    3    0    0 -0.12058237483E+00 -0.20925003253E-01 -0.43226707654E-01  0.13110411213E+00  0.18487159877E-01 0.  0.
         14    1    1    2    0    0 -0.10549047494E-01 -0.17979233273E-01  0.50126033573E-02  0.21439716056E-01  0.00000000000E+00 0. -1.
     999901    1    3    3    0    0  0.13113142233E+00  0.38904236527E-01  0.38214104297E-01  0.89138617182E+00  0.88000000000E+00 0. -1.
        -11    1    4    4    0    0 -0.63712791162E-01 -0.11291134486E-01 -0.32583666024E-01  0.72448367050E-01  0.51100000000E-03 0. -1.
         11    1    4    4    0    0 -0.56869583671E-01 -0.96338687667E-02 -0.10643041630E-01  0.58655745076E-01  0.51100000000E-03 0.  1.
</event>
<event>
 8    1  0.1074844E+005  0.1043930E+01  0.7957747E-01            NaN
         13   -1    0    0    0    0  0.00000000000E+00  0.00000000000E+00  0.74505805969E-08  0.10566000000E+00  0.10566000000E+00 0.  1.
     999900   -1    0    0    0    0 -0.00000000000E+00 -0.00000000000E+00 -0.74505805969E-08  0.93827000000E+00  0.93827000000E+00 0. -1.
     999902    2    1    2    0    0  0.22458835141E-02 -0.57566253998E-02 -0.21801684727E-01  0.10212695458E+01  0.10210181139E+01 0.  0.
     999903    2    3    3    0    0 -0.81312681475E-01 -0.75281150889E-01 -0.71159271275E-01  0.13320881318E+00  0.20048495515E-01 0.  0.
         14    1    1    2    0    0 -0.22458835141E-02  0.57566253998E-02  0.21801684727E-01  0.22660454225E-01  0.00000000000E+00 0.  1.
     999901    1    3    3    0    0  0.83558564989E-01  0.69524525489E-01  0.49357586548E-01  0.88806073260E+00  0.88000000000E+00 0. -1.
        -11    1    4    4    0    0 -0.69588086989E-02 -0.48151571076E-02 -0.12674071632E-01  0.15248080837E-01  0.51100000000E-03 0.  1.
         11    1    4    4    0    0 -0.74353872776E-01 -0.70465993781E-01 -0.58485199643E-01  0.11796073234E+00  0.51100000000E-03 0. -1.
</event>
<event>
 8    1  0.1074844E+005  0.1043930E+01  0.7957747E-01            NaN
         13   -1    0    0    0    0  0.00000000000E+00  0.00000000000E+00  0.74505805969E-08  0.10566000000E+00  0.10566000000E+00 0.  1.
     999900   -1    0    0    0    0 -0.00000000000E+00 -0.00000000000E+00 -0.74505805969E-08  0.93827000000E+00  0.93827000000E+00 0. -1.
     999902    2    1    2    0    0 -0.24830061814E-02 -0.15546963326E-01 -0.13593965841E-01  0.10231292958E+01  0.10229178298E+01 0.  0.
     999903    2    3    3    0    0 -0.82391799846E-01  0.97958689721E-01 -0.25393469359E-01  0.13217016269E+00  0.20971648587E-01 0.  0.
         14    1    1    2    0    0  0.24830061814E-02  0.15546963326E-01  0.13593965841E-01  0.20800704211E-01  0.00000000000E+00 0.  1.
     999901    1    3    3    0    0  0.79908793664E-01 -0.11350565305E+00  0.11799503518E-01  0.89095913310E+00  0.88000000000E+00 0. -1.
        -11    1    4    4    0    0 -0.52576461095E-01  0.73438912588E-01 -0.11087566830E-01  0.90998645059E-01  0.51100000000E-03 0. -1.
         11    1    4    4    0    0 -0.29815338751E-01  0.24519777133E-01 -0.14305902529E-01  0.41171517626E-01  0.51100000000E-03 0.  1.
</event>
<event>
 8    1  0.1074844E+005  0.1043930E+01  0.7957747E-01            NaN
         13   -1    0    0    0    0  0.00000000000E+00  0.00000000000E+00  0.74505805969E-08  0.10566000000E+00  0.10566000000E+00 0.  1.
     999900   -1    0    0    0    0 -0.00000000000E+00 -0.00000000000E+00 -0.74505805969E-08  0.93827000000E+00  0.93827000000E+00 0. -1.
     999902    2    1    2    0    0  0.14409041096E-01  0.41080850652E-02  0.18163413704E-01  0.10203841633E+01  0.10201124616E+01 0.  0.
     999903    2    3    3    0    0  0.15861328828E-01  0.12962516298E+00  0.34193182375E-02  0.13135433572E+00  0.13711496859E-01 0.  0.
         14    1    1    2    0    0 -0.14409041096E-01 -0.41080850652E-02 -0.18163413704E-01  0.23545836693E-01  0.00000000000E+00 0. -1.
     999901    1    3    3    0    0 -0.14522877320E-02 -0.12551707791E+00  0.14744095466E-01  0.88902982759E+00  0.88000000000E+00 0.  1.
        -11    1    4    4    0    0  0.14174450916E-01  0.80730747969E-01 -0.29196235989E-02  0.82019229753E-01  0.51100000000E-03 0. -1.
         11    1    4    4    0    0  0.16868779118E-02  0.48894415009E-01  0.63389418364E-02  0.49335105967E-01  0.51100000000E-03 0.  1.
</event>
<event>
 8    1  0.1074844E+005  0.1043930E+01  0.7957747E-01            NaN
         13   -1    0    0    0    0  0.00000000000E+00  0.00000000000E+00  0.74505805969E-08  0.10566000000E+00  0.10566000000E+00 0. -1.
     999900   -1    0    0    0    0 -0.00000000000E+00 -0.00000000000E+00 -0.74505805969E-08  0.93827000000E+00  0.93827000000E+00 0.  1.
     999902    2    1    2    0    0 -0.18013731693E-01  0.20979932112E-02 -0.16037377430E-01  0.10197206303E+01  0.10194332103E+01 0.  0.
     999903    2    3    3    0    0  0.74478509779E-01  0.77672588949E-01  0.66115306371E-01  0.12785999228E+00  0.19921455657E-01 0.  0.
         14    1    1    2    0    0  0.18013731693E-01 -0.20979932112E-02  0.16037377430E-01  0.24209369670E-01  0.00000000000E+00 0. -1.
     999901    1    3    3    0    0 -0.92492241472E-01 -0.75574595737E-01 -0.82152683801E-01  0.89186063805E+00  0.88000000000E+00 0.  1.
        -11    1    4    4    0    0  0.17409545078E-01  0.20900578752E-01  0.27112838591E-01  0.38409550758E-01  0.51100000000E-03 0. -1.
         11    1    4    4    0    0  0.57068964702E-01  0.56772010196E-01  0.39002467780E-01  0.89450441518E-01  0.51100000000E-03 0.  1.
</event>
<event>
 8    1  0.1074844E+005  0.1043930E+01  0.7957747E-01            NaN
         13   -1    0    0    0    0  0.00000000000E+00  0.00000000000E+00  0.74505805969E-08  0.10566000000E+00  0.10566000000E+00 0.  1.
     999900   -1    0    0    0    0 -0.00000000000E+00 -0.00000000000E+00 -0.74505805969E-08  0.93827000000E+00  0.93827000000E+00 0.  1.
     999902    2    1    2    0    0 -0.78070548687E-02 -0.19900199686E-02  0.22191853289E-01  0.10203209204E+01  0.10200477401E+01 0.  0.
     999903    2    3    3    0    0  0.17154109950E-01  0.11298631150E+00  0.61928767785E-01  0.13160182032E+00  0.20583895611E-01 0.  0.
         14    1    1    2    0    0  0.78070548687E-02  0.19900199686E-02 -0.22191853289E-01  0.23609079558E-01  0.00000000000E+00 0. -1.
     999901    1    3    3    0    0 -0.24961164819E-01 -0.11497633147E+00 -0.39736914496E-01  0.88871910012E+00  0.88000000000E+00 0.  1.
        -11    1    4    4    0    0  0.18267972602E-01  0.65043767071E-01  0.29583186165E-01  0.73755247152E-01  0.51100000000E-03 0. -1.
         11    1    4    4    0    0 -0.11138626517E-02  0.47942544426E-01  0.32345581620E-01  0.57846573169E-01  0.51100000000E-03 0.  1.
</event>
<event>
 8    1  0.1074844E+005  0.1043930E+01  0.7957747E-01            NaN
         13   -1    0    0    0    0  0.00000000000E+00  0.00000000000E+00  0.74505805969E-08  0.10566000000E+00  0.10566000000E+00 0.  1.
     999900   -1    0    0    0    0 -0.00000000000E+00 -0.00000000000E+00 -0.74505805969E-08  0.93827000000E+00  0.93827000000E+00 0. -1.
     999902    2    1    2    0    0 -0.62268816248E-02 -0.21500041554E-01  0.69998053137E-02  0.10204774284E+01  0.10202078997E+01 0.  0.
     999903    2    3    3    0    0  0.34698068881E-01 -0.19151973483E-01  0.12395397272E+00  0.13179377134E+00  0.20838827691E-01 0.  0.
         14    1    1    2    0    0  0.62268816248E-02  0.21500041554E-01 -0.69998053137E-02  0.23452571629E-01  0.00000000000E+00 0. -1.
     999901    1    3    3    0    0 -0.40924950506E-01 -0.23480680705E-02 -0.11695416740E+00  0.88868365703E+00  0.88000000000E+00 0. -1.
        -11    1    4    4    0    0  0.35746230755E-01 -0.13056369517E-01  0.98579865538E-01  0.10567172190E+00  0.51100000000E-03 0. -1.
         11    1    4    4    0    0 -0.10481618736E-02 -0.60956039661E-02  0.25374107180E-01  0.26122049445E-01  0.51100000000E-03 0.  1.
</event>
<event>
 8    1  0.1074844E+005  0.1043930E+01  0.7957747E-01            NaN
         13   -1    0    0    0    0  0.00000000000E+00  0.00000000000E+00  0.74505805969E-08  0.10566000000E+00  0.10566000000E+00 0. -1.
     999900   -1    0    0    0    0 -0.00000000000E+00 -0.00000000000E+00 -0.74505805969E-08  0.93827000000E+00  0.93827000000E+00 0. -1.
     999902    2    1    2    0    0 -0.78323633413E-02 -0.17568645316E-01 -0.10527588613E-02  0.10246657451E+01  0.10244846401E+01 0.  0.
     999903    2    3    3    0    0 -0.10864297075E+00  0.43817081289E-01  0.63037462208E-01  0.13447557309E+00  0.19665360631E-01 0.  0.
         14    1    1    2    0    0  0.78323633413E-02  0.17568645316E-01  0.10527588613E-02  0.19264254851E-01  0.00000000000E+00 0.  1.
     999901    1    3    3    0    0  0.10081060741E+00 -0.61385726605E-01 -0.64090221070E-01  0.89019017206E+00  0.88000000000E+00 0.  1.
        -11    1    4    4    0    0 -0.48559023468E-01  0.91541166469E-02  0.25985829364E-01  0.55832795564E-01  0.51100000000E-03 0. -1.
         11    1    4    4    0    0 -0.60083947285E-01  0.34662964642E-01  0.37051632844E-01  0.78642777523E-01  0.51100000000E-03 0.  1.
</event>
<event>
 8    1  0.1074844E+005  0.1043930E+01  0.7957747E-01            NaN
         13   -1    0    0    0    0  0.00000000000E+00  0.00000000000E+00  0.74505805969E-08  0.10566000000E+00  0.10566000000E+00 0. -1.
     999900   -1    0    0    0    0 -0.00000000000E+00 -0.00000000000E+00 -0.74505805969E-08  0.93827000000E+00  0.93827000000E+00 0.  1.
     999902    2    1    2    0    0 -0.11585581331E-01 -0.18505852391E-01 -0.62246263997E-02  0.10212267350E+01  0.10209743415E+01 0.  0.
     999903    2    3    3    0    0 -0.24089491384E-01  0.11727106242E+00  0.44493948673E-01  0.12928273888E+00  0.20037700203E-01 0.  0.
         14    1    1    2    0    0  0.11585581331E-01  0.18505852391E-01  0.62246263997E-02  0.22703264993E-01  0.00000000000E+00 0. -1.
     999901    1    3    3    0    0  0.12503910053E-01 -0.13577691481E+00 -0.50718575073E-01  0.89194399612E+00  0.88000000000E+00 0.  1.
        -11    1    4    4    0    0 -0.23881744873E-01  0.68442385431E-01  0.28608709351E-01  0.77932132227E-01  0.51100000000E-03 0. -1.
         11    1    4    4    0    0 -0.20774651106E-03  0.48828676986E-01  0.15885239323E-01  0.51350606658E-01  0.51100000000E-03 0.  1.
</event>
<event>
 8    1  0.1074844E+005  0.1043930E+01  0.7957747E-01            NaN
         13   -1    0    0    0    0  0.00000000000E+00  0.00000000000E+00  0.74505805969E-08  0.10566000000E+00  0.10566000000E+00 0. -1.
     999900   -1    0    0    0    0 -0.00000000000E+00 -0.00000000000E+00 -0.74505805969E-08  0.93827000000E+00  0.93827000000E+00 0. -1.
     999902    2    1    2    0    0 -0.10229505658E-01 -0.91533530087E-02 -0.17215496251E-01  0.10219118264E+01  0.10216745964E+01 0.  0.
     999903    2    3    3    0    0  0.20824322565E-01 -0.10119294461E+00  0.78601660402E-01  0.13139705720E+00  0.20329809928E-01 0.  0.
         14    1    1    2    0    0  0.10229505658E-01  0.91533530087E-02  0.17215496251E-01  0.22018173596E-01  0.00000000000E+00 0. -1.
     999901    1    3    3    0    0 -0.31053828223E-01  0.92039591605E-01 -0.95817156653E-01  0.89051476921E+00  0.88000000000E+00 0. -1.
        -11    1    4    4    0    0 -0.38792222446E-02 -0.21560081420E-01  0.15880917291E-01  0.27061968352E-01  0.51100000000E-03 0. -1.
         11    1    4    4    0    0  0.24703544810E-01 -0.79632863193E-01  0.62720743111E-01  0.10433508884E+00  0.51100000000E-03 0.  1.
</event>
<event>
 8    1  0.1074844E+005  0.1043930E+01  0.7957747E-01            NaN
         13   -1    0    0    0    0  0.00000000000E+00  0.00000000000E+00  0.74505805969E-08  0.10566000000E+00  0.10566000000E+00 0.  1.
     999900   -1    0    0    0    0 -0.00000000000E+00 -0.00000000000E+00 -0.74505805969E-08  0.93827000000E+00  0.93827000000E+00 0. -1.
     999902    2    1    2    0    0  0.69396542962E-02 -0.12053575768E-01 -0.19805281216E-01  0.10197288295E+01  0.10194416065E+01 0.  0.
     999903    2    3    3    0    0 -0.92202596001E-01 -0.90094904140E-01 -0.79880121131E-02  0.13065105865E+00  0.19684520016E-01 0.  0.
         14    1    1    2    0    0 -0.69396542962E-02  0.12053575768E-01  0.19805281216E-01  0.24201170521E-01  0.00000000000E+00 0. -1.
     999901    1    3    3    0    0  0.99142250297E-01  0.78041328372E-01 -0.11817269103E-01  0.88907777083E+00  0.88000000000E+00 0. -1.
        -11    1    4    4    0    0 -0.76174566933E-01 -0.76662314638E-01  0.50249149135E-03  0.10807492194E+00  0.51100000000E-03 0. -1.
         11    1    4    4    0    0 -0.16028029068E-01 -0.13432589502E-01 -0.84905036044E-02  0.22576136715E-01  0.51100000000E-03 0.  1.
</event>
<event>
 8    1  0.1074844E+005  0.1043930E+01  0.7957747E-01            NaN
         13   -1    0    0    0    0  0.00000000000E+00  0.00000000000E+00  0.74505805969E-08  0.10566000000E+00  0.10566000000E+00 0. -1.
     999900   -1    0    0    0    0 -0.00000000000E+00 -0.00000000000E+00 -0.74505805969E-08  0.93827000000E+00  0.93827000000E+00 0.  1.
     999902    2    1    2    0    0  0.10624523012E-01 -0.96903406570E-02 -0.18283930204E-01  0.10206687598E+01  0.10204036613E+01 0.  0.
     999903    2    3    3    0    0 -0.79996296001E-01 -0.78131732761E-01 -0.67244096114E-01  0.13202177994E+00  0.20099922353E-01 0.  0.
         14    1    1    2    0    0 -0.10624523012E-01  0.96903406570E-02  0.18283930204E-01  0.23261240186E-01  0.00000000000E+00 0. -1.
     999901    1    3    3    0    0  0.90620819012E-01  0.68441392104E-01  0.48960165910E-01  0.88864697987E+00  0.88000000000E+00 0. -1.
        -11    1    4    4    0    0 -0.18910761066E-01 -0.27637031975E-01 -0.12735062141E-01  0.35831066817E-01  0.51100000000E-03 0.  1.
         11    1    4    4    0    0 -0.61085534935E-01 -0.50494700785E-01 -0.54509033973E-01  0.96190713124E-01  0.51100000000E-03 0. -1.
</event>
<event>
 8    1  0.1074844E+005  0.1043930E+01  0.7957747E-01            NaN
         13   -1    0    0    0    0  0.00000000000E+00  0.00000000000E+00  0.74505805969E-08  0.10566000000E+00  0.10566000000E+00 0. -1.
     999900   -1    0    0    0    0 -0.00000000000E+00 -0.00000000000E+00 -0.74505805969E-08  0.93827000000E+00  0.93827000000E+00 0.  1.
     999902    2    1    2    0    0  0.14464193775E-01 -0.19414680584E-01 -0.13128541437E-02  0.10196840455E+01  0.10193957457E+01 0.  0.
     999903    2    3    3    0    0  0.20578532558E-01  0.11431506470E+00 -0.50385865691E-01  0.12820819592E+00  0.20179098606E-01 0.  0.
         14    1    1    2    0    0 -0.14464193775E-01  0.19414680584E-01  0.13128541437E-02  0.24245954503E-01  0.00000000000E+00 0. -1.
     999901    1    3    3    0    0 -0.61143387833E-02 -0.13372974528E+00  0.49073011547E-01  0.89147584957E+00  0.88000000000E+00 0.  1.
        -11    1    4    4    0    0 -0.11979225295E-02  0.18624938223E-01 -0.14773459330E-01  0.23808392717E-01  0.51100000000E-03 0.  1.
         11    1    4    4    0    0  0.21776455088E-01  0.95690126478E-01 -0.35612406361E-01  0.10439980321E+00  0.51100000000E-03 0. -1.
</event>
<event>
 8    1  0.1074844E+005  0.1043930E+01  0.7957747E-01            NaN
         13   -1    0    0    0    0  0.00000000000E+00  0.00000000000E+00  0.74505805969E-08  0.10566000000E+00  0.10566000000E+00 0. -1.
     999900   -1    0    0    0    0 -0.00000000000E+00 -0.00000000000E+00 -0.74505805969E-08  0.93827000000E+00  0.93827000000E+00 0. -1.
     999902    2    1    2    0    0  0.35499127433E-02  0.16109704160E-01 -0.14450082386E-01  0.10219998990E+01  0.10217645836E+01 0.  0.
     999903    2    3    3    0    0 -0.80476003541E-01 -0.22324435040E-01 -0.10148288336E+00  0.13289234302E+00  0.19668036869E-01 0.  0.
         14    1    1    2    0    0 -0.35499127433E-02 -0.16109704160E-01  0.14450082386E-01  0.21930100993E-01  0.00000000000E+00 0. -1.
     999901    1    3    3    0    0  0.84025916284E-01  0.38434139200E-01  0.87032800970E-01  0.88910755598E+00  0.88000000000E+00 0.  1.
        -11    1    4    4    0    0 -0.22764581508E-01 -0.54540450478E-02 -0.43282392115E-01  0.49209748697E-01  0.51100000000E-03 0.  1.
         11    1    4    4    0    0 -0.57711422032E-01 -0.16870389992E-01 -0.58200491240E-01  0.83682594326E-01  0.51100000000E-03 0. -1.
</event>
<event>
 8    1  0.1074844E+005  0.1043930E+01  0.7957747E-01            NaN
         13   -1    0    0    0    0  0.00000000000E+00  0.00000000000E+00  0.74505805969E-08  0.10566000000E+00  0.10566000000E+00 0. -1.
     999900   -1    0    0    0    0 -0.00000000000E+00 -0.00000000000E+00 -0.74505805969E-08  0.93827000000E+00  0.93827000000E+00 0.  1.
     999902    2    1    2    0    0 -0.16457297505E-01 -0.95422526170E-02 -0.23740277107E-01  0.10135080017E+01  0.10130513173E+01 0.  0.
     999903    2    3    3    0    0 -0.11885163828E+00  0.60251371084E-02  0.34872565426E-01  0.12549763575E+00  0.19275543077E-01 0.  0.
         14    1    1    2    0    0  0.16457297505E-01  0.95422526170E-02  0.23740277107E-01  0.30421998345E-01  0.00000000000E+00 0. -1.
     999901    1    3    3    0    0  0.10239434077E+00 -0.15567389725E-01 -0.58612842533E-01  0.88801036591E+00  0.88000000000E+00 0.  1.
        -11    1    4    4    0    0 -0.80757194341E-01 -0.32785933702E-02  0.18004209312E-01  0.82806317913E-01  0.51100000000E-03 0. -1.
         11    1    4    4    0    0 -0.38094443937E-01  0.93037304787E-02  0.16868356114E-01  0.42691317837E-01  0.51100000000E-03 0.  1.
</event>
<event>
 8    1  0.1074844E+005  0.1043930E+01  0.7957747E-01            NaN
         13   -1    0    0    0    0  0.00000000000E+00  0.00000000000E+00  0.74505805969E-08  0.10566000000E+00  0.10566000000E+00 0. -1.
     999900   -1    0    0    0    0 -0.00000000000E+00 -0.00000000000E+00 -0.74505805969E-08  0.93827000000E+00  0.93827000000E+00 0. -1.
     999902    2    1    2    0    0 -0.17629578665E-01  0.14160741459E-01  0.42294958046E-02  0.10209252771E+01  0.10206660590E+01 0.  0.
     999903    2    3    3    0    0  0.46948781411E-01 -0.58453720452E-01  0.10424818184E+00  0.12994437815E+00  0.19920654788E-01 0.  0.
         14    1    1    2    0    0  0.17629578665E-01 -0.14160741459E-01 -0.42294958046E-02  0.23004722935E-01  0.00000000000E+00 0. -1.
     999901    1    3    3    0    0 -0.64578360076E-01  0.72614461910E-01 -0.10001868603E+00  0.89098089891E+00  0.88000000000E+00 0. -1.
        -11    1    4    4    0    0  0.14179689518E-01 -0.33231294348E-01  0.51672091153E-01  0.63052744936E-01  0.51100000000E-03 0. -1.
         11    1    4    4    0    0  0.32769091894E-01 -0.25222426103E-01  0.52576090683E-01  0.66891633218E-01  0.51100000000E-03 0.  1.
</event>
<event>
 7    1  0.1074844E+005  0.1043930E+01  0.7957747E-01            NaN
         13   -1    0    0    0    0  0.00000000000E+00  0.00000000000E+00  0.74505805969E-08  0.10566000000E+00  0.10566000000E+00 0. -1.
     999900   -1    0    0    0    0 -0.00000000000E+00 -0.00000000000E+00 -0.74505805969E-08  0.93827000000E+00  0.93827000000E+00 0.  1.
     999903    2    1    2    0    0 -0.32091873473E-01  0.15209505606E-01 -0.64517261535E-01  0.76230866812E-01  0.19683765267E-01 0.  0.
         14    1    1    2    0    0 -0.65628071989E-01  0.35866023041E-01 -0.18191763729E-01  0.76969836360E-01  0.00000000000E+00 0.  1.
     999901    1    1    2    0    0  0.97719945462E-01 -0.51075528647E-01  0.82709025264E-01  0.89072929683E+00  0.88000000000E+00 0. -1.
        -11    1    3    3    0    0 -0.32369373166E-01  0.81677760162E-02 -0.55587654602E-01  0.64843946127E-01  0.51100000000E-03 0.  1.
         11    1    3    3    0    0  0.27749969256E-03  0.70417295899E-02 -0.89296069332E-02  0.11386920685E-01  0.51100000000E-03 0. -1.
</event>
<event>
 8    1  0.1074844E+005  0.1043930E+01  0.7957747E-01            NaN
         13   -1    0    0    0    0  0.00000000000E+00  0.00000000000E+00  0.74505805969E-08  0.10566000000E+00  0.10566000000E+00 0.  1.
     999900   -1    0    0    0    0 -0.00000000000E+00 -0.00000000000E+00 -0.74505805969E-08  0.93827000000E+00  0.93827000000E+00 0. -1.
     999902    2    1    2    0    0 -0.49895935000E-03  0.83411174663E-03  0.23922566497E-01  0.10199876966E+01  0.10197066575E+01 0.  0.
     999903    2    3    3    0    0  0.50847627422E-01  0.84023085145E-01 -0.80343273307E-01  0.12845629358E+00  0.20015437635E-01 0.  0.
         14    1    1    2    0    0  0.49895935000E-03 -0.83411174663E-03 -0.23922566497E-01  0.23942303370E-01  0.00000000000E+00 0. -1.
     999901    1    3    3    0    0 -0.51346586772E-01 -0.83188973399E-01  0.10426583980E+00  0.89153140305E+00  0.88000000000E+00 0.  1.
        -11    1    4    4    0    0  0.64877534373E-02  0.23044317558E-01 -0.26993719498E-01  0.36083978851E-01  0.51100000000E-03 0. -1.
         11    1    4    4    0    0  0.44359873985E-01  0.60978767588E-01 -0.53349553809E-01  0.92372314732E-01  0.51100000000E-03 0.  1.
</event>
<event>
 8    1  0.1074844E+005  0.1043930E+01  0.7957747E-01            NaN
         13   -1    0    0    0    0  0.00000000000E+00  0.00000000000E+00  0.74505805969E-08  0.10566000000E+00  0.10566000000E+00 0.  1.
     999900   -1    0    0    0    0 -0.00000000000E+00 -0.00000000000E+00 -0.74505805969E-08  0.93827000000E+00  0.93827000000E+00 0. -1.
     999902    2    1    2    0    0  0.11274229730E-01  0.30309731310E-02 -0.19971627279E-01  0.10207964540E+01  0.10205342912E+01 0.  0.
     999903    2    3    3    0    0 -0.34555396241E-01 -0.12341168666E+00 -0.13230021221E-01  0.13055291986E+00  0.21083443980E-01 0.  0.
         14    1    1    2    0    0 -0.11274229730E-01 -0.30309731310E-02  0.19971627279E-01  0.23133545995E-01  0.00000000000E+00 0. -1.
     999901    1    3    3    0    0  0.45829625971E-01  0.12644265979E+00 -0.67416060577E-02  0.89024353414E+00  0.88000000000E+00 0.  1.
        -11    1    4    4    0    0 -0.15181683024E-01 -0.29362502838E-01 -0.97409556388E-02  0.34464291812E-01  0.51100000000E-03 0. -1.
         11    1    4    4    0    0 -0.19373713217E-01 -0.94049183820E-01 -0.34890655824E-02  0.96088628050E-01  0.51100000000E-03 0.  1.
</event>
<event>
 8    1  0.1074844E+005  0.1043930E+01  0.7957747E-01            NaN
         13   -1    0    0    0    0  0.00000000000E+00  0.00000000000E+00  0.74505805969E-08  0.10566000000E+00  0.10566000000E+00 0.  1.
     999900   -1    0    0    0    0 -0.00000000000E+00 -0.00000000000E+00 -0.74505805969E-08  0.93827000000E+00  0.93827000000E+00 0.  1.
     999902    2    1    2    0    0 -0.15364292006E-01  0.13394077251E-01 -0.87977494228E-02  0.10217294782E+01  0.10214882591E+01 0.  0.
     999903    2    3    3    0    0 -0.19525708962E-02 -0.12764017770E+00  0.17026965661E-01  0.13002467768E+00  0.17907309952E-01 0.  0.
         14    1    1    2    0    0  0.15364292006E-01 -0.13394077251E-01  0.87977494228E-02  0.22200521822E-01  0.00000000000E+00 0. -1.
     999901    1    3    3    0    0 -0.13411721110E-01  0.14103425495E+00 -0.25824715084E-01  0.89170480050E+00  0.88000000000E+00 0.  1.
        -11    1    4    4    0    0  0.72523029630E-02 -0.79511529835E-01  0.12444847650E-01  0.80807268417E-01  0.51100000000E-03 0. -1.
         11    1    4    4    0    0 -0.92048738592E-02 -0.48128647861E-01  0.45821180110E-02  0.49217409259E-01  0.51100000000E-03 0.  1.
</event>
<event>
 8    1  0.1074844E+005  0.1043930E+01  0.7957747E-01            NaN
         13   -1    0    0    0    0  0.00000000000E+00  0.00000000000E+00  0.74505805969E-08  0.10566000000E+00  0.10566000000E+00 0.  1.
     999900   -1    0    0    0    0 -0.00000000000E+00 -0.00000000000E+00 -0.74505805969E-08  0.93827000000E+00  0.93827000000E+00 0. -1.
     999902    2    1    2    0    0  0.48917708937E-02 -0.17243657564E-01  0.15304325259E-01  0.10203610475E+01  0.10200888058E+01 0.  0.
     999903    2    3    3    0    0 -0.59698792808E-01  0.12630096201E-01  0.11487234886E+00  0.13189147945E+00  0.21822938096E-01 0.  0.
         14    1    1    2    0    0 -0.48917708937E-02  0.17243657564E-01 -0.15304325259E-01  0.23568952465E-01  0.00000000000E+00 0. -1.
     999901    1    3    3    0    0  0.64590563702E-01 -0.29873753765E-01 -0.99568023601E-01  0.88846956808E+00  0.88000000000E+00 0. -1.
        -11    1    4    4    0    0 -0.42721622068E-01  0.17163050692E-01  0.93469754690E-01  0.10419483415E+00  0.51100000000E-03 0.  1.
         11    1    4    4    0    0 -0.16977170741E-01 -0.45329544913E-02  0.21402594170E-01  0.27696645302E-01  0.51100000000E-03 0. -1.
</event>
<event>
 8    1  0.1074844E+005  0.1043930E+01  0.7957747E-01            NaN
         13   -1    0    0    0    0  0.00000000000E+00  0.00000000000E+00  0.74505805969E-08  0.10566000000E+00  0.10566000000E+00 0.  1.
     999900   -1    0    0    0    0 -0.00000000000E+00 -0.00000000000E+00 -0.74505805969E-08  0.93827000000E+00  0.93827000000E+00 0. -1.
     999902    2    1    2    0    0 -0.37781154714E-02 -0.64340161355E-02 -0.22529039821E-01  0.10201975674E+01  0.10199214912E+01 0.  0.
     999903    2    3    3    0    0  0.24842423545E-01 -0.53498180961E-01 -0.11793450492E+00  0.13332870811E+00  0.19717900060E-01 0.  0.
         14    1    1    2    0    0  0.37781154714E-02  0.64340161355E-02  0.22529039821E-01  0.23732432564E-01  0.00000000000E+00 0.  1.
     999901    1    3    3    0    0 -0.28620539016E-01  0.47064164826E-01  0.95405465099E-01  0.88686885932E+00  0.88000000000E+00 0.  1.
        -11    1    4    4    0    0  0.23426466872E-01 -0.27864557441E-01 -0.65252644119E-01  0.74722162689E-01  0.51100000000E-03 0.  1.
         11    1    4    4    0    0  0.14159566724E-02 -0.25633623520E-01 -0.52681860802E-01  0.58606545424E-01  0.51100000000E-03 0. -1.
</event>
<event>
 8    1  0.1074844E+005  0.1043930E+01  0.7957747E-01            NaN
         13   -1    0    0    0    0  0.00000000000E+00  0.00000000000E+00  0.74505805969E-08  0.10566000000E+00  0.10566000000E+00 0.  1.
     999900   -1    0    0    0    0 -0.00000000000E+00 -0.00000000000E+00 -0.74505805969E-08  0.93827000000E+00  0.93827000000E+00 0.  1.
     999902    2    1    2    0    0 -0.86370405875E-02 -0.21103270896E-01 -0.15511700574E-01  0.10163517592E+01  0.10159775288E+01 0.  0.
     999903    2    3    3    0    0  0.10063206857E+00  0.63051638130E-01 -0.33688806310E-01  0.12542404375E+00  0.22224598627E-01 0.  0.
         14    1    1    2    0    0  0.86370405875E-02  0.21103270896E-01  0.15511700574E-01  0.27578240831E-01  0.00000000000E+00 0. -1.
     999901    1    3    3    0    0 -0.10926910916E+00 -0.84154909026E-01  0.18177105735E-01  0.89092771542E+00  0.88000000000E+00 0. -1.
        -11    1    4    4    0    0  0.83271206167E-01  0.55503654632E-01 -0.19992060316E-01  0.10205240345E+00  0.51100000000E-03 0. -1.
         11    1    4    4    0    0  0.17360862404E-01  0.75479834979E-02 -0.13696745994E-01  0.23371640296E-01  0.51100000000E-03 0.  1.
</event>
<event>
 8    1  0.1074844E+005  0.1043930E+01  0.7957747E-01            NaN
         13   -1    0    0    0    0  0.00000000000E+00  0.00000000000E+00  0.74505805969E-08  0.10566000000E+00  0.10566000000E+00 0. -1.
     999900   -1    0    0    0    0 -0.00000000000E+00 -0.00000000000E+00 -0.74505805969E-08  0.93827000000E+00  0.93827000000E+00 0.  1.
     999902    2    1    2    0    0 -0.21170760720E-01 -0.39931076531E-03 -0.13147585144E-01  0.10190057236E+01  0.10187008615E+01 0.  0.
     999903    2    3    3    0    0 -0.11153404514E+00  0.56276201517E-01 -0.36316595425E-01  0.13226199518E+00  0.23821968526E-01 0.  0.
         14    1    1    2    0    0  0.21170760720E-01  0.39931076531E-03  0.13147585144E-01  0.24924276392E-01  0.00000000000E+00 0. -1.
     999901    1    3    3    0    0  0.90363284418E-01 -0.56675512283E-01  0.23169010280E-01  0.88674372842E+00  0.88000000000E+00 0. -1.
        -11    1    4    4    0    0 -0.74718199877E-01  0.31542022096E-01 -0.12964001850E-01  0.82134249956E-01  0.51100000000E-03 0. -1.
         11    1    4    4    0    0 -0.36815845261E-01  0.24734179422E-01 -0.23352593574E-01  0.50127745228E-01  0.51100000000E-03 0.  1.
</event>
<event>
 8    1  0.1074844E+005  0.1043930E+01  0.7957747E-01            NaN
         13   -1    0    0    0    0  0.00000000000E+00  0.00000000000E+00  0.74505805969E-08  0.10566000000E+00  0.10566000000E+00 0. -1.
     999900   -1    0    0    0    0 -0.00000000000E+00 -0.00000000000E+00 -0.74505805969E-08  0.93827000000E+00  0.93827000000E+00 0.  1.
     999902    2    1    2    0    0  0.21499081157E-01  0.84439948182E-02  0.34952799415E-02  0.10205691669E+01  0.10203017671E+01 0.  0.
     999903    2    3    3    0    0 -0.48191357725E-01 -0.11138870522E+00 -0.39103760489E-01  0.12869960725E+00  0.17453773594E-01 0.  0.
         14    1    1    2    0    0 -0.21499081157E-01 -0.84439948182E-02 -0.34952799415E-02  0.23360833054E-01  0.00000000000E+00 0. -1.
     999901    1    3    3    0    0  0.69690438882E-01  0.11983270003E+00  0.42599040431E-01  0.89186955970E+00  0.88000000000E+00 0. -1.
        -11    1    4    4    0    0 -0.89196693483E-02 -0.38425240432E-01 -0.16871023311E-01  0.42906318324E-01  0.51100000000E-03 0. -1.
         11    1    4    4    0    0 -0.39271688376E-01 -0.72963464784E-01 -0.22232737178E-01  0.85793288925E-01  0.51100000000E-03 0.  1.
</event>
<event>
 8    1  0.1074844E+005  0.1043930E+01  0.7957747E-01            NaN
         13   -1    0    0    0    0  0.00000000000E+00  0.00000000000E+00  0.74505805969E-08  0.10566000000E+00  0.10566000000E+00 0.  1.
     999900   -1    0    0    0    0 -0.00000000000E+00 -0.00000000000E+00 -0.74505805969E-08  0.93827000000E+00  0.93827000000E+00 0. -1.
     999902    2    1    2    0    0  0.19545669962E-01 -0.77390249388E-02  0.10032017764E-01  0.10206369302E+01  0.10203710973E+01 0.  0.
     999903    2    3    3    0    0  0.53085039370E-01  0.40836938037E-01 -0.11008215517E+00  0.13051787746E+00  0.20764357348E-01 0.  0.
         14    1    1    2    0    0 -0.19545669962E-01  0.77390249388E-02 -0.10032017764E-01  0.23293069821E-01  0.00000000000E+00 0.  1.
     999901    1    3    3    0    0 -0.33539369409E-01 -0.48575962975E-01  0.12011417293E+00  0.89011905272E+00  0.88000000000E+00 0.  1.
        -11    1    4    4    0    0  0.15609599280E-01  0.24483772226E-01 -0.50470244453E-01  0.58229042481E-01  0.51100000000E-03 0.  1.
         11    1    4    4    0    0  0.37475440090E-01  0.16353165810E-01 -0.59611910717E-01  0.72288834977E-01  0.51100000000E-03 0. -1.
</event>
<event>
 8    1  0.1074844E+005  0.1043930E+01  0.7957747E-01            NaN
         13   -1    0    0    0    0  0.00000000000E+00  0.00000000000E+00  0.74505805969E-08  0.10566000000E+00  0.10566000000E+00 0.  1.
     999900   -1    0    0    0    0 -0.00000000000E+00 -0.00000000000E+00 -0.74505805969E-08  0.93827000000E+00  0.93827000000E+00 0.  1.
     999902    2    1    2    0    0  0.14830818853E-01  0.11594983093E-01  0.14179316535E-01  0.10203620167E+01  0.10200897976E+01 0.  0.
     999903    2    3    3    0    0  0.10571161982E-01  0.87982744882E-03  0.13051373161E+00  0.13263083249E+00  0.21085066401E-01 0.  0.
         14    1    1    2    0    0 -0.14830818853E-01 -0.11594983093E-01 -0.14179316535E-01  0.23567983329E-01  0.00000000000E+00 0. -1.
     999901    1    3    3    0    0  0.42596568712E-02  0.10715155644E-01 -0.11633441508E+00  0.88773118418E+00  0.88000000000E+00 0.  1.
        -11    1    4    4    0    0  0.48151596346E-03  0.96111066524E-02  0.40415452186E-01  0.41548467181E-01  0.51100000000E-03 0. -1.
         11    1    4    4    0    0  0.10089646018E-01 -0.87312792036E-02  0.90098279428E-01  0.91082365309E-01  0.51100000000E-03 0.  1.
</event>
<event>
 8    1  0.1074844E+005  0.1043930E+01  0.7957747E-01            NaN
         13   -1    0    0    0    0  0.00000000000E+00  0.00000000000E+00  0.74505805969E-08  0.10566000000E+00  0.10566000000E+00 0.  1.
     999900   -1    0    0    0    0 -0.00000000000E+00 -0.00000000000E+00 -0.74505805969E-08  0.93827000000E+00  0.93827000000E+00 0. -1.
     999902    2    1    2    0    0  0.22522303003E-01 -0.51953521298E-02  0.86592376241E-03  0.10208000272E+01  0.10205379464E+01 0.  0.
     999903    2    3    3    0    0 -0.11564529792E+00  0.50500115353E-01  0.13765220860E-01  0.12818663785E+00  0.17839176998E-01 0.  0.
         14    1    1    2    0    0 -0.22522303003E-01  0.51953521298E-02 -0.86592376241E-03  0.23129972769E-01  0.00000000000E+00 0.  1.
     999901    1    3    3    0    0  0.13816760092E+00 -0.55695467483E-01 -0.12899297097E-01  0.89261338938E+00  0.88000000000E+00 0. -1.
        -11    1    4    4    0    0 -0.59513198356E-01  0.20297221719E-01 -0.42320321744E-03  0.62882733799E-01  0.51100000000E-03 0.  1.
         11    1    4    4    0    0 -0.56132099562E-01  0.30202893634E-01  0.14188424077E-01  0.65303904048E-01  0.51100000000E-03 0. -1.
</event>
<event>
 8    1  0.1074844E+005  0.1043930E+01  0.7957747E-01            NaN
         13   -1    0    0    0    0  0.00000000000E+00  0.00000000000E+00  0.74505805969E-08  0.10566000000E+00  0.10566000000E+00 0.  1.
     999900   -1    0    0    0    0 -0.00000000000E+00 -0.00000000000E+00 -0.74505805969E-08  0.93827000000E+00  0.93827000000E+00 0.  1.
     999902    2    1    2    0    0  0.67217752426E-03  0.22796505880E-01  0.95874797287E-03  0.10211034431E+01  0.10208482697E+01 0.  0.
     999903    2    3    3    0    0 -0.10376285642E+00 -0.48446024889E-01  0.58747173057E-01  0.13019285465E+00  0.19626547359E-01 0.  0.
         14    1    1    2    0    0 -0.67217752426E-03 -0.22796505880E-01 -0.95874797287E-03  0.22826556916E-01  0.00000000000E+00 0. -1.
     999901    1    3    3    0    0  0.10443503394E+00  0.71242530768E-01 -0.57788425085E-01  0.89091058843E+00  0.88000000000E+00 0.  1.
        -11    1    4    4    0    0 -0.76678205765E-01 -0.29381047711E-01  0.34152862538E-01  0.88935214311E-01  0.51100000000E-03 0.  1.
         11    1    4    4    0    0 -0.27084650652E-01 -0.19064977177E-01  0.24594310519E-01  0.41257640343E-01  0.51100000000E-03 0. -1.
</event>
<event>
 8    1  0.1074844E+005  0.1043930E+01  0.7957747E-01            NaN
         13   -1    0    0    0    0  0.00000000000E+00  0.00000000000E+00  0.74505805969E-08  0.10566000000E+00  0.10566000000E+00 0.  1.
     999900   -1    0    0    0    0 -0.00000000000E+00 -0.00000000000E+00 -0.74505805969E-08  0.93827000000E+00  0.93827000000E+00 0.  1.
     999902    2    1    2    0    0  0.20680265129E-02  0.99870985272E-02 -0.22346075766E-01  0.10193664910E+01  0.10190704966E+01 0.  0.
     999903    2    3    3    0    0 -0.62530693875E-01  0.40722840588E-01 -0.10736778646E+00  0.13237924659E+00  0.20687820940E-01 0.  0.
         14    1    1    2    0    0 -0.20680265129E-02 -0.99870985272E-02  0.22346075766E-01  0.24563508967E-01  0.00000000000E+00 0.  1.
     999901    1    3    3    0    0  0.64598720388E-01 -0.30735742061E-01  0.85021710698E-01  0.88698724444E+00  0.88000000000E+00 0. -1.
        -11    1    4    4    0    0 -0.21139388556E-01  0.23780347252E-01 -0.34989222720E-01  0.47295723818E-01  0.51100000000E-03 0. -1.
         11    1    4    4    0    0 -0.41391305320E-01  0.16942493337E-01 -0.72378563744E-01  0.85083522771E-01  0.51100000000E-03 0.  1.
</event>
<event>
 8    1  0.1074844E+005  0.1043930E+01  0.7957747E-01            NaN
         13   -1    0    0    0    0  0.00000000000E+00  0.00000000000E+00  0.74505805969E-08  0.10566000000E+00  0.10566000000E+00 0. -1.
     999900   -1    0    0    0    0 -0.00000000000E+00 -0.00000000000E+00 -0.74505805969E-08  0.93827000000E+00  0.93827000000E+00 0.  1.
     999902    2    1    2    0    0  0.56511524738E-02  0.20792408705E-01 -0.53949894385E-02  0.10217181632E+01  0.10214766954E+01 0.  0.
     999903    2    3    3    0    0 -0.22273408056E-01 -0.11262608263E+00  0.55596079379E-01  0.12913753075E+00  0.20120601652E-01 0.  0.
         14    1    1    2    0    0 -0.56511524738E-02 -0.20792408705E-01  0.53949894385E-02  0.22211836824E-01  0.00000000000E+00 0.  1.
     999901    1    3    3    0    0  0.27924560529E-01  0.13341849133E+00 -0.60991068818E-01  0.89258063243E+00  0.88000000000E+00 0.  1.
        -11    1    4    4    0    0 -0.13996900092E-01 -0.27220806235E-01  0.17411180134E-01  0.35217833819E-01  0.51100000000E-03 0. -1.
         11    1    4    4    0    0 -0.82765079638E-02 -0.85405276393E-01  0.38184899245E-01  0.93919696929E-01  0.51100000000E-03 0.  1.
</event>
<event>
 8    1  0.1074844E+005  0.1043930E+01  0.7957747E-01            NaN
         13   -1    0    0    0    0  0.00000000000E+00  0.00000000000E+00  0.74505805969E-08  0.10566000000E+00  0.10566000000E+00 0.  1.
     999900   -1    0    0    0    0 -0.00000000000E+00 -0.00000000000E+00 -0.74505805969E-08  0.93827000000E+00  0.93827000000E+00 0. -1.
     999902    2    1    2    0    0  0.22213879058E-01  0.40936897259E-02  0.72240219707E-02  0.10202150003E+01  0.10199393343E+01 0.  0.
     999903    2    3    3    0    0  0.60791393605E-01 -0.11414758903E+00 -0.93007645124E-02  0.13131551597E+00  0.20784486941E-01 0.  0.
         14    1    1    2    0    0 -0.22213879058E-01 -0.40936897259E-02 -0.72240219707E-02  0.23714999722E-01  0.00000000000E+00 0.  1.
     999901    1    3    3    0    0 -0.38577514547E-01  0.11824127875E+00  0.16524786483E-01  0.88889948431E+00  0.88000000000E+00 0. -1.
        -11    1    4    4    0    0  0.36176368444E-01 -0.80591087296E-01  0.13672491846E-02  0.88350345085E-01  0.51100000000E-03 0. -1.
         11    1    4    4    0    0  0.24615025161E-01 -0.33556501731E-01 -0.10668013697E-01  0.42965170887E-01  0.51100000000E-03 0.  1.
</event>
<event>
 8    1  0.1074844E+005  0.1043930E+01  0.7957747E-01            NaN
         13   -1    0    0    0    0  0.00000000000E+00  0.00000000000E+00  0.74505805969E-08  0.10566000000E+00  0.10566000000E+00 0.  1.
     999900   -1    0    0    0    0 -0.00000000000E+00 -0.00000000000E+00 -0.74505805969E-08  0.93827000000E+00  0.93827000000E+00 0. -1.
     999902    2    1    2    0    0 -0.38867782088E-02 -0.21719925102E-01 -0.35122483151E-02  0.10215872589E+01  0.10213429049E+01 0.  0.
     999903    2    3    3    0    0 -0.25868099289E-01 -0.85463699100E-01 -0.98823696211E-01  0.13387631536E+00  0.13547784175E-01 0.  0.
         14    1    1    2    0    0  0.38867782088E-02  0.21719925102E-01  0.35122483151E-02  0.22342741092E-01  0.00000000000E+00 0.  1.
     999901    1    3    3    0    0  0.21981321080E-01  0.63743773998E-01  0.95311447896E-01  0.88771094355E+00  0.88000000000E+00 0.  1.
        -11    1    4    4    0    0 -0.15113026917E-01 -0.28977579916E-01 -0.32458757421E-01  0.46064474106E-01  0.51100000000E-03 0.  1.
         11    1    4    4    0    0 -0.10755072372E-01 -0.56486119184E-01 -0.66364938790E-01  0.87811841251E-01  0.51100000000E-03 0. -1.
</event>
<event>
 8    1  0.1074844E+005  0.1043930E+01  0.7957747E-01            NaN
         13   -1    0    0    0    0  0.00000000000E+00  0.00000000000E+00  0.74505805969E-08  0.10566000000E+00  0.10566000000E+00 0.  1.
     999900   -1    0    0    0    0 -0.00000000000E+00 -0.00000000000E+00 -0.74505805969E-08  0.93827000000E+00  0.93827000000E+00 0.  1.
     999902    2    1    2    0    0 -0.65149666424E-02  0.16742249515E-01  0.14344782861E-01  0.10209404262E+01  0.10206815533E+01 0.  0.
     999903    2    3    3    0    0  0.66985868841E-01 -0.98025757776E-01 -0.44894085245E-01  0.12848128885E+00  0.19894895862E-01 0.  0.
         14    1    1    2    0    0  0.65149666424E-02 -0.16742249515E-01 -0.14344782861E-01  0.22989573822E-01  0.00000000000E+00 0. -1.
     999901    1    3    3    0    0 -0.73500835483E-01  0.11476800729E+00  0.59238868107E-01  0.89245913733E+00  0.88000000000E+00 0.  1.
        -11    1    4    4    0    0  0.19410583509E-01 -0.16422388608E-01 -0.48780633313E-02  0.25894443856E-01  0.51100000000E-03 0. -1.
         11    1    4    4    0    0  0.47575285332E-01 -0.81603369168E-01 -0.40016021914E-01  0.10258684499E+00  0.51100000000E-03 0.  1.
</event>
<event>
 8    1  0.1074844E+005  0.1043930E+01  0.7957747E-01            NaN
         13   -1    0    0    0    0  0.00000000000E+00  0.00000000000E+00  0.74505805969E-08  0.10566000000E+00  0.10566000000E+00 0. -1.
     999900   -1    0    0    0    0 -0.00000000000E+00 -0.00000000000E+00 -0.74505805969E-08  0.93827000000E+00  0.93827000000E+00 0.  1.
     999902    2    1    2    0    0 -0.17080325780E-01 -0.95310612336E-02 -0.12436584575E-01  0.10207514044E+01  0.10204882078E+01 0.  0.
     999903    2    3    3    0    0 -0.11627359186E+00 -0.60382723614E-01 -0.17774189884E-01  0.13370366860E+00  0.19877819199E-01 0.  0.
         14    1    1    2    0    0  0.17080325780E-01  0.95310612336E-02  0.12436584575E-01  0.23178595576E-01  0.00000000000E+00 0. -1.
     999901    1    3    3    0    0  0.99193266078E-01  0.50851662381E-01  0.53376053095E-02  0.88704773583E+00  0.88000000000E+00 0. -1.
        -11    1    4    4    0    0 -0.52295291691E-01 -0.33211785441E-01  0.16868832901E-04  0.61952252831E-01  0.51100000000E-03 0. -1.
         11    1    4    4    0    0 -0.63978300167E-01 -0.27170938173E-01 -0.17791058717E-01  0.71751415768E-01  0.51100000000E-03 0.  1.
</event>
<event>
 8    1  0.1074844E+005  0.1043930E+01  0.7957747E-01            NaN
         13   -1    0    0    0    0  0.00000000000E+00  0.00000000000E+00  0.74505805969E-08  0.10566000000E+00  0.10566000000E+00 0.  1.
     999900   -1    0    0    0    0 -0.00000000000E+00 -0.00000000000E+00 -0.74505805969E-08  0.93827000000E+00  0.93827000000E+00 0.  1.
     999902    2    1    2    0    0 -0.18841720613E-01  0.15416333352E-01  0.94154381050E-02  0.10178278115E+01  0.10174930612E+01 0.  0.
     999903    2    3    3    0    0 -0.89605862077E-01  0.93651346509E-01  0.90895971630E-02  0.13152741820E+00  0.20421942599E-01 0.  0.
         14    1    1    2    0    0  0.18841720613E-01 -0.15416333352E-01 -0.94154381050E-02  0.26102188498E-01  0.00000000000E+00 0.  1.
     999901    1    3    3    0    0  0.70764141464E-01 -0.78235013157E-01  0.32584094200E-03  0.88630039331E+00  0.88000000000E+00 0.  1.
        -11    1    4    4    0    0 -0.72299435522E-01  0.85457264666E-01  0.57792812476E-02  0.11208841900E+00  0.51100000000E-03 0.  1.
         11    1    4    4    0    0 -0.17306426555E-01  0.81940818429E-02  0.33103159155E-02  0.19438999198E-01  0.51100000000E-03 0. -1.
</event>
<event>
 8    1  0.1074844E+005  0.1043930E+01  0.7957747E-01            NaN
         13   -1    0    0    0    0  0.00000000000E+00  0.00000000000E+00  0.74505805969E-08  0.10566000000E+00  0.10566000000E+00 0.  1.
     999900   -1    0    0    0    0 -0.00000000000E+00 -0.00000000000E+00 -0.74505805969E-08  0.93827000000E+00  0.93827000000E+00 0.  1.
     999902    2    1    2    0    0  0.20297355774E-01  0.97673718132E-02  0.52863207681E-02  0.10207928137E+01  0.10205305674E+01 0.  0.
     999903    2    3    3    0    0  0.70667405683E-01  0.43152913426E-02 -0.10932915557E+00  0.13191510864E+00  0.20886063871E-01 0.  0.
         14    1    1    2    0    0 -0.20297355774E-01 -0.97673718132E-02 -0.52863207681E-02  0.23137186321E-01  0.00000000000E+00 0.  1.
     999901    1    3    3    0    0 -0.50370049909E-01  0.54520804706E-02  0.11461547633E+00  0.88887770504E+00  0.88000000000E+00 0. -1.
        -11    1    4    4    0    0  0.23322199864E-01  0.93518772192E-03 -0.55119365157E-01  0.59859879042E-01  0.51100000000E-03 0.  1.
         11    1    4    4    0    0  0.47345205819E-01  0.33801036207E-02 -0.54209790409E-01  0.72055229593E-01  0.51100000000E-03 0. -1.
</event>
<event>
 8    1  0.1074844E+005  0.1043930E+01  0.7957747E-01            NaN
         13   -1    0    0    0    0  0.00000000000E+00  0.00000000000E+00  0.74505805969E-08  0.10566000000E+00  0.10566000000E+00 0. -1.
     999900   -1    0    0    0    0 -0.00000000000E+00 -0.00000000000E+00 -0.74505805969E-08  0.93827000000E+00  0.93827000000E+00 0. -1.
     999902    2    1    2    0    0 -0.20040235861E-03 -0.16390980444E-01  0.16193721281E-01  0.10208878428E+01  0.10206277708E+01 0.  0.
     999903    2    3    3    0    0  0.39326499128E-01 -0.11959184358E+00 -0.33704121363E-01  0.13257337773E+00  0.24309465262E-01 0.  0.
         14    1    1    2    0    0  0.20040235861E-03  0.16390980444E-01 -0.16193721281E-01  0.23042157233E-01  0.00000000000E+00 0.  1.
     999901    1    3    3    0    0 -0.39526901486E-01  0.10320086314E+00  0.49897842644E-01  0.88831446504E+00  0.88000000000E+00 0.  1.
        -11    1    4    4    0    0  0.12584081615E-01 -0.41634327504E-01 -0.23741631017E-01  0.49555045164E-01  0.51100000000E-03 0.  1.
         11    1    4    4    0    0  0.26742417513E-01 -0.77957516076E-01 -0.99624903455E-02  0.83018332566E-01  0.51100000000E-03 0. -1.
</event>
<event>
 8    1  0.1074844E+005  0.1043930E+01  0.7957747E-01            NaN
         13   -1    0    0    0    0  0.00000000000E+00  0.00000000000E+00  0.74505805969E-08  0.10566000000E+00  0.10566000000E+00 0.  1.
     999900   -1    0    0    0    0 -0.00000000000E+00 -0.00000000000E+00 -0.74505805969E-08  0.93827000000E+00  0.93827000000E+00 0.  1.
     999902    2    1    2    0    0 -0.12667104962E-01  0.13587598849E-01 -0.12334242055E-01  0.10216317508E+01  0.10213883798E+01 0.  0.
     999903    2    3    3    0    0  0.99053325884E-01  0.84643289994E-02 -0.83898556449E-01  0.13167155300E+00  0.20377042498E-01 0.  0.
         14    1    1    2    0    0  0.12667104962E-01 -0.13587598849E-01  0.12334242055E-01  0.22298249206E-01  0.00000000000E+00 0.  1.
     999901    1    3    3    0    0 -0.11172043085E+00  0.51232698499E-02  0.71564314394E-01  0.88996019779E+00  0.88000000000E+00 0. -1.
        -11    1    4    4    0    0  0.49103243180E-01  0.11010459148E-01 -0.51908920450E-01  0.72299072226E-01  0.51100000000E-03 0.  1.
         11    1    4    4    0    0  0.49950082704E-01 -0.25461301485E-02 -0.31989636000E-01  0.59372480774E-01  0.51100000000E-03 0. -1.
</event>
<event>
 8    1  0.1074844E+005  0.1043930E+01  0.7957747E-01            NaN
         13   -1    0    0    0    0  0.00000000000E+00  0.00000000000E+00  0.74505805969E-08  0.10566000000E+00  0.10566000000E+00 0.  1.
     999900   -1    0    0    0    0 -0.00000000000E+00 -0.00000000000E+00 -0.74505805969E-08  0.93827000000E+00  0.93827000000E+00 0. -1.
     999902    2    1    2    0    0 -0.25144254978E-03  0.70174684512E-02 -0.23801636084E-01  0.10191141589E+01  0.10188119763E+01 0.  0.
     999903    2    3    3    0    0 -0.11926523975E+00  0.21540348198E-01 -0.44741768761E-01  0.13073716290E+00  0.20054821809E-01 0.  0.
         14    1    1    2    0    0  0.25144254978E-03 -0.70174684512E-02  0.23801636084E-01  0.24815841052E-01  0.00000000000E+00 0.  1.
     999901    1    3    3    0    0  0.11901379720E+00 -0.14522879747E-01  0.20940132677E-01  0.88837699605E+00  0.88000000000E+00 0.  1.
        -11    1    4    4    0    0 -0.52007501693E-01  0.21815271047E-02 -0.11771692681E-01  0.53370152355E-01  0.51100000000E-03 0.  1.
         11    1    4    4    0    0 -0.67257738053E-01  0.19358821093E-01 -0.32970076080E-01  0.77367010540E-01  0.51100000000E-03 0. -1.
</event>
<event>
 8    1  0.1074844E+005  0.1043930E+01  0.7957747E-01            NaN
         13   -1    0    0    0    0  0.00000000000E+00  0.00000000000E+00  0.74505805969E-08  0.10566000000E+00  0.10566000000E+00 0.  1.
     999900   -1    0    0    0    0 -0.00000000000E+00 -0.00000000000E+00 -0.74505805969E-08  0.93827000000E+00  0.93827000000E+00 0. -1.
     999902    2    1    2    0    0 -0.55318152861E-02  0.23568741993E-01  0.10919768547E-03  0.10197205286E+01  0.10194331062E+01 0.  0.
     999903    2    3    3    0    0  0.10474180097E+00 -0.69930398724E-01 -0.86372534721E-02  0.12788037471E+00  0.20437283380E-01 0.  0.
         14    1    1    2    0    0  0.55318152861E-02 -0.23568741993E-01 -0.10919768547E-03  0.24209471362E-01  0.00000000000E+00 0.  1.
     999901    1    3    3    0    0 -0.11027361625E+00  0.93499140718E-01  0.87464511576E-02  0.89184015393E+00  0.88000000000E+00 0.  1.
        -11    1    4    4    0    0  0.86077361617E-02 -0.12926939922E-01  0.17329068517E-02  0.15635312109E-01  0.51100000000E-03 0. -1.
         11    1    4    4    0    0  0.96134064805E-01 -0.57003458802E-01 -0.10370160324E-01  0.11224506260E+00  0.51100000000E-03 0.  1.
</event>
<event>
 8    1  0.1074844E+005  0.1043930E+01  0.7957747E-01            NaN
         13   -1    0    0    0    0  0.00000000000E+00  0.00000000000E+00  0.74505805969E-08  0.10566000000E+00  0.10566000000E+00 0. -1.
     999900   -1    0    0    0    0 -0.00000000000E+00 -0.00000000000E+00 -0.74505805969E-08  0.93827000000E+00  0.93827000000E+00 0. -1.
     999902    2    1    2    0    0  0.13271748130E-02 -0.78203120616E-02 -0.80660195746E-02  0.10326172043E+01  0.10325552341E+01 0.  0.
     999903    2    3    3    0    0  0.11860653539E-01  0.12487537108E+00 -0.61474942697E-01  0.14100539892E+00  0.19204701050E-01 0.  0.
         14    1    1    2    0    0 -0.13271748130E-02  0.78203120616E-02  0.80660195746E-02  0.11312795654E-01  0.00000000000E+00 0. -1.
     999901    1    3    3    0    0 -0.10533478726E-01 -0.13269568314E+00  0.53408923122E-01  0.89161180542E+00  0.88000000000E+00 0. -1.
        -11    1    4    4    0    0  0.25228844695E-02  0.79255224884E-01 -0.47274907676E-01  0.92319735887E-01  0.51100000000E-03 0.  1.
         11    1    4    4    0    0  0.93377690695E-02  0.45620146193E-01 -0.14200035021E-01  0.48685663038E-01  0.51100000000E-03 0. -1.
</event>
<event>
 8    1  0.1714941E+005  0.1043930E+01  0.7957747E-01            NaN
         13   -1    0    0    0    0  0.00000000000E+00  0.00000000000E+00  0.74505805969E-08  0.10566000000E+00  0.10566000000E+00 0. -1.
     999900   -1    0    0    0    0 -0.00000000000E+00 -0.00000000000E+00 -0.74505805969E-08  0.93827000000E+00  0.93827000000E+00 0. -1.
     999902    2    1    2    0    0  0.89144662493E-03 -0.26822705438E-02 -0.23467918018E-01  0.10202924784E+01  0.10200186317E+01 0.  0.
     999903    2    3    3    0    0  0.30219154387E-01  0.12251490490E+00 -0.28300515732E-01  0.13093439460E+00  0.20488955161E-01 0.  0.
         14    1    1    2    0    0 -0.89144662493E-03  0.26822705438E-02  0.23467918018E-01  0.23637521623E-01  0.00000000000E+00 0. -1.
     999901    1    3    3    0    0 -0.29327707762E-01 -0.12519717544E+00  0.48325977138E-02  0.88935808378E+00  0.88000000000E+00 0. -1.
        -11    1    4    4    0    0  0.28746076681E-01  0.75571774921E-01 -0.18845898859E-01  0.83023244420E-01  0.51100000000E-03 0. -1.
         11    1    4    4    0    0  0.14730777056E-02  0.46943129979E-01 -0.94546168735E-02  0.47911150178E-01  0.51100000000E-03 0.  1.
</event>
<event>
 7    1  0.1074844E+005  0.1043930E+01  0.7957747E-01            NaN
         13   -1    0    0    0    0  0.00000000000E+00  0.00000000000E+00  0.74505805969E-08  0.10566000000E+00  0.10566000000E+00 0.  1.
     999900   -1    0    0    0    0 -0.00000000000E+00 -0.00000000000E+00 -0.74505805969E-08  0.93827000000E+00  0.93827000000E+00 0. -1.
     999902    2    1    2    0    0 -0.16541455341E-01  0.69712707851E-02 -0.16212805703E-01  0.10197417088E+01  0.10194547951E+01 0.  0.
         14    1    1    2    0    0  0.16541455341E-01 -0.69712707851E-02  0.16212805703E-01  0.24188291173E-01  0.00000000000E+00 0.  1.
     999901    1    3    3    0    0  0.99547597953E-01  0.51184562661E-01 -0.36538364169E-01  0.88784268639E+00  0.88000000000E+00 0. -1.
        -11    1    3    3    0    0 -0.60507406504E-01 -0.30911499651E-02  0.15769964020E-01  0.62607142852E-01  0.51100000000E-03 0. -1.
         11    1    3    3    0    0 -0.55581646789E-01 -0.41122141910E-01  0.45555944462E-02  0.69291879588E-01  0.51100000000E-03 0.  1.
</event>
<event>
 8    1  0.1074844E+005  0.1043930E+01  0.7957747E-01            NaN
         13   -1    0    0    0    0  0.00000000000E+00  0.00000000000E+00  0.74505805969E-08  0.10566000000E+00  0.10566000000E+00 0.  1.
     999900   -1    0    0    0    0 -0.00000000000E+00 -0.00000000000E+00 -0.74505805969E-08  0.93827000000E+00  0.93827000000E+00 0.  1.
     999902    2    1    2    0    0 -0.13260203116E-01 -0.16441499264E-01 -0.11224139034E-01  0.10200106108E+01  0.10197301157E+01 0.  0.
     999903    2    3    3    0    0 -0.78373681731E-01  0.10038874234E+00  0.12881863219E-01  0.12957803622E+00  0.20104514271E-01 0.  0.
         14    1    1    2    0    0  0.13260203116E-01  0.16441499264E-01  0.11224139034E-01  0.23919389244E-01  0.00000000000E+00 0.  1.
     999901    1    3    3    0    0  0.65113478615E-01 -0.11683024160E+00 -0.24106002253E-01  0.89043257454E+00  0.88000000000E+00 0. -1.
        -11    1    4    4    0    0 -0.27108471923E-01  0.50333680967E-01  0.84152341886E-02  0.57787766674E-01  0.51100000000E-03 0. -1.
         11    1    4    4    0    0 -0.51265209808E-01  0.50055061373E-01  0.44666290304E-02  0.71790269547E-01  0.51100000000E-03 0.  1.
</event>
<event>
 8    1  0.1074844E+005  0.1043930E+01  0.7957747E-01            NaN
         13   -1    0    0    0    0  0.00000000000E+00  0.00000000000E+00  0.74505805969E-08  0.10566000000E+00  0.10566000000E+00 0.  1.
     999900   -1    0    0    0    0 -0.00000000000E+00 -0.00000000000E+00 -0.74505805969E-08  0.93827000000E+00  0.93827000000E+00 0.  1.
     999902    2    1    2    0    0 -0.20881867124E-01 -0.97368151403E-02 -0.50282330821E-02  0.10203473566E+01  0.10200747948E+01 0.  0.
     999903    2    3    3    0    0 -0.14915656182E-01  0.99771806462E-01 -0.79873441164E-01  0.13038694224E+00  0.21073631395E-01 0.  0.
         14    1    1    2    0    0  0.20881867124E-01  0.97368151403E-02  0.50282330821E-02  0.23582643439E-01  0.00000000000E+00 0.  1.
     999901    1    3    3    0    0 -0.59662109417E-02 -0.10950862160E+00  0.74845208082E-01  0.88996041432E+00  0.88000000000E+00 0. -1.
        -11    1    4    4    0    0 -0.71257504891E-02  0.82912573941E-01 -0.56766218806E-01  0.10073696420E+00  0.51100000000E-03 0.  1.
         11    1    4    4    0    0 -0.77899056931E-02  0.16859232521E-01 -0.23107222359E-01  0.29649978044E-01  0.51100000000E-03 0. -1.
</event>
<event>
 8    1  0.1074844E+005  0.1043930E+01  0.7957747E-01            NaN
         13   -1    0    0    0    0  0.00000000000E+00  0.00000000000E+00  0.74505805969E-08  0.10566000000E+00  0.10566000000E+00 0. -1.
     999900   -1    0    0    0    0 -0.00000000000E+00 -0.00000000000E+00 -0.74505805969E-08  0.93827000000E+00  0.93827000000E+00 0.  1.
     999902    2    1    2    0    0  0.36066545433E-03  0.42126813849E-02 -0.17496707745E-01  0.10259296793E+01  0.10257717559E+01 0.  0.
     999903    2    3    3    0    0 -0.93437166837E-01 -0.79893159607E-01  0.50557871335E-01  0.13435620975E+00  0.19546653094E-01 0.  0.
         14    1    1    2    0    0 -0.36066545433E-03 -0.42126813849E-02  0.17496707745E-01  0.18000320718E-01  0.00000000000E+00 0. -1.
     999901    1    3    3    0    0  0.93797832291E-01  0.84105840992E-01 -0.68054579080E-01  0.89157346953E+00  0.88000000000E+00 0. -1.
        -11    1    4    4    0    0 -0.44604124067E-01 -0.27348540267E-01  0.15885458547E-01  0.54681618966E-01  0.51100000000E-03 0.  1.
         11    1    4    4    0    0 -0.48833042771E-01 -0.52544619340E-01  0.34672412788E-01  0.79674590789E-01  0.51100000000E-03 0. -1.
</event>
<event>
 8    1  0.1074844E+005  0.1043930E+01  0.7957747E-01            NaN
         13   -1    0    0    0    0  0.00000000000E+00  0.00000000000E+00  0.74505805969E-08  0.10566000000E+00  0.10566000000E+00 0.  1.
     999900   -1    0    0    0    0 -0.00000000000E+00 -0.00000000000E+00 -0.74505805969E-08  0.93827000000E+00  0.93827000000E+00 0. -1.
     999902    2    1    2    0    0 -0.70901098593E-03 -0.20149073493E-01 -0.52474027535E-02  0.10230967791E+01  0.10228846446E+01 0.  0.
     999903    2    3    3    0    0  0.67452851282E-01  0.93786801937E-01 -0.59564590524E-01  0.13148151446E+00  0.19839275095E-01 0.  0.
         14    1    1    2    0    0  0.70901098593E-03  0.20149073493E-01  0.52474027535E-02  0.20833220943E-01  0.00000000000E+00 0. -1.
     999901    1    3    3    0    0 -0.68161862268E-01 -0.11393587543E+00  0.54317187770E-01  0.89161526460E+00  0.88000000000E+00 0.  1.
        -11    1    4    4    0    0  0.12944774560E-01  0.27693674901E-01 -0.84514764113E-02  0.31720583104E-01  0.51100000000E-03 0.  1.
         11    1    4    4    0    0  0.54508076723E-01  0.66093127036E-01 -0.51113114112E-01  0.99760931354E-01  0.51100000000E-03 0. -1.
</event>
<event>
 8    1  0.1074844E+005  0.1043930E+01  0.7957747E-01            NaN
         13   -1    0    0    0    0  0.00000000000E+00  0.00000000000E+00  0.74505805969E-08  0.10566000000E+00  0.10566000000E+00 0.  1.
     999900   -1    0    0    0    0 -0.00000000000E+00 -0.00000000000E+00 -0.74505805969E-08  0.93827000000E+00  0.93827000000E+00 0.  1.
     999902    2    1    2    0    0  0.91056408066E-02 -0.15157507692E-01 -0.16561391564E-01  0.10197031053E+01  0.10194152641E+01 0.  0.
     999903    2    3    3    0    0 -0.66364101733E-01  0.56251951067E-01  0.90548313601E-01  0.12714079280E+00  0.19932588904E-01 0.  0.
         14    1    1    2    0    0 -0.91056408066E-02  0.15157507692E-01  0.16561391564E-01  0.24226894652E-01  0.00000000000E+00 0.  1.
     999901    1    3    3    0    0  0.75469742540E-01 -0.71409458758E-01 -0.10710970516E+00  0.89256231255E+00  0.88000000000E+00 0.  1.
        -11    1    4    4    0    0 -0.60625420953E-01  0.42054266616E-01  0.72156706106E-01  0.10320297652E+00  0.51100000000E-03 0. -1.
         11    1    4    4    0    0 -0.57386807801E-02  0.14197684451E-01  0.18391607494E-01  0.23937816276E-01  0.51100000000E-03 0.  1.
</event>
<event>
 8    1  0.1074844E+005  0.1043930E+01  0.7957747E-01            NaN
         13   -1    0    0    0    0  0.00000000000E+00  0.00000000000E+00  0.74505805969E-08  0.10566000000E+00  0.10566000000E+00 0.  1.
     999900   -1    0    0    0    0 -0.00000000000E+00 -0.00000000000E+00 -0.74505805969E-08  0.93827000000E+00  0.93827000000E+00 0. -1.
     999902    2    1    2    0    0 -0.12690432655E-02 -0.56781891845E-02  0.22460929502E-01  0.10207277230E+01  0.10204639822E+01 0.  0.
     999903    2    3    3    0    0  0.10007498090E+00  0.75144608191E-01  0.33635680933E-01  0.13116164291E+00  0.20255952119E-01 0.  0.
         14    1    1    2    0    0  0.12690432655E-02  0.56781891845E-02 -0.22460929502E-01  0.23202276986E-01  0.00000000000E+00 0. -1.
     999901    1    3    3    0    0 -0.10134402416E+00 -0.80822797375E-01 -0.11174751431E-01  0.88956608011E+00  0.88000000000E+00 0. -1.
        -11    1    4    4    0    0  0.49113798149E-01  0.48545203578E-01  0.22276933226E-01  0.72562558072E-01  0.51100000000E-03 0. -1.
         11    1    4    4    0    0  0.50961182749E-01  0.26599404613E-01  0.11358747707E-01  0.58599084834E-01  0.51100000000E-03 0.  1.
</event>
<event>
 8    1  0.1074844E+005  0.1043930E+01  0.7957747E-01            NaN
         13   -1    0    0    0    0  0.00000000000E+00  0.00000000000E+00  0.74505805969E-08  0.10566000000E+00  0.10566000000E+00 0.  1.
     999900   -1    0    0    0    0 -0.00000000000E+00 -0.00000000000E+00 -0.74505805969E-08  0.93827000000E+00  0.93827000000E+00 0.  1.
     999902    2    1    2    0    0  0.17235824105E-01 -0.52463707880E-02 -0.15470411656E-01  0.10201827544E+01  0.10199063293E+01 0.  0.
     999903    2    3    3    0    0  0.45220238622E-02 -0.54641744589E-01  0.11436049261E+00  0.12919588163E+00  0.24639086996E-01 0.  0.
         14    1    1    2    0    0 -0.17235824105E-01  0.52463707880E-02  0.15470411656E-01  0.23747245647E-01  0.00000000000E+00 0.  1.
     999901    1    3    3    0    0  0.12713800243E-01  0.49395373801E-01 -0.12983090426E+00  0.89098687273E+00  0.88000000000E+00 0.  1.
        -11    1    4    4    0    0  0.10149729696E-01 -0.49652898962E-01  0.85740055409E-01  0.99599425755E-01  0.51100000000E-03 0. -1.
         11    1    4    4    0    0 -0.56277058341E-02 -0.49888456276E-02  0.28620437199E-01  0.29596455871E-01  0.51100000000E-03 0.  1.
</event>
<event>
 8    1  0.1074844E+005  0.1043930E+01  0.7957747E-01            NaN
         13   -1    0    0    0    0  0.00000000000E+00  0.00000000000E+00  0.74505805969E-08  0.10566000000E+00  0.10566000000E+00 0. -1.
     999900   -1    0    0    0    0 -0.00000000000E+00 -0.00000000000E+00 -0.74505805969E-08  0.93827000000E+00  0.93827000000E+00 0.  1.
     999902    2    1    2    0    0  0.14956678363E-01  0.14008958828E-01 -0.12101248896E-01  0.10201309794E+01  0.10198533335E+01 0.  0.
     999903    2    3    3    0    0  0.12917055160E+00 -0.64201826472E-02 -0.20671789380E-01  0.13247360588E+00  0.19891788062E-01 0.  0.
         14    1    1    2    0    0 -0.14956678363E-01 -0.14008958828E-01  0.12101248896E-01  0.23799020566E-01  0.00000000000E+00 0. -1.
     999901    1    3    3    0    0 -0.11421387324E+00  0.20429141475E-01  0.85705404841E-02  0.88765737355E+00  0.88000000000E+00 0.  1.
        -11    1    4    4    0    0  0.10298528484E+00  0.17878664103E-02 -0.12047798915E-01  0.10370427156E+00  0.51100000000E-03 0.  1.
         11    1    4    4    0    0  0.26185266761E-01 -0.82080490575E-02 -0.86239904654E-02  0.28769334320E-01  0.51100000000E-03 0. -1.
</event>
<event>
 8    1  0.1074844E+005  0.1043930E+01  0.7957747E-01            NaN
         13   -1    0    0    0    0  0.00000000000E+00  0.00000000000E+00  0.74505805969E-08  0.10566000000E+00  0.10566000000E+00 0.  1.
     999900   -1    0    0    0    0 -0.00000000000E+00 -0.00000000000E+00 -0.74505805969E-08  0.93827000000E+00  0.93827000000E+00 0. -1.
     999902    2    1    2    0    0 -0.58013783142E-02 -0.14130089250E-02 -0.22159239497E-01  0.10209803926E+01  0.10207224293E+01 0.  0.
     999903    2    3    3    0    0  0.11719093798E+00  0.53830489986E-01 -0.28124253873E-02  0.13050116586E+00  0.19778952431E-01 0.  0.
         14    1    1    2    0    0  0.58013783142E-02  0.14130089250E-02  0.22159239497E-01  0.22949607397E-01  0.00000000000E+00 0.  1.
     999901    1    3    3    0    0 -0.12299231629E+00 -0.55243498911E-01 -0.19346814110E-01  0.89047922674E+00  0.88000000000E+00 0. -1.
        -11    1    4    4    0    0  0.40570926511E-01  0.85406403871E-02 -0.11978292795E-02  0.41480580181E-01  0.51100000000E-03 0. -1.
         11    1    4    4    0    0  0.76620011466E-01  0.45289849599E-01 -0.16145961077E-02  0.89020585683E-01  0.51100000000E-03 0.  1.
</event>
<event>
 8    1  0.1074844E+005  0.1043930E+01  0.7957747E-01            NaN
         13   -1    0    0    0    0  0.00000000000E+00  0.00000000000E+00  0.74505805969E-08  0.10566000000E+00  0.10566000000E+00 0.  1.
     999900   -1    0    0    0    0 -0.00000000000E+00 -0.00000000000E+00 -0.74505805969E-08  0.93827000000E+00  0.93827000000E+00 0.  1.
     999902    2    1    2    0    0  0.21865439679E-02 -0.92297318633E-02  0.24283032003E-01  0.10178601982E+01  0.10175262888E+01 0.  0.
     999903    2    3    3    0    0  0.99025537173E-01  0.61343761977E-01  0.52129690631E-01  0.12930302778E+00  0.20800341378E-01 0.  0.
         14    1    1    2    0    0 -0.21865439679E-02  0.92297318633E-02 -0.24283032003E-01  0.26069801842E-01  0.00000000000E+00 0. -1.
     999901    1    3    3    0    0 -0.96838993205E-01 -0.70573493840E-01 -0.27846658628E-01  0.88855717038E+00  0.88000000000E+00 0. -1.
        -11    1    4    4    0    0  0.90834509378E-01  0.54061030182E-01  0.40192940313E-01  0.11308950725E+00  0.51100000000E-03 0.  1.
         11    1    4    4    0    0  0.81910277953E-02  0.72827317941E-02  0.11936750318E-01  0.16213520527E-01  0.51100000000E-03 0. -1.
</event>
<event>
 8    1  0.1074844E+005  0.1043930E+01  0.7957747E-01            NaN
         13   -1    0    0    0    0  0.00000000000E+00  0.00000000000E+00  0.74505805969E-08  0.10566000000E+00  0.10566000000E+00 0.  1.
     999900   -1    0    0    0    0 -0.00000000000E+00 -0.00000000000E+00 -0.74505805969E-08  0.93827000000E+00  0.93827000000E+00 0. -1.
     999902    2    1    2    0    0  0.13760564362E-01  0.17870157638E-01  0.12467738888E-01  0.10181590827E+01  0.10178328829E+01 0.  0.
     999903    2    3    3    0    0  0.73926202171E-02 -0.56586468886E-01  0.11439429555E+00  0.12912963274E+00  0.18213398953E-01 0.  0.
         14    1    1    2    0    0 -0.13760564362E-01 -0.17870157638E-01 -0.12467738888E-01  0.25770917301E-01  0.00000000000E+00 0. -1.
     999901    1    3    3    0    0  0.63679441445E-02  0.74456626524E-01 -0.10192655666E+00  0.88902944996E+00  0.88000000000E+00 0. -1.
        -11    1    4    4    0    0  0.89325957581E-03 -0.49988948391E-01  0.10251485360E+00  0.11405809574E+00  0.51100000000E-03 0. -1.
         11    1    4    4    0    0  0.64993606413E-02 -0.65975204950E-02  0.11879441956E-01  0.15071537002E-01  0.51100000000E-03 0.  1.
</event>
<event>
 8    1  0.1074844E+005  0.1043930E+01  0.7957747E-01            NaN
         13   -1    0    0    0    0  0.00000000000E+00  0.00000000000E+00  0.74505805969E-08  0.10566000000E+00  0.10566000000E+00 0. -1.
     999900   -1    0    0    0    0 -0.00000000000E+00 -0.00000000000E+00 -0.74505805969E-08  0.93827000000E+00  0.93827000000E+00 0. -1.
     999902    2    1    2    0    0  0.13879124650E-01 -0.15334619341E-01 -0.12160237865E-01  0.10199372503E+01  0.10196550116E+01 0.  0.
     999903    2    3    3    0    0  0.11355246004E+00  0.57275557554E-01 -0.25354985524E-01  0.13124095073E+00  0.20165841956E-01 0.  0.
         14    1    1    2    0    0 -0.13879124650E-01  0.15334619341E-01  0.12160237865E-01  0.23992749662E-01  0.00000000000E+00 0. -1.
     999901    1    3    3    0    0 -0.99673335393E-01 -0.72610176895E-01  0.13194747659E-01  0.88869629961E+00  0.88000000000E+00 0. -1.
        -11    1    4    4    0    0  0.73826661958E-01  0.40633064886E-01 -0.25905615398E-01  0.88163393809E-01  0.51100000000E-03 0. -1.
         11    1    4    4    0    0  0.39725798085E-01  0.16642492669E-01  0.55062987347E-03  0.43077556918E-01  0.51100000000E-03 0.  1.
</event>
<event>
 8    1  0.1074844E+005  0.1043930E+01  0.7957747E-01            NaN
         13   -1    0    0    0    0  0.00000000000E+00  0.00000000000E+00  0.74505805969E-08  0.10566000000E+00  0.10566000000E+00 0.  1.
     999900   -1    0    0    0    0 -0.00000000000E+00 -0.00000000000E+00 -0.74505805969E-08  0.93827000000E+00  0.93827000000E+00 0.  1.
     999902    2    1    2    0    0  0.14322584539E-01  0.70441483881E-02 -0.16614397131E-01  0.10208910190E+01  0.10206310195E+01 0.  0.
     999903    2    3    3    0    0 -0.60445488121E-01 -0.90367094742E-01  0.65763539670E-01  0.12855400896E+00  0.19530008296E-01 0.  0.
         14    1    1    2    0    0 -0.14322584539E-01 -0.70441483881E-02  0.16614397131E-01  0.23038981019E-01  0.00000000000E+00 0.  1.
     999901    1    3    3    0    0  0.74768072659E-01  0.97411243130E-01 -0.82377936801E-01  0.89233701002E+00  0.88000000000E+00 0.  1.
        -11    1    4    4    0    0 -0.62154050608E-02 -0.23504603611E-01  0.16104715620E-01  0.29167115682E-01  0.51100000000E-03 0.  1.
         11    1    4    4    0    0 -0.54230083060E-01 -0.66862491131E-01  0.49658824050E-01  0.99386893281E-01  0.51100000000E-03 0. -1.
</event>
<event>
 8    1  0.1074844E+005  0.1043930E+01  0.7957747E-01            NaN
         13   -1    0    0    0    0  0.00000000000E+00  0.00000000000E+00  0.74505805969E-08  0.10566000000E+00  0.10566000000E+00 0.  1.
     999900   -1    0    0    0    0 -0.00000000000E+00 -0.00000000000E+00 -0.74505805969E-08  0.93827000000E+00  0.93827000000E+00 0. -1.
     999902    2    1    2    0    0  0.22362187563E-01  0.12273854666E-02  0.50009873786E-02  0.10209825866E+01  0.10207246731E+01 0.  0.
     999903    2    3    3    0    0  0.86065033898E-01 -0.14009827830E-02 -0.98851031675E-01  0.13258503885E+00  0.19952775554E-01 0.  0.
         14    1    1    2    0    0 -0.22362187563E-01 -0.12273854666E-02 -0.50009873786E-02  0.22947413415E-01  0.00000000000E+00 0. -1.
     999901    1    3    3    0    0 -0.63702846335E-01  0.26283682496E-02  0.10385201905E+00  0.88839754773E+00  0.88000000000E+00 0.  1.
        -11    1    4    4    0    0  0.20175961466E-01  0.77333602443E-02 -0.20304135052E-01  0.29654566309E-01  0.51100000000E-03 0. -1.
         11    1    4    4    0    0  0.65889072432E-01 -0.91343430272E-02 -0.78546896622E-01  0.10293047255E+00  0.51100000000E-03 0.  1.
</event>
<event>
 8    1  0.1074844E+005  0.1043930E+01  0.7957747E-01            NaN
         13   -1    0    0    0    0  0.00000000000E+00  0.00000000000E+00  0.74505805969E-08  0.10566000000E+00  0.10566000000E+00 0. -1.
     999900   -1    0    0    0    0 -0.00000000000E+00 -0.00000000000E+00 -0.74505805969E-08  0.93827000000E+00  0.93827000000E+00 0. -1.
     999902    2    1    2    0    0 -0.16524981441E-01 -0.10847190439E-01  0.12585432656E-01  0.10204964841E+01  0.10202273984E+01 0.  0.
     999903    2    3    3    0    0 -0.79260515128E-01 -0.75722719790E-01 -0.71091680933E-01  0.13193222597E+00  0.18328273268E-01 0.  0.
         14    1    1    2    0    0  0.16524981441E-01  0.10847190439E-01 -0.12585432656E-01  0.23433515895E-01  0.00000000000E+00 0.  1.
     999901    1    3    3    0    0  0.62735533687E-01  0.64875529351E-01  0.83677113589E-01  0.88856425813E+00  0.88000000000E+00 0.  1.
        -11    1    4    4    0    0 -0.30122039494E-01 -0.28122520389E-01 -0.37479194873E-01  0.55706055197E-01  0.51100000000E-03 0. -1.
         11    1    4    4    0    0 -0.49138475635E-01 -0.47600199401E-01 -0.33612486060E-01  0.76226170774E-01  0.51100000000E-03 0.  1.
</event>
<event>
 8    1  0.1074844E+005  0.1043930E+01  0.7957747E-01            NaN
         13   -1    0    0    0    0  0.00000000000E+00  0.00000000000E+00  0.74505805969E-08  0.10566000000E+00  0.10566000000E+00 0. -1.
     999900   -1    0    0    0    0 -0.00000000000E+00 -0.00000000000E+00 -0.74505805969E-08  0.93827000000E+00  0.93827000000E+00 0. -1.
     999902    2    1    2    0    0  0.36190602856E-02 -0.18749335516E-01 -0.13831961839E-01  0.10203512310E+01  0.10200787598E+01 0.  0.
     999903    2    3    3    0    0 -0.32848339801E-01 -0.84194877565E-01 -0.95942610003E-01  0.13335903893E+00  0.20294285235E-01 0.  0.
         14    1    1    2    0    0 -0.36190602856E-02  0.18749335516E-01  0.13831961839E-01  0.23578769008E-01  0.00000000000E+00 0. -1.
     999901    1    3    3    0    0  0.36467400087E-01  0.65445542049E-01  0.82110648164E-01  0.88699219207E+00  0.88000000000E+00 0.  1.
        -11    1    4    4    0    0 -0.33317887627E-01 -0.61961878721E-01 -0.74306530176E-01  0.10232828347E+00  0.51100000000E-03 0.  1.
         11    1    4    4    0    0  0.46954782594E-03 -0.22232998844E-01 -0.21636079827E-01  0.31030755453E-01  0.51100000000E-03 0. -1.
</event>
<event>
 8    1  0.1074844E+005  0.1043930E+01  0.7957747E-01            NaN
         13   -1    0    0    0    0  0.00000000000E+00  0.00000000000E+00  0.74505805969E-08  0.10566000000E+00  0.10566000000E+00 0. -1.
     999900   -1    0    0    0    0 -0.00000000000E+00 -0.00000000000E+00 -0.74505805969E-08  0.93827000000E+00  0.93827000000E+00 0. -1.
     999902    2    1    2    0    0 -0.32687861882E-02  0.12982784490E-01  0.20980560194E-01  0.10190418188E+01  0.10187378500E+01 0.  0.
     999903    2    3    3    0    0 -0.93064469082E-01 -0.84606722085E-01 -0.16128451915E-01  0.12833195852E+00  0.19740106103E-01 0.  0.
         14    1    1    2    0    0  0.32687861882E-02 -0.12982784490E-01 -0.20980560194E-01  0.24888181177E-01  0.00000000000E+00 0.  1.
     999901    1    3    3    0    0  0.89795682894E-01  0.97589506575E-01  0.37109012109E-01  0.89070986030E+00  0.88000000000E+00 0. -1.
        -11    1    4    4    0    0 -0.62749337827E-01 -0.47802459134E-01 -0.16748969110E-01  0.80643310846E-01  0.51100000000E-03 0.  1.
         11    1    4    4    0    0 -0.30315131256E-01 -0.36804262952E-01  0.62051719494E-03  0.47688647675E-01  0.51100000000E-03 0. -1.
</event>
<event>
 8    1  0.1074844E+005  0.1043930E+01  0.7957747E-01            NaN
         13   -1    0    0    0    0  0.00000000000E+00  0.00000000000E+00  0.74505805969E-08  0.10566000000E+00  0.10566000000E+00 0. -1.
     999900   -1    0    0    0    0 -0.00000000000E+00 -0.00000000000E+00 -0.74505805969E-08  0.93827000000E+00  0.93827000000E+00 0.  1.
     999902    2    1    2    0    0  0.16659834465E-01  0.16142326517E-02  0.19182564623E-01  0.10184716690E+01  0.10181534334E+01 0.  0.
     999903    2    3    3    0    0  0.17548951308E-01 -0.13602779024E-01  0.12897680779E+00  0.13151782364E+00  0.12996911166E-01 0.  0.
         14    1    1    2    0    0 -0.16659834465E-01 -0.16142326517E-02 -0.19182564623E-01  0.25458330994E-01  0.00000000000E+00 0.  1.
     999901    1    3    3    0    0 -0.88911684303E-03  0.15217011675E-01 -0.10979424316E+00  0.88695384536E+00  0.88000000000E+00 0.  1.
        -11    1    4    4    0    0  0.25686203244E-03 -0.64767371626E-02  0.22966903487E-01  0.23869517783E-01  0.51100000000E-03 0.  1.
         11    1    4    4    0    0  0.17292089276E-01 -0.71260418609E-02  0.10600990430E+00  0.10764830586E+00  0.51100000000E-03 0. -1.
</event>
<event>
 8    1  0.1074844E+005  0.1043930E+01  0.7957747E-01            NaN
         13   -1    0    0    0    0  0.00000000000E+00  0.00000000000E+00  0.74505805969E-08  0.10566000000E+00  0.10566000000E+00 0.  1.
     999900   -1    0    0    0    0 -0.00000000000E+00 -0.00000000000E+00 -0.74505805969E-08  0.93827000000E+00  0.93827000000E+00 0.  1.
     999902    2    1    2    0    0 -0.11739978387E-01 -0.98870966565E-02 -0.17709785002E-01  0.10204945939E+01  0.10202254643E+01 0.  0.
     999903    2    3    3    0    0 -0.83712725788E-03  0.11410843706E+00 -0.60653489974E-01  0.13069802935E+00  0.19536960830E-01 0.  0.
         14    1    1    2    0    0  0.11739978387E-01  0.98870966565E-02  0.17709785002E-01  0.23435406069E-01  0.00000000000E+00 0.  1.
     999901    1    3    3    0    0 -0.10902851129E-01 -0.12399553372E+00  0.42943704971E-01  0.88979656458E+00  0.88000000000E+00 0.  1.
        -11    1    4    4    0    0  0.61286235929E-02  0.58863234532E-01 -0.23092412739E-01  0.63529214176E-01  0.51100000000E-03 0. -1.
         11    1    4    4    0    0 -0.69657508508E-02  0.55245202531E-01 -0.37561077234E-01  0.67168815172E-01  0.51100000000E-03 0.  1.
</event>
<event>
 8    1  0.1074844E+005  0.1043930E+01  0.7957747E-01            NaN
         13   -1    0    0    0    0  0.00000000000E+00  0.00000000000E+00  0.74505805969E-08  0.10566000000E+00  0.10566000000E+00 0.  1.
     999900   -1    0    0    0    0 -0.00000000000E+00 -0.00000000000E+00 -0.74505805969E-08  0.93827000000E+00  0.93827000000E+00 0.  1.
     999902    2    1    2    0    0 -0.64920463591E-02  0.17882490426E-01  0.14360824097E-01  0.10200938216E+01  0.10198152978E+01 0.  0.
     999903    2    3    3    0    0 -0.10088113091E+00  0.71818864975E-01 -0.40089088712E-01  0.13173397069E+00  0.20291674642E-01 0.  0.
         14    1    1    2    0    0  0.64920463591E-02 -0.17882490426E-01 -0.14360824097E-01  0.23836178354E-01  0.00000000000E+00 0. -1.
     999901    1    3    3    0    0  0.94389084555E-01 -0.53936374549E-01  0.54449912809E-01  0.88835985095E+00  0.88000000000E+00 0. -1.
        -11    1    4    4    0    0 -0.21320439610E-01  0.24559901257E-01 -0.15214820627E-01  0.35909633563E-01  0.51100000000E-03 0. -1.
         11    1    4    4    0    0 -0.79560691304E-01  0.47258963717E-01 -0.24874268085E-01  0.95824337129E-01  0.51100000000E-03 0.  1.
</event>
<event>
 8    1  0.1074844E+005  0.1043930E+01  0.7957747E-01            NaN
         13   -1    0    0    0    0  0.00000000000E+00  0.00000000000E+00  0.74505805969E-08  0.10566000000E+00  0.10566000000E+00 0.  1.
     999900   -1    0    0    0    0 -0.00000000000E+00 -0.00000000000E+00 -0.74505805969E-08  0.93827000000E+00  0.93827000000E+00 0.  1.
     999902    2    1    2    0    0  0.78897369596E-02 -0.17265646557E-01  0.96700977565E-02  0.10226259795E+01  0.10224040457E+01 0.  0.
     999903    2    3    3    0    0  0.10848105303E+00 -0.44723238760E-01 -0.60655816688E-01  0.13368376173E+00  0.20589150035E-01 0.  0.
         14    1    1    2    0    0 -0.78897369596E-02  0.17265646557E-01 -0.96700977565E-02  0.21304020534E-01  0.00000000000E+00 0. -1.
     999901    1    3    3    0    0 -0.10059131607E+00  0.27457592204E-01  0.70325914445E-01  0.88894221774E+00  0.88000000000E+00 0.  1.
        -11    1    4    4    0    0  0.33664674780E-01 -0.19539771915E-01 -0.29383324626E-01  0.48772470735E-01  0.51100000000E-03 0.  1.
         11    1    4    4    0    0  0.74816378251E-01 -0.25183466845E-01 -0.31272492062E-01  0.84911290990E-01  0.51100000000E-03 0. -1.
</event>
<event>
 8    1  0.1074844E+005  0.1043930E+01  0.7957747E-01            NaN
         13   -1    0    0    0    0  0.00000000000E+00  0.00000000000E+00  0.74505805969E-08  0.10566000000E+00  0.10566000000E+00 0. -1.
     999900   -1    0    0    0    0 -0.00000000000E+00 -0.00000000000E+00 -0.74505805969E-08  0.93827000000E+00  0.93827000000E+00 0.  1.
     999902    2    1    2    0    0  0.17883209513E-01  0.71301843280E-02  0.13464770496E-01  0.10204364103E+01  0.10201659271E+01 0.  0.
     999903    2    3    3    0    0 -0.94375720689E-01 -0.48038143010E-01  0.72126333454E-01  0.12965765513E+00  0.19861009954E-01 0.  0.
         14    1    1    2    0    0 -0.17883209513E-01 -0.71301843280E-02 -0.13464770496E-01  0.23493589669E-01  0.00000000000E+00 0.  1.
     999901    1    3    3    0    0  0.11225893020E+00  0.55168327338E-01 -0.58661562958E-01  0.89077875520E+00  0.88000000000E+00 0. -1.
        -11    1    4    4    0    0 -0.52463124884E-01 -0.37283500513E-01  0.45952790815E-01  0.79084505358E-01  0.51100000000E-03 0. -1.
         11    1    4    4    0    0 -0.41912595805E-01 -0.10754642497E-01  0.26173542639E-01  0.50573149770E-01  0.51100000000E-03 0.  1.
</event>
<event>
 8    1  0.1074844E+005  0.1043930E+01  0.7957747E-01            NaN
         13   -1    0    0    0    0  0.00000000000E+00  0.00000000000E+00  0.74505805969E-08  0.10566000000E+00  0.10566000000E+00 0.  1.
     999900   -1    0    0    0    0 -0.00000000000E+00 -0.00000000000E+00 -0.74505805969E-08  0.93827000000E+00  0.93827000000E+00 0.  1.
     999902    2    1    2    0    0  0.39765113484E-02 -0.18761433159E-01  0.14197950128E-01  0.10200681936E+01  0.10197890634E+01 0.  0.
     999903    2    3    3    0    0  0.11765414644E+00 -0.53466088510E-01  0.18563377987E-01  0.13206702537E+00  0.19899230980E-01 0.  0.
         14    1    1    2    0    0 -0.39765113484E-02  0.18761433159E-01 -0.14197950128E-01  0.23861806397E-01  0.00000000000E+00 0. -1.
     999901    1    3    3    0    0 -0.11367763509E+00  0.34704655352E-01 -0.43654278591E-02  0.88800116823E+00  0.88000000000E+00 0.  1.
        -11    1    4    4    0    0  0.66683086851E-01 -0.25164982207E-01  0.18992064513E-01  0.73762253470E-01  0.51100000000E-03 0.  1.
         11    1    4    4    0    0  0.50971059585E-01 -0.28301106304E-01 -0.42868652587E-03  0.58304771901E-01  0.51100000000E-03 0. -1.
</event>
<event>
 8    1  0.1074844E+005  0.1043930E+01  0.7957747E-01            NaN
         13   -1    0    0    0    0  0.00000000000E+00  0.00000000000E+00  0.74505805969E-08  0.10566000000E+00  0.10566000000E+00 0. -1.
     999900   -1    0    0    0    0 -0.00000000000E+00 -0.00000000000E+00 -0.74505805969E-08  0.93827000000E+00  0.93827000000E+00 0.  1.
     999902    2    1    2    0    0  0.19133919178E-01  0.11753580970E-01 -0.96362280178E-02  0.10194941571E+01  0.10192012686E+01 0.  0.
     999903    2    3    3    0    0 -0.74916772531E-02  0.56785526578E-01 -0.11662814353E+00  0.13147159628E+00  0.20048329301E-01 0.  0.
         14    1    1    2    0    0 -0.19133919178E-01 -0.11753580970E-01  0.96362280178E-02  0.24435842919E-01  0.00000000000E+00 0.  1.
     999901    1    3    3    0    0  0.26625596431E-01 -0.45031945608E-01  0.10699191551E+00  0.88802256080E+00  0.88000000000E+00 0. -1.
        -11    1    4    4    0    0 -0.12218263499E-01  0.45105742650E-01 -0.79018004776E-01  0.91803704624E-01  0.51100000000E-03 0.  1.
         11    1    4    4    0    0  0.47265862461E-02  0.11679783928E-01 -0.37610138755E-01  0.39667891654E-01  0.51100000000E-03 0. -1.
</event>
<event>
 8    1  0.1074844E+005  0.1043930E+01  0.7957747E-01            NaN
         13   -1    0    0    0    0  0.00000000000E+00  0.00000000000E+00  0.74505805969E-08  0.10566000000E+00  0.10566000000E+00 0. -1.
     999900   -1    0    0    0    0 -0.00000000000E+00 -0.00000000000E+00 -0.74505805969E-08  0.93827000000E+00  0.93827000000E+00 0. -1.
     999902    2    1    2    0    0  0.12161975425E-01 -0.11393369021E-01 -0.61588272113E-02  0.10261633555E+01  0.10260095411E+01 0.  0.
     999903    2    3    3    0    0  0.18510533838E-01 -0.13452966357E+00  0.72795131378E-02  0.13746574652E+00  0.20074110503E-01 0.  0.
         14    1    1    2    0    0 -0.12161975425E-01  0.11393369021E-01  0.61588272113E-02  0.17766644492E-01  0.00000000000E+00 0. -1.
     999901    1    3    3    0    0 -0.63485584127E-02  0.12313629455E+00 -0.13438340349E-01  0.88869760899E+00  0.88000000000E+00 0.  1.
        -11    1    4    4    0    0 -0.21183572469E-03 -0.67252301353E-01  0.71142251601E-02  0.67629802841E-01  0.51100000000E-03 0. -1.
         11    1    4    4    0    0  0.18722369563E-01 -0.67277362214E-01  0.16528797772E-03  0.69835943680E-01  0.51100000000E-03 0.  1.
</event>
<event>
 8    1  0.1074844E+005  0.1043930E+01  0.7957747E-01            NaN
         13   -1    0    0    0    0  0.00000000000E+00  0.00000000000E+00  0.74505805969E-08  0.10566000000E+00  0.10566000000E+00 0. -1.
     999900   -1    0    0    0    0 -0.00000000000E+00 -0.00000000000E+00 -0.74505805969E-08  0.93827000000E+00  0.93827000000E+00 0.  1.
     999902    2    1    2    0    0  0.22227473049E-02 -0.82549798029E-02 -0.21801794575E-01  0.10205119825E+01  0.10202432567E+01 0.  0.
     999903    2    3    3    0    0  0.12280872853E+00 -0.38512377638E-01  0.13487634266E-01  0.13107292737E+00  0.20808867727E-01 0.  0.
         14    1    1    2    0    0 -0.22227473049E-02  0.82549798029E-02  0.21801794575E-01  0.23418017504E-01  0.00000000000E+00 0. -1.
     999901    1    3    3    0    0 -0.12058598123E+00  0.30257397835E-01 -0.35289428841E-01  0.88943905512E+00  0.88000000000E+00 0.  1.
        -11    1    4    4    0    0  0.49772227397E-01 -0.13393387365E-01  0.15450063406E-01  0.53810993537E-01  0.51100000000E-03 0. -1.
         11    1    4    4    0    0  0.73036501137E-01 -0.25118990273E-01 -0.19624291407E-02  0.77261933835E-01  0.51100000000E-03 0.  1.
</event>
<event>
 8    1  0.1074844E+005  0.1043930E+01  0.7957747E-01            NaN
         13   -1    0    0    0    0  0.00000000000E+00  0.00000000000E+00  0.74505805969E-08  0.10566000000E+00  0.10566000000E+00 0. -1.
     999900   -1    0    0    0    0 -0.00000000000E+00 -0.00000000000E+00 -0.74505805969E-08  0.93827000000E+00  0.93827000000E+00 0.  1.
     999902    2    1    2    0    0 -0.13516348617E-01  0.94721766020E-02  0.14545734268E-01  0.10219301774E+01  0.10216933470E+01 0.  0.
     999903    2    3    3    0    0 -0.54599112333E-03 -0.10803849386E+00  0.73535783684E-01  0.13206680935E+00  0.19013584291E-01 0.  0.
         14    1    1    2    0    0  0.13516348617E-01 -0.94721766020E-02 -0.14545734268E-01  0.21999822611E-01  0.00000000000E+00 0.  1.
     999901    1    3    3    0    0 -0.12970357493E-01  0.11751067046E+00 -0.58990049416E-01  0.88986336804E+00  0.88000000000E+00 0.  1.
        -11    1    4    4    0    0 -0.70223259298E-03 -0.10279128077E+00  0.74162734925E-01  0.12675532693E+00  0.51100000000E-03 0. -1.
         11    1    4    4    0    0  0.15624146965E-03 -0.52472130904E-02 -0.62695124060E-03  0.53114824175E-02  0.51100000000E-03 0.  1.
</event>
<event>
 8    1  0.1074844E+005  0.1043930E+01  0.7957747E-01            NaN
         13   -1    0    0    0    0  0.00000000000E+00  0.00000000000E+00  0.74505805969E-08  0.10566000000E+00  0.10566000000E+00 0.  1.
     999900   -1    0    0    0    0 -0.00000000000E+00 -0.00000000000E+00 -0.74505805969E-08  0.93827000000E+00  0.93827000000E+00 0. -1.
     999902    2    1    2    0    0 -0.80344029953E-02 -0.12843950928E-01  0.19749289445E-01  0.10190391756E+01  0.10187351413E+01 0.  0.
     999903    2    3    3    0    0  0.10234197954E+00 -0.56014074920E-02 -0.72465283232E-01  0.12733354720E+00  0.21385939929E-01 0.  0.
         14    1    1    2    0    0  0.80344029953E-02  0.12843950928E-01 -0.19749289445E-01  0.24890824425E-01  0.00000000000E+00 0. -1.
     999901    1    3    3    0    0 -0.11037638254E+00 -0.72425434363E-02  0.92214572677E-01  0.89170562837E+00  0.88000000000E+00 0.  1.
        -11    1    4    4    0    0  0.21421067894E-01  0.22089214029E-02 -0.25739939169E-01  0.33564074140E-01  0.51100000000E-03 0.  1.
         11    1    4    4    0    0  0.80920911649E-01 -0.78103288949E-02 -0.46725344063E-01  0.93769473063E-01  0.51100000000E-03 0. -1.
</event>
<event>
 7    1  0.1074844E+005  0.1043930E+01  0.7957747E-01            NaN
         13   -1    0    0    0    0  0.00000000000E+00  0.00000000000E+00  0.74505805969E-08  0.10566000000E+00  0.10566000000E+00 0. -1.
     999900   -1    0    0    0    0 -0.00000000000E+00 -0.00000000000E+00 -0.74505805969E-08  0.93827000000E+00  0.93827000000E+00 0. -1.
     999903    2    1    2    0    0 -0.85336555974E-01  0.52438597558E-01  0.24864836448E-02  0.10144383009E+00  0.15891310899E-01 0.  0.
         14    1    1    2    0    0  0.52139036631E-01 -0.28557128416E-01 -0.15520612700E-01  0.61440036969E-01  0.00000000000E+00 0.  1.
     999901    1    1    2    0    0  0.33197519343E-01 -0.23881469142E-01  0.13034129055E-01  0.88104613295E+00  0.88000000000E+00 0. -1.
        -11    1    3    3    0    0 -0.26593491894E-01  0.25253876806E-01  0.38781583290E-03  0.36679471466E-01  0.51100000000E-03 0. -1.
         11    1    3    3    0    0 -0.58743064080E-01  0.27184720752E-01  0.20986678119E-02  0.64764358620E-01  0.51100000000E-03 0.  1.
</event>
<event>
 8    1  0.1074844E+005  0.1043930E+01  0.7957747E-01            NaN
         13   -1    0    0    0    0  0.00000000000E+00  0.00000000000E+00  0.74505805969E-08  0.10566000000E+00  0.10566000000E+00 0.  1.
     999900   -1    0    0    0    0 -0.00000000000E+00 -0.00000000000E+00 -0.74505805969E-08  0.93827000000E+00  0.93827000000E+00 0. -1.
     999902    2    1    2    0    0  0.16555410591E-01  0.17453806356E-01  0.67666860073E-02  0.10189399016E+01  0.10186334071E+01 0.  0.
     999903    2    3    3    0    0 -0.12368072216E-01 -0.11261384403E+00  0.55121645386E-01  0.12759689044E+00  0.20192166330E-01 0.  0.
         14    1    1    2    0    0 -0.16555410591E-01 -0.17453806356E-01 -0.67666860073E-02  0.24990098353E-01  0.00000000000E+00 0. -1.
     999901    1    3    3    0    0  0.28923482807E-01  0.13006765039E+00 -0.48354959379E-01  0.89134301121E+00  0.88000000000E+00 0.  1.
        -11    1    4    4    0    0 -0.41132944880E-02 -0.50246138460E-01  0.35618664269E-01  0.61729603814E-01  0.51100000000E-03 0.  1.
         11    1    4    4    0    0 -0.82547777277E-02 -0.62367705573E-01  0.19502981117E-01  0.65867286624E-01  0.51100000000E-03 0. -1.
</event>
<event>
 8    1  0.1074844E+005  0.1043930E+01  0.7957747E-01            NaN
         13   -1    0    0    0    0  0.00000000000E+00  0.00000000000E+00  0.74505805969E-08  0.10566000000E+00  0.10566000000E+00 0. -1.
     999900   -1    0    0    0    0 -0.00000000000E+00 -0.00000000000E+00 -0.74505805969E-08  0.93827000000E+00  0.93827000000E+00 0. -1.
     999902    2    1    2    0    0  0.14615920680E-01  0.18008601937E-01  0.26913506710E-02  0.10205809476E+01  0.10203138205E+01 0.  0.
     999903    2    3    3    0    0  0.42901572609E-01 -0.11257286517E+00  0.43234131426E-01  0.12957291465E+00  0.20168172585E-01 0.  0.
         14    1    1    2    0    0 -0.14615920680E-01 -0.18008601937E-01 -0.26913506710E-02  0.23349052432E-01  0.00000000000E+00 0. -1.
     999901    1    3    3    0    0 -0.28285651928E-01  0.13058146711E+00 -0.40542780755E-01  0.89100803292E+00  0.88000000000E+00 0.  1.
        -11    1    4    4    0    0  0.40685400265E-01 -0.93573752544E-01  0.42171922324E-01  0.11040870035E+00  0.51100000000E-03 0. -1.
         11    1    4    4    0    0  0.22161723434E-02 -0.18999112625E-01  0.10622091026E-02  0.19164214296E-01  0.51100000000E-03 0.  1.
</event>
<event>
 8    1  0.1074844E+005  0.1043930E+01  0.7957747E-01            NaN
         13   -1    0    0    0    0  0.00000000000E+00  0.00000000000E+00  0.74505805969E-08  0.10566000000E+00  0.10566000000E+00 0. -1.
     999900   -1    0    0    0    0 -0.00000000000E+00 -0.00000000000E+00 -0.74505805969E-08  0.93827000000E+00  0.93827000000E+00 0.  1.
     999902    2    1    2    0    0  0.12247634084E-01 -0.18458347308E-01  0.69378770901E-02  0.10207168730E+01  0.10204528826E+01 0.  0.
     999903    2    3    3    0    0  0.74011440508E-01 -0.20579700141E-01 -0.10607653660E+00  0.13133982945E+00  0.98337071977E-02 0.  0.
         14    1    1    2    0    0 -0.12247634084E-01  0.18458347308E-01 -0.69378770901E-02  0.23213126987E-01  0.00000000000E+00 0. -1.
     999901    1    3    3    0    0 -0.61763806424E-01  0.21213528332E-02  0.11301441369E+00  0.88937704357E+00  0.88000000000E+00 0. -1.
        -11    1    4    4    0    0  0.64598392054E-01 -0.15812498893E-01 -0.86701911706E-01  0.10927245761E+00  0.51100000000E-03 0.  1.
         11    1    4    4    0    0  0.94130484538E-02 -0.47672012480E-02 -0.19374624897E-01  0.22067371838E-01  0.51100000000E-03 0. -1.
</event>
<event>
 8    1  0.1074844E+005  0.1043930E+01  0.7957747E-01            NaN
         13   -1    0    0    0    0  0.00000000000E+00  0.00000000000E+00  0.74505805969E-08  0.10566000000E+00  0.10566000000E+00 0. -1.
     999900   -1    0    0    0    0 -0.00000000000E+00 -0.00000000000E+00 -0.74505805969E-08  0.93827000000E+00  0.93827000000E+00 0. -1.
     999902    2    1    2    0    0  0.16533002989E-01 -0.76279043234E-02  0.14841038633E-01  0.10204399694E+01  0.10201695690E+01 0.  0.
     999903    2    3    3    0    0  0.38319065464E-01  0.47954555397E-01  0.11597699142E+00  0.13263789496E+00  0.19343176571E-01 0.  0.
         14    1    1    2    0    0 -0.16533002989E-01  0.76279043234E-02 -0.14841038633E-01  0.23490030649E-01  0.00000000000E+00 0.  1.
     999901    1    3    3    0    0 -0.21786062475E-01 -0.55582459721E-01 -0.10113595279E+00  0.88780207439E+00  0.88000000000E+00 0. -1.
        -11    1    4    4    0    0  0.12414707908E-01  0.17271411249E-01  0.60640913511E-01  0.64265139317E-01  0.51100000000E-03 0.  1.
         11    1    4    4    0    0  0.25904357555E-01  0.30683144148E-01  0.55336077907E-01  0.68372755643E-01  0.51100000000E-03 0. -1.
</event>
<event>
 8    1  0.1074844E+005  0.1043930E+01  0.7957747E-01            NaN
         13   -1    0    0    0    0  0.00000000000E+00  0.00000000000E+00  0.74505805969E-08  0.10566000000E+00  0.10566000000E+00 0.  1.
     999900   -1    0    0    0    0 -0.00000000000E+00 -0.00000000000E+00 -0.74505805969E-08  0.93827000000E+00  0.93827000000E+00 0.  1.
     999902    2    1    2    0    0 -0.95751553852E-02  0.79374827626E-02 -0.20391112325E-01  0.10200451786E+01  0.10197655032E+01 0.  0.
     999903    2    3    3    0    0  0.71229424305E-01  0.19165958914E-01 -0.10753244108E+00  0.13198601952E+00  0.20398985194E-01 0.  0.
         14    1    1    2    0    0  0.95751553852E-02 -0.79374827626E-02  0.20391112325E-01  0.23884821438E-01  0.00000000000E+00 0.  1.
     999901    1    3    3    0    0 -0.80804579690E-01 -0.11228476152E-01  0.87141328756E-01  0.88805915904E+00  0.88000000000E+00 0. -1.
        -11    1    4    4    0    0  0.26386817645E-01  0.12452943075E-01 -0.28043128680E-01  0.40472436593E-01  0.51100000000E-03 0. -1.
         11    1    4    4    0    0  0.44842606660E-01  0.67130158395E-02 -0.79489312401E-01  0.91513582930E-01  0.51100000000E-03 0.  1.
</event>
<event>
 8    1  0.1074844E+005  0.1043930E+01  0.7957747E-01            NaN
         13   -1    0    0    0    0  0.00000000000E+00  0.00000000000E+00  0.74505805969E-08  0.10566000000E+00  0.10566000000E+00 0. -1.
     999900   -1    0    0    0    0 -0.00000000000E+00 -0.00000000000E+00 -0.74505805969E-08  0.93827000000E+00  0.93827000000E+00 0.  1.
     999902    2    1    2    0    0 -0.21010652618E-01  0.21278944954E-02  0.52029896050E-02  0.10221803665E+01  0.10219489493E+01 0.  0.
     999903    2    3    3    0    0 -0.21933095573E-01 -0.11776067912E+00 -0.52254270477E-01  0.13219415436E+00  0.19903452855E-01 0.  0.
         14    1    1    2    0    0  0.21010652618E-01 -0.21278944954E-02 -0.52029896050E-02  0.21749633543E-01  0.00000000000E+00 0.  1.
     999901    1    3    3    0    0  0.92244295450E-03  0.11988857362E+00  0.57457260082E-01  0.88998621210E+00  0.88000000000E+00 0. -1.
        -11    1    4    4    0    0 -0.30203715752E-02 -0.26909100854E-01 -0.21003556863E-01  0.34272917517E-01  0.51100000000E-03 0.  1.
         11    1    4    4    0    0 -0.18912723997E-01 -0.90851578267E-01 -0.31250713614E-01  0.97921236844E-01  0.51100000000E-03 0. -1.
</event>
<event>
 7    1  0.1074844E+005  0.1043930E+01  0.7957747E-01            NaN
         13   -1    0    0    0    0  0.00000000000E+00  0.00000000000E+00  0.74505805969E-08  0.10566000000E+00  0.10566000000E+00 0. -1.
     999900   -1    0    0    0    0 -0.00000000000E+00 -0.00000000000E+00 -0.74505805969E-08  0.93827000000E+00  0.93827000000E+00 0.  1.
     999902    2    1    2    0    0 -0.20622273067E-01  0.12845328791E-02 -0.11331449175E-01  0.10203645611E+01  0.10200924015E+01 0.  0.
         14    1    1    2    0    0  0.20622273067E-01 -0.12845328791E-02  0.11331449175E-01  0.23565438922E-01  0.00000000000E+00 0.  1.
     999901    1    3    3    0    0  0.28161824661E-01  0.35008694888E-01 -0.11791743684E+00  0.88900124803E+00  0.88000000000E+00 0.  1.
        -11    1    3    3    0    0 -0.17739384001E-01 -0.41188851709E-01  0.62541388089E-01  0.76960337804E-01  0.51100000000E-03 0.  1.
         11    1    3    3    0    0 -0.31044713727E-01  0.74646896997E-02  0.44044599577E-01  0.54402975245E-01  0.51100000000E-03 0. -1.
</event>
<event>
 8    1  0.1074844E+005  0.1043930E+01  0.7957747E-01            NaN
         13   -1    0    0    0    0  0.00000000000E+00  0.00000000000E+00  0.74505805969E-08  0.10566000000E+00  0.10566000000E+00 0.  1.
     999900   -1    0    0    0    0 -0.00000000000E+00 -0.00000000000E+00 -0.74505805969E-08  0.93827000000E+00  0.93827000000E+00 0.  1.
     999902    2    1    2    0    0  0.11519383660E-01 -0.18641551356E-01 -0.10721705621E-01  0.10195341272E+01  0.10192422077E+01 0.  0.
     999903    2    3    3    0    0 -0.25159375046E-01 -0.18555731752E-01  0.12341607874E+00  0.12861421843E+00  0.18242241001E-01 0.  0.
         14    1    1    2    0    0 -0.11519383660E-01  0.18641551356E-01  0.10721705621E-01  0.24395872772E-01  0.00000000000E+00 0.  1.
     999901    1    3    3    0    0  0.36678758706E-01 -0.85819603875E-04 -0.13413778436E+00  0.89091990880E+00  0.88000000000E+00 0.  1.
        -11    1    4    4    0    0 -0.21558626017E-01 -0.49881959512E-02  0.73713514607E-01  0.76964925851E-01  0.51100000000E-03 0.  1.
         11    1    4    4    0    0 -0.36007490293E-02 -0.13567535801E-01  0.49702564132E-01  0.51649292576E-01  0.51100000000E-03 0. -1.
</event>
<event>
 8    1  0.1074844E+005  0.1043930E+01  0.7957747E-01            NaN
         13   -1    0    0    0    0  0.00000000000E+00  0.00000000000E+00  0.74505805969E-08  0.10566000000E+00  0.10566000000E+00 0. -1.
     999900   -1    0    0    0    0 -0.00000000000E+00 -0.00000000000E+00 -0.74505805969E-08  0.93827000000E+00  0.93827000000E+00 0.  1.
     999902    2    1    2    0    0 -0.24317408564E-01  0.54995954870E-03  0.33495617863E-02  0.10193768255E+01  0.10190810831E+01 0.  0.
     999903    2    3    3    0    0 -0.41163232801E-01 -0.28934404472E-01 -0.11849806700E+00  0.13033242043E+00  0.20325757931E-01 0.  0.
         14    1    1    2    0    0  0.24317408564E-01 -0.54995954870E-03 -0.33495617863E-02  0.24553174519E-01  0.00000000000E+00 0. -1.
     999901    1    3    3    0    0  0.16845824237E-01  0.29484364021E-01  0.12184762878E+00  0.88904440505E+00  0.88000000000E+00 0. -1.
        -11    1    4    4    0    0 -0.11559484163E-01 -0.18975596437E-01 -0.38544690659E-01  0.44493249300E-01  0.51100000000E-03 0.  1.
         11    1    4    4    0    0 -0.29603748639E-01 -0.99588080349E-02 -0.79953376339E-01  0.85839171128E-01  0.51100000000E-03 0. -1.
</event>
<event>
 8    1  0.1074844E+005  0.1043930E+01  0.7957747E-01            NaN
         13   -1    0    0    0    0  0.00000000000E+00  0.00000000000E+00  0.74505805969E-08  0.10566000000E+00  0.10566000000E+00 0.  1.
     999900   -1    0    0    0    0 -0.00000000000E+00 -0.00000000000E+00 -0.74505805969E-08  0.93827000000E+00  0.93827000000E+00 0. -1.
     999902    2    1    2    0    0  0.10707765104E-01  0.14912517027E-01 -0.14135648299E-01  0.10207598479E+01  0.10204968452E+01 0.  0.
     999903    2    3    3    0    0  0.28862712745E-01 -0.36928246762E-01  0.11855778990E+00  0.12911831929E+00  0.20465562209E-01 0.  0.
         14    1    1    2    0    0 -0.10707765104E-01 -0.14912517027E-01  0.14135648299E-01  0.23170152145E-01  0.00000000000E+00 0.  1.
     999901    1    3    3    0    0 -0.18154947642E-01  0.51840763788E-01 -0.13269343819E+00  0.89164152856E+00  0.88000000000E+00 0. -1.
        -11    1    4    4    0    0  0.16285911656E-01 -0.31845480397E-01  0.99382884733E-01  0.10562473403E+00  0.51100000000E-03 0.  1.
         11    1    4    4    0    0  0.12576801089E-01 -0.50827663652E-02  0.19174905163E-01  0.23493585264E-01  0.51100000000E-03 0. -1.
</event>
<event>
 8    1  0.1074844E+005  0.1043930E+01  0.7957747E-01            NaN
         13   -1    0    0    0    0  0.00000000000E+00  0.00000000000E+00  0.74505805969E-08  0.10566000000E+00  0.10566000000E+00 0.  1.
     999900   -1    0    0    0    0 -0.00000000000E+00 -0.00000000000E+00 -0.74505805969E-08  0.93827000000E+00  0.93827000000E+00 0. -1.
     999902    2    1    2    0    0 -0.14142655680E-01 -0.80561306983E-02 -0.16831060742E-01  0.10205163169E+01  0.10202476917E+01 0.  0.
     999903    2    3    3    0    0 -0.11306815275E-01 -0.62185460322E-01 -0.11567260403E+00  0.13332542592E+00  0.20016051763E-01 0.  0.
         14    1    1    2    0    0  0.14142655680E-01  0.80561306983E-02  0.16831060742E-01  0.23413683119E-01  0.00000000000E+00 0. -1.
     999901    1    3    3    0    0 -0.28358404046E-02  0.54129329624E-01  0.98841543286E-01  0.88719089096E+00  0.88000000000E+00 0.  1.
        -11    1    4    4    0    0 -0.57194676635E-02 -0.40758290952E-01 -0.92630776089E-01  0.10136405868E+00  0.51100000000E-03 0.  1.
         11    1    4    4    0    0 -0.55873476115E-02 -0.21427169370E-01 -0.23041827939E-01  0.31961367247E-01  0.51100000000E-03 0. -1.
</event>
<event>
 8    1  0.1074844E+005  0.1043930E+01  0.7957747E-01            NaN
         13   -1    0    0    0    0  0.00000000000E+00  0.00000000000E+00  0.74505805969E-08  0.10566000000E+00  0.10566000000E+00 0. -1.
     999900   -1    0    0    0    0 -0.00000000000E+00 -0.00000000000E+00 -0.74505805969E-08  0.93827000000E+00  0.93827000000E+00 0.  1.
     999902    2    1    2    0    0  0.22474174054E-01 -0.57427622370E-02  0.47769409115E-02  0.10202469474E+01  0.10199720323E+01 0.  0.
     999903    2    3    3    0    0 -0.12128447579E+00 -0.19785188732E-01 -0.29019404110E-01  0.12783116306E+00  0.19932452743E-01 0.  0.
         14    1    1    2    0    0 -0.22474174054E-01  0.57427622370E-02 -0.47769409115E-02  0.23683052633E-01  0.00000000000E+00 0.  1.
     999901    1    3    3    0    0  0.14375864985E+00  0.14042426495E-01  0.33796345022E-01  0.89241578431E+00  0.88000000000E+00 0. -1.
        -11    1    4    4    0    0 -0.46079662250E-02 -0.20283863244E-02 -0.55287055784E-02  0.74950256961E-02  0.51100000000E-03 0.  1.
         11    1    4    4    0    0 -0.11667650957E+00 -0.17756802407E-01 -0.23490698532E-01  0.12033613736E+00  0.51100000000E-03 0. -1.
</event>
<event>
 8    1  0.1074844E+005  0.1043930E+01  0.7957747E-01            NaN
         13   -1    0    0    0    0  0.00000000000E+00  0.00000000000E+00  0.74505805969E-08  0.10566000000E+00  0.10566000000E+00 0.  1.
     999900   -1    0    0    0    0 -0.00000000000E+00 -0.00000000000E+00 -0.74505805969E-08  0.93827000000E+00  0.93827000000E+00 0.  1.
     999902    2    1    2    0    0 -0.20338993245E-01 -0.45840098935E-03  0.11111453397E-01  0.10207492068E+01  0.10204859597E+01 0.  0.
     999903    2    3    3    0    0 -0.51387685548E-01  0.82986849525E-01 -0.85128149623E-01  0.13103622367E+00  0.19904236612E-01 0.  0.
         14    1    1    2    0    0  0.20338993245E-01  0.45840098935E-03 -0.11111453397E-01  0.23180793220E-01  0.00000000000E+00 0.  1.
     999901    1    3    3    0    0  0.31048692303E-01 -0.83445250514E-01  0.96239603020E-01  0.88971298311E+00  0.88000000000E+00 0. -1.
        -11    1    4    4    0    0  0.53852500767E-04 -0.16667468236E-03 -0.38455749112E-02  0.38833294915E-02  0.51100000000E-03 0.  1.
         11    1    4    4    0    0 -0.51441538049E-01  0.83153524207E-01 -0.81282574712E-01  0.12715289418E+00  0.51100000000E-03 0. -1.
</event>
<event>
 8    1  0.1074844E+005  0.1043930E+01  0.7957747E-01            NaN
         13   -1    0    0    0    0  0.00000000000E+00  0.00000000000E+00  0.74505805969E-08  0.10566000000E+00  0.10566000000E+00 0.  1.
     999900   -1    0    0    0    0 -0.00000000000E+00 -0.00000000000E+00 -0.74505805969E-08  0.93827000000E+00  0.93827000000E+00 0. -1.
     999902    2    1    2    0    0  0.29943848674E-02  0.22711535587E-01 -0.64836608343E-02  0.10201220592E+01  0.10198442026E+01 0.  0.
     999903    2    3    3    0    0 -0.11373960914E+00 -0.51058486207E-01 -0.26630755957E-01  0.12912556819E+00  0.20507254726E-01 0.  0.
         14    1    1    2    0    0 -0.29943848674E-02 -0.22711535587E-01  0.64836608343E-02  0.23807940845E-01  0.00000000000E+00 0. -1.
     999901    1    3    3    0    0  0.11673399401E+00  0.73770021794E-01  0.20147095122E-01  0.89099649097E+00  0.88000000000E+00 0. -1.
        -11    1    4    4    0    0 -0.24977923936E-01 -0.17768161325E-01 -0.61218057990E-05  0.30657224263E-01  0.51100000000E-03 0. -1.
         11    1    4    4    0    0 -0.88761685204E-01 -0.33290324882E-01 -0.26624634151E-01  0.98468343926E-01  0.51100000000E-03 0.  1.
</event>
<event>
 8    1  0.1074844E+005  0.1043930E+01  0.7957747E-01            NaN
         13   -1    0    0    0    0  0.00000000000E+00  0.00000000000E+00  0.74505805969E-08  0.10566000000E+00  0.10566000000E+00 0.  1.
     999900   -1    0    0    0    0 -0.00000000000E+00 -0.00000000000E+00 -0.74505805969E-08  0.93827000000E+00  0.93827000000E+00 0.  1.
     999902    2    1    2    0    0  0.15571687835E-01 -0.14869549714E-01 -0.10363369080E-01  0.10200348041E+01  0.10197548828E+01 0.  0.
     999903    2    3    3    0    0 -0.18939671300E-01 -0.17797894303E-01 -0.12746760864E+00  0.13160190730E+00  0.19889559122E-01 0.  0.
         14    1    1    2    0    0 -0.15571687835E-01  0.14869549714E-01  0.10363369080E-01  0.23895195948E-01  0.00000000000E+00 0. -1.
     999901    1    3    3    0    0  0.34511359135E-01  0.29283445897E-02  0.11710423956E+00  0.88843289675E+00  0.88000000000E+00 0. -1.
        -11    1    4    4    0    0 -0.19130661750E-01 -0.77687494073E-02 -0.61538770039E-01  0.64912379600E-01  0.51100000000E-03 0. -1.
         11    1    4    4    0    0  0.19099044939E-03 -0.10029144896E-01 -0.65928838599E-01  0.66689527699E-01  0.51100000000E-03 0.  1.
</event>
<event>
 8    1  0.1074844E+005  0.1043930E+01  0.7957747E-01            NaN
         13   -1    0    0    0    0  0.00000000000E+00  0.00000000000E+00  0.74505805969E-08  0.10566000000E+00  0.10566000000E+00 0.  1.
     999900   -1    0    0    0    0 -0.00000000000E+00 -0.00000000000E+00 -0.74505805969E-08  0.93827000000E+00  0.93827000000E+00 0. -1.
     999902    2    1    2    0    0  0.31560933638E-02 -0.20626606250E-01  0.88697380039E-02  0.10212564457E+01  0.10210047198E+01 0.  0.
     999903    2    3    3    0    0  0.11606018392E+00  0.44699712828E-01 -0.34542075123E-01  0.13058285393E+00  0.19766035696E-01 0.  0.
         14    1    1    2    0    0 -0.31560933638E-02  0.20626606250E-01 -0.88697380039E-02  0.22673554264E-01  0.00000000000E+00 0. -1.
     999901    1    3    3    0    0 -0.11290409056E+00 -0.65326319078E-01  0.43411813127E-01  0.89067359181E+00  0.88000000000E+00 0.  1.
        -11    1    4    4    0    0  0.33642502491E-01  0.39006966565E-02 -0.11560239192E-01  0.35790133549E-01  0.51100000000E-03 0.  1.
         11    1    4    4    0    0  0.82417681430E-01  0.40799016172E-01 -0.22981835931E-01  0.94792720378E-01  0.51100000000E-03 0. -1.
</event>
<event>
 7    1  0.1489582E+005  0.1043930E+01  0.7957747E-01            NaN
         13   -1    0    0    0    0  0.00000000000E+00  0.00000000000E+00  0.74505805969E-08  0.10566000000E+00  0.10566000000E+00 0.  1.
     999900   -1    0    0    0    0 -0.00000000000E+00 -0.00000000000E+00 -0.74505805969E-08  0.93827000000E+00  0.93827000000E+00 0.  1.
     999903    2    1    2    0    0 -0.85460532910E-01 -0.46738121506E-01 -0.52880370985E-01  0.11270481394E+00  0.20447170038E-01 0.  0.
         14    1    1    2    0    0  0.12427798381E-01  0.19660804418E-02 -0.40253229310E-01  0.42173903243E-01  0.00000000000E+00 0. -1.
     999901    1    1    2    0    0  0.73032734529E-01  0.44772041064E-01  0.93133600295E-01  0.88905128282E+00  0.88000000000E+00 0.  1.
        -11    1    3    3    0    0 -0.13326416395E-01 -0.15529798504E-01 -0.15470090548E-01  0.25658387285E-01  0.51100000000E-03 0.  1.
         11    1    3    3    0    0 -0.72134116516E-01 -0.31208323002E-01 -0.37410280438E-01  0.87046426655E-01  0.51100000000E-03 0. -1.
</event>
<event>
 8    1  0.1074844E+005  0.1043930E+01  0.7957747E-01            NaN
         13   -1    0    0    0    0  0.00000000000E+00  0.00000000000E+00  0.74505805969E-08  0.10566000000E+00  0.10566000000E+00 0. -1.
     999900   -1    0    0    0    0 -0.00000000000E+00 -0.00000000000E+00 -0.74505805969E-08  0.93827000000E+00  0.93827000000E+00 0. -1.
     999902    2    1    2    0    0  0.17274498533E-02  0.10176284206E-01 -0.21479100907E-01  0.10200995023E+01  0.10198211128E+01 0.  0.
     999903    2    3    3    0    0 -0.43292141055E-01  0.46065284438E-01 -0.11570668437E+00  0.13319836839E+00  0.18908956229E-01 0.  0.
         14    1    1    2    0    0 -0.17274498533E-02 -0.10176284206E-01  0.21479100907E-01  0.23830497665E-01  0.00000000000E+00 0. -1.
     999901    1    3    3    0    0  0.45019590908E-01 -0.35889000232E-01  0.94227583468E-01  0.88690113394E+00  0.88000000000E+00 0.  1.
        -11    1    4    4    0    0 -0.13082717454E-01  0.27232611280E-01 -0.57821296455E-01  0.65240601299E-01  0.51100000000E-03 0.  1.
         11    1    4    4    0    0 -0.30209423601E-01  0.18832673157E-01 -0.57885387920E-01  0.67957767093E-01  0.51100000000E-03 0. -1.
</event>
<event>
 8    1  0.1074844E+005  0.1043930E+01  0.7957747E-01            NaN
         13   -1    0    0    0    0  0.00000000000E+00  0.00000000000E+00  0.74505805969E-08  0.10566000000E+00  0.10566000000E+00 0. -1.
     999900   -1    0    0    0    0 -0.00000000000E+00 -0.00000000000E+00 -0.74505805969E-08  0.93827000000E+00  0.93827000000E+00 0.  1.
     999902    2    1    2    0    0 -0.10806750406E-01  0.20251511414E-01 -0.23750066782E-02  0.10208529502E+01  0.10205920810E+01 0.  0.
     999903    2    3    3    0    0 -0.11380308085E+00  0.38880706934E-01 -0.53170414617E-01  0.13319566025E+00  0.21240064406E-01 0.  0.
         14    1    1    2    0    0  0.10806750406E-01 -0.20251511414E-01  0.23750066782E-02  0.23077049760E-01  0.00000000000E+00 0. -1.
     999901    1    3    3    0    0  0.10299633044E+00 -0.18629195520E-01  0.50795407939E-01  0.88765728999E+00  0.88000000000E+00 0.  1.
        -11    1    4    4    0    0 -0.26613123468E-01  0.88450821362E-02 -0.22663491431E-01  0.36060903810E-01  0.51100000000E-03 0.  1.
         11    1    4    4    0    0 -0.87189957380E-01  0.30035624798E-01 -0.30506923186E-01  0.97134756438E-01  0.51100000000E-03 0. -1.
</event>
<event>
 8    1  0.1074844E+005  0.1043930E+01  0.7957747E-01            NaN
         13   -1    0    0    0    0  0.00000000000E+00  0.00000000000E+00  0.74505805969E-08  0.10566000000E+00  0.10566000000E+00 0.  1.
     999900   -1    0    0    0    0 -0.00000000000E+00 -0.00000000000E+00 -0.74505805969E-08  0.93827000000E+00  0.93827000000E+00 0.  1.
     999902    2    1    2    0    0 -0.27148103414E-02 -0.11035099239E-01 -0.19445528311E-01  0.10214072963E+01  0.10211589459E+01 0.  0.
     999903    2    3    3    0    0 -0.10165636447E+00 -0.82370134019E-01  0.83036430117E-02  0.13256077703E+00  0.19610040892E-01 0.  0.
         14    1    1    2    0    0  0.27148103414E-02  0.11035099239E-01  0.19445528311E-01  0.22522703694E-01  0.00000000000E+00 0.  1.
     999901    1    3    3    0    0  0.98941554128E-01  0.71335034781E-01 -0.27749171323E-01  0.88884651928E+00  0.88000000000E+00 0.  1.
        -11    1    4    4    0    0 -0.64669790612E-01 -0.46842760493E-01 -0.35043788125E-02  0.79931019137E-01  0.51100000000E-03 0. -1.
         11    1    4    4    0    0 -0.36986573858E-01 -0.35527373526E-01  0.11808021824E-01  0.52629757893E-01  0.51100000000E-03 0.  1.
</event>
<event>
 8    1  0.1260608E+005  0.1043930E+01  0.7957747E-01            NaN
         13   -1    0    0    0    0  0.00000000000E+00  0.00000000000E+00  0.74505805969E-08  0.10566000000E+00  0.10566000000E+00 0.  1.
     999900   -1    0    0    0    0 -0.00000000000E+00 -0.00000000000E+00 -0.74505805969E-08  0.93827000000E+00  0.93827000000E+00 0. -1.
     999902    2    1    2    0    0 -0.18118468322E-01 -0.15552756246E-01 -0.20545202479E-02  0.10199636032E+01  0.10196819915E+01 0.  0.
     999903    2    3    3    0    0  0.84419423181E-01  0.82526447109E-01  0.41824488718E-01  0.12751813332E+00  0.23965245362E-01 0.  0.
         14    1    1    2    0    0  0.18118468322E-01  0.15552756246E-01  0.20545202479E-02  0.23966396780E-01  0.00000000000E+00 0.  1.
     999901    1    3    3    0    0 -0.10253789150E+00 -0.98079203354E-01 -0.43879008966E-01  0.89244546990E+00  0.88000000000E+00 0. -1.
        -11    1    4    4    0    0  0.56582561364E-01  0.38819994464E-01  0.22617202399E-01  0.72252177726E-01  0.51100000000E-03 0.  1.
         11    1    4    4    0    0  0.27836861816E-01  0.43706452644E-01  0.19207286319E-01  0.55265955590E-01  0.51100000000E-03 0. -1.
</event>
<event>
 8    1  0.1074844E+005  0.1043930E+01  0.7957747E-01            NaN
         13   -1    0    0    0    0  0.00000000000E+00  0.00000000000E+00  0.74505805969E-08  0.10566000000E+00  0.10566000000E+00 0. -1.
     999900   -1    0    0    0    0 -0.00000000000E+00 -0.00000000000E+00 -0.74505805969E-08  0.93827000000E+00  0.93827000000E+00 0. -1.
     999902    2    1    2    0    0 -0.95784248783E-02  0.20801403412E-01  0.13855764972E-01  0.10171638492E+01  0.10168116193E+01 0.  0.
     999903    2    3    3    0    0  0.54033216627E-01 -0.26995688781E-01  0.11085505286E+00  0.12826573082E+00  0.22691391453E-01 0.  0.
         14    1    1    2    0    0  0.95784248783E-02 -0.20801403412E-01 -0.13855764972E-01  0.26766150825E-01  0.00000000000E+00 0. -1.
     999901    1    3    3    0    0 -0.63611641506E-01  0.47797092193E-01 -0.96999287893E-01  0.88889811835E+00  0.88000000000E+00 0. -1.
        -11    1    4    4    0    0  0.16142125197E-01 -0.19279615061E-01  0.34719750043E-01  0.42871831391E-01  0.51100000000E-03 0.  1.
         11    1    4    4    0    0  0.37891091431E-01 -0.77160737200E-02  0.76135302822E-01  0.85393899432E-01  0.51100000000E-03 0. -1.
</event>
<event>
 8    1  0.1074844E+005  0.1043930E+01  0.7957747E-01            NaN
         13   -1    0    0    0    0  0.00000000000E+00  0.00000000000E+00  0.74505805969E-08  0.10566000000E+00  0.10566000000E+00 0.  1.
     999900   -1    0    0    0    0 -0.00000000000E+00 -0.00000000000E+00 -0.74505805969E-08  0.93827000000E+00  0.93827000000E+00 0. -1.
     999902    2    1    2    0    0 -0.62482259992E-02 -0.14054225828E-01  0.19030814710E-01  0.10194609685E+01  0.10191672742E+01 0.  0.
     999903    2    3    3    0    0  0.66106934164E-01  0.75826218460E-01  0.79643570526E-01  0.12986124416E+00  0.20027537471E-01 0.  0.
         14    1    1    2    0    0  0.62482259992E-02  0.14054225828E-01 -0.19030814710E-01  0.24469031454E-01  0.00000000000E+00 0. -1.
     999901    1    3    3    0    0 -0.72355160163E-01 -0.89880444287E-01 -0.60612755816E-01  0.88959972439E+00  0.88000000000E+00 0. -1.
        -11    1    4    4    0    0  0.22369696350E-01  0.30407031958E-01  0.18552782712E-01  0.42064923329E-01  0.51100000000E-03 0. -1.
         11    1    4    4    0    0  0.43737237814E-01  0.45419186502E-01  0.61090787815E-01  0.87796320828E-01  0.51100000000E-03 0.  1.
</event>
<event>
 8    1  0.1074844E+005  0.1043930E+01  0.7957747E-01            NaN
         13   -1    0    0    0    0  0.00000000000E+00  0.00000000000E+00  0.74505805969E-08  0.10566000000E+00  0.10566000000E+00 0.  1.
     999900   -1    0    0    0    0 -0.00000000000E+00 -0.00000000000E+00 -0.74505805969E-08  0.93827000000E+00  0.93827000000E+00 0.  1.
     999902    2    1    2    0    0 -0.14091233270E-01 -0.12382187960E-01 -0.15077531350E-01  0.10198631476E+01  0.10195791418E+01 0.  0.
     999903    2    3    3    0    0  0.62213177516E-01 -0.10089199840E+00  0.49103521156E-01  0.12982070076E+00  0.19813726507E-01 0.  0.
         14    1    1    2    0    0  0.14091233270E-01  0.12382187960E-01  0.15077531350E-01  0.24066852419E-01  0.00000000000E+00 0.  1.
     999901    1    3    3    0    0 -0.76304410786E-01  0.88509810435E-01 -0.64181052506E-01  0.89004244682E+00  0.88000000000E+00 0. -1.
        -11    1    4    4    0    0  0.14712923464E-01 -0.16833205074E-01  0.16930838481E-01  0.28048909472E-01  0.51100000000E-03 0.  1.
         11    1    4    4    0    0  0.47500254052E-01 -0.84058793321E-01  0.32172682675E-01  0.10177179128E+00  0.51100000000E-03 0. -1.
</event>
<event>
 8    1  0.1074844E+005  0.1043930E+01  0.7957747E-01            NaN
         13   -1    0    0    0    0  0.00000000000E+00  0.00000000000E+00  0.74505805969E-08  0.10566000000E+00  0.10566000000E+00 0.  1.
     999900   -1    0    0    0    0 -0.00000000000E+00 -0.00000000000E+00 -0.74505805969E-08  0.93827000000E+00  0.93827000000E+00 0. -1.
     999902    2    1    2    0    0 -0.11398984122E-01  0.17784070336E-01 -0.10048615678E-01  0.10205380212E+01  0.10202698996E+01 0.  0.
     999903    2    3    3    0    0 -0.56997155607E-01 -0.56756897707E-01  0.99402350068E-01  0.12946279255E+00  0.20242684354E-01 0.  0.
         14    1    1    2    0    0  0.11398984122E-01 -0.17784070336E-01  0.10048615678E-01  0.23391978834E-01  0.00000000000E+00 0.  1.
     999901    1    3    3    0    0  0.45598171485E-01  0.74540968042E-01 -0.10945096575E+00  0.89107522862E+00  0.88000000000E+00 0. -1.
        -11    1    4    4    0    0 -0.20263956202E-01 -0.28724364528E-01  0.30751069103E-01  0.46707669718E-01  0.51100000000E-03 0.  1.
         11    1    4    4    0    0 -0.36733199405E-01 -0.28032533179E-01  0.68651280966E-01  0.82755122827E-01  0.51100000000E-03 0. -1.
</event>
<event>
 8    1  0.1074844E+005  0.1043930E+01  0.7957747E-01            NaN
         13   -1    0    0    0    0  0.00000000000E+00  0.00000000000E+00  0.74505805969E-08  0.10566000000E+00  0.10566000000E+00 0.  1.
     999900   -1    0    0    0    0 -0.00000000000E+00 -0.00000000000E+00 -0.74505805969E-08  0.93827000000E+00  0.93827000000E+00 0.  1.
     999902    2    1    2    0    0 -0.60385026829E-02  0.14571809255E-01 -0.17430149149E-01  0.10204223153E+01  0.10201515036E+01 0.  0.
     999903    2    3    3    0    0  0.98474118880E-01  0.80836513054E-01  0.22587213108E-01  0.13086327382E+00  0.19578567531E-01 0.  0.
         14    1    1    2    0    0  0.60385026829E-02 -0.14571809255E-01  0.17430149149E-01  0.23507684679E-01  0.00000000000E+00 0. -1.
     999901    1    3    3    0    0 -0.10451262156E+00 -0.66264703799E-01 -0.40017362257E-01  0.88955904150E+00  0.88000000000E+00 0. -1.
        -11    1    4    4    0    0  0.54993177710E-01  0.45220078110E-01  0.27346949399E-02  0.71251980578E-01  0.51100000000E-03 0.  1.
         11    1    4    4    0    0  0.43480941170E-01  0.35616434944E-01  0.19852518168E-01  0.59611293240E-01  0.51100000000E-03 0. -1.
</event>
<event>
 8    1  0.1074844E+005  0.1043930E+01  0.7957747E-01            NaN
         13   -1    0    0    0    0  0.00000000000E+00  0.00000000000E+00  0.74505805969E-08  0.10566000000E+00  0.10566000000E+00 0. -1.
     999900   -1    0    0    0    0 -0.00000000000E+00 -0.00000000000E+00 -0.74505805969E-08  0.93827000000E+00  0.93827000000E+00 0. -1.
     999902    2    1    2    0    0 -0.10120627176E-01 -0.20076895253E-01 -0.98116361168E-02  0.10193988561E+01  0.10191036507E+01 0.  0.
     999903    2    3    3    0    0  0.23999065500E-01 -0.12328795737E+00 -0.38172380823E-01  0.13225681077E+00  0.16089057139E-01 0.  0.
         14    1    1    2    0    0  0.10120627176E-01  0.20076895253E-01  0.98116361168E-02  0.24531143893E-01  0.00000000000E+00 0. -1.
     999901    1    3    3    0    0 -0.34119692676E-01  0.10321106211E+00  0.28360744706E-01  0.88714204534E+00  0.88000000000E+00 0. -1.
        -11    1    4    4    0    0  0.51676235828E-02 -0.40089089833E-01 -0.50128309947E-02  0.40733635398E-01  0.51100000000E-03 0. -1.
         11    1    4    4    0    0  0.18831441917E-01 -0.83198867534E-01 -0.33159549828E-01  0.91523175368E-01  0.51100000000E-03 0.  1.
</event>
<event>
 8    1  0.1087467E+005  0.1043930E+01  0.7957747E-01            NaN
         13   -1    0    0    0    0  0.00000000000E+00  0.00000000000E+00  0.74505805969E-08  0.10566000000E+00  0.10566000000E+00 0.  1.
     999900   -1    0    0    0    0 -0.00000000000E+00 -0.00000000000E+00 -0.74505805969E-08  0.93827000000E+00  0.93827000000E+00 0.  1.
     999902    2    1    2    0    0 -0.15986591894E-01 -0.35361900917E-02 -0.18707984424E-01  0.10190690981E+01  0.10187658035E+01 0.  0.
     999903    2    3    3    0    0  0.71564296776E-01 -0.96683913418E-01 -0.44014561511E-01  0.12947251579E+00  0.18884465364E-01 0.  0.
         14    1    1    2    0    0  0.15986591894E-01  0.35361900917E-02  0.18707984424E-01  0.24860901874E-01  0.00000000000E+00 0.  1.
     999901    1    3    3    0    0 -0.87550888670E-01  0.93147723326E-01  0.25306577087E-01  0.88959658234E+00  0.88000000000E+00 0.  1.
        -11    1    4    4    0    0  0.23854769469E-01 -0.47876982300E-01 -0.20332724110E-01  0.57227058734E-01  0.51100000000E-03 0. -1.
         11    1    4    4    0    0  0.47709527307E-01 -0.48806931118E-01 -0.23681837401E-01  0.72245457052E-01  0.51100000000E-03 0.  1.
</event>
<event>
 8    1  0.1074844E+005  0.1043930E+01  0.7957747E-01            NaN
         13   -1    0    0    0    0  0.00000000000E+00  0.00000000000E+00  0.74505805969E-08  0.10566000000E+00  0.10566000000E+00 0.  1.
     999900   -1    0    0    0    0 -0.00000000000E+00 -0.00000000000E+00 -0.74505805969E-08  0.93827000000E+00  0.93827000000E+00 0. -1.
     999902    2    1    2    0    0 -0.89963621663E-02 -0.17340393181E-01 -0.13396208274E-01  0.10202428270E+01  0.10199678151E+01 0.  0.
     999903    2    3    3    0    0 -0.11426381280E+00  0.38057864372E-01  0.45638388023E-01  0.13027918357E+00  0.19626086056E-01 0.  0.
         14    1    1    2    0    0  0.89963621663E-02  0.17340393181E-01  0.13396208274E-01  0.23687172985E-01  0.00000000000E+00 0. -1.
     999901    1    3    3    0    0  0.10526745063E+00 -0.55398257553E-01 -0.59034596297E-01  0.88996364345E+00  0.88000000000E+00 0. -1.
        -11    1    4    4    0    0 -0.92881296994E-01  0.25296548876E-01  0.29838826786E-01  0.10078426177E+00  0.51100000000E-03 0. -1.
         11    1    4    4    0    0 -0.21382515802E-01  0.12761315496E-01  0.15799561237E-01  0.29494921792E-01  0.51100000000E-03 0.  1.
</event>
<event>
 8    1  0.1074844E+005  0.1043930E+01  0.7957747E-01            NaN
         13   -1    0    0    0    0  0.00000000000E+00  0.00000000000E+00  0.74505805969E-08  0.10566000000E+00  0.10566000000E+00 0.  1.
     999900   -1    0    0    0    0 -0.00000000000E+00 -0.00000000000E+00 -0.74505805969E-08  0.93827000000E+00  0.93827000000E+00 0. -1.
     999902    2    1    2    0    0  0.68169291320E-02 -0.14840293512E-01 -0.16909771215E-01  0.10204215931E+01  0.10201507645E+01 0.  0.
     999903    2    3    3    0    0  0.15599655176E-01 -0.66392601324E-01 -0.11331942959E+00  0.13361293334E+00  0.18968291497E-01 0.  0.
         14    1    1    2    0    0 -0.68169291320E-02  0.14840293512E-01  0.16909771215E-01  0.23508406940E-01  0.00000000000E+00 0.  1.
     999901    1    3    3    0    0 -0.87827260442E-02  0.51552307812E-01  0.96409658374E-01  0.88680865971E+00  0.88000000000E+00 0.  1.
        -11    1    4    4    0    0 -0.33348428537E-02 -0.89912177907E-02 -0.23095301879E-01  0.25012342235E-01  0.51100000000E-03 0. -1.
         11    1    4    4    0    0  0.18934498030E-01 -0.57401383533E-01 -0.90224127711E-01  0.10860059111E+00  0.51100000000E-03 0.  1.
</event>
<event>
 8    1  0.1074844E+005  0.1043930E+01  0.7957747E-01            NaN
         13   -1    0    0    0    0  0.00000000000E+00  0.00000000000E+00  0.74505805969E-08  0.10566000000E+00  0.10566000000E+00 0.  1.
     999900   -1    0    0    0    0 -0.00000000000E+00 -0.00000000000E+00 -0.74505805969E-08  0.93827000000E+00  0.93827000000E+00 0. -1.
     999902    2    1    2    0    0 -0.13235887390E-01  0.78284311572E-02 -0.18075209288E-01  0.10201984547E+01  0.10199223994E+01 0.  0.
     999903    2    3    3    0    0 -0.83765294010E-01 -0.98169420926E-01  0.96122582484E-02  0.13060498708E+00  0.17646740695E-01 0.  0.
         14    1    1    2    0    0  0.13235887390E-01 -0.78284311572E-02  0.18075209288E-01  0.23731545255E-01  0.00000000000E+00 0.  1.
     999901    1    3    3    0    0  0.70529406620E-01  0.10599785208E+00 -0.27687467537E-01  0.88959346766E+00  0.88000000000E+00 0. -1.
        -11    1    4    4    0    0 -0.76009675645E-01 -0.95248076385E-01  0.10163623864E-01  0.12228338897E+00  0.51100000000E-03 0.  1.
         11    1    4    4    0    0 -0.77556183654E-02 -0.29213445414E-02 -0.55136561599E-03  0.83215981158E-02  0.51100000000E-03 0. -1.
</event>
<event>
 8    1  0.1074844E+005  0.1043930E+01  0.7957747E-01            NaN
         13   -1    0    0    0    0  0.00000000000E+00  0.00000000000E+00  0.74505805969E-08  0.10566000000E+00  0.10566000000E+00 0. -1.
     999900   -1    0    0    0    0 -0.00000000000E+00 -0.00000000000E+00 -0.74505805969E-08  0.93827000000E+00  0.93827000000E+00 0.  1.
     999902    2    1    2    0    0 -0.15624737115E-01 -0.11379453590E-01  0.14206977732E-01  0.10199411987E+01  0.10196590539E+01 0.  0.
     999903    2    3    3    0    0 -0.10156486466E+00  0.58029169020E-02  0.85015122303E-01  0.13275760282E+00  0.69220305720E-02 0.  0.
         14    1    1    2    0    0  0.15624737115E-01  0.11379453590E-01 -0.14206977732E-01  0.23988801350E-01  0.00000000000E+00 0. -1.
     999901    1    3    3    0    0  0.85940127546E-01 -0.17182370491E-01 -0.70808144571E-01  0.88718359583E+00  0.88000000000E+00 0. -1.
        -11    1    4    4    0    0 -0.60759108457E-01  0.64912435156E-02  0.52873326305E-01  0.80806282295E-01  0.51100000000E-03 0. -1.
         11    1    4    4    0    0 -0.40805756204E-01 -0.68832661358E-03  0.32141795998E-01  0.51951320522E-01  0.51100000000E-03 0.  1.
</event>
<event>
 8    1  0.1074844E+005  0.1043930E+01  0.7957747E-01            NaN
         13   -1    0    0    0    0  0.00000000000E+00  0.00000000000E+00  0.74505805969E-08  0.10566000000E+00  0.10566000000E+00 0. -1.
     999900   -1    0    0    0    0 -0.00000000000E+00 -0.00000000000E+00 -0.74505805969E-08  0.93827000000E+00  0.93827000000E+00 0.  1.
     999902    2    1    2    0    0  0.34163582510E-03  0.20323758007E-01  0.69735572717E-02  0.10224404129E+01  0.10222145545E+01 0.  0.
     999903    2    3    3    0    0 -0.69141416451E-01  0.27343494752E-01 -0.10764459720E+00  0.13226374916E+00  0.19445767151E-01 0.  0.
         14    1    1    2    0    0 -0.34163582510E-03 -0.20323758007E-01 -0.69735572717E-02  0.21489587143E-01  0.00000000000E+00 0.  1.
     999901    1    3    3    0    0  0.69483052276E-01 -0.70197367452E-02  0.11461815448E+00  0.89017666370E+00  0.88000000000E+00 0. -1.
        -11    1    4    4    0    0 -0.52783935804E-01  0.28548364977E-01 -0.78426198679E-01  0.98752634304E-01  0.51100000000E-03 0.  1.
         11    1    4    4    0    0 -0.16357480647E-01 -0.12048702251E-02 -0.29218398526E-01  0.33511114855E-01  0.51100000000E-03 0. -1.
</event>
<event>
 8    1  0.1074844E+005  0.1043930E+01  0.7957747E-01            NaN
         13   -1    0    0    0    0  0.00000000000E+00  0.00000000000E+00  0.74505805969E-08  0.10566000000E+00  0.10566000000E+00 0.  1.
     999900   -1    0    0    0    0 -0.00000000000E+00 -0.00000000000E+00 -0.74505805969E-08  0.93827000000E+00  0.93827000000E+00 0. -1.
     999902    2    1    2    0    0 -0.35476502793E-02 -0.17083756164E-01  0.15243656741E-01  0.10207608477E+01  0.10204978680E+01 0.  0.
     999903    2    3    3    0    0  0.10860068541E+00  0.65838275081E-01  0.19105333007E-01  0.12976801664E+00  0.18599383259E-01 0.  0.
         14    1    1    2    0    0  0.35476502793E-02  0.17083756164E-01 -0.15243656741E-01  0.23169152294E-01  0.00000000000E+00 0. -1.
     999901    1    3    3    0    0 -0.11214833569E+00 -0.82922031245E-01 -0.38616762665E-02  0.89099283106E+00  0.88000000000E+00 0.  1.
        -11    1    4    4    0    0  0.26000289421E-01  0.10828798992E-01  0.10833232538E-01  0.30181086558E-01  0.51100000000E-03 0. -1.
         11    1    4    4    0    0  0.82600395985E-01  0.55009476089E-01  0.82721004693E-02  0.99586930085E-01  0.51100000000E-03 0.  1.
</event>
<event>
 8    1  0.1074844E+005  0.1043930E+01  0.7957747E-01            NaN
         13   -1    0    0    0    0  0.00000000000E+00  0.00000000000E+00  0.74505805969E-08  0.10566000000E+00  0.10566000000E+00 0. -1.
     999900   -1    0    0    0    0 -0.00000000000E+00 -0.00000000000E+00 -0.74505805969E-08  0.93827000000E+00  0.93827000000E+00 0. -1.
     999902    2    1    2    0    0 -0.38158177850E-03  0.23295495847E-01 -0.10973243328E-01  0.10181765963E+01  0.10178508454E+01 0.  0.
     999903    2    3    3    0    0 -0.96191477476E-01  0.43791295020E-01  0.71355482119E-01  0.12891980950E+00  0.18927086241E-01 0.  0.
         14    1    1    2    0    0  0.38158177850E-03 -0.23295495847E-01  0.10973243328E-01  0.25753403669E-01  0.00000000000E+00 0. -1.
     999901    1    3    3    0    0  0.95809895698E-01 -0.20495799173E-01 -0.82328725447E-01  0.88925678683E+00  0.88000000000E+00 0. -1.
        -11    1    4    4    0    0 -0.86113166923E-01  0.43651661333E-01  0.59749019632E-01  0.11353920698E+00  0.51100000000E-03 0.  1.
         11    1    4    4    0    0 -0.10078310553E-01  0.13963368707E-03  0.11606462487E-01  0.15380602512E-01  0.51100000000E-03 0. -1.
</event>
<event>
 8    1  0.1074844E+005  0.1043930E+01  0.7957747E-01            NaN
         13   -1    0    0    0    0  0.00000000000E+00  0.00000000000E+00  0.74505805969E-08  0.10566000000E+00  0.10566000000E+00 0. -1.
     999900   -1    0    0    0    0 -0.00000000000E+00 -0.00000000000E+00 -0.74505805969E-08  0.93827000000E+00  0.93827000000E+00 0. -1.
     999902    2    1    2    0    0 -0.14120296361E-01  0.18798651115E-01  0.44944564953E-02  0.10199931624E+01  0.10197122532E+01 0.  0.
     999903    2    3    3    0    0  0.89024721368E-01  0.49175585292E-01 -0.77758310346E-01  0.12964088920E+00  0.20414850520E-01 0.  0.
         14    1    1    2    0    0  0.14120296361E-01 -0.18798651115E-01 -0.44944564953E-02  0.23936837557E-01  0.00000000000E+00 0. -1.
     999901    1    3    3    0    0 -0.10314501773E+00 -0.30376934177E-01  0.82252766841E-01  0.89035227324E+00  0.88000000000E+00 0.  1.
        -11    1    4    4    0    0  0.48926954965E-01  0.15683488983E-01 -0.41443542857E-01  0.66012476959E-01  0.51100000000E-03 0.  1.
         11    1    4    4    0    0  0.40097766403E-01  0.33492096309E-01 -0.36314767489E-01  0.63628412242E-01  0.51100000000E-03 0. -1.
</event>
<event>
 8    1  0.1074844E+005  0.1043930E+01  0.7957747E-01            NaN
         13   -1    0    0    0    0  0.00000000000E+00  0.00000000000E+00  0.74505805969E-08  0.10566000000E+00  0.10566000000E+00 0. -1.
     999900   -1    0    0    0    0 -0.00000000000E+00 -0.00000000000E+00 -0.74505805969E-08  0.93827000000E+00  0.93827000000E+00 0. -1.
     999902    2    1    2    0    0 -0.18203524167E-01 -0.58785755697E-02 -0.13917876977E-01  0.10202734313E+01  0.10199991379E+01 0.  0.
     999903    2    3    3    0    0 -0.10600832816E+00 -0.77196529934E-01  0.43172893305E-02  0.13284543112E+00  0.20789413388E-01 0.  0.
         14    1    1    2    0    0  0.18203524167E-01  0.58785755697E-02  0.13917876977E-01  0.23656568694E-01  0.00000000000E+00 0. -1.
     999901    1    3    3    0    0  0.87804803997E-01  0.71317954365E-01 -0.18235166307E-01  0.88742800018E+00  0.88000000000E+00 0. -1.
        -11    1    4    4    0    0 -0.36218792110E-01 -0.18864577165E-01 -0.60957930765E-02  0.41292771616E-01  0.51100000000E-03 0.  1.
         11    1    4    4    0    0 -0.69789536054E-01 -0.58331952769E-01  0.10413082407E-01  0.91552659506E-01  0.51100000000E-03 0. -1.
</event>
<event>
 8    1  0.1074844E+005  0.1043930E+01  0.7957747E-01            NaN
         13   -1    0    0    0    0  0.00000000000E+00  0.00000000000E+00  0.74505805969E-08  0.10566000000E+00  0.10566000000E+00 0. -1.
     999900   -1    0    0    0    0 -0.00000000000E+00 -0.00000000000E+00 -0.74505805969E-08  0.93827000000E+00  0.93827000000E+00 0. -1.
     999902    2    1    2    0    0  0.14113651391E-01 -0.18938940908E-01  0.38191490004E-02  0.10200037688E+01  0.10197231114E+01 0.  0.
     999903    2    3    3    0    0  0.40503519556E-01  0.37825152179E-01  0.11665845314E+00  0.13059312355E+00  0.19341457905E-01 0.  0.
         14    1    1    2    0    0 -0.14113651391E-01  0.18938940908E-01 -0.38191490004E-02  0.23926231157E-01  0.00000000000E+00 0.  1.
     999901    1    3    3    0    0 -0.26389868165E-01 -0.56764093087E-01 -0.11283930414E+00  0.88941064530E+00  0.88000000000E+00 0. -1.
        -11    1    4    4    0    0  0.29583144715E-01  0.16567206824E-01  0.79239956169E-01  0.86190872880E-01  0.51100000000E-03 0.  1.
         11    1    4    4    0    0  0.10920374840E-01  0.21257945354E-01  0.37418496976E-01  0.44402250667E-01  0.51100000000E-03 0. -1.
</event>
<event>
 8    1  0.1074844E+005  0.1043930E+01  0.7957747E-01            NaN
         13   -1    0    0    0    0  0.00000000000E+00  0.00000000000E+00  0.74505805969E-08  0.10566000000E+00  0.10566000000E+00 0. -1.
     999900   -1    0    0    0    0 -0.00000000000E+00 -0.00000000000E+00 -0.74505805969E-08  0.93827000000E+00  0.93827000000E+00 0. -1.
     999902    2    1    2    0    0  0.81840262775E-02 -0.15705223578E-01  0.15570879234E-01  0.10203485536E+01  0.10200760198E+01 0.  0.
     999903    2    3    3    0    0 -0.47266960792E-02 -0.18186432129E-01  0.13003248000E+00  0.13283838398E+00  0.19608733640E-01 0.  0.
         14    1    1    2    0    0 -0.81840262775E-02  0.15705223578E-01 -0.15570879234E-01  0.23581446390E-01  0.00000000000E+00 0.  1.
     999901    1    3    3    0    0  0.12910722357E-01  0.24812085502E-02 -0.11446160076E+00  0.88751016963E+00  0.88000000000E+00 0. -1.
        -11    1    4    4    0    0  0.37217844023E-02 -0.50637447785E-03  0.59851902087E-01  0.59971821705E-01  0.51100000000E-03 0.  1.
         11    1    4    4    0    0 -0.84484804815E-02 -0.17680057651E-01  0.70180577910E-01  0.72866562274E-01  0.51100000000E-03 0. -1.
</event>
<event>
 8    1  0.1074844E+005  0.1043930E+01  0.7957747E-01            NaN
         13   -1    0    0    0    0  0.00000000000E+00  0.00000000000E+00  0.74505805969E-08  0.10566000000E+00  0.10566000000E+00 0.  1.
     999900   -1    0    0    0    0 -0.00000000000E+00 -0.00000000000E+00 -0.74505805969E-08  0.93827000000E+00  0.93827000000E+00 0. -1.
     999902    2    1    2    0    0  0.36659547287E-02 -0.22161072313E-01 -0.67973473091E-02  0.10204618028E+01  0.10201919107E+01 0.  0.
     999903    2    3    3    0    0 -0.12190848503E-01 -0.70790471410E-01  0.10838691810E+00  0.13148279760E+00  0.19496010305E-01 0.  0.
         14    1    1    2    0    0 -0.36659547287E-02  0.22161072313E-01  0.67973473091E-02  0.23468197217E-01  0.00000000000E+00 0.  1.
     999901    1    3    3    0    0  0.15856803232E-01  0.48629399097E-01 -0.11518426541E+00  0.88897900519E+00  0.88000000000E+00 0. -1.
        -11    1    4    4    0    0 -0.13171900832E-01 -0.71759634446E-01  0.10620011931E+00  0.12884747017E+00  0.51100000000E-03 0. -1.
         11    1    4    4    0    0  0.98105232922E-03  0.96916303590E-03  0.21867987975E-02  0.26353274263E-02  0.51100000000E-03 0.  1.
</event>
<event>
 8    1  0.1074844E+005  0.1043930E+01  0.7957747E-01            NaN
         13   -1    0    0    0    0  0.00000000000E+00  0.00000000000E+00  0.74505805969E-08  0.10566000000E+00  0.10566000000E+00 0.  1.
     999900   -1    0    0    0    0 -0.00000000000E+00 -0.00000000000E+00 -0.74505805969E-08  0.93827000000E+00  0.93827000000E+00 0. -1.
     999902    2    1    2    0    0 -0.12612181276E-01  0.12487284634E-01  0.14061702170E-01  0.10212864388E+01  0.10210353859E+01 0.  0.
     999903    2    3    3    0    0  0.12463818103E+00 -0.22963087229E-01 -0.16092461368E-01  0.12943237881E+00  0.20779649318E-01 0.  0.
         14    1    1    2    0    0  0.12612181276E-01 -0.12487284634E-01 -0.14061702170E-01  0.22643561160E-01  0.00000000000E+00 0. -1.
     999901    1    3    3    0    0 -0.13725036230E+00  0.35450371863E-01  0.30154163538E-01  0.89185406003E+00  0.88000000000E+00 0.  1.
        -11    1    4    4    0    0  0.45231767571E-01 -0.18533265238E-01 -0.70016691473E-02  0.49382985024E-01  0.51100000000E-03 0.  1.
         11    1    4    4    0    0  0.79406413457E-01 -0.44298219909E-02 -0.90907922206E-02  0.80049393784E-01  0.51100000000E-03 0. -1.
</event>
<event>
 8    1  0.1074844E+005  0.1043930E+01  0.7957747E-01            NaN
         13   -1    0    0    0    0  0.00000000000E+00  0.00000000000E+00  0.74505805969E-08  0.10566000000E+00  0.10566000000E+00 0. -1.
     999900   -1    0    0    0    0 -0.00000000000E+00 -0.00000000000E+00 -0.74505805969E-08  0.93827000000E+00  0.93827000000E+00 0. -1.
     999902    2    1    2    0    0 -0.15934482595E-01 -0.14127645363E-01 -0.12017710237E-01  0.10194775265E+01  0.10191842344E+01 0.  0.
     999903    2    3    3    0    0 -0.54607971005E-01  0.51638477785E-01 -0.10568413703E+00  0.13122405980E+00  0.20051288408E-01 0.  0.
         14    1    1    2    0    0  0.15934482595E-01  0.14127645363E-01  0.12017710237E-01  0.24452473462E-01  0.00000000000E+00 0.  1.
     999901    1    3    3    0    0  0.38673488410E-01 -0.65766123148E-01  0.93666426789E-01  0.88825346674E+00  0.88000000000E+00 0.  1.
        -11    1    4    4    0    0 -0.26681115482E-01  0.38608145603E-01 -0.65595585396E-01  0.80656759014E-01  0.51100000000E-03 0. -1.
         11    1    4    4    0    0 -0.27926855524E-01  0.13030332183E-01 -0.40088551630E-01  0.50567300788E-01  0.51100000000E-03 0.  1.
</event>
<event>
 8    1  0.1074844E+005  0.1043930E+01  0.7957747E-01            NaN
         13   -1    0    0    0    0  0.00000000000E+00  0.00000000000E+00  0.74505805969E-08  0.10566000000E+00  0.10566000000E+00 0.  1.
     999900   -1    0    0    0    0 -0.00000000000E+00 -0.00000000000E+00 -0.74505805969E-08  0.93827000000E+00  0.93827000000E+00 0. -1.
     999902    2    1    2    0    0  0.61198579965E-02 -0.22116637632E-01  0.72468962315E-02  0.10198651745E+01  0.10195812171E+01 0.  0.
     999903    2    3    3    0    0  0.21798234836E-02  0.78688381983E-01  0.10047417029E+00  0.12920895546E+00  0.20081887026E-01 0.  0.
         14    1    1    2    0    0 -0.61198579965E-02  0.22116637632E-01 -0.72468962315E-02  0.24064825514E-01  0.00000000000E+00 0. -1.
     999901    1    3    3    0    0  0.39400345129E-02 -0.10080501962E+00 -0.93227274062E-01  0.89065621902E+00  0.88000000000E+00 0. -1.
        -11    1    4    4    0    0 -0.53155927548E-02  0.58475713006E-01  0.81734831060E-01  0.10064049020E+00  0.51100000000E-03 0.  1.
         11    1    4    4    0    0  0.74954162384E-02  0.20212668978E-01  0.18739339233E-01  0.28568465267E-01  0.51100000000E-03 0. -1.
</event>
<event>
 8    1  0.1074844E+005  0.1043930E+01  0.7957747E-01            NaN
         13   -1    0    0    0    0  0.00000000000E+00  0.00000000000E+00  0.74505805969E-08  0.10566000000E+00  0.10566000000E+00 0.  1.
     999900   -1    0    0    0    0 -0.00000000000E+00 -0.00000000000E+00 -0.74505805969E-08  0.93827000000E+00  0.93827000000E+00 0. -1.
     999902    2    1    2    0    0 -0.21969120302E-01  0.92451203317E-02 -0.59606051030E-03  0.10200873956E+01  0.10198087197E+01 0.  0.
     999903    2    3    3    0    0  0.75127082916E-01  0.10353610451E+00  0.80224761790E-02  0.12969830000E+00  0.19836465770E-01 0.  0.
         14    1    1    2    0    0  0.21969120302E-01 -0.92451203317E-02  0.59606051030E-03  0.23842604407E-01  0.00000000000E+00 0. -1.
     999901    1    3    3    0    0 -0.97096203218E-01 -0.94290984178E-01 -0.86185366893E-02  0.89038909559E+00  0.88000000000E+00 0.  1.
        -11    1    4    4    0    0  0.15197206193E-01  0.15939274360E-01 -0.54950231889E-02  0.22704007224E-01  0.51100000000E-03 0. -1.
         11    1    4    4    0    0  0.59929876723E-01  0.87596830150E-01  0.13517499368E-01  0.10699429278E+00  0.51100000000E-03 0.  1.
</event>
<event>
 8    1  0.1074844E+005  0.1043930E+01  0.7957747E-01            NaN
         13   -1    0    0    0    0  0.00000000000E+00  0.00000000000E+00  0.74505805969E-08  0.10566000000E+00  0.10566000000E+00 0.  1.
     999900   -1    0    0    0    0 -0.00000000000E+00 -0.00000000000E+00 -0.74505805969E-08  0.93827000000E+00  0.93827000000E+00 0.  1.
     999902    2    1    2    0    0 -0.63852914178E-02 -0.14996448439E-01 -0.16353726900E-01  0.10208408295E+01  0.10205796830E+01 0.  0.
     999903    2    3    3    0    0 -0.10552590531E+00  0.52774229124E-01 -0.55345808364E-01  0.13182895751E+00  0.19871577308E-01 0.  0.
         14    1    1    2    0    0  0.63852914178E-02  0.14996448439E-01  0.16353726900E-01  0.23089170530E-01  0.00000000000E+00 0.  1.
     999901    1    3    3    0    0  0.99140613893E-01 -0.67770677563E-01  0.38992081464E-01  0.88901187196E+00  0.88000000000E+00 0. -1.
        -11    1    4    4    0    0 -0.61048091057E-01  0.35474971500E-01 -0.42466306832E-01  0.82395335799E-01  0.51100000000E-03 0.  1.
         11    1    4    4    0    0 -0.44477814254E-01  0.17299257624E-01 -0.12879501532E-01  0.49433621715E-01  0.51100000000E-03 0. -1.
</event>
<event>
 8    1  0.1074844E+005  0.1043930E+01  0.7957747E-01            NaN
         13   -1    0    0    0    0  0.00000000000E+00  0.00000000000E+00  0.74505805969E-08  0.10566000000E+00  0.10566000000E+00 0. -1.
     999900   -1    0    0    0    0 -0.00000000000E+00 -0.00000000000E+00 -0.74505805969E-08  0.93827000000E+00  0.93827000000E+00 0. -1.
     999902    2    1    2    0    0  0.14776346770E-01 -0.18531238072E-01 -0.13141641038E-02  0.10201923877E+01  0.10199161896E+01 0.  0.
     999903    2    3    3    0    0 -0.72632242901E-01  0.91195733925E-01  0.47262630895E-01  0.12775753021E+00  0.22273878216E-01 0.  0.
         14    1    1    2    0    0 -0.14776346770E-01  0.18531238072E-01  0.13141641038E-02  0.23737612256E-01  0.00000000000E+00 0.  1.
     999901    1    3    3    0    0  0.87408589671E-01 -0.10972697200E+00 -0.48576794999E-01  0.89243485754E+00  0.88000000000E+00 0.  1.
        -11    1    4    4    0    0 -0.42969885722E-01  0.64789511298E-01  0.22428725731E-01  0.80916010233E-01  0.51100000000E-03 0. -1.
         11    1    4    4    0    0 -0.29662357179E-01  0.26406222628E-01  0.24833905164E-01  0.46841519975E-01  0.51100000000E-03 0.  1.
</event>
<event>
 8    1  0.1074844E+005  0.1043930E+01  0.7957747E-01            NaN
         13   -1    0    0    0    0  0.00000000000E+00  0.00000000000E+00  0.74505805969E-08  0.10566000000E+00  0.10566000000E+00 0. -1.
     999900   -1    0    0    0    0 -0.00000000000E+00 -0.00000000000E+00 -0.74505805969E-08  0.93827000000E+00  0.93827000000E+00 0.  1.
     999902    2    1    2    0    0 -0.16881179521E-01 -0.16932836931E-01  0.45598441789E-03  0.10200155042E+01  0.10197351252E+01 0.  0.
     999903    2    3    3    0    0 -0.56948238299E-01 -0.11695943084E+00 -0.20636361855E-01  0.13319219835E+00  0.19791209215E-01 0.  0.
         14    1    1    2    0    0  0.16881179521E-01  0.16932836931E-01 -0.45598441789E-03  0.23914495820E-01  0.00000000000E+00 0. -1.
     999901    1    3    3    0    0  0.40067058779E-01  0.10002659391E+00  0.21092346273E-01  0.88682330583E+00  0.88000000000E+00 0. -1.
        -11    1    4    4    0    0 -0.42555142665E-01 -0.70935642462E-01 -0.66972602251E-02  0.82993493445E-01  0.51100000000E-03 0.  1.
         11    1    4    4    0    0 -0.14393095635E-01 -0.46023788383E-01 -0.13939101630E-01  0.50198704906E-01  0.51100000000E-03 0. -1.
</event>
<event>
 8    1  0.1074844E+005  0.1043930E+01  0.7957747E-01            NaN
         13   -1    0    0    0    0  0.00000000000E+00  0.00000000000E+00  0.74505805969E-08  0.10566000000E+00  0.10566000000E+00 0.  1.
     999900   -1    0    0    0    0 -0.00000000000E+00 -0.00000000000E+00 -0.74505805969E-08  0.93827000000E+00  0.93827000000E+00 0.  1.
     999902    2    1    2    0    0 -0.25634504469E-03 -0.23146930921E-01 -0.22413711572E-02  0.10206733909E+01  0.10204083991E+01 0.  0.
     999903    2    3    3    0    0  0.10199018710E+00 -0.63730604007E-01 -0.51619159982E-01  0.13245069700E+00  0.20373053455E-01 0.  0.
         14    1    1    2    0    0  0.25634504469E-03  0.23146930921E-01  0.22413711572E-02  0.23256609136E-01  0.00000000000E+00 0.  1.
     999901    1    3    3    0    0 -0.10224653215E+00  0.40583673086E-01  0.49377788825E-01  0.88822269386E+00  0.88000000000E+00 0.  1.
        -11    1    4    4    0    0  0.23642324529E-01 -0.25540339312E-01 -0.13988733916E-01  0.37512854315E-01  0.51100000000E-03 0.  1.
         11    1    4    4    0    0  0.78347862575E-01 -0.38190264695E-01 -0.37630426067E-01  0.94937842689E-01  0.51100000000E-03 0. -1.
</event>
<event>
 8    1  0.1074844E+005  0.1043930E+01  0.7957747E-01            NaN
         13   -1    0    0    0    0  0.00000000000E+00  0.00000000000E+00  0.74505805969E-08  0.10566000000E+00  0.10566000000E+00 0. -1.
     999900   -1    0    0    0    0 -0.00000000000E+00 -0.00000000000E+00 -0.74505805969E-08  0.93827000000E+00  0.93827000000E+00 0. -1.
     999902    2    1    2    0    0  0.64231291482E-02 -0.21740903156E-01  0.34988789120E-02  0.10209916999E+01  0.10207339936E+01 0.  0.
     999903    2    3    3    0    0  0.10879276849E+00  0.12381395554E-01  0.70081703057E-01  0.13190388264E+00  0.22316445053E-01 0.  0.
         14    1    1    2    0    0 -0.64231291482E-02  0.21740903156E-01 -0.34988789120E-02  0.22938300105E-01  0.00000000000E+00 0. -1.
     999901    1    3    3    0    0 -0.10236963934E+00 -0.34122298710E-01 -0.66582824145E-01  0.88908781726E+00  0.88000000000E+00 0. -1.
        -11    1    4    4    0    0  0.44936491343E-01  0.14650804564E-01  0.36489861272E-01  0.59713527992E-01  0.51100000000E-03 0. -1.
         11    1    4    4    0    0  0.63856277145E-01 -0.22694090095E-02  0.33591841785E-01  0.72190354643E-01  0.51100000000E-03 0.  1.
</event>
<event>
 8    1  0.1074844E+005  0.1043930E+01  0.7957747E-01            NaN
         13   -1    0    0    0    0  0.00000000000E+00  0.00000000000E+00  0.74505805969E-08  0.10566000000E+00  0.10566000000E+00 0. -1.
     999900   -1    0    0    0    0 -0.00000000000E+00 -0.00000000000E+00 -0.74505805969E-08  0.93827000000E+00  0.93827000000E+00 0.  1.
     999902    2    1    2    0    0  0.21689595552E-01 -0.40808972073E-02 -0.73291399958E-02  0.10206747088E+01  0.10204097474E+01 0.  0.
     999903    2    3    3    0    0 -0.10429563359E+00 -0.55529810630E-01 -0.47870223128E-01  0.12929216010E+00  0.21535211760E-01 0.  0.
         14    1    1    2    0    0 -0.21689595552E-01  0.40808972073E-02  0.73291399958E-02  0.23255291233E-01  0.00000000000E+00 0.  1.
     999901    1    3    3    0    0  0.12598522914E+00  0.51448913423E-01  0.40541083132E-01  0.89138254867E+00  0.88000000000E+00 0. -1.
        -11    1    4    4    0    0 -0.51054082258E-01 -0.26946897504E-01 -0.11832598601E-01  0.58931537490E-01  0.51100000000E-03 0. -1.
         11    1    4    4    0    0 -0.53241551332E-01 -0.28582913126E-01 -0.36037624527E-01  0.70360622606E-01  0.51100000000E-03 0.  1.
</event>
<event>
 8    1  0.1074844E+005  0.1043930E+01  0.7957747E-01            NaN
         13   -1    0    0    0    0  0.00000000000E+00  0.00000000000E+00  0.74505805969E-08  0.10566000000E+00  0.10566000000E+00 0. -1.
     999900   -1    0    0    0    0 -0.00000000000E+00 -0.00000000000E+00 -0.74505805969E-08  0.93827000000E+00  0.93827000000E+00 0.  1.
     999902    2    1    2    0    0  0.83279766230E-02  0.25871164751E-01  0.10333324297E-01  0.10148533779E+01  0.10144367544E+01 0.  0.
     999903    2    3    3    0    0  0.57848600115E-01  0.10647902176E+00 -0.37812968212E-01  0.12847423543E+00  0.19788026576E-01 0.  0.
         14    1    1    2    0    0 -0.83279766230E-02 -0.25871164751E-01 -0.10333324297E-01  0.29076622074E-01  0.00000000000E+00 0.  1.
     999901    1    3    3    0    0 -0.49520623492E-01 -0.80607857006E-01  0.48146292509E-01  0.88637914249E+00  0.88000000000E+00 0. -1.
        -11    1    4    4    0    0  0.32262620469E-01  0.77939755966E-01 -0.23632332393E-01  0.87602685432E-01  0.51100000000E-03 0.  1.
         11    1    4    4    0    0  0.25585979646E-01  0.28539265791E-01 -0.14180635819E-01  0.40871550002E-01  0.51100000000E-03 0. -1.
</event>
<event>
 8    1  0.1074844E+005  0.1043930E+01  0.7957747E-01            NaN
         13   -1    0    0    0    0  0.00000000000E+00  0.00000000000E+00  0.74505805969E-08  0.10566000000E+00  0.10566000000E+00 0. -1.
     999900   -1    0    0    0    0 -0.00000000000E+00 -0.00000000000E+00 -0.74505805969E-08  0.93827000000E+00  0.93827000000E+00 0.  1.
     999902    2    1    2    0    0 -0.46483017326E-02  0.22940238799E-01  0.59815207061E-02  0.10197713607E+01  0.10194851584E+01 0.  0.
     999903    2    3    3    0    0  0.92395004163E-01  0.48783240047E-01 -0.75579356746E-01  0.13031228871E+00  0.18772642824E-01 0.  0.
         14    1    1    2    0    0  0.46483017326E-02 -0.22940238799E-01 -0.59815207061E-02  0.24158639348E-01  0.00000000000E+00 0.  1.
     999901    1    3    3    0    0 -0.97043305895E-01 -0.25843001248E-01  0.81560877452E-01  0.88945907194E+00  0.88000000000E+00 0. -1.
        -11    1    4    4    0    0  0.74485791770E-02  0.95449989287E-02 -0.50128280686E-02  0.13114034564E-01  0.51100000000E-03 0.  1.
         11    1    4    4    0    0  0.84946424986E-01  0.39238241118E-01 -0.70566528677E-01  0.11719825414E+00  0.51100000000E-03 0. -1.
</event>
<event>
 8    1  0.1074844E+005  0.1043930E+01  0.7957747E-01            NaN
         13   -1    0    0    0    0  0.00000000000E+00  0.00000000000E+00  0.74505805969E-08  0.10566000000E+00  0.10566000000E+00 0. -1.
     999900   -1    0    0    0    0 -0.00000000000E+00 -0.00000000000E+00 -0.74505805969E-08  0.93827000000E+00  0.93827000000E+00 0. -1.
     999902    2    1    2    0    0 -0.16305086993E-01  0.17071021780E-01  0.13572162523E-02  0.10202843306E+01  0.10200102929E+01 0.  0.
     999903    2    3    3    0    0 -0.31896667202E-01  0.51531999808E-01  0.11532269793E+00  0.13212962142E+00  0.22044677746E-01 0.  0.
         14    1    1    2    0    0  0.16305086993E-01 -0.17071021780E-01 -0.13572162523E-02  0.23645669422E-01  0.00000000000E+00 0.  1.
     999901    1    3    3    0    0  0.15591580209E-01 -0.34460978028E-01 -0.11396548168E+00  0.88815470915E+00  0.88000000000E+00 0. -1.
        -11    1    4    4    0    0 -0.12146039955E-01  0.29049567211E-01  0.79121699524E-01  0.85158135831E-01  0.51100000000E-03 0.  1.
         11    1    4    4    0    0 -0.19750627247E-01  0.22482432597E-01  0.36200998405E-01  0.46971485592E-01  0.51100000000E-03 0. -1.
</event>
<event>
 8    1  0.1074844E+005  0.1043930E+01  0.7957747E-01            NaN
         13   -1    0    0    0    0  0.00000000000E+00  0.00000000000E+00  0.74505805969E-08  0.10566000000E+00  0.10566000000E+00 0. -1.
     999900   -1    0    0    0    0 -0.00000000000E+00 -0.00000000000E+00 -0.74505805969E-08  0.93827000000E+00  0.93827000000E+00 0. -1.
     999902    2    1    2    0    0 -0.69756489191E-02  0.86607032661E-02 -0.22175272587E-01  0.10191225380E+01  0.10188205618E+01 0.  0.
     999903    2    3    3    0    0 -0.25279581764E-01  0.97145877909E-01  0.77773224015E-01  0.12886731496E+00  0.21948385889E-01 0.  0.
         14    1    1    2    0    0  0.69756489191E-02 -0.86607032661E-02  0.22175272587E-01  0.24807462047E-01  0.00000000000E+00 0. -1.
     999901    1    3    3    0    0  0.18303932845E-01 -0.88485174643E-01 -0.99948496602E-01  0.89025522299E+00  0.88000000000E+00 0. -1.
        -11    1    4    4    0    0 -0.65313836509E-02  0.51846618622E-01  0.50929648852E-01  0.72971371703E-01  0.51100000000E-03 0. -1.
         11    1    4    4    0    0 -0.18748198113E-01  0.45299259287E-01  0.26843575163E-01  0.55895943260E-01  0.51100000000E-03 0.  1.
</event>
<event>
 8    1  0.1074844E+005  0.1043930E+01  0.7957747E-01            NaN
         13   -1    0    0    0    0  0.00000000000E+00  0.00000000000E+00  0.74505805969E-08  0.10566000000E+00  0.10566000000E+00 0. -1.
     999900   -1    0    0    0    0 -0.00000000000E+00 -0.00000000000E+00 -0.74505805969E-08  0.93827000000E+00  0.93827000000E+00 0. -1.
     999902    2    1    2    0    0  0.20600097386E-01 -0.13420996610E-01  0.28915346585E-02  0.10191742303E+01  0.10188735267E+01 0.  0.
     999903    2    3    3    0    0  0.70705980498E-01 -0.71570401764E-01  0.83502679048E-01  0.13216233100E+00  0.19300938851E-01 0.  0.
         14    1    1    2    0    0 -0.20600097386E-01  0.13420996610E-01 -0.28915346585E-02  0.24755769731E-01  0.00000000000E+00 0.  1.
     999901    1    3    3    0    0 -0.50105883112E-01  0.58149405154E-01 -0.80611144390E-01  0.88701189927E+00  0.88000000000E+00 0.  1.
        -11    1    4    4    0    0  0.21717352827E-01 -0.16221913385E-01  0.13209263022E-01  0.30158574871E-01  0.51100000000E-03 0. -1.
         11    1    4    4    0    0  0.48988627671E-01 -0.55348488379E-01  0.70293416026E-01  0.10200375613E+00  0.51100000000E-03 0.  1.
</event>
<event>
 8    1  0.1074844E+005  0.1043930E+01  0.7957747E-01            NaN
         13   -1    0    0    0    0  0.00000000000E+00  0.00000000000E+00  0.74505805969E-08  0.10566000000E+00  0.10566000000E+00 0. -1.
     999900   -1    0    0    0    0 -0.00000000000E+00 -0.00000000000E+00 -0.74505805969E-08  0.93827000000E+00  0.93827000000E+00 0. -1.
     999902    2    1    2    0    0  0.37129818396E-02 -0.43212699851E-02  0.22322217456E-01  0.10208921833E+01  0.10206322104E+01 0.  0.
     999903    2    3    3    0    0  0.41387413995E-01 -0.10761976300E+00  0.63342256582E-01  0.13310133789E+00  0.20218636267E-01 0.  0.
         14    1    1    2    0    0 -0.37129818396E-02  0.43212699851E-02 -0.22322217456E-01  0.23037816749E-01  0.00000000000E+00 0.  1.
     999901    1    3    3    0    0 -0.37674432155E-01  0.10329849302E+00 -0.41020039126E-01  0.88779084536E+00  0.88000000000E+00 0. -1.
        -11    1    4    4    0    0  0.25870258557E-01 -0.44390039464E-01  0.34512432649E-01  0.61896001565E-01  0.51100000000E-03 0.  1.
         11    1    4    4    0    0  0.15517155438E-01 -0.63229723541E-01  0.28829823934E-01  0.71205336324E-01  0.51100000000E-03 0. -1.
</event>
<event>
 8    1  0.1074844E+005  0.1043930E+01  0.7957747E-01            NaN
         13   -1    0    0    0    0  0.00000000000E+00  0.00000000000E+00  0.74505805969E-08  0.10566000000E+00  0.10566000000E+00 0.  1.
     999900   -1    0    0    0    0 -0.00000000000E+00 -0.00000000000E+00 -0.74505805969E-08  0.93827000000E+00  0.93827000000E+00 0. -1.
     999902    2    1    2    0    0  0.26192253747E-02  0.22931875583E-01  0.10361277539E-01  0.10186300527E+01  0.10183158140E+01 0.  0.
     999903    2    3    3    0    0 -0.17934681167E-01  0.12911066210E+00  0.14777704413E-02  0.13196477515E+00  0.20525647789E-01 0.  0.
         14    1    1    2    0    0 -0.26192253747E-02 -0.22931875583E-01 -0.10361277539E-01  0.25299947264E-01  0.00000000000E+00 0. -1.
     999901    1    3    3    0    0  0.20553906542E-01 -0.10617878652E+00  0.88835070976E-02  0.88666527759E+00  0.88000000000E+00 0.  1.
        -11    1    4    4    0    0 -0.15856207105E-01  0.79571802934E-01  0.96538163293E-02  0.81710148798E-01  0.51100000000E-03 0. -1.
         11    1    4    4    0    0 -0.20784740624E-02  0.49538859169E-01 -0.81760458880E-02  0.50254626350E-01  0.51100000000E-03 0.  1.
</event>
<event>
 8    1  0.1074844E+005  0.1043930E+01  0.7957747E-01            NaN
         13   -1    0    0    0    0  0.00000000000E+00  0.00000000000E+00  0.74505805969E-08  0.10566000000E+00  0.10566000000E+00 0. -1.
     999900   -1    0    0    0    0 -0.00000000000E+00 -0.00000000000E+00 -0.74505805969E-08  0.93827000000E+00  0.93827000000E+00 0. -1.
     999902    2    1    2    0    0  0.19670040967E-01 -0.43723933672E-02  0.13574363093E-01  0.10196340812E+01  0.10193445776E+01 0.  0.
     999903    2    3    3    0    0  0.12926248472E+00  0.16847843317E-01 -0.68683606768E-02  0.13234680694E+00  0.21814287661E-01 0.  0.
         14    1    1    2    0    0 -0.19670040967E-01  0.43723933672E-02 -0.13574363093E-01  0.24295918768E-01  0.00000000000E+00 0.  1.
     999901    1    3    3    0    0 -0.10959244376E+00 -0.21220236684E-01  0.20442723769E-01  0.88728727430E+00  0.88000000000E+00 0.  1.
        -11    1    4    4    0    0  0.91648683146E-01  0.13462141153E-01 -0.14648193630E-01  0.93784545979E-01  0.51100000000E-03 0. -1.
         11    1    4    4    0    0  0.37613801578E-01  0.33857021638E-02  0.77798329537E-02  0.38562260957E-01  0.51100000000E-03 0.  1.
</event>
<event>
 8    1  0.1074844E+005  0.1043930E+01  0.7957747E-01            NaN
         13   -1    0    0    0    0  0.00000000000E+00  0.00000000000E+00  0.74505805969E-08  0.10566000000E+00  0.10566000000E+00 0. -1.
     999900   -1    0    0    0    0 -0.00000000000E+00 -0.00000000000E+00 -0.74505805969E-08  0.93827000000E+00  0.93827000000E+00 0.  1.
     999902    2    1    2    0    0 -0.19715813802E-01  0.94558034769E-02  0.17925481529E-02  0.10219905660E+01  0.10217550481E+01 0.  0.
     999903    2    3    3    0    0 -0.20849002410E-01 -0.61360629293E-01 -0.11362165457E+00  0.13163294719E+00  0.14749395589E-01 0.  0.
         14    1    1    2    0    0  0.19715813802E-01 -0.94558034769E-02 -0.17925481529E-02  0.21939433952E-01  0.00000000000E+00 0. -1.
     999901    1    3    3    0    0  0.11331886080E-02  0.70816432770E-01  0.11541420272E+00  0.89035761886E+00  0.88000000000E+00 0. -1.
        -11    1    4    4    0    0 -0.89144049516E-02 -0.23047651379E-01 -0.57978991906E-01  0.63027656415E-01  0.51100000000E-03 0.  1.
         11    1    4    4    0    0 -0.11934597458E-01 -0.38312977914E-01 -0.55642662664E-01  0.68605290776E-01  0.51100000000E-03 0. -1.
</event>
<event>
 8    1  0.1074844E+005  0.1043930E+01  0.7957747E-01            NaN
         13   -1    0    0    0    0  0.00000000000E+00  0.00000000000E+00  0.74505805969E-08  0.10566000000E+00  0.10566000000E+00 0.  1.
     999900   -1    0    0    0    0 -0.00000000000E+00 -0.00000000000E+00 -0.74505805969E-08  0.93827000000E+00  0.93827000000E+00 0.  1.
     999902    2    1    2    0    0  0.15751371269E-01  0.50763936297E-02  0.17828462063E-01  0.10196045087E+01  0.10193142914E+01 0.  0.
     999903    2    3    3    0    0 -0.73031308283E-01  0.94271644588E-02 -0.10146889373E+00  0.12711744854E+00  0.20987279681E-01 0.  0.
         14    1    1    2    0    0 -0.15751371269E-01 -0.50763936297E-02 -0.17828462063E-01  0.24325491334E-01  0.00000000000E+00 0. -1.
     999901    1    3    3    0    0  0.88782679553E-01 -0.43507708292E-02  0.11929735579E+00  0.89248706013E+00  0.88000000000E+00 0. -1.
        -11    1    4    4    0    0 -0.32245946997E-01 -0.57520435485E-02 -0.38165567627E-01  0.50296707407E-01  0.51100000000E-03 0. -1.
         11    1    4    4    0    0 -0.40785361287E-01  0.15179208007E-01 -0.63303326104E-01  0.76820741131E-01  0.51100000000E-03 0.  1.
</event>
<event>
 8    1  0.1074844E+005  0.1043930E+01  0.7957747E-01            NaN
         13   -1    0    0    0    0  0.00000000000E+00  0.00000000000E+00  0.74505805969E-08  0.10566000000E+00  0.10566000000E+00 0. -1.
     999900   -1    0    0    0    0 -0.00000000000E+00 -0.00000000000E+00 -0.74505805969E-08  0.93827000000E+00  0.93827000000E+00 0. -1.
     999902    2    1    2    0    0 -0.93620142654E-02  0.20449713147E-01  0.78378348656E-02  0.10201125750E+01  0.10198344944E+01 0.  0.
     999903    2    3    3    0    0  0.68826379881E-01  0.85573441416E-01 -0.69921497674E-01  0.13084262792E+00  0.13072604946E-01 0.  0.
         14    1    1    2    0    0  0.93620142654E-02 -0.20449713147E-01 -0.78378348656E-02  0.23817425013E-01  0.00000000000E+00 0.  1.
     999901    1    3    3    0    0 -0.78188394147E-01 -0.65123728269E-01  0.77759332540E-01  0.88926994707E+00  0.88000000000E+00 0.  1.
        -11    1    4    4    0    0  0.93408346598E-02  0.19535862589E-01 -0.12125988185E-01  0.24823412934E-01  0.51100000000E-03 0. -1.
         11    1    4    4    0    0  0.59485545221E-01  0.66037578827E-01 -0.57795509489E-01  0.10601921498E+00  0.51100000000E-03 0.  1.
</event>
<event>
 8    1  0.1074844E+005  0.1043930E+01  0.7957747E-01            NaN
         13   -1    0    0    0    0  0.00000000000E+00  0.00000000000E+00  0.74505805969E-08  0.10566000000E+00  0.10566000000E+00 0.  1.
     999900   -1    0    0    0    0 -0.00000000000E+00 -0.00000000000E+00 -0.74505805969E-08  0.93827000000E+00  0.93827000000E+00 0.  1.
     999902    2    1    2    0    0  0.38512684979E-02 -0.62466202689E-02  0.22805954203E-01  0.10199724525E+01  0.10196910512E+01 0.  0.
     999903    2    3    3    0    0 -0.75355287398E-01 -0.10089443617E+00 -0.25557802376E-01  0.13004496082E+00  0.20009597248E-01 0.  0.
         14    1    1    2    0    0 -0.38512684979E-02  0.62466202689E-02 -0.22805954203E-01  0.23957547473E-01  0.00000000000E+00 0. -1.
     999901    1    3    3    0    0  0.79206555896E-01  0.94647815903E-01  0.48363756579E-01  0.88992749171E+00  0.88000000000E+00 0. -1.
        -11    1    4    4    0    0 -0.48299422650E-01 -0.58342799090E-01 -0.24499166945E-01  0.79606449086E-01  0.51100000000E-03 0.  1.
         11    1    4    4    0    0 -0.27055864748E-01 -0.42551637082E-01 -0.10586354312E-02  0.50438511731E-01  0.51100000000E-03 0. -1.
</event>
<event>
 8    1  0.1074844E+005  0.1043930E+01  0.7957747E-01            NaN
         13   -1    0    0    0    0  0.00000000000E+00  0.00000000000E+00  0.74505805969E-08  0.10566000000E+00  0.10566000000E+00 0. -1.
     999900   -1    0    0    0    0 -0.00000000000E+00 -0.00000000000E+00 -0.74505805969E-08  0.93827000000E+00  0.93827000000E+00 0. -1.
     999902    2    1    2    0    0 -0.15101972724E-02 -0.18102122437E-01 -0.14652202922E-01  0.10205921641E+01  0.10203252966E+01 0.  0.
     999903    2    3    3    0    0 -0.50379727994E-01 -0.96586587383E-01  0.71000442922E-01  0.13161273917E+00  0.20341198609E-01 0.  0.
         14    1    1    2    0    0  0.15101972724E-02  0.18102122437E-01  0.14652202922E-01  0.23337835868E-01  0.00000000000E+00 0. -1.
     999901    1    3    3    0    0  0.48869530722E-01  0.78484464946E-01 -0.85652645844E-01  0.88897942496E+00  0.88000000000E+00 0. -1.
        -11    1    4    4    0    0 -0.14719307835E-01 -0.19760658395E-01  0.75300914677E-02  0.25770235580E-01  0.51100000000E-03 0. -1.
         11    1    4    4    0    0 -0.35660420159E-01 -0.76825928988E-01  0.63470351455E-01  0.10584250359E+00  0.51100000000E-03 0.  1.
</event>
<event>
 8    1  0.1074844E+005  0.1043930E+01  0.7957747E-01            NaN
         13   -1    0    0    0    0  0.00000000000E+00  0.00000000000E+00  0.74505805969E-08  0.10566000000E+00  0.10566000000E+00 0. -1.
     999900   -1    0    0    0    0 -0.00000000000E+00 -0.00000000000E+00 -0.74505805969E-08  0.93827000000E+00  0.93827000000E+00 0.  1.
     999902    2    1    2    0    0  0.12291355042E-01 -0.12190788646E-02  0.19863477659E-01  0.10205393757E+01  0.10202712855E+01 0.  0.
     999903    2    3    3    0    0  0.83095258675E-01 -0.79614654791E-01 -0.58793485176E-01  0.13073828728E+00  0.19811880001E-01 0.  0.
         14    1    1    2    0    0 -0.12291355042E-01  0.12190788646E-02 -0.19863477659E-01  0.23390624334E-01  0.00000000000E+00 0.  1.
     999901    1    3    3    0    0 -0.70803903633E-01  0.78395575926E-01  0.78656962835E-01  0.88980108839E+00  0.88000000000E+00 0. -1.
        -11    1    4    4    0    0  0.54469948220E-01 -0.55946301319E-01 -0.49480702596E-01  0.92442224879E-01  0.51100000000E-03 0. -1.
         11    1    4    4    0    0  0.28625310456E-01 -0.23668353472E-01 -0.93127825806E-02  0.38296062398E-01  0.51100000000E-03 0.  1.
</event>
<event>
 8    1  0.1074844E+005  0.1043930E+01  0.7957747E-01            NaN
         13   -1    0    0    0    0  0.00000000000E+00  0.00000000000E+00  0.74505805969E-08  0.10566000000E+00  0.10566000000E+00 0.  1.
     999900   -1    0    0    0    0 -0.00000000000E+00 -0.00000000000E+00 -0.74505805969E-08  0.93827000000E+00  0.93827000000E+00 0.  1.
     999902    2    1    2    0    0 -0.12595040620E-01 -0.11889556320E-01 -0.16480214343E-01  0.10200219666E+01  0.10197417409E+01 0.  0.
     999903    2    3    3    0    0 -0.79956745705E-01 -0.92775531858E-01  0.44138173034E-01  0.13167815405E+00  0.19763032172E-01 0.  0.
         14    1    1    2    0    0  0.12595040620E-01  0.11889556320E-01  0.16480214343E-01  0.23908033430E-01  0.00000000000E+00 0.  1.
     999901    1    3    3    0    0  0.67361705084E-01  0.80885975538E-01 -0.60618387377E-01  0.88834381252E+00  0.88000000000E+00 0.  1.
        -11    1    4    4    0    0 -0.48736789224E-01 -0.69235211718E-01  0.25997370801E-01  0.88571516726E-01  0.51100000000E-03 0. -1.
         11    1    4    4    0    0 -0.31219956481E-01 -0.23540320139E-01  0.18140802233E-01  0.43106637326E-01  0.51100000000E-03 0.  1.
</event>
<event>
 8    1  0.1074844E+005  0.1043930E+01  0.7957747E-01            NaN
         13   -1    0    0    0    0  0.00000000000E+00  0.00000000000E+00  0.74505805969E-08  0.10566000000E+00  0.10566000000E+00 0.  1.
     999900   -1    0    0    0    0 -0.00000000000E+00 -0.00000000000E+00 -0.74505805969E-08  0.93827000000E+00  0.93827000000E+00 0.  1.
     999902    2    1    2    0    0  0.47968806724E-02 -0.21577112297E-01 -0.82258536976E-02  0.10203451212E+01  0.10200725071E+01 0.  0.
     999903    2    3    3    0    0 -0.11465803735E+00 -0.59986248570E-01  0.82430350037E-02  0.13129171251E+00  0.20609478457E-01 0.  0.
         14    1    1    2    0    0 -0.47968806724E-02  0.21577112297E-01  0.82258536976E-02  0.23584878806E-01  0.00000000000E+00 0.  1.
     999901    1    3    3    0    0  0.11945491802E+00  0.38409136274E-01 -0.16468888701E-01  0.88905340868E+00  0.88000000000E+00 0. -1.
        -11    1    4    4    0    0 -0.67242355313E-02 -0.21030221214E-02 -0.41454827526E-02  0.81904941106E-02  0.51100000000E-03 0.  1.
         11    1    4    4    0    0 -0.10793380182E+00 -0.57883226449E-01  0.12388517756E-01  0.12310121840E+00  0.51100000000E-03 0. -1.
</event>
<event>
 8    1  0.1074844E+005  0.1043930E+01  0.7957747E-01            NaN
         13   -1    0    0    0    0  0.00000000000E+00  0.00000000000E+00  0.74505805969E-08  0.10566000000E+00  0.10566000000E+00 0. -1.
     999900   -1    0    0    0    0 -0.00000000000E+00 -0.00000000000E+00 -0.74505805969E-08  0.93827000000E+00  0.93827000000E+00 0. -1.
     999902    2    1    2    0    0 -0.14837748557E-01 -0.15237297814E-01 -0.14375823680E-01  0.10182590372E+01  0.10179353950E+01 0.  0.
     999903    2    3    3    0    0 -0.74652487474E-01  0.10124466030E+00 -0.17678383356E-01  0.12856428250E+00  0.19818536078E-01 0.  0.
         14    1    1    2    0    0  0.14837748557E-01  0.15237297814E-01  0.14375823680E-01  0.25670962845E-01  0.00000000000E+00 0. -1.
     999901    1    3    3    0    0  0.59814738917E-01 -0.11648195811E+00  0.33025596762E-02  0.88969475465E+00  0.88000000000E+00 0.  1.
        -11    1    4    4    0    0 -0.53900553849E-01  0.75865230382E-01 -0.21613044371E-01  0.95541549570E-01  0.51100000000E-03 0.  1.
         11    1    4    4    0    0 -0.20751933624E-01  0.25379429916E-01  0.39346610153E-02  0.33022732932E-01  0.51100000000E-03 0. -1.
</event>
<event>
 8    1  0.1074844E+005  0.1043930E+01  0.7957747E-01            NaN
         13   -1    0    0    0    0  0.00000000000E+00  0.00000000000E+00  0.74505805969E-08  0.10566000000E+00  0.10566000000E+00 0.  1.
     999900   -1    0    0    0    0 -0.00000000000E+00 -0.00000000000E+00 -0.74505805969E-08  0.93827000000E+00  0.93827000000E+00 0. -1.
     999902    2    1    2    0    0 -0.22649350604E-01  0.20631432470E-02 -0.64675049610E-02  0.10202851641E+01  0.10200111460E+01 0.  0.
     999903    2    3    3    0    0  0.97255719253E-01 -0.67122619116E-01 -0.46701062389E-01  0.12855502859E+00  0.19526526133E-01 0.  0.
         14    1    1    2    0    0  0.22649350604E-01 -0.20631432470E-02  0.64675049610E-02  0.23644835869E-01  0.00000000000E+00 0.  1.
     999901    1    3    3    0    0 -0.11990506986E+00  0.69185762363E-01  0.40233557428E-01  0.89173013554E+00  0.88000000000E+00 0.  1.
        -11    1    4    4    0    0  0.69038481144E-01 -0.37174476470E-01 -0.34212411257E-01  0.85551176406E-01  0.51100000000E-03 0. -1.
         11    1    4    4    0    0  0.28217238109E-01 -0.29948142646E-01 -0.12488651133E-01  0.43003852183E-01  0.51100000000E-03 0.  1.
</event>
<event>
 8    1  0.1074844E+005  0.1043930E+01  0.7957747E-01            NaN
         13   -1    0    0    0    0  0.00000000000E+00  0.00000000000E+00  0.74505805969E-08  0.10566000000E+00  0.10566000000E+00 0.  1.
     999900   -1    0    0    0    0 -0.00000000000E+00 -0.00000000000E+00 -0.74505805969E-08  0.93827000000E+00  0.93827000000E+00 0. -1.
     999902    2    1    2    0    0 -0.21685530757E-01 -0.10393475146E-01  0.18930971957E-03  0.10198816652E+01  0.10195981015E+01 0.  0.
     999903    2    3    3    0    0 -0.47994094282E-01  0.85465052932E-01 -0.83483520890E-01  0.13034125546E+00  0.20288820990E-01 0.  0.
         14    1    1    2    0    0  0.21685530757E-01  0.10393475146E-01 -0.18930971957E-03  0.24048334829E-01  0.00000000000E+00 0. -1.
     999901    1    3    3    0    0  0.26308563525E-01 -0.95858528078E-01  0.83672830610E-01  0.88954040971E+00  0.88000000000E+00 0.  1.
        -11    1    4    4    0    0 -0.25463134685E-01  0.61776596855E-01 -0.49304505477E-01  0.83041643338E-01  0.51100000000E-03 0.  1.
         11    1    4    4    0    0 -0.22530959597E-01  0.23688456077E-01 -0.34179015413E-01  0.47299612126E-01  0.51100000000E-03 0. -1.
</event>
<event>
 8    1  0.1074844E+005  0.1043930E+01  0.7957747E-01            NaN
         13   -1    0    0    0    0  0.00000000000E+00  0.00000000000E+00  0.74505805969E-08  0.10566000000E+00  0.10566000000E+00 0.  1.
     999900   -1    0    0    0    0 -0.00000000000E+00 -0.00000000000E+00 -0.74505805969E-08  0.93827000000E+00  0.93827000000E+00 0.  1.
     999902    2    1    2    0    0 -0.14747550193E-01  0.17525730826E-01  0.36432002965E-02  0.10207370186E+01  0.10204734915E+01 0.  0.
     999903    2    3    3    0    0 -0.32790832537E-01 -0.92367701366E-01 -0.82735228091E-01  0.12952247689E+00  0.17997863688E-01 0.  0.
         14    1    1    2    0    0  0.14747550193E-01 -0.17525730826E-01 -0.36432002965E-02  0.23192981397E-01  0.00000000000E+00 0.  1.
     999901    1    3    3    0    0  0.18043282344E-01  0.10989343219E+00  0.86378428387E-01  0.89121454172E+00  0.88000000000E+00 0.  1.
        -11    1    4    4    0    0 -0.11959006767E-01 -0.27035056576E-01 -0.35763216902E-01  0.46402380663E-01  0.51100000000E-03 0. -1.
         11    1    4    4    0    0 -0.20831825770E-01 -0.65332644789E-01 -0.46972011189E-01  0.83120096223E-01  0.51100000000E-03 0.  1.
</event>
<event>
 8    1  0.1074844E+005  0.1043930E+01  0.7957747E-01            NaN
         13   -1    0    0    0    0  0.00000000000E+00  0.00000000000E+00  0.74505805969E-08  0.10566000000E+00  0.10566000000E+00 0. -1.
     999900   -1    0    0    0    0 -0.00000000000E+00 -0.00000000000E+00 -0.74505805969E-08  0.93827000000E+00  0.93827000000E+00 0.  1.
     999902    2    1    2    0    0 -0.11234335530E-01  0.10162097015E-01  0.18276232592E-01  0.10201918622E+01  0.10199156516E+01 0.  0.
     999903    2    3    3    0    0 -0.51062029618E-01 -0.11778905068E+00  0.21977243307E-02  0.12990187578E+00  0.19699644897E-01 0.  0.
         14    1    1    2    0    0  0.11234335530E-01 -0.10162097015E-01 -0.18276232592E-01  0.23738137844E-01  0.00000000000E+00 0.  1.
     999901    1    3    3    0    0  0.39827694089E-01  0.12795114770E+00  0.16078508262E-01  0.89028998638E+00  0.88000000000E+00 0.  1.
        -11    1    4    4    0    0 -0.44152706566E-01 -0.89023551403E-01 -0.48326051277E-02  0.99490046712E-01  0.51100000000E-03 0.  1.
         11    1    4    4    0    0 -0.69093230523E-02 -0.28765499281E-01  0.70303294583E-02  0.30411829068E-01  0.51100000000E-03 0. -1.
</event>
<event>
 8    1  0.1074844E+005  0.1043930E+01  0.7957747E-01            NaN
         13   -1    0    0    0    0  0.00000000000E+00  0.00000000000E+00  0.74505805969E-08  0.10566000000E+00  0.10566000000E+00 0. -1.
     999900   -1    0    0    0    0 -0.00000000000E+00 -0.00000000000E+00 -0.74505805969E-08  0.93827000000E+00  0.93827000000E+00 0.  1.
     999902    2    1    2    0    0  0.60779026944E-02 -0.15447365504E-01 -0.16838148664E-01  0.10202850163E+01  0.10200109947E+01 0.  0.
     999903    2    3    3    0    0 -0.12024201351E-01  0.54441314307E-01  0.11316618229E+00  0.12780911201E+00  0.20497467547E-01 0.  0.
         14    1    1    2    0    0 -0.60779026944E-02  0.15447365504E-01  0.16838148664E-01  0.23644983667E-01  0.00000000000E+00 0. -1.
     999901    1    3    3    0    0  0.18102104046E-01 -0.69888679812E-01 -0.13000433096E+00  0.89247590433E+00  0.88000000000E+00 0.  1.
        -11    1    4    4    0    0 -0.80234346981E-02  0.53083389402E-01  0.94713889419E-01  0.10887241939E+00  0.51100000000E-03 0. -1.
         11    1    4    4    0    0 -0.40007666533E-02  0.13579249050E-02  0.18452292872E-01  0.18936692613E-01  0.51100000000E-03 0.  1.
</event>
<event>
 8    1  0.1074844E+005  0.1043930E+01  0.7957747E-01            NaN
         13   -1    0    0    0    0  0.00000000000E+00  0.00000000000E+00  0.74505805969E-08  0.10566000000E+00  0.10566000000E+00 0.  1.
     999900   -1    0    0    0    0 -0.00000000000E+00 -0.00000000000E+00 -0.74505805969E-08  0.93827000000E+00  0.93827000000E+00 0. -1.
     999902    2    1    2    0    0  0.13621691337E-01  0.26215105119E-02 -0.19002141504E-01  0.10204033306E+01  0.10201320762E+01 0.  0.
     999903    2    3    3    0    0  0.59025669545E-01  0.47076571865E-01 -0.10845209957E+00  0.13358933164E+00  0.19596385985E-01 0.  0.
         14    1    1    2    0    0 -0.13621691337E-01 -0.26215105119E-02  0.19002141504E-01  0.23526669420E-01  0.00000000000E+00 0.  1.
     999901    1    3    3    0    0 -0.45403978208E-01 -0.44455061353E-01  0.89449958065E-01  0.88681399894E+00  0.88000000000E+00 0.  1.
        -11    1    4    4    0    0  0.29346024351E-01  0.35407022213E-01 -0.67589241539E-01  0.81752144070E-01  0.51100000000E-03 0.  1.
         11    1    4    4    0    0  0.29679645195E-01  0.11669549651E-01 -0.40862858029E-01  0.51837187571E-01  0.51100000000E-03 0. -1.
</event>
<event>
 8    1  0.1074844E+005  0.1043930E+01  0.7957747E-01            NaN
         13   -1    0    0    0    0  0.00000000000E+00  0.00000000000E+00  0.74505805969E-08  0.10566000000E+00  0.10566000000E+00 0. -1.
     999900   -1    0    0    0    0 -0.00000000000E+00 -0.00000000000E+00 -0.74505805969E-08  0.93827000000E+00  0.93827000000E+00 0. -1.
     999902    2    1    2    0    0  0.88501112310E-02  0.40773757946E-02 -0.21311545073E-01  0.10204964468E+01  0.10202273602E+01 0.  0.
     999903    2    3    3    0    0 -0.47736951514E-01 -0.44292823838E-01  0.10831829553E+00  0.12789033688E+00  0.19555417093E-01 0.  0.
         14    1    1    2    0    0 -0.88501112310E-02 -0.40773757946E-02  0.21311545073E-01  0.23433553200E-01  0.00000000000E+00 0. -1.
     999901    1    3    3    0    0  0.56587062745E-01  0.48370199633E-01 -0.12962984061E+00  0.89260610992E+00  0.88000000000E+00 0.  1.
        -11    1    4    4    0    0 -0.31449779887E-01 -0.22672938310E-01  0.78887019936E-01  0.87900931861E-01  0.51100000000E-03 0. -1.
         11    1    4    4    0    0 -0.16287171627E-01 -0.21619885528E-01  0.29431275598E-01  0.39989405024E-01  0.51100000000E-03 0.  1.
</event>
<event>
 8    1  0.1074844E+005  0.1043930E+01  0.7957747E-01            NaN
         13   -1    0    0    0    0  0.00000000000E+00  0.00000000000E+00  0.74505805969E-08  0.10566000000E+00  0.10566000000E+00 0.  1.
     999900   -1    0    0    0    0 -0.00000000000E+00 -0.00000000000E+00 -0.74505805969E-08  0.93827000000E+00  0.93827000000E+00 0. -1.
     999902    2    1    2    0    0  0.18368809603E-01 -0.96655008452E-02  0.15628590105E-01  0.10179475463E+01  0.10176158996E+01 0.  0.
     999903    2    3    3    0    0 -0.88223740601E-01 -0.67334119270E-01 -0.59410915142E-01  0.12647765410E+00  0.12232257560E-01 0.  0.
         14    1    1    2    0    0 -0.18368809603E-01  0.96655008452E-02 -0.15628590105E-01  0.25982453723E-01  0.00000000000E+00 0.  1.
     999901    1    3    3    0    0  0.10659255020E+00  0.57668618425E-01  0.75039505247E-01  0.89146989218E+00  0.88000000000E+00 0.  1.
        -11    1    4    4    0    0 -0.68735536585E-01 -0.50634063311E-01 -0.39914802307E-01  0.94243487421E-01  0.51100000000E-03 0.  1.
         11    1    4    4    0    0 -0.19488204016E-01 -0.16700055959E-01 -0.19496112835E-01  0.32234166679E-01  0.51100000000E-03 0. -1.
</event>
<event>
 8    1  0.1074844E+005  0.1043930E+01  0.7957747E-01            NaN
         13   -1    0    0    0    0  0.00000000000E+00  0.00000000000E+00  0.74505805969E-08  0.10566000000E+00  0.10566000000E+00 0. -1.
     999900   -1    0    0    0    0 -0.00000000000E+00 -0.00000000000E+00 -0.74505805969E-08  0.93827000000E+00  0.93827000000E+00 0.  1.
     999902    2    1    2    0    0 -0.76506418247E-02 -0.23801890416E-01 -0.52715706166E-03  0.10189231969E+01  0.10186162874E+01 0.  0.
     999903    2    3    3    0    0  0.96075625670E-01  0.21532804234E-01  0.79276322424E-01  0.12809045812E+00  0.20694024699E-01 0.  0.
         14    1    1    2    0    0  0.76506418247E-02  0.23801890416E-01  0.52715706166E-03  0.25006803120E-01  0.00000000000E+00 0. -1.
     999901    1    3    3    0    0 -0.10372626750E+00 -0.45334694650E-01 -0.79803479486E-01  0.89083273876E+00  0.88000000000E+00 0. -1.
        -11    1    4    4    0    0  0.13705494788E-01  0.95285061561E-02  0.80686889372E-02  0.18547179816E-01  0.51100000000E-03 0. -1.
         11    1    4    4    0    0  0.82370130882E-01  0.12004298078E-01  0.71207633487E-01  0.10954327830E+00  0.51100000000E-03 0.  1.
</event>
<event>
 8    1  0.1074844E+005  0.1043930E+01  0.7957747E-01            NaN
         13   -1    0    0    0    0  0.00000000000E+00  0.00000000000E+00  0.74505805969E-08  0.10566000000E+00  0.10566000000E+00 0. -1.
     999900   -1    0    0    0    0 -0.00000000000E+00 -0.00000000000E+00 -0.74505805969E-08  0.93827000000E+00  0.93827000000E+00 0.  1.
     999902    2    1    2    0    0 -0.73972277371E-02 -0.22206403164E-01  0.29912339280E-02  0.10203335850E+01  0.10200607011E+01 0.  0.
     999903    2    3    3    0    0  0.66288156161E-01  0.51396483911E-01  0.96296711300E-01  0.12929327566E+00  0.20198423666E-01 0.  0.
         14    1    1    2    0    0  0.73972277371E-02  0.22206403164E-01 -0.29912339280E-02  0.23596414984E-01  0.00000000000E+00 0. -1.
     999901    1    3    3    0    0 -0.73685383898E-01 -0.73602887076E-01 -0.93305477372E-01  0.89104030935E+00  0.88000000000E+00 0.  1.
        -11    1    4    4    0    0  0.36426460621E-01  0.26193256278E-01  0.66176525499E-01  0.79953532480E-01  0.51100000000E-03 0. -1.
         11    1    4    4    0    0  0.29861695539E-01  0.25203227633E-01  0.30120185801E-01  0.49339743182E-01  0.51100000000E-03 0.  1.
</event>
<event>
 8    1  0.1074844E+005  0.1043930E+01  0.7957747E-01            NaN
         13   -1    0    0    0    0  0.00000000000E+00  0.00000000000E+00  0.74505805969E-08  0.10566000000E+00  0.10566000000E+00 0.  1.
     999900   -1    0    0    0    0 -0.00000000000E+00 -0.00000000000E+00 -0.74505805969E-08  0.93827000000E+00  0.93827000000E+00 0.  1.
     999902    2    1    2    0    0 -0.10603388196E-01 -0.15291052791E-01  0.15256139566E-01  0.10198676242E+01  0.10195837253E+01 0.  0.
     999903    2    3    3    0    0  0.66680274278E-01  0.96969029412E-01  0.49447628126E-01  0.12871996612E+00  0.16568346538E-01 0.  0.
         14    1    1    2    0    0  0.10603388196E-01  0.15291052791E-01 -0.15256139566E-01  0.24062375842E-01  0.00000000000E+00 0. -1.
     999901    1    3    3    0    0 -0.77283662474E-01 -0.11226008220E+00 -0.34191488560E-01  0.89114765804E+00  0.88000000000E+00 0. -1.
        -11    1    4    4    0    0  0.34041118680E-01  0.61169603370E-01  0.24069137201E-01  0.74027715243E-01  0.51100000000E-03 0.  1.
         11    1    4    4    0    0  0.32639155598E-01  0.35799426042E-01  0.25378490925E-01  0.54692250874E-01  0.51100000000E-03 0. -1.
</event>
<event>
 8    1  0.1074844E+005  0.1043930E+01  0.7957747E-01            NaN
         13   -1    0    0    0    0  0.00000000000E+00  0.00000000000E+00  0.74505805969E-08  0.10566000000E+00  0.10566000000E+00 0.  1.
     999900   -1    0    0    0    0 -0.00000000000E+00 -0.00000000000E+00 -0.74505805969E-08  0.93827000000E+00  0.93827000000E+00 0. -1.
     999902    2    1    2    0    0  0.18609173684E-01  0.95963410323E-03  0.92776871339E-02  0.10231141954E+01  0.10229024191E+01 0.  0.
     999903    2    3    3    0    0 -0.78261881732E-01  0.10087772270E+00 -0.23528131435E-01  0.13157404064E+00  0.21375643448E-01 0.  0.
         14    1    1    2    0    0 -0.18609173684E-01 -0.95963410323E-03 -0.92776871339E-02  0.20815804605E-01  0.00000000000E+00 0. -1.
     999901    1    3    3    0    0  0.96871055416E-01 -0.99918088595E-01  0.32805818569E-01  0.89154015475E+00  0.88000000000E+00 0.  1.
        -11    1    4    4    0    0 -0.52844969845E-01  0.61135764541E-01 -0.24315747467E-01  0.84390101551E-01  0.51100000000E-03 0.  1.
         11    1    4    4    0    0 -0.25416911887E-01  0.39741958157E-01  0.78761603202E-03  0.47183939090E-01  0.51100000000E-03 0. -1.
</event>
<event>
 8    1  0.1074844E+005  0.1043930E+01  0.7957747E-01            NaN
         13   -1    0    0    0    0  0.00000000000E+00  0.00000000000E+00  0.74505805969E-08  0.10566000000E+00  0.10566000000E+00 0. -1.
     999900   -1    0    0    0    0 -0.00000000000E+00 -0.00000000000E+00 -0.74505805969E-08  0.93827000000E+00  0.93827000000E+00 0.  1.
     999902    2    1    2    0    0 -0.56660586313E-02 -0.11520389148E-03 -0.22241930399E-01  0.10209774193E+01  0.10207193884E+01 0.  0.
     999903    2    3    3    0    0 -0.49814291880E-01  0.11314988121E+00 -0.42963153360E-01  0.13237885129E+00  0.19848638000E-01 0.  0.
         14    1    1    2    0    0  0.56660586313E-02  0.11520389148E-03  0.22241930399E-01  0.22952580688E-01  0.00000000000E+00 0. -1.
     999901    1    3    3    0    0  0.44148233249E-01 -0.11326508510E+00  0.20721222961E-01  0.88859856802E+00  0.88000000000E+00 0. -1.
        -11    1    4    4    0    0 -0.16415658578E-01  0.37463296955E-01 -0.24271153378E-01  0.47563877813E-01  0.51100000000E-03 0.  1.
         11    1    4    4    0    0 -0.33398633302E-01  0.75686584253E-01 -0.18691999982E-01  0.84814973481E-01  0.51100000000E-03 0. -1.
</event>
<event>
 8    1  0.1074844E+005  0.1043930E+01  0.7957747E-01            NaN
         13   -1    0    0    0    0  0.00000000000E+00  0.00000000000E+00  0.74505805969E-08  0.10566000000E+00  0.10566000000E+00 0. -1.
     999900   -1    0    0    0    0 -0.00000000000E+00 -0.00000000000E+00 -0.74505805969E-08  0.93827000000E+00  0.93827000000E+00 0.  1.
     999902    2    1    2    0    0  0.88366390917E-02 -0.15293761557E-01  0.15812109087E-01  0.10202232894E+01  0.10199478183E+01 0.  0.
     999903    2    3    3    0    0 -0.70162644545E-01  0.43370925421E-02 -0.10545813701E+00  0.12818476455E+00  0.19191355918E-01 0.  0.
         14    1    1    2    0    0 -0.88366390917E-02  0.15293761557E-01 -0.15812109087E-01  0.23706710585E-01  0.00000000000E+00 0. -1.
     999901    1    3    3    0    0  0.78999283636E-01 -0.19630854099E-01  0.12127024609E+00  0.89203852486E+00  0.88000000000E+00 0. -1.
        -11    1    4    4    0    0 -0.40239041046E-01  0.11615687132E-01 -0.56235117533E-01  0.70119570569E-01  0.51100000000E-03 0. -1.
         11    1    4    4    0    0 -0.29923603498E-01 -0.72785945901E-02 -0.49223019472E-01  0.58065193985E-01  0.51100000000E-03 0.  1.
</event>
<event>
 8    1  0.1074844E+005  0.1043930E+01  0.7957747E-01            NaN
         13   -1    0    0    0    0  0.00000000000E+00  0.00000000000E+00  0.74505805969E-08  0.10566000000E+00  0.10566000000E+00 0. -1.
     999900   -1    0    0    0    0 -0.00000000000E+00 -0.00000000000E+00 -0.74505805969E-08  0.93827000000E+00  0.93827000000E+00 0. -1.
     999902    2    1    2    0    0 -0.15138187177E-01  0.16550953488E-01  0.65718565295E-02  0.10205571938E+01  0.10202895166E+01 0.  0.
     999903    2    3    3    0    0 -0.50474131572E-01  0.10749642206E+00  0.57991607491E-01  0.13367292962E+00  0.20057588634E-01 0.  0.
         14    1    1    2    0    0  0.15138187177E-01 -0.16550953488E-01 -0.65718565295E-02  0.23372806221E-01  0.00000000000E+00 0. -1.
     999901    1    3    3    0    0  0.35335944394E-01 -0.90945468568E-01 -0.51419750961E-01  0.88688426416E+00  0.88000000000E+00 0. -1.
        -11    1    4    4    0    0 -0.42705528986E-01  0.82445559190E-01  0.53182035448E-01  0.10700290861E+00  0.51100000000E-03 0.  1.
         11    1    4    4    0    0 -0.77686025859E-02  0.25050862866E-01  0.48095720430E-02  0.26670021011E-01  0.51100000000E-03 0. -1.
</event>
<event>
 8    1  0.1074844E+005  0.1043930E+01  0.7957747E-01            NaN
         13   -1    0    0    0    0  0.00000000000E+00  0.00000000000E+00  0.74505805969E-08  0.10566000000E+00  0.10566000000E+00 0.  1.
     999900   -1    0    0    0    0 -0.00000000000E+00 -0.00000000000E+00 -0.74505805969E-08  0.93827000000E+00  0.93827000000E+00 0. -1.
     999902    2    1    2    0    0  0.15172851072E-01  0.38722989234E-02  0.18205175192E-01  0.10199167013E+01  0.10196339731E+01 0.  0.
     999903    2    3    3    0    0 -0.82846203074E-01 -0.46795569779E-01  0.86844738847E-01  0.13037392126E+00  0.20050734780E-01 0.  0.
         14    1    1    2    0    0 -0.15172851072E-01 -0.38722989234E-02 -0.18205175192E-01  0.24013298657E-01  0.00000000000E+00 0. -1.
     999901    1    3    3    0    0  0.98019054146E-01  0.50667868702E-01 -0.68639563655E-01  0.88954278008E+00  0.88000000000E+00 0. -1.
        -11    1    4    4    0    0 -0.30482311204E-01 -0.22157235255E-01  0.46358442363E-01  0.59745130929E-01  0.51100000000E-03 0. -1.
         11    1    4    4    0    0 -0.52363891870E-01 -0.24638334524E-01  0.40486296485E-01  0.70628790333E-01  0.51100000000E-03 0.  1.
</event>
<event>
 8    1  0.1074844E+005  0.1043930E+01  0.7957747E-01            NaN
         13   -1    0    0    0    0  0.00000000000E+00  0.00000000000E+00  0.74505805969E-08  0.10566000000E+00  0.10566000000E+00 0. -1.
     999900   -1    0    0    0    0 -0.00000000000E+00 -0.00000000000E+00 -0.74505805969E-08  0.93827000000E+00  0.93827000000E+00 0. -1.
     999902    2    1    2    0    0  0.20194558713E-02 -0.12013974338E-01 -0.17766220356E-01  0.10223881253E+01  0.10221611548E+01 0.  0.
     999903    2    3    3    0    0 -0.33434883529E-01  0.92006779072E-02 -0.12825736172E+00  0.13451687110E+00  0.21030783764E-01 0.  0.
         14    1    1    2    0    0 -0.20194558713E-02  0.12013974338E-01  0.17766220356E-01  0.21541874736E-01  0.00000000000E+00 0. -1.
     999901    1    3    3    0    0  0.35454339401E-01 -0.21214652245E-01  0.11049114136E+00  0.88787125416E+00  0.88000000000E+00 0.  1.
        -11    1    4    4    0    0 -0.26354968187E-01 -0.28202815531E-02 -0.88092431490E-01  0.91994977814E-01  0.51100000000E-03 0. -1.
         11    1    4    4    0    0 -0.70799153423E-02  0.12020959460E-01 -0.40164930225E-01  0.42521893286E-01  0.51100000000E-03 0.  1.
</event>
<event>
 8    1  0.1074844E+005  0.1043930E+01  0.7957747E-01            NaN
         13   -1    0    0    0    0  0.00000000000E+00  0.00000000000E+00  0.74505805969E-08  0.10566000000E+00  0.10566000000E+00 0. -1.
     999900   -1    0    0    0    0 -0.00000000000E+00 -0.00000000000E+00 -0.74505805969E-08  0.93827000000E+00  0.93827000000E+00 0. -1.
     999902    2    1    2    0    0  0.12115149130E-01 -0.13994100378E-01  0.11597219836E-01  0.10220872165E+01  0.10218537914E+01 0.  0.
     999903    2    3    3    0    0  0.83396499055E-02 -0.31814423302E-01  0.12902326877E+00  0.13410033861E+00  0.15943325925E-01 0.  0.
         14    1    1    2    0    0 -0.12115149130E-01  0.13994100378E-01 -0.11597219836E-01  0.21842783517E-01  0.00000000000E+00 0.  1.
     999901    1    3    3    0    0  0.37754992243E-02  0.17820322923E-01 -0.11742604893E+00  0.88798687787E+00  0.88000000000E+00 0. -1.
        -11    1    4    4    0    0 -0.43341767138E-02 -0.14073786197E-01  0.50801253030E-01  0.52895037349E-01  0.51100000000E-03 0. -1.
         11    1    4    4    0    0  0.12673826619E-01 -0.17740637105E-01  0.78222015738E-01  0.81205301263E-01  0.51100000000E-03 0.  1.
</event>
<event>
 8    1  0.1074844E+005  0.1043930E+01  0.7957747E-01            NaN
         13   -1    0    0    0    0  0.00000000000E+00  0.00000000000E+00  0.74505805969E-08  0.10566000000E+00  0.10566000000E+00 0. -1.
     999900   -1    0    0    0    0 -0.00000000000E+00 -0.00000000000E+00 -0.74505805969E-08  0.93827000000E+00  0.93827000000E+00 0.  1.
     999902    2    1    2    0    0  0.40837970250E-02  0.16104581836E-01  0.10666546040E-01  0.10241863894E+01  0.10239960694E+01 0.  0.
     999903    2    3    3    0    0  0.11080423206E+00 -0.58486485715E-01  0.43321157804E-01  0.13400696802E+00  0.19567777360E-01 0.  0.
         14    1    1    2    0    0 -0.40837970250E-02 -0.16104581836E-01 -0.10666546040E-01  0.19743610578E-01  0.00000000000E+00 0.  1.
     999901    1    3    3    0    0 -0.10672043504E+00  0.74591067551E-01 -0.32654611764E-01  0.89017942140E+00  0.88000000000E+00 0.  1.
        -11    1    4    4    0    0  0.21791992090E-01 -0.19631061621E-01  0.14330246665E-01  0.32647918619E-01  0.51100000000E-03 0.  1.
         11    1    4    4    0    0  0.89012239972E-01 -0.38855424094E-01  0.28990911139E-01  0.10135904940E+00  0.51100000000E-03 0. -1.
</event>
<event>
 8    1  0.1074844E+005  0.1043930E+01  0.7957747E-01            NaN
         13   -1    0    0    0    0  0.00000000000E+00  0.00000000000E+00  0.74505805969E-08  0.10566000000E+00  0.10566000000E+00 0. -1.
     999900   -1    0    0    0    0 -0.00000000000E+00 -0.00000000000E+00 -0.74505805969E-08  0.93827000000E+00  0.93827000000E+00 0. -1.
     999902    2    1    2    0    0 -0.20164199928E-01 -0.91893889020E-02  0.39561082482E-02  0.10214202106E+01  0.10211721481E+01 0.  0.
     999903    2    3    3    0    0 -0.40641669025E-01 -0.21196648107E-01  0.12324512987E+00  0.13305464861E+00  0.20325706133E-01 0.  0.
         14    1    1    2    0    0  0.20164199928E-01  0.91893889020E-02 -0.39561082482E-02  0.22509789417E-01  0.00000000000E+00 0.  1.
     999901    1    3    3    0    0  0.20477469097E-01  0.12007259205E-01 -0.11928902162E+00  0.88836556197E+00  0.88000000000E+00 0. -1.
        -11    1    4    4    0    0 -0.15783964689E-01 -0.16205742507E-01  0.39146077508E-01  0.45215441353E-01  0.51100000000E-03 0.  1.
         11    1    4    4    0    0 -0.24857704336E-01 -0.49909056005E-02  0.84099052359E-01  0.87839207261E-01  0.51100000000E-03 0. -1.
</event>
<event>
 8    1  0.1074844E+005  0.1043930E+01  0.7957747E-01            NaN
         13   -1    0    0    0    0  0.00000000000E+00  0.00000000000E+00  0.74505805969E-08  0.10566000000E+00  0.10566000000E+00 0. -1.
     999900   -1    0    0    0    0 -0.00000000000E+00 -0.00000000000E+00 -0.74505805969E-08  0.93827000000E+00  0.93827000000E+00 0. -1.
     999902    2    1    2    0    0  0.20551990056E-01  0.37660203654E-02 -0.11059470066E-01  0.10202893764E+01  0.10200154570E+01 0.  0.
     999903    2    3    3    0    0 -0.90616077175E-01 -0.47839582366E-01  0.73564483056E-01  0.12777456375E+00  0.20364353452E-01 0.  0.
         14    1    1    2    0    0 -0.20551990056E-01 -0.37660203654E-02  0.11059470066E-01  0.23640623570E-01  0.00000000000E+00 0. -1.
     999901    1    3    3    0    0  0.11116806723E+00  0.51605602732E-01 -0.84623953122E-01  0.89251481268E+00  0.88000000000E+00 0. -1.
        -11    1    4    4    0    0 -0.34636344772E-02 -0.39014835498E-02  0.10021268350E-01  0.11309521565E-01  0.51100000000E-03 0. -1.
         11    1    4    4    0    0 -0.87152442698E-01 -0.43938098816E-01  0.63543214706E-01  0.11646504219E+00  0.51100000000E-03 0.  1.
</event>
<event>
 8    1  0.1085316E+005  0.1043930E+01  0.7957747E-01            NaN
         13   -1    0    0    0    0  0.00000000000E+00  0.00000000000E+00  0.74505805969E-08  0.10566000000E+00  0.10566000000E+00 0. -1.
     999900   -1    0    0    0    0 -0.00000000000E+00 -0.00000000000E+00 -0.74505805969E-08  0.93827000000E+00  0.93827000000E+00 0.  1.
     999902    2    1    2    0    0  0.12349770624E-01 -0.65054682922E-02  0.19664884123E-01  0.10198147430E+01  0.10195295800E+01 0.  0.
     999903    2    3    3    0    0  0.46463499728E-02 -0.26536108337E-01 -0.12376851060E+00  0.12794383982E+00  0.18034087660E-01 0.  0.
         14    1    1    2    0    0 -0.12349770624E-01  0.65054682922E-02 -0.19664884123E-01  0.24115256991E-01  0.00000000000E+00 0.  1.
     999901    1    3    3    0    0  0.77034206513E-02  0.20030640045E-01  0.14343339473E+00  0.89187090319E+00  0.88000000000E+00 0. -1.
        -11    1    4    4    0    0 -0.59415780125E-02 -0.17170502808E-01 -0.64643828230E-01  0.67150682537E-01  0.51100000000E-03 0. -1.
         11    1    4    4    0    0  0.10587927985E-01 -0.93656055288E-02 -0.59124682373E-01  0.60793157284E-01  0.51100000000E-03 0.  1.
</event>
<event>
 8    1  0.1074844E+005  0.1043930E+01  0.7957747E-01            NaN
         13   -1    0    0    0    0  0.00000000000E+00  0.00000000000E+00  0.74505805969E-08  0.10566000000E+00  0.10566000000E+00 0. -1.
     999900   -1    0    0    0    0 -0.00000000000E+00 -0.00000000000E+00 -0.74505805969E-08  0.93827000000E+00  0.93827000000E+00 0. -1.
     999902    2    1    2    0    0 -0.27425305627E-03  0.10094301352E-01  0.21963285578E-01  0.10197565425E+01  0.10194699848E+01 0.  0.
     999903    2    3    3    0    0 -0.98664825927E-01  0.80974481221E-01  0.24275170947E-01  0.13143787808E+00  0.19875044290E-01 0.  0.
         14    1    1    2    0    0  0.27425305627E-03 -0.10094301352E-01 -0.21963285578E-01  0.24173457508E-01  0.00000000000E+00 0.  1.
     999901    1    3    3    0    0  0.98390572870E-01 -0.70880179869E-01 -0.23118853693E-02  0.88831866441E+00  0.88000000000E+00 0.  1.
        -11    1    4    4    0    0 -0.47095277994E-01  0.45992842500E-01  0.41854631115E-02  0.65962762169E-01  0.51100000000E-03 0.  1.
         11    1    4    4    0    0 -0.51569547933E-01  0.34981638721E-01  0.20089707836E-01  0.65475115911E-01  0.51100000000E-03 0. -1.
</event>
<event>
 8    1  0.1074844E+005  0.1043930E+01  0.7957747E-01            NaN
         13   -1    0    0    0    0  0.00000000000E+00  0.00000000000E+00  0.74505805969E-08  0.10566000000E+00  0.10566000000E+00 0.  1.
     999900   -1    0    0    0    0 -0.00000000000E+00 -0.00000000000E+00 -0.74505805969E-08  0.93827000000E+00  0.93827000000E+00 0. -1.
     999902    2    1    2    0    0 -0.20418935809E-01 -0.88241095071E-02  0.70890206541E-02  0.10205836499E+01  0.10203165854E+01 0.  0.
     999903    2    3    3    0    0  0.10418611383E+00  0.15713911231E-01  0.72005722908E-01  0.12910021705E+00  0.19503040510E-01 0.  0.
         14    1    1    2    0    0  0.20418935809E-01  0.88241095071E-02 -0.70890206541E-02  0.23346350079E-01  0.00000000000E+00 0. -1.
     999901    1    3    3    0    0 -0.12460504964E+00 -0.24538020738E-01 -0.64916702254E-01  0.89148343287E+00  0.88000000000E+00 0. -1.
        -11    1    4    4    0    0  0.26956895988E-01 -0.38444827638E-02  0.14576746458E-01  0.30890078461E-01  0.51100000000E-03 0. -1.
         11    1    4    4    0    0  0.77229217841E-01  0.19558393995E-01  0.57428976451E-01  0.98210138586E-01  0.51100000000E-03 0.  1.
</event>
<event>
 8    1  0.1074844E+005  0.1043930E+01  0.7957747E-01            NaN
         13   -1    0    0    0    0  0.00000000000E+00  0.00000000000E+00  0.74505805969E-08  0.10566000000E+00  0.10566000000E+00 0. -1.
     999900   -1    0    0    0    0 -0.00000000000E+00 -0.00000000000E+00 -0.74505805969E-08  0.93827000000E+00  0.93827000000E+00 0.  1.
     999902    2    1    2    0    0  0.16798435725E-01 -0.15786100508E-01  0.40427380539E-02  0.10205263220E+01  0.10202579291E+01 0.  0.
     999903    2    3    3    0    0 -0.74902742135E-01  0.46231512449E-01 -0.91462267548E-01  0.12846326571E+00  0.19740585834E-01 0.  0.
         14    1    1    2    0    0 -0.16798435725E-01  0.15786100508E-01 -0.40427380539E-02  0.23403677981E-01  0.00000000000E+00 0. -1.
     999901    1    3    3    0    0  0.91701177860E-01 -0.62017612957E-01  0.95505005602E-01  0.89206305631E+00  0.88000000000E+00 0. -1.
        -11    1    4    4    0    0 -0.60171674269E-01  0.44034587164E-01 -0.81887755216E-01  0.11074990215E+00  0.51100000000E-03 0.  1.
         11    1    4    4    0    0 -0.14731067866E-01  0.21969252852E-02 -0.95745123319E-02  0.17713363559E-01  0.51100000000E-03 0. -1.
</event>
<event>
 8    1  0.1074844E+005  0.1043930E+01  0.7957747E-01            NaN
         13   -1    0    0    0    0  0.00000000000E+00  0.00000000000E+00  0.74505805969E-08  0.10566000000E+00  0.10566000000E+00 0.  1.
     999900   -1    0    0    0    0 -0.00000000000E+00 -0.00000000000E+00 -0.74505805969E-08  0.93827000000E+00  0.93827000000E+00 0.  1.
     999902    2    1    2    0    0 -0.47869349064E-02 -0.54347375129E-02 -0.23277808497E-01  0.10195515774E+01  0.10192600804E+01 0.  0.
     999903    2    3    3    0    0 -0.50781264954E-01 -0.11517594995E+00  0.27505609906E-01  0.13009243410E+00  0.17979057708E-01 0.  0.
         14    1    1    2    0    0  0.47869349064E-02  0.54347375129E-02  0.23277808497E-01  0.24378422551E-01  0.00000000000E+00 0.  1.
     999901    1    3    3    0    0  0.45994330048E-01  0.10974121244E+00 -0.50783418403E-01  0.88945914335E+00  0.88000000000E+00 0.  1.
        -11    1    4    4    0    0 -0.26066674297E-01 -0.48395047483E-01  0.40517454944E-02  0.55120140533E-01  0.51100000000E-03 0.  1.
         11    1    4    4    0    0 -0.24714590658E-01 -0.66780902468E-01  0.23453864412E-01  0.74972293566E-01  0.51100000000E-03 0. -1.
</event>
<event>
 8    1  0.1074844E+005  0.1043930E+01  0.7957747E-01            NaN
         13   -1    0    0    0    0  0.00000000000E+00  0.00000000000E+00  0.74505805969E-08  0.10566000000E+00  0.10566000000E+00 0. -1.
     999900   -1    0    0    0    0 -0.00000000000E+00 -0.00000000000E+00 -0.74505805969E-08  0.93827000000E+00  0.93827000000E+00 0. -1.
     999902    2    1    2    0    0 -0.21056781630E-01 -0.17468427605E-01  0.11853531039E-01  0.10141132226E+01  0.10136747940E+01 0.  0.
     999903    2    3    3    0    0  0.78501535415E-01 -0.16505006248E-01 -0.90314611847E-01  0.12262507570E+00  0.21101511384E-01 0.  0.
         14    1    1    2    0    0  0.21056781630E-01  0.17468427605E-01 -0.11853531039E-01  0.29816777386E-01  0.00000000000E+00 0.  1.
     999901    1    3    3    0    0 -0.99558317045E-01 -0.96342135652E-03  0.10216814289E+00  0.89148814692E+00  0.88000000000E+00 0.  1.
        -11    1    4    4    0    0  0.73133917298E-01 -0.14775177324E-01 -0.90065584347E-01  0.11695702770E+00  0.51100000000E-03 0. -1.
         11    1    4    4    0    0  0.53676181173E-02 -0.17298289243E-02 -0.24902749957E-03  0.56680479934E-02  0.51100000000E-03 0.  1.
</event>
<event>
 8    1  0.1074844E+005  0.1043930E+01  0.7957747E-01            NaN
         13   -1    0    0    0    0  0.00000000000E+00  0.00000000000E+00  0.74505805969E-08  0.10566000000E+00  0.10566000000E+00 0.  1.
     999900   -1    0    0    0    0 -0.00000000000E+00 -0.00000000000E+00 -0.74505805969E-08  0.93827000000E+00  0.93827000000E+00 0.  1.
     999902    2    1    2    0    0 -0.97437678404E-02 -0.19152546197E-01 -0.34940402448E-02  0.10221591627E+01  0.10219272893E+01 0.  0.
     999903    2    3    3    0    0  0.75098285234E-01 -0.10759144894E+00  0.14555451062E-01  0.13348295758E+00  0.19752632197E-01 0.  0.
         14    1    1    2    0    0  0.97437678404E-02  0.19152546197E-01  0.34940402448E-02  0.21770837255E-01  0.00000000000E+00 0.  1.
     999901    1    3    3    0    0 -0.84842053074E-01  0.88438902744E-01 -0.18049491306E-01  0.88867620516E+00  0.88000000000E+00 0. -1.
        -11    1    4    4    0    0  0.60722113833E-02 -0.21122322396E-01  0.39190678104E-02  0.22330348587E-01  0.51100000000E-03 0.  1.
         11    1    4    4    0    0  0.69026073851E-01 -0.86469126545E-01  0.10636383251E-01  0.11115260899E+00  0.51100000000E-03 0. -1.
</event>
<event>
 8    1  0.1074844E+005  0.1043930E+01  0.7957747E-01            NaN
         13   -1    0    0    0    0  0.00000000000E+00  0.00000000000E+00  0.74505805969E-08  0.10566000000E+00  0.10566000000E+00 0.  1.
     999900   -1    0    0    0    0 -0.00000000000E+00 -0.00000000000E+00 -0.74505805969E-08  0.93827000000E+00  0.93827000000E+00 0.  1.
     999902    2    1    2    0    0 -0.77167068068E-02 -0.50884440788E-02  0.20968792860E-01  0.10210142827E+01  0.10207570893E+01 0.  0.
     999903    2    3    3    0    0 -0.21398870413E-01  0.47755327036E-02 -0.12536612533E+00  0.12877081369E+00  0.19609684079E-01 0.  0.
         14    1    1    2    0    0  0.77167068068E-02  0.50884440788E-02 -0.20968792860E-01  0.22915717337E-01  0.00000000000E+00 0. -1.
     999901    1    3    3    0    0  0.13682163606E-01 -0.98639767824E-02  0.14633491819E+00  0.89224346897E+00  0.88000000000E+00 0. -1.
        -11    1    4    4    0    0 -0.22547450873E-02 -0.46020389292E-02 -0.55106048988E-01  0.55346186805E-01  0.51100000000E-03 0. -1.
         11    1    4    4    0    0 -0.19144125326E-01  0.93775716328E-02 -0.70260076346E-01  0.73424626887E-01  0.51100000000E-03 0.  1.
</event>
<event>
 8    1  0.1074844E+005  0.1043930E+01  0.7957747E-01            NaN
         13   -1    0    0    0    0  0.00000000000E+00  0.00000000000E+00  0.74505805969E-08  0.10566000000E+00  0.10566000000E+00 0. -1.
     999900   -1    0    0    0    0 -0.00000000000E+00 -0.00000000000E+00 -0.74505805969E-08  0.93827000000E+00  0.93827000000E+00 0. -1.
     999902    2    1    2    0    0 -0.28921564060E-03 -0.20595790670E-01 -0.11120201289E-01  0.10205221142E+01  0.10202536236E+01 0.  0.
     999903    2    3    3    0    0 -0.72609991447E-01  0.51327957444E-01 -0.93826686667E-01  0.13077850910E+00  0.19819213900E-01 0.  0.
         14    1    1    2    0    0  0.28921564060E-03  0.20595790670E-01  0.11120201289E-01  0.23407885760E-01  0.00000000000E+00 0. -1.
     999901    1    3    3    0    0  0.72320775806E-01 -0.71923748114E-01  0.82706485378E-01  0.88974360514E+00  0.88000000000E+00 0.  1.
        -11    1    4    4    0    0 -0.31447177231E-01  0.12978979220E-01 -0.27091654149E-01  0.43492501686E-01  0.51100000000E-03 0.  1.
         11    1    4    4    0    0 -0.41162814216E-01  0.38348978224E-01 -0.66735032518E-01  0.87286007419E-01  0.51100000000E-03 0. -1.
</event>
<event>
 8    1  0.1074844E+005  0.1043930E+01  0.7957747E-01            NaN
         13   -1    0    0    0    0  0.00000000000E+00  0.00000000000E+00  0.74505805969E-08  0.10566000000E+00  0.10566000000E+00 0.  1.
     999900   -1    0    0    0    0 -0.00000000000E+00 -0.00000000000E+00 -0.74505805969E-08  0.93827000000E+00  0.93827000000E+00 0. -1.
     999902    2    1    2    0    0 -0.11958126043E-01 -0.11619995573E-01  0.16506681087E-01  0.10204674427E+01  0.10201976818E+01 0.  0.
     999903    2    3    3    0    0 -0.10479187033E+00 -0.74959467668E-01  0.27191323659E-01  0.13325599415E+00  0.20433649091E-01 0.  0.
         14    1    1    2    0    0  0.11958126043E-01  0.11619995573E-01 -0.16506681087E-01  0.23462557322E-01  0.00000000000E+00 0. -1.
     999901    1    3    3    0    0  0.92833744288E-01  0.63339472095E-01 -0.10684642571E-01  0.88721144852E+00  0.88000000000E+00 0.  1.
        -11    1    4    4    0    0 -0.56603664550E-01 -0.32299303548E-01  0.21575224300E-01  0.68651083566E-01  0.51100000000E-03 0.  1.
         11    1    4    4    0    0 -0.48188205782E-01 -0.42660164120E-01  0.56160993589E-02  0.64604910589E-01  0.51100000000E-03 0. -1.
</event>
<event>
 8    1  0.1249533E+005  0.1043930E+01  0.7957747E-01            NaN
         13   -1    0    0    0    0  0.00000000000E+00  0.00000000000E+00  0.74505805969E-08  0.10566000000E+00  0.10566000000E+00 0.  1.
     999900   -1    0    0    0    0 -0.00000000000E+00 -0.00000000000E+00 -0.74505805969E-08  0.93827000000E+00  0.93827000000E+00 0. -1.
     999902    2    1    2    0    0 -0.36333272678E-01  0.19272703151E-02 -0.49587778773E-02  0.10072092899E+01  0.10065396878E+01 0.  0.
     999903    2    3    3    0    0 -0.32281126312E-01 -0.98033928899E-02 -0.11271316929E+00  0.12054980776E+00  0.26264424444E-01 0.  0.
         14    1    1    2    0    0  0.36333272678E-01 -0.19272703151E-02  0.49587778773E-02  0.36720710129E-01  0.00000000000E+00 0.  1.
     999901    1    3    3    0    0 -0.40521463664E-02  0.11730663205E-01  0.10775439141E+00  0.88665948211E+00  0.88000000000E+00 0.  1.
        -11    1    4    4    0    0 -0.85668476804E-02  0.65036400730E-02 -0.55144695629E-01  0.56186179710E-01  0.51100000000E-03 0. -1.
         11    1    4    4    0    0 -0.23714278632E-01 -0.16307032963E-01 -0.57568473661E-01  0.64363628049E-01  0.51100000000E-03 0.  1.
</event>
<event>
 8    1  0.1074844E+005  0.1043930E+01  0.7957747E-01            NaN
         13   -1    0    0    0    0  0.00000000000E+00  0.00000000000E+00  0.74505805969E-08  0.10566000000E+00  0.10566000000E+00 0.  1.
     999900   -1    0    0    0    0 -0.00000000000E+00 -0.00000000000E+00 -0.74505805969E-08  0.93827000000E+00  0.93827000000E+00 0. -1.
     999902    2    1    2    0    0 -0.36467059372E-02 -0.18557006780E-01 -0.15267487370E-01  0.10196245040E+01  0.10193347694E+01 0.  0.
     999903    2    3    3    0    0  0.49622843380E-01 -0.72535819412E-01  0.93271336258E-01  0.12971887231E+00  0.20089101086E-01 0.  0.
         14    1    1    2    0    0  0.36467059372E-02  0.18557006780E-01  0.15267487370E-01  0.24305495992E-01  0.00000000000E+00 0.  1.
     999901    1    3    3    0    0 -0.53269549318E-01  0.53978812632E-01 -0.10853882363E+00  0.88990563170E+00  0.88000000000E+00 0. -1.
        -11    1    4    4    0    0  0.28971680549E-01 -0.35119577047E-01  0.34871428680E-01  0.57349983653E-01  0.51100000000E-03 0.  1.
         11    1    4    4    0    0  0.20651162832E-01 -0.37416242365E-01  0.58399907577E-01  0.72368888655E-01  0.51100000000E-03 0. -1.
</event>
<event>
 8    1  0.1074844E+005  0.1043930E+01  0.7957747E-01            NaN
         13   -1    0    0    0    0  0.00000000000E+00  0.00000000000E+00  0.74505805969E-08  0.10566000000E+00  0.10566000000E+00 0.  1.
     999900   -1    0    0    0    0 -0.00000000000E+00 -0.00000000000E+00 -0.74505805969E-08  0.93827000000E+00  0.93827000000E+00 0. -1.
     999902    2    1    2    0    0  0.18488715116E-01  0.14888357601E-01  0.22362080334E-02  0.10200868374E+01  0.10198081483E+01 0.  0.
     999903    2    3    3    0    0 -0.98592036471E-01 -0.38750254789E-01 -0.68906616494E-01  0.12787256678E+00  0.19526895206E-01 0.  0.
         14    1    1    2    0    0 -0.18488715116E-01 -0.14888357601E-01 -0.22362080334E-02  0.23843162648E-01  0.00000000000E+00 0. -1.
     999901    1    3    3    0    0  0.11708075159E+00  0.53638612390E-01  0.71142824527E-01  0.89221427057E+00  0.88000000000E+00 0.  1.
        -11    1    4    4    0    0 -0.52998611033E-01 -0.30213076923E-01 -0.34220081164E-01  0.69949680946E-01  0.51100000000E-03 0.  1.
         11    1    4    4    0    0 -0.45593425438E-01 -0.85371778664E-02 -0.34686535330E-01  0.57922885833E-01  0.51100000000E-03 0. -1.
</event>
<event>
 8    1  0.1074844E+005  0.1043930E+01  0.7957747E-01            NaN
         13   -1    0    0    0    0  0.00000000000E+00  0.00000000000E+00  0.74505805969E-08  0.10566000000E+00  0.10566000000E+00 0.  1.
     999900   -1    0    0    0    0 -0.00000000000E+00 -0.00000000000E+00 -0.74505805969E-08  0.93827000000E+00  0.93827000000E+00 0. -1.
     999902    2    1    2    0    0  0.39891619939E-02  0.23124906689E-01 -0.16580712679E-01  0.10151968353E+01  0.10147901357E+01 0.  0.
     999903    2    3    3    0    0  0.87858920233E-01  0.33582283479E-01  0.81529374704E-01  0.12571997647E+00  0.17649756847E-01 0.  0.
         14    1    1    2    0    0 -0.39891619939E-02 -0.23124906689E-01  0.16580712679E-01  0.28733164736E-01  0.00000000000E+00 0.  1.
     999901    1    3    3    0    0 -0.83869758239E-01 -0.10457376790E-01 -0.98110087383E-01  0.88947685879E+00  0.88000000000E+00 0. -1.
        -11    1    4    4    0    0  0.35618679760E-01  0.58584193186E-02  0.25048349467E-01  0.43939644477E-01  0.51100000000E-03 0.  1.
         11    1    4    4    0    0  0.52240240474E-01  0.27723864161E-01  0.56481025237E-01  0.81780331997E-01  0.51100000000E-03 0. -1.
</event>
<event>
 8    1  0.1074844E+005  0.1043930E+01  0.7957747E-01            NaN
         13   -1    0    0    0    0  0.00000000000E+00  0.00000000000E+00  0.74505805969E-08  0.10566000000E+00  0.10566000000E+00 0.  1.
     999900   -1    0    0    0    0 -0.00000000000E+00 -0.00000000000E+00 -0.74505805969E-08  0.93827000000E+00  0.93827000000E+00 0. -1.
     999902    2    1    2    0    0 -0.15824468077E-01  0.11550617964E-01  0.12943432821E-01  0.10204488795E+01  0.10201786867E+01 0.  0.
     999903    2    3    3    0    0 -0.12665554292E+00  0.23954409400E-01  0.27288691748E-01  0.13329434528E+00  0.20180919287E-01 0.  0.
         14    1    1    2    0    0  0.15824468077E-01 -0.11550617964E-01 -0.12943432821E-01  0.23481120469E-01  0.00000000000E+00 0. -1.
     999901    1    3    3    0    0  0.11083107484E+00 -0.12403791437E-01 -0.14345258927E-01  0.88715453425E+00  0.88000000000E+00 0. -1.
        -11    1    4    4    0    0 -0.66558035131E-01  0.51032436171E-02  0.21068598513E-01  0.70001157849E-01  0.51100000000E-03 0. -1.
         11    1    4    4    0    0 -0.60097507791E-01  0.18851165783E-01  0.62200932342E-02  0.63293187429E-01  0.51100000000E-03 0.  1.
</event>
<event>
 8    1  0.1074844E+005  0.1043930E+01  0.7957747E-01            NaN
         13   -1    0    0    0    0  0.00000000000E+00  0.00000000000E+00  0.74505805969E-08  0.10566000000E+00  0.10566000000E+00 0.  1.
     999900   -1    0    0    0    0 -0.00000000000E+00 -0.00000000000E+00 -0.74505805969E-08  0.93827000000E+00  0.93827000000E+00 0.  1.
     999902    2    1    2    0    0  0.65857742419E-02 -0.74974323922E-02  0.21500627506E-01  0.10202263948E+01  0.10199509968E+01 0.  0.
     999903    2    3    3    0    0 -0.79010369193E-01  0.80368993919E-01 -0.57697774104E-01  0.12819523200E+00  0.20079112222E-01 0.  0.
         14    1    1    2    0    0 -0.65857742419E-02  0.74974323922E-02 -0.21500627506E-01  0.23703605169E-01  0.00000000000E+00 0. -1.
     999901    1    3    3    0    0  0.85596143435E-01 -0.87866426311E-01  0.79198401610E-01  0.89203116283E+00  0.88000000000E+00 0. -1.
        -11    1    4    4    0    0 -0.55736636646E-01  0.42842662300E-01 -0.34433207273E-01  0.78281372380E-01  0.51100000000E-03 0.  1.
         11    1    4    4    0    0 -0.23273732547E-01  0.37526331618E-01 -0.23264566830E-01  0.49913859620E-01  0.51100000000E-03 0. -1.
</event>
<event>
 8    1  0.1074844E+005  0.1043930E+01  0.7957747E-01            NaN
         13   -1    0    0    0    0  0.00000000000E+00  0.00000000000E+00  0.74505805969E-08  0.10566000000E+00  0.10566000000E+00 0. -1.
     999900   -1    0    0    0    0 -0.00000000000E+00 -0.00000000000E+00 -0.74505805969E-08  0.93827000000E+00  0.93827000000E+00 0. -1.
     999902    2    1    2    0    0 -0.15027838051E-01  0.52162953911E-02  0.18246972578E-01  0.10197226114E+01  0.10194352390E+01 0.  0.
     999903    2    3    3    0    0 -0.90452197545E-01 -0.52845045046E-01 -0.73982723182E-01  0.12979774377E+00  0.19995302763E-01 0.  0.
         14    1    1    2    0    0  0.15027838051E-01 -0.52162953911E-02 -0.18246972578E-01  0.24207388590E-01  0.00000000000E+00 0. -1.
     999901    1    3    3    0    0  0.75424359494E-01  0.58061340437E-01  0.92229695760E-01  0.88992486764E+00  0.88000000000E+00 0. -1.
        -11    1    4    4    0    0 -0.23882933115E-01 -0.17105283454E-01 -0.10798757630E-01  0.31302707607E-01  0.51100000000E-03 0. -1.
         11    1    4    4    0    0 -0.66569264430E-01 -0.35739761593E-01 -0.63183965552E-01  0.98495036166E-01  0.51100000000E-03 0.  1.
</event>
<event>
 8    1  0.1074844E+005  0.1043930E+01  0.7957747E-01            NaN
         13   -1    0    0    0    0  0.00000000000E+00  0.00000000000E+00  0.74505805969E-08  0.10566000000E+00  0.10566000000E+00 0.  1.
     999900   -1    0    0    0    0 -0.00000000000E+00 -0.00000000000E+00 -0.74505805969E-08  0.93827000000E+00  0.93827000000E+00 0. -1.
     999902    2    1    2    0    0 -0.20255888337E-01  0.14408179359E-01  0.54407715701E-02  0.10184840054E+01  0.10181660821E+01 0.  0.
     999903    2    3    3    0    0  0.27015914016E-01 -0.73431577768E-01  0.99687303973E-01  0.12784779737E+00  0.16895102678E-01 0.  0.
         14    1    1    2    0    0  0.20255888337E-01 -0.14408179359E-01 -0.54407715701E-02  0.25445994577E-01  0.00000000000E+00 0. -1.
     999901    1    3    3    0    0 -0.47271802352E-01  0.87839757127E-01 -0.94246532403E-01  0.89063620806E+00  0.88000000000E+00 0. -1.
        -11    1    4    4    0    0  0.10675995600E-01 -0.39730303701E-01  0.64183806415E-01  0.76238415783E-01  0.51100000000E-03 0.  1.
         11    1    4    4    0    0  0.16339918416E-01 -0.33701274067E-01  0.35503497558E-01  0.51609381584E-01  0.51100000000E-03 0. -1.
</event>
<event>
 8    1  0.1074844E+005  0.1043930E+01  0.7957747E-01            NaN
         13   -1    0    0    0    0  0.00000000000E+00  0.00000000000E+00  0.74505805969E-08  0.10566000000E+00  0.10566000000E+00 0.  1.
     999900   -1    0    0    0    0 -0.00000000000E+00 -0.00000000000E+00 -0.74505805969E-08  0.93827000000E+00  0.93827000000E+00 0. -1.
     999902    2    1    2    0    0  0.22956587321E-01 -0.17201989503E-02  0.33091756723E-02  0.10206724286E+01  0.10204074146E+01 0.  0.
     999903    2    3    3    0    0  0.49253339184E-01 -0.56277009604E-01  0.10710821372E+00  0.13250453618E+00  0.22187596323E-01 0.  0.
         14    1    1    2    0    0 -0.22956587321E-01  0.17201989503E-02 -0.33091756723E-02  0.23257571444E-01  0.00000000000E+00 0.  1.
     999901    1    3    3    0    0 -0.26296751863E-01  0.54556810654E-01 -0.10379903805E+00  0.88816789238E+00  0.88000000000E+00 0. -1.
        -11    1    4    4    0    0  0.70759247722E-02 -0.15489992865E-01  0.12318345620E-01  0.21024065976E-01  0.51100000000E-03 0.  1.
         11    1    4    4    0    0  0.42177414412E-01 -0.40787016739E-01  0.94789868103E-01  0.11148047020E+00  0.51100000000E-03 0. -1.
</event>
<event>
 8    1  0.1074844E+005  0.1043930E+01  0.7957747E-01            NaN
         13   -1    0    0    0    0  0.00000000000E+00  0.00000000000E+00  0.74505805969E-08  0.10566000000E+00  0.10566000000E+00 0.  1.
     999900   -1    0    0    0    0 -0.00000000000E+00 -0.00000000000E+00 -0.74505805969E-08  0.93827000000E+00  0.93827000000E+00 0.  1.
     999902    2    1    2    0    0 -0.17222897901E-01  0.12771728367E-01 -0.96551880364E-02  0.10204147302E+01  0.10201437417E+01 0.  0.
     999903    2    3    3    0    0  0.78546815182E-02  0.68972567819E-01 -0.11099311681E+00  0.13246383339E+00  0.20206039769E-01 0.  0.
         14    1    1    2    0    0  0.17222897901E-01 -0.12771728367E-01  0.96551880364E-02  0.23515269796E-01  0.00000000000E+00 0.  1.
     999901    1    3    3    0    0 -0.25077579419E-01 -0.56200839452E-01  0.10133792878E+00  0.88795089681E+00  0.88000000000E+00 0. -1.
        -11    1    4    4    0    0  0.26225813972E-02  0.53978635901E-01 -0.69552751455E-01  0.88081879083E-01  0.51100000000E-03 0. -1.
         11    1    4    4    0    0  0.52321001210E-02  0.14993931918E-01 -0.41440365358E-01  0.44381954306E-01  0.51100000000E-03 0.  1.
</event>
<event>
 8    1  0.1074844E+005  0.1043930E+01  0.7957747E-01            NaN
         13   -1    0    0    0    0  0.00000000000E+00  0.00000000000E+00  0.74505805969E-08  0.10566000000E+00  0.10566000000E+00 0.  1.
     999900   -1    0    0    0    0 -0.00000000000E+00 -0.00000000000E+00 -0.74505805969E-08  0.93827000000E+00  0.93827000000E+00 0. -1.
     999902    2    1    2    0    0  0.74483069612E-02 -0.19739505527E-01 -0.20041359631E-01  0.10148304905E+01  0.10144132014E+01 0.  0.
     999903    2    3    3    0    0 -0.31472872286E-01  0.11675511107E+00  0.11440453115E-01  0.12290182574E+00  0.18753057110E-01 0.  0.
         14    1    1    2    0    0 -0.74483069612E-02  0.19739505527E-01  0.20041359631E-01  0.29099509461E-01  0.00000000000E+00 0.  1.
     999901    1    3    3    0    0  0.38921179247E-01 -0.13649461660E+00 -0.31481812745E-01  0.89192866480E+00  0.88000000000E+00 0. -1.
        -11    1    4    4    0    0 -0.18686357369E-01  0.78885444831E-01 -0.87357374725E-03  0.81074765556E-01  0.51100000000E-03 0. -1.
         11    1    4    4    0    0 -0.12786514916E-01  0.37869666244E-01  0.12314026862E-01  0.41827060184E-01  0.51100000000E-03 0.  1.
</event>
<event>
 8    1  0.1074844E+005  0.1043930E+01  0.7957747E-01            NaN
         13   -1    0    0    0    0  0.00000000000E+00  0.00000000000E+00  0.74505805969E-08  0.10566000000E+00  0.10566000000E+00 0.  1.
     999900   -1    0    0    0    0 -0.00000000000E+00 -0.00000000000E+00 -0.74505805969E-08  0.93827000000E+00  0.93827000000E+00 0. -1.
     999902    2    1    2    0    0  0.14548613836E-01 -0.70097084295E-02 -0.18216055639E-01  0.10195861536E+01  0.10192954928E+01 0.  0.
     999903    2    3    3    0    0  0.14236986761E-01 -0.49299890650E-01 -0.12065971910E+00  0.13263448587E+00  0.19999200413E-01 0.  0.
         14    1    1    2    0    0 -0.14548613836E-01  0.70097084295E-02  0.18216055639E-01  0.24343846447E-01  0.00000000000E+00 0.  1.
     999901    1    3    3    0    0  0.31162707490E-03  0.42290182220E-01  0.10244366347E+00  0.88695166768E+00  0.88000000000E+00 0.  1.
        -11    1    4    4    0    0 -0.25922664731E-02 -0.67428603414E-02 -0.32567775387E-01  0.33363260118E-01  0.51100000000E-03 0.  1.
         11    1    4    4    0    0  0.16829253234E-01 -0.42557030309E-01 -0.88091943717E-01  0.99271225750E-01  0.51100000000E-03 0. -1.
</event>
<event>
 8    1  0.1074844E+005  0.1043930E+01  0.7957747E-01            NaN
         13   -1    0    0    0    0  0.00000000000E+00  0.00000000000E+00  0.74505805969E-08  0.10566000000E+00  0.10566000000E+00 0. -1.
     999900   -1    0    0    0    0 -0.00000000000E+00 -0.00000000000E+00 -0.74505805969E-08  0.93827000000E+00  0.93827000000E+00 0. -1.
     999902    2    1    2    0    0 -0.13271727952E-01  0.36637457149E-02  0.18873166289E-01  0.10205685317E+01  0.10203011172E+01 0.  0.
     999903    2    3    3    0    0 -0.74322758240E-02 -0.11091760992E+00 -0.63273924430E-01  0.12932718909E+00  0.19078192005E-01 0.  0.
         14    1    1    2    0    0  0.13271727952E-01 -0.36637457149E-02 -0.18873166289E-01  0.23361468303E-01  0.00000000000E+00 0.  1.
     999901    1    3    3    0    0 -0.58394521280E-02  0.11458135564E+00  0.82147090719E-01  0.89124134261E+00  0.88000000000E+00 0. -1.
        -11    1    4    4    0    0 -0.10038071240E-01 -0.35625987964E-01 -0.15584817174E-01  0.40163684343E-01  0.51100000000E-03 0. -1.
         11    1    4    4    0    0  0.26057954156E-02 -0.75291621958E-01 -0.47689107256E-01  0.89163504746E-01  0.51100000000E-03 0.  1.
</event>
<event>
 8    1  0.1074844E+005  0.1043930E+01  0.7957747E-01            NaN
         13   -1    0    0    0    0  0.00000000000E+00  0.00000000000E+00  0.74505805969E-08  0.10566000000E+00  0.10566000000E+00 0.  1.
     999900   -1    0    0    0    0 -0.00000000000E+00 -0.00000000000E+00 -0.74505805969E-08  0.93827000000E+00  0.93827000000E+00 0. -1.
     999902    2    1    2    0    0  0.94409047206E-02 -0.11376999586E-01 -0.18453286111E-01  0.10202849039E+01  0.10200108796E+01 0.  0.
     999903    2    3    3    0    0  0.53543704397E-01 -0.95069580857E-01 -0.74172207035E-01  0.13346242828E+00  0.20138271583E-01 0.  0.
         14    1    1    2    0    0 -0.94409047206E-02  0.11376999586E-01  0.18453286111E-01  0.23645096105E-01  0.00000000000E+00 0. -1.
     999901    1    3    3    0    0 -0.44102799676E-01  0.83692581271E-01  0.55718920924E-01  0.88682247561E+00  0.88000000000E+00 0.  1.
        -11    1    4    4    0    0  0.16940194207E-01 -0.25387576881E-01 -0.10696786474E-01  0.32344730661E-01  0.51100000000E-03 0.  1.
         11    1    4    4    0    0  0.36603510189E-01 -0.69682003976E-01 -0.63475420561E-01  0.10111769762E+00  0.51100000000E-03 0. -1.
</event>
<event>
 8    1  0.1074844E+005  0.1043930E+01  0.7957747E-01            NaN
         13   -1    0    0    0    0  0.00000000000E+00  0.00000000000E+00  0.74505805969E-08  0.10566000000E+00  0.10566000000E+00 0. -1.
     999900   -1    0    0    0    0 -0.00000000000E+00 -0.00000000000E+00 -0.74505805969E-08  0.93827000000E+00  0.93827000000E+00 0. -1.
     999902    2    1    2    0    0  0.79709745614E-02  0.11768890360E-01  0.18290471338E-01  0.10207657051E+01  0.10205028369E+01 0.  0.
     999903    2    3    3    0    0 -0.11651190729E+00  0.31942452374E-01  0.47167031299E-01  0.13130698421E+00  0.20529258533E-01 0.  0.
         14    1    1    2    0    0 -0.79709745614E-02 -0.11768890360E-01 -0.18290471338E-01  0.23164294885E-01  0.00000000000E+00 0.  1.
     999901    1    3    3    0    0  0.12448288185E+00 -0.20173562014E-01 -0.28876559961E-01  0.88945872091E+00  0.88000000000E+00 0. -1.
        -11    1    4    4    0    0 -0.86195403445E-01  0.17939158413E-01  0.41864910584E-01  0.97490475632E-01  0.51100000000E-03 0. -1.
         11    1    4    4    0    0 -0.30316503848E-01  0.14003293961E-01  0.53021207142E-02  0.33816508578E-01  0.51100000000E-03 0.  1.
</event>
<event>
 8    1  0.1074844E+005  0.1043930E+01  0.7957747E-01            NaN
         13   -1    0    0    0    0  0.00000000000E+00  0.00000000000E+00  0.74505805969E-08  0.10566000000E+00  0.10566000000E+00 0. -1.
     999900   -1    0    0    0    0 -0.00000000000E+00 -0.00000000000E+00 -0.74505805969E-08  0.93827000000E+00  0.93827000000E+00 0. -1.
     999902    2    1    2    0    0  0.14522785984E-01 -0.16262208374E-01 -0.71732039355E-03  0.10221152050E+01  0.10218823841E+01 0.  0.
     999903    2    3    3    0    0 -0.10358812897E+00  0.71938507225E-01 -0.21402275088E-01  0.12961454849E+00  0.20885988498E-01 0.  0.
         14    1    1    2    0    0 -0.14522785984E-01  0.16262208374E-01  0.71732039355E-03  0.21814795036E-01  0.00000000000E+00 0. -1.
     999901    1    3    3    0    0  0.11811091495E+00 -0.88200715599E-01  0.20684954694E-01  0.89250065648E+00  0.88000000000E+00 0.  1.
        -11    1    4    4    0    0 -0.44878308433E-01  0.26655300522E-01 -0.18602084026E-01  0.55415397362E-01  0.51100000000E-03 0.  1.
         11    1    4    4    0    0 -0.58709820535E-01  0.45283206703E-01 -0.28001910620E-02  0.74199151124E-01  0.51100000000E-03 0. -1.
</event>
<event>
 8    1  0.1074844E+005  0.1043930E+01  0.7957747E-01            NaN
         13   -1    0    0    0    0  0.00000000000E+00  0.00000000000E+00  0.74505805969E-08  0.10566000000E+00  0.10566000000E+00 0. -1.
     999900   -1    0    0    0    0 -0.00000000000E+00 -0.00000000000E+00 -0.74505805969E-08  0.93827000000E+00  0.93827000000E+00 0.  1.
     999902    2    1    2    0    0 -0.37163281258E-02 -0.17283585658E-01 -0.15629234843E-01  0.10203332543E+01  0.10200603626E+01 0.  0.
     999903    2    3    3    0    0 -0.75274518564E-01  0.83346299123E-02  0.10260451877E+00  0.12917889721E+00  0.20585942069E-01 0.  0.
         14    1    1    2    0    0  0.37163281258E-02  0.17283585658E-01  0.15629234843E-01  0.23596745744E-01  0.00000000000E+00 0. -1.
     999901    1    3    3    0    0  0.71558190438E-01 -0.25618215571E-01 -0.11823375362E+00  0.89115435705E+00  0.88000000000E+00 0.  1.
        -11    1    4    4    0    0 -0.40091386581E-01 -0.55900139916E-02  0.48929081068E-01  0.63504989014E-01  0.51100000000E-03 0.  1.
         11    1    4    4    0    0 -0.35183131983E-01  0.13924643904E-01  0.53675437705E-01  0.65673908196E-01  0.51100000000E-03 0. -1.
</event>
<event>
 8    1  0.1074844E+005  0.1043930E+01  0.7957747E-01            NaN
         13   -1    0    0    0    0  0.00000000000E+00  0.00000000000E+00  0.74505805969E-08  0.10566000000E+00  0.10566000000E+00 0.  1.
     999900   -1    0    0    0    0 -0.00000000000E+00 -0.00000000000E+00 -0.74505805969E-08  0.93827000000E+00  0.93827000000E+00 0. -1.
     999902    2    1    2    0    0 -0.40827777418E-02 -0.56833296339E-02  0.23020815061E-01  0.10198690932E+01  0.10195852294E+01 0.  0.
     999903    2    3    3    0    0 -0.59167018249E-01  0.12848088705E-01 -0.11079605310E+00  0.12785752309E+00  0.20148731854E-01 0.  0.
         14    1    1    2    0    0  0.40827777418E-02  0.56833296339E-02 -0.23020815061E-01  0.24060906797E-01  0.00000000000E+00 0. -1.
     999901    1    3    3    0    0  0.55084240507E-01 -0.18531418339E-01  0.13381686816E+00  0.89201157012E+00  0.88000000000E+00 0.  1.
        -11    1    4    4    0    0 -0.32486569596E-01  0.12945713391E-01 -0.78668423152E-01  0.86092686226E-01  0.51100000000E-03 0.  1.
         11    1    4    4    0    0 -0.26680448653E-01 -0.97624685561E-04 -0.32127629948E-01  0.41764836860E-01  0.51100000000E-03 0. -1.
</event>
<event>
 8    1  0.1074844E+005  0.1043930E+01  0.7957747E-01            NaN
         13   -1    0    0    0    0  0.00000000000E+00  0.00000000000E+00  0.74505805969E-08  0.10566000000E+00  0.10566000000E+00 0.  1.
     999900   -1    0    0    0    0 -0.00000000000E+00 -0.00000000000E+00 -0.74505805969E-08  0.93827000000E+00  0.93827000000E+00 0. -1.
     999902    2    1    2    0    0  0.10299547797E-03  0.22682342653E-01 -0.76871452256E-02  0.10199802301E+01  0.10196990136E+01 0.  0.
     999903    2    3    3    0    0 -0.48261421772E-01 -0.38625707028E-01 -0.11282359927E+00  0.13028844764E+00  0.20610797231E-01 0.  0.
         14    1    1    2    0    0 -0.10299547797E-03 -0.22682342653E-01  0.76871452256E-02  0.23949769895E-01  0.00000000000E+00 0.  1.
     999901    1    3    3    0    0  0.48364417250E-01  0.61308049681E-01  0.10513645404E+00  0.88969178246E+00  0.88000000000E+00 0.  1.
        -11    1    4    4    0    0 -0.39501172370E-01 -0.27647569208E-01 -0.68345263280E-01  0.83642494197E-01  0.51100000000E-03 0.  1.
         11    1    4    4    0    0 -0.87602494021E-02 -0.10978137821E-01 -0.44478335988E-01  0.46645953446E-01  0.51100000000E-03 0. -1.
</event>
<event>
 8    1  0.1074844E+005  0.1043930E+01  0.7957747E-01            NaN
         13   -1    0    0    0    0  0.00000000000E+00  0.00000000000E+00  0.74505805969E-08  0.10566000000E+00  0.10566000000E+00 0. -1.
     999900   -1    0    0    0    0 -0.00000000000E+00 -0.00000000000E+00 -0.74505805969E-08  0.93827000000E+00  0.93827000000E+00 0.  1.
     999902    2    1    2    0    0 -0.55926441252E-02 -0.17367867818E-01 -0.39718420271E-02  0.10252565957E+01  0.10250865285E+01 0.  0.
     999903    2    3    3    0    0 -0.24890979038E-01  0.12417783380E+00  0.34788673570E-01  0.13289456769E+00  0.20273605201E-01 0.  0.
         14    1    1    2    0    0  0.55926441252E-02  0.17367867818E-01  0.39718420271E-02  0.18673404348E-01  0.00000000000E+00 0. -1.
     999901    1    3    3    0    0  0.19298334912E-01 -0.14154570162E+00 -0.38760515597E-01  0.89236202796E+00  0.88000000000E+00 0.  1.
        -11    1    4    4    0    0 -0.24510060359E-01  0.78942701885E-01  0.17703092623E-01  0.84536109735E-01  0.51100000000E-03 0. -1.
         11    1    4    4    0    0 -0.38091867839E-03  0.45235131916E-01  0.17085580947E-01  0.48358457955E-01  0.51100000000E-03 0.  1.
</event>
<event>
 8    1  0.1074844E+005  0.1043930E+01  0.7957747E-01            NaN
         13   -1    0    0    0    0  0.00000000000E+00  0.00000000000E+00  0.74505805969E-08  0.10566000000E+00  0.10566000000E+00 0. -1.
     999900   -1    0    0    0    0 -0.00000000000E+00 -0.00000000000E+00 -0.74505805969E-08  0.93827000000E+00  0.93827000000E+00 0.  1.
     999902    2    1    2    0    0  0.13996372761E-01  0.13564091552E-01 -0.14620851217E-01  0.10195650186E+01  0.10192738468E+01 0.  0.
     999903    2    3    3    0    0 -0.50501015053E-02 -0.84975442015E-01  0.92541094035E-01  0.12740108163E+00  0.20514683621E-01 0.  0.
         14    1    1    2    0    0 -0.13996372761E-01 -0.13564091552E-01  0.14620851217E-01  0.24364981437E-01  0.00000000000E+00 0.  1.
     999901    1    3    3    0    0  0.19046474266E-01  0.98539533567E-01 -0.10716194525E+00  0.89216393694E+00  0.88000000000E+00 0.  1.
        -11    1    4    4    0    0  0.43015459180E-02 -0.12218591764E-01  0.22549035293E-01  0.26009948013E-01  0.51100000000E-03 0. -1.
         11    1    4    4    0    0 -0.93516474234E-02 -0.72756850251E-01  0.69992058742E-01  0.10139113362E+00  0.51100000000E-03 0.  1.
</event>
<event>
 8    1  0.1074844E+005  0.1043930E+01  0.7957747E-01            NaN
         13   -1    0    0    0    0  0.00000000000E+00  0.00000000000E+00  0.74505805969E-08  0.10566000000E+00  0.10566000000E+00 0.  1.
     999900   -1    0    0    0    0 -0.00000000000E+00 -0.00000000000E+00 -0.74505805969E-08  0.93827000000E+00  0.93827000000E+00 0.  1.
     999902    2    1    2    0    0  0.12897336492E-01 -0.19893309070E-01  0.92192296312E-03  0.10202037492E+01  0.10199278185E+01 0.  0.
     999903    2    3    3    0    0  0.12902626501E-01 -0.29595364599E-01  0.12571467768E+00  0.13134641447E+00  0.20132983681E-01 0.  0.
         14    1    1    2    0    0 -0.12897336492E-01  0.19893309070E-01 -0.92192296312E-03  0.23726250784E-01  0.00000000000E+00 0. -1.
     999901    1    3    3    0    0 -0.52900094825E-05  0.97020555288E-02 -0.12479275472E+00  0.88885733475E+00  0.88000000000E+00 0.  1.
        -11    1    4    4    0    0  0.17065401150E-01 -0.27153015375E-01  0.95447848577E-01  0.10069293460E+00  0.51100000000E-03 0. -1.
         11    1    4    4    0    0 -0.41627746485E-02 -0.24423492239E-02  0.30266829105E-01  0.30653479861E-01  0.51100000000E-03 0.  1.
</event>
<event>
 8    1  0.1074844E+005  0.1043930E+01  0.7957747E-01            NaN
         13   -1    0    0    0    0  0.00000000000E+00  0.00000000000E+00  0.74505805969E-08  0.10566000000E+00  0.10566000000E+00 0.  1.
     999900   -1    0    0    0    0 -0.00000000000E+00 -0.00000000000E+00 -0.74505805969E-08  0.93827000000E+00  0.93827000000E+00 0.  1.
     999902    2    1    2    0    0 -0.11310681819E-01 -0.19311067640E-02  0.20744817265E-01  0.10202232891E+01  0.10199478181E+01 0.  0.
     999903    2    3    3    0    0 -0.20730749356E-01  0.10955019894E+00 -0.62677824435E-01  0.12922600724E+00  0.18434782754E-01 0.  0.
         14    1    1    2    0    0  0.11310681819E-01  0.19311067640E-02 -0.20744817265E-01  0.23706710863E-01  0.00000000000E+00 0. -1.
     999901    1    3    3    0    0  0.94200675370E-02 -0.11148130571E+00  0.83422641701E-01  0.89099728189E+00  0.88000000000E+00 0. -1.
        -11    1    4    4    0    0 -0.21199113035E-01  0.66009106141E-01 -0.41498055857E-01  0.80801944580E-01  0.51100000000E-03 0.  1.
         11    1    4    4    0    0  0.46836367899E-03  0.43541092801E-01 -0.21179768578E-01  0.48424062663E-01  0.51100000000E-03 0. -1.
</event>
<event>
 8    1  0.1074844E+005  0.1043930E+01  0.7957747E-01            NaN
         13   -1    0    0    0    0  0.00000000000E+00  0.00000000000E+00  0.74505805969E-08  0.10566000000E+00  0.10566000000E+00 0.  1.
     999900   -1    0    0    0    0 -0.00000000000E+00 -0.00000000000E+00 -0.74505805969E-08  0.93827000000E+00  0.93827000000E+00 0. -1.
     999902    2    1    2    0    0  0.98344152199E-02  0.87617674431E-02  0.19680556544E-01  0.10202486023E+01  0.10199737261E+01 0.  0.
     999903    2    3    3    0    0 -0.96786733886E-01  0.12484582152E-01 -0.80267944623E-01  0.12818827268E+00  0.21581326899E-01 0.  0.
         14    1    1    2    0    0 -0.98344152199E-02 -0.87617674431E-02 -0.19680556544E-01  0.23681397707E-01  0.00000000000E+00 0. -1.
     999901    1    3    3    0    0  0.10662114911E+00 -0.37228147089E-02  0.99948501167E-01  0.89206032961E+00  0.88000000000E+00 0.  1.
        -11    1    4    4    0    0 -0.48148876933E-01  0.17064564564E-01 -0.41656939228E-01  0.65917186078E-01  0.51100000000E-03 0.  1.
         11    1    4    4    0    0 -0.48637856952E-01 -0.45799824115E-02 -0.38611005395E-01  0.62271086601E-01  0.51100000000E-03 0. -1.
</event>
<event>
 8    1  0.1074844E+005  0.1043930E+01  0.7957747E-01            NaN
         13   -1    0    0    0    0  0.00000000000E+00  0.00000000000E+00  0.74505805969E-08  0.10566000000E+00  0.10566000000E+00 0. -1.
     999900   -1    0    0    0    0 -0.00000000000E+00 -0.00000000000E+00 -0.74505805969E-08  0.93827000000E+00  0.93827000000E+00 0. -1.
     999902    2    1    2    0    0 -0.18417214188E-02  0.20249004884E-01 -0.11318681728E-01  0.10206592739E+01  0.10203939566E+01 0.  0.
     999903    2    3    3    0    0  0.48019541812E-01  0.72205220588E-01 -0.99338289724E-01  0.13334137974E+00  0.19808015316E-01 0.  0.
         14    1    1    2    0    0  0.18417214188E-02 -0.20249004884E-01  0.11318681728E-01  0.23270726087E-01  0.00000000000E+00 0. -1.
     999901    1    3    3    0    0 -0.49861263231E-01 -0.51956215704E-01  0.88019607995E-01  0.88731789417E+00  0.88000000000E+00 0.  1.
        -11    1    4    4    0    0  0.24607878173E-01  0.40232304521E-01 -0.68301932897E-01  0.83003621328E-01  0.51100000000E-03 0. -1.
         11    1    4    4    0    0  0.23411663639E-01  0.31972916067E-01 -0.31036356827E-01  0.50337758415E-01  0.51100000000E-03 0.  1.
</event>
<event>
 8    1  0.1074844E+005  0.1043930E+01  0.7957747E-01            NaN
         13   -1    0    0    0    0  0.00000000000E+00  0.00000000000E+00  0.74505805969E-08  0.10566000000E+00  0.10566000000E+00 0.  1.
     999900   -1    0    0    0    0 -0.00000000000E+00 -0.00000000000E+00 -0.74505805969E-08  0.93827000000E+00  0.93827000000E+00 0.  1.
     999902    2    1    2    0    0  0.14727432107E-01 -0.18450554987E-01 -0.20278162884E-02  0.10202354379E+01  0.10199602524E+01 0.  0.
     999903    2    3    3    0    0  0.95112062514E-01  0.86537777652E-01 -0.68003795915E-02  0.13034386236E+00  0.20203610959E-01 0.  0.
         14    1    1    2    0    0 -0.14727432107E-01  0.18450554987E-01  0.20278162884E-02  0.23694562134E-01  0.00000000000E+00 0. -1.
     999901    1    3    3    0    0 -0.80384630407E-01 -0.10498833264E+00  0.47725633030E-02  0.88989157551E+00  0.88000000000E+00 0.  1.
        -11    1    4    4    0    0  0.38286784543E-01  0.33572545449E-01 -0.12551448522E-01  0.52448009109E-01  0.51100000000E-03 0.  1.
         11    1    4    4    0    0  0.56825277971E-01  0.52965232203E-01  0.57510689305E-02  0.77895853251E-01  0.51100000000E-03 0. -1.
</event>
<event>
 8    1  0.1074844E+005  0.1043930E+01  0.7957747E-01            NaN
         13   -1    0    0    0    0  0.00000000000E+00  0.00000000000E+00  0.74505805969E-08  0.10566000000E+00  0.10566000000E+00 0. -1.
     999900   -1    0    0    0    0 -0.00000000000E+00 -0.00000000000E+00 -0.74505805969E-08  0.93827000000E+00  0.93827000000E+00 0. -1.
     999902    2    1    2    0    0 -0.34601376387E-02 -0.21576094482E-01  0.81737762923E-02  0.10205995258E+01  0.10203328286E+01 0.  0.
     999903    2    3    3    0    0  0.70170016804E-01  0.10552550780E+00 -0.34326537377E-02  0.12834904186E+00  0.20055657074E-01 0.  0.
         14    1    1    2    0    0  0.34601376387E-02  0.21576094482E-01 -0.81737762923E-02  0.23330474158E-01  0.00000000000E+00 0.  1.
     999901    1    3    3    0    0 -0.73630154443E-01 -0.12710160228E+00  0.11606430030E-01  0.89225048398E+00  0.88000000000E+00 0. -1.
        -11    1    4    4    0    0  0.19875259749E-01  0.47614030319E-01 -0.15489991439E-02  0.51621529933E-01  0.51100000000E-03 0.  1.
         11    1    4    4    0    0  0.50294757055E-01  0.57911477480E-01 -0.18836545938E-02  0.76727511929E-01  0.51100000000E-03 0. -1.
</event>
<event>
 8    1  0.1074844E+005  0.1043930E+01  0.7957747E-01            NaN
         13   -1    0    0    0    0  0.00000000000E+00  0.00000000000E+00  0.74505805969E-08  0.10566000000E+00  0.10566000000E+00 0. -1.
     999900   -1    0    0    0    0 -0.00000000000E+00 -0.00000000000E+00 -0.74505805969E-08  0.93827000000E+00  0.93827000000E+00 0. -1.
     999902    2    1    2    0    0  0.15896469876E-01 -0.11519766323E-01 -0.14275145262E-01  0.10196569173E+01  0.10193679642E+01 0.  0.
     999903    2    3    3    0    0  0.12714824918E+00  0.25600626918E-01 -0.13553217697E-01  0.13187574880E+00  0.19632983567E-01 0.  0.
         14    1    1    2    0    0 -0.15896469876E-01  0.11519766323E-01  0.14275145262E-01  0.24273082683E-01  0.00000000000E+00 0. -1.
     999901    1    3    3    0    0 -0.11125177930E+00 -0.37120393241E-01 -0.72192756507E-03  0.88778116852E+00  0.88000000000E+00 0. -1.
        -11    1    4    4    0    0  0.58033700001E-01  0.17882125137E-01  0.13815860832E-02  0.60744140757E-01  0.51100000000E-03 0. -1.
         11    1    4    4    0    0  0.69114549179E-01  0.77185017815E-02 -0.14934803780E-01  0.71131608044E-01  0.51100000000E-03 0.  1.
</event>
<event>
 8    1  0.1074844E+005  0.1043930E+01  0.7957747E-01            NaN
         13   -1    0    0    0    0  0.00000000000E+00  0.00000000000E+00  0.74505805969E-08  0.10566000000E+00  0.10566000000E+00 0.  1.
     999900   -1    0    0    0    0 -0.00000000000E+00 -0.00000000000E+00 -0.74505805969E-08  0.93827000000E+00  0.93827000000E+00 0.  1.
     999902    2    1    2    0    0  0.94455855933E-02  0.15662355016E-01  0.15257760860E-01  0.10201113578E+01  0.10198332484E+01 0.  0.
     999903    2    3    3    0    0  0.45518392065E-01 -0.11848161960E+00 -0.51089085165E-02  0.12898249249E+00  0.22373292606E-01 0.  0.
         14    1    1    2    0    0 -0.94455855933E-02 -0.15662355016E-01 -0.15257760860E-01  0.23818642244E-01  0.00000000000E+00 0. -1.
     999901    1    3    3    0    0 -0.36072806472E-01  0.13414397462E+00  0.20366669377E-01  0.89112886527E+00  0.88000000000E+00 0. -1.
        -11    1    4    4    0    0  0.45848626729E-01 -0.97509433963E-01 -0.65605617352E-02  0.10795132411E+00  0.51100000000E-03 0.  1.
         11    1    4    4    0    0 -0.33023466421E-03 -0.20972185641E-01  0.14516532188E-02  0.21031168383E-01  0.51100000000E-03 0. -1.
</event>
<event>
 8    1  0.1074844E+005  0.1043930E+01  0.7957747E-01            NaN
         13   -1    0    0    0    0  0.00000000000E+00  0.00000000000E+00  0.74505805969E-08  0.10566000000E+00  0.10566000000E+00 0. -1.
     999900   -1    0    0    0    0 -0.00000000000E+00 -0.00000000000E+00 -0.74505805969E-08  0.93827000000E+00  0.93827000000E+00 0. -1.
     999902    2    1    2    0    0  0.60197705178E-02  0.23127683352E-01 -0.10472774362E-01  0.10178377334E+01  0.10175032408E+01 0.  0.
     999903    2    3    3    0    0 -0.11655598011E+00 -0.16533601939E-01 -0.45120504936E-01  0.12778251182E+00  0.20829159100E-01 0.  0.
         14    1    1    2    0    0 -0.60197705178E-02 -0.23127683352E-01  0.10472774362E-01  0.26092266616E-01  0.00000000000E+00 0.  1.
     999901    1    3    3    0    0  0.12257575063E+00  0.39661285291E-01  0.34647730574E-01  0.89005522156E+00  0.88000000000E+00 0.  1.
        -11    1    4    4    0    0 -0.97712387164E-01 -0.58613527365E-02 -0.36946608311E-01  0.10462972354E+00  0.51100000000E-03 0. -1.
         11    1    4    4    0    0 -0.18843592950E-01 -0.10672249202E-01 -0.81738966247E-02  0.23152788284E-01  0.51100000000E-03 0.  1.
</event>
<event>
 8    1  0.1074844E+005  0.1043930E+01  0.7957747E-01            NaN
         13   -1    0    0    0    0  0.00000000000E+00  0.00000000000E+00  0.74505805969E-08  0.10566000000E+00  0.10566000000E+00 0. -1.
     999900   -1    0    0    0    0 -0.00000000000E+00 -0.00000000000E+00 -0.74505805969E-08  0.93827000000E+00  0.93827000000E+00 0.  1.
     999902    2    1    2    0    0  0.23784055443E-01  0.93779168836E-02 -0.12242047352E-01  0.10155840242E+01  0.10151883648E+01 0.  0.
     999903    2    3    3    0    0  0.10316400297E+00  0.44770107615E-02 -0.76163315677E-01  0.12968836250E+00  0.18851142638E-01 0.  0.
         14    1    1    2    0    0 -0.23784055443E-01 -0.93779168836E-02  0.12242047352E-01  0.28345975760E-01  0.00000000000E+00 0. -1.
     999901    1    3    3    0    0 -0.79379947525E-01  0.49009061221E-02  0.63921268325E-01  0.88589566174E+00  0.88000000000E+00 0. -1.
        -11    1    4    4    0    0  0.83218653785E-01  0.10090493827E-01 -0.65468945200E-01  0.10636543757E+00  0.51100000000E-03 0.  1.
         11    1    4    4    0    0  0.19945349183E-01 -0.56134830654E-02 -0.10694370476E-01  0.23322924925E-01  0.51100000000E-03 0. -1.
</event>
<event>
 8    1  0.1074844E+005  0.1043930E+01  0.7957747E-01            NaN
         13   -1    0    0    0    0  0.00000000000E+00  0.00000000000E+00  0.74505805969E-08  0.10566000000E+00  0.10566000000E+00 0.  1.
     999900   -1    0    0    0    0 -0.00000000000E+00 -0.00000000000E+00 -0.74505805969E-08  0.93827000000E+00  0.93827000000E+00 0.  1.
     999902    2    1    2    0    0  0.23374319135E-01 -0.14640941771E-02  0.32130901961E-02  0.10202904925E+01  0.10200165993E+01 0.  0.
     999903    2    3    3    0    0  0.13078026798E+00 -0.12590407833E-01 -0.12525248422E-01  0.13355066142E+00  0.20418140358E-01 0.  0.
         14    1    1    2    0    0 -0.23374319135E-01  0.14640941771E-02 -0.32130901961E-02  0.23639507512E-01  0.00000000000E+00 0.  1.
     999901    1    3    3    0    0 -0.10740594884E+00  0.11126313656E-01  0.15738338619E-01  0.88673983107E+00  0.88000000000E+00 0. -1.
        -11    1    4    4    0    0  0.66730588216E-01  0.12268822956E-03  0.15462456771E-02  0.66750568932E-01  0.51100000000E-03 0. -1.
         11    1    4    4    0    0  0.64049679762E-01 -0.12713096063E-01 -0.14071494099E-01  0.66800092487E-01  0.51100000000E-03 0.  1.
</event>
<event>
 8    1  0.1074844E+005  0.1043930E+01  0.7957747E-01            NaN
         13   -1    0    0    0    0  0.00000000000E+00  0.00000000000E+00  0.74505805969E-08  0.10566000000E+00  0.10566000000E+00 0. -1.
     999900   -1    0    0    0    0 -0.00000000000E+00 -0.00000000000E+00 -0.74505805969E-08  0.93827000000E+00  0.93827000000E+00 0. -1.
     999902    2    1    2    0    0  0.18816813017E-01 -0.69304441532E-02  0.11398163545E-01  0.10208644057E+01  0.10206037983E+01 0.  0.
     999903    2    3    3    0    0 -0.71667081020E-01 -0.10522228071E+00  0.20685633648E-01  0.13073246193E+00  0.21335001843E-01 0.  0.
         14    1    1    2    0    0 -0.18816813017E-01  0.69304441532E-02 -0.11398163545E-01  0.23065594301E-01  0.00000000000E+00 0.  1.
     999901    1    3    3    0    0  0.90483894037E-01  0.98291836556E-01 -0.92874701022E-02  0.89013194377E+00  0.88000000000E+00 0. -1.
        -11    1    4    4    0    0 -0.35760551697E-01 -0.41036339352E-01  0.39111999817E-03  0.54435395663E-01  0.51100000000E-03 0.  1.
         11    1    4    4    0    0 -0.35906529322E-01 -0.64185941358E-01  0.20294513649E-01  0.76297066269E-01  0.51100000000E-03 0. -1.
</event>
<event>
 8    1  0.1074844E+005  0.1043930E+01  0.7957747E-01            NaN
         13   -1    0    0    0    0  0.00000000000E+00  0.00000000000E+00  0.74505805969E-08  0.10566000000E+00  0.10566000000E+00 0. -1.
     999900   -1    0    0    0    0 -0.00000000000E+00 -0.00000000000E+00 -0.74505805969E-08  0.93827000000E+00  0.93827000000E+00 0.  1.
     999902    2    1    2    0    0  0.61642829508E-02  0.17856443346E-01 -0.14173226459E-01  0.10203136645E+01  0.10200403143E+01 0.  0.
     999903    2    3    3    0    0 -0.76862430107E-02 -0.68391614001E-01 -0.10950224484E+00  0.13086541633E+00  0.19963075138E-01 0.  0.
         14    1    1    2    0    0 -0.61642829508E-02 -0.17856443346E-01  0.14173226459E-01  0.23616335481E-01  0.00000000000E+00 0. -1.
     999901    1    3    3    0    0  0.13850525962E-01  0.86248057347E-01  0.95329018378E-01  0.88944824819E+00  0.88000000000E+00 0. -1.
        -11    1    4    4    0    0  0.11749873788E-02 -0.51925469898E-01 -0.70079437002E-01  0.87229717591E-01  0.51100000000E-03 0. -1.
         11    1    4    4    0    0 -0.88612303895E-02 -0.16466144103E-01 -0.39422807835E-01  0.43635698737E-01  0.51100000000E-03 0.  1.
</event>
<event>
 8    1  0.1074844E+005  0.1043930E+01  0.7957747E-01            NaN
         13   -1    0    0    0    0  0.00000000000E+00  0.00000000000E+00  0.74505805969E-08  0.10566000000E+00  0.10566000000E+00 0. -1.
     999900   -1    0    0    0    0 -0.00000000000E+00 -0.00000000000E+00 -0.74505805969E-08  0.93827000000E+00  0.93827000000E+00 0. -1.
     999902    2    1    2    0    0  0.61511135742E-02 -0.11488281942E-01  0.19545051397E-01  0.10204390261E+01  0.10201686038E+01 0.  0.
     999903    2    3    3    0    0 -0.11567872283E+00  0.23301458286E-01  0.53133900556E-01  0.13073062115E+00  0.18513752884E-01 0.  0.
         14    1    1    2    0    0 -0.61511135742E-02  0.11488281942E-01 -0.19545051397E-01  0.23490973890E-01  0.00000000000E+00 0.  1.
     999901    1    3    3    0    0  0.12182983640E+00 -0.34789740228E-01 -0.33588849159E-01  0.88970840496E+00  0.88000000000E+00 0. -1.
        -11    1    4    4    0    0 -0.52630215469E-01  0.99001950490E-02  0.34216380508E-01  0.63552932729E-01  0.51100000000E-03 0.  1.
         11    1    4    4    0    0 -0.63048507357E-01  0.13401263237E-01  0.18917520048E-01  0.67177688425E-01  0.51100000000E-03 0. -1.
</event>
<event>
 8    1  0.1074844E+005  0.1043930E+01  0.7957747E-01            NaN
         13   -1    0    0    0    0  0.00000000000E+00  0.00000000000E+00  0.74505805969E-08  0.10566000000E+00  0.10566000000E+00 0. -1.
     999900   -1    0    0    0    0 -0.00000000000E+00 -0.00000000000E+00 -0.74505805969E-08  0.93827000000E+00  0.93827000000E+00 0.  1.
     999902    2    1    2    0    0 -0.17585470618E-01 -0.12466719030E-02 -0.18072752890E-01  0.10186826761E+01  0.10183697596E+01 0.  0.
     999903    2    3    3    0    0 -0.60135044419E-01  0.11240433078E+00  0.13937298463E-01  0.12977792302E+00  0.19927465193E-01 0.  0.
         14    1    1    2    0    0  0.17585470618E-01  0.12466719030E-02  0.18072752890E-01  0.25247323912E-01  0.00000000000E+00 0.  1.
     999901    1    3    3    0    0  0.42549573801E-01 -0.11365100268E+00 -0.32010051354E-01  0.88890475307E+00  0.88000000000E+00 0.  1.
        -11    1    4    4    0    0 -0.54682167216E-01  0.93523453238E-01  0.17665361072E-01  0.10976840083E+00  0.51100000000E-03 0.  1.
         11    1    4    4    0    0 -0.54528772028E-02  0.18880877543E-01 -0.37280626086E-02  0.20009522193E-01  0.51100000000E-03 0. -1.
</event>
<event>
 7    1  0.1074844E+005  0.1043930E+01  0.7957747E-01            NaN
         13   -1    0    0    0    0  0.00000000000E+00  0.00000000000E+00  0.74505805969E-08  0.10566000000E+00  0.10566000000E+00 0.  1.
     999900   -1    0    0    0    0 -0.00000000000E+00 -0.00000000000E+00 -0.74505805969E-08  0.93827000000E+00  0.93827000000E+00 0. -1.
     999902    2    1    2    0    0  0.16871950631E-01  0.10974878297E-02  0.16209399550E-01  0.10205075358E+01  0.10202387067E+01 0.  0.
         14    1    1    2    0    0 -0.16871950631E-01 -0.10974878297E-02 -0.16209399550E-01  0.23422464247E-01  0.00000000000E+00 0. -1.
     999901    1    3    3    0    0 -0.97514401169E-02 -0.11324904050E+00  0.59226957763E-01  0.88928525698E+00  0.88000000000E+00 0. -1.
        -11    1    3    3    0    0  0.73543069445E-03  0.53552220209E-01 -0.23067509982E-02  0.53609358966E-01  0.51100000000E-03 0.  1.
         11    1    3    3    0    0  0.25887960054E-01  0.60794308121E-01 -0.40710807214E-01  0.77612919805E-01  0.51100000000E-03 0. -1.
</event>
<event>
 8    1  0.1074844E+005  0.1043930E+01  0.7957747E-01            NaN
         13   -1    0    0    0    0  0.00000000000E+00  0.00000000000E+00  0.74505805969E-08  0.10566000000E+00  0.10566000000E+00 0.  1.
     999900   -1    0    0    0    0 -0.00000000000E+00 -0.00000000000E+00 -0.74505805969E-08  0.93827000000E+00  0.93827000000E+00 0.  1.
     999902    2    1    2    0    0  0.10146550474E-01 -0.22134278841E-01  0.15324738488E-02  0.10195327202E+01  0.10192407666E+01 0.  0.
     999903    2    3    3    0    0  0.10885666975E+00 -0.66223744553E-01 -0.29298678918E-01  0.13238102593E+00  0.20759685685E-01 0.  0.
         14    1    1    2    0    0 -0.10146550474E-01  0.22134278841E-01 -0.15324738488E-02  0.24397279816E-01  0.00000000000E+00 0.  1.
     999901    1    3    3    0    0 -0.98710119271E-01  0.44089465713E-01  0.30831152767E-01  0.88715169425E+00  0.88000000000E+00 0. -1.
        -11    1    4    4    0    0  0.40662720809E-01 -0.29357911455E-01 -0.20114546961E-02  0.50196124349E-01  0.51100000000E-03 0.  1.
         11    1    4    4    0    0  0.68193948936E-01 -0.36865833098E-01 -0.27287224222E-01  0.82184901583E-01  0.51100000000E-03 0. -1.
</event>
<event>
 8    1  0.1074844E+005  0.1043930E+01  0.7957747E-01            NaN
         13   -1    0    0    0    0  0.00000000000E+00  0.00000000000E+00  0.74505805969E-08  0.10566000000E+00  0.10566000000E+00 0.  1.
     999900   -1    0    0    0    0 -0.00000000000E+00 -0.00000000000E+00 -0.74505805969E-08  0.93827000000E+00  0.93827000000E+00 0.  1.
     999902    2    1    2    0    0  0.13409130193E-01  0.15919888960E-01  0.12686030850E-01  0.10195541305E+01  0.10192626952E+01 0.  0.
     999903    2    3    3    0    0 -0.93648282407E-01  0.50359347322E-01 -0.68731313226E-01  0.12866909310E+00  0.22927656662E-01 0.  0.
         14    1    1    2    0    0 -0.13409130193E-01 -0.15919888960E-01 -0.12686030850E-01  0.24375869538E-01  0.00000000000E+00 0.  1.
     999901    1    3    3    0    0  0.10705741260E+00 -0.34439458363E-01  0.81417344076E-01  0.89088503737E+00  0.88000000000E+00 0. -1.
        -11    1    4    4    0    0 -0.24018794606E-01  0.22392084312E-01 -0.13555912782E-01  0.35529309400E-01  0.51100000000E-03 0. -1.
         11    1    4    4    0    0 -0.69629487802E-01  0.27967263011E-01 -0.55175400444E-01  0.93139783696E-01  0.51100000000E-03 0.  1.
</event>
<event>
 8    1  0.1074844E+005  0.1043930E+01  0.7957747E-01            NaN
         13   -1    0    0    0    0  0.00000000000E+00  0.00000000000E+00  0.74505805969E-08  0.10566000000E+00  0.10566000000E+00 0. -1.
     999900   -1    0    0    0    0 -0.00000000000E+00 -0.00000000000E+00 -0.74505805969E-08  0.93827000000E+00  0.93827000000E+00 0.  1.
     999902    2    1    2    0    0 -0.15760795559E-02 -0.48389586858E-02  0.27279435675E-01  0.10161799161E+01  0.10158009424E+01 0.  0.
     999903    2    3    3    0    0 -0.35048373406E-01  0.98490826301E-01 -0.65274382369E-01  0.12468474044E+00  0.18886719172E-01 0.  0.
         14    1    1    2    0    0  0.15760795559E-02  0.48389586858E-02 -0.27279435675E-01  0.27750083940E-01  0.00000000000E+00 0.  1.
     999901    1    3    3    0    0  0.33472293850E-01 -0.10332978499E+00  0.92553818043E-01  0.89149517562E+00  0.88000000000E+00 0. -1.
        -11    1    4    4    0    0 -0.44374908315E-02  0.34142680935E-01 -0.27268938571E-01  0.43923457493E-01  0.51100000000E-03 0. -1.
         11    1    4    4    0    0 -0.30610882574E-01  0.64348145365E-01 -0.38005443797E-01  0.80761282946E-01  0.51100000000E-03 0.  1.
</event>
<event>
 8    1  0.1074844E+005  0.1043930E+01  0.7957747E-01            NaN
         13   -1    0    0    0    0  0.00000000000E+00  0.00000000000E+00  0.74505805969E-08  0.10566000000E+00  0.10566000000E+00 0.  1.
     999900   -1    0    0    0    0 -0.00000000000E+00 -0.00000000000E+00 -0.74505805969E-08  0.93827000000E+00  0.93827000000E+00 0.  1.
     999902    2    1    2    0    0  0.10369346003E-01  0.55531415055E-02  0.23984459753E-01  0.10172164262E+01  0.10168655971E+01 0.  0.
     999903    2    3    3    0    0  0.64190732868E-01 -0.44912839772E-01 -0.96531141714E-01  0.12594342246E+00  0.20146239774E-01 0.  0.
         14    1    1    2    0    0 -0.10369346003E-01 -0.55531415055E-02 -0.23984459753E-01  0.26713573830E-01  0.00000000000E+00 0. -1.
     999901    1    3    3    0    0 -0.53821386866E-01  0.50465981278E-01  0.12051560147E+00  0.89127300371E+00  0.88000000000E+00 0. -1.
        -11    1    4    4    0    0  0.14943746917E-01 -0.20666650688E-01 -0.37277532909E-01  0.45169697844E-01  0.51100000000E-03 0. -1.
         11    1    4    4    0    0  0.49246985951E-01 -0.24246189084E-01 -0.59253608805E-01  0.80773724613E-01  0.51100000000E-03 0.  1.
</event>
<event>
 8    1  0.1074844E+005  0.1043930E+01  0.7957747E-01            NaN
         13   -1    0    0    0    0  0.00000000000E+00  0.00000000000E+00  0.74505805969E-08  0.10566000000E+00  0.10566000000E+00 0. -1.
     999900   -1    0    0    0    0 -0.00000000000E+00 -0.00000000000E+00 -0.74505805969E-08  0.93827000000E+00  0.93827000000E+00 0.  1.
     999902    2    1    2    0    0 -0.16636144618E-02  0.19200834525E-01 -0.13913181403E-01  0.10201599290E+01  0.10198829660E+01 0.  0.
     999903    2    3    3    0    0 -0.72966826510E-01 -0.20046490258E-01  0.10222231238E+00  0.12880592890E+00  0.20384960820E-01 0.  0.
         14    1    1    2    0    0  0.16636144618E-02 -0.19200834525E-01  0.13913181403E-01  0.23770071020E-01  0.00000000000E+00 0. -1.
     999901    1    3    3    0    0  0.71303212048E-01  0.39247324783E-01 -0.11613549378E+00  0.89135400008E+00  0.88000000000E+00 0.  1.
        -11    1    4    4    0    0 -0.28164710526E-01  0.16212855291E-02  0.43236156914E-01  0.51628537375E-01  0.51100000000E-03 0.  1.
         11    1    4    4    0    0 -0.44802115984E-01 -0.21667775787E-01  0.58986155466E-01  0.77177391520E-01  0.51100000000E-03 0. -1.
</event>
<event>
 8    1  0.1074844E+005  0.1043930E+01  0.7957747E-01            NaN
         13   -1    0    0    0    0  0.00000000000E+00  0.00000000000E+00  0.74505805969E-08  0.10566000000E+00  0.10566000000E+00 0.  1.
     999900   -1    0    0    0    0 -0.00000000000E+00 -0.00000000000E+00 -0.74505805969E-08  0.93827000000E+00  0.93827000000E+00 0. -1.
     999902    2    1    2    0    0 -0.55254654246E-02 -0.22258136450E-01  0.98125493825E-02  0.10189852304E+01  0.10186798605E+01 0.  0.
     999903    2    3    3    0    0  0.59627872484E-01 -0.98940965694E-01 -0.57749539146E-01  0.13067793582E+00  0.19922745050E-01 0.  0.
         14    1    1    2    0    0  0.55254654246E-02  0.22258136450E-01 -0.98125493825E-02  0.24944769627E-01  0.00000000000E+00 0. -1.
     999901    1    3    3    0    0 -0.65153337908E-01  0.76682829245E-01  0.67562088529E-01  0.88830729455E+00  0.88000000000E+00 0. -1.
        -11    1    4    4    0    0  0.58663198406E-01 -0.89672806712E-01 -0.48795511878E-01  0.11774483518E+00  0.51100000000E-03 0.  1.
         11    1    4    4    0    0  0.96467407767E-03 -0.92681589819E-02 -0.89540272678E-02  0.12933100645E-01  0.51100000000E-03 0. -1.
</event>
<event>
 8    1  0.1074844E+005  0.1043930E+01  0.7957747E-01            NaN
         13   -1    0    0    0    0  0.00000000000E+00  0.00000000000E+00  0.74505805969E-08  0.10566000000E+00  0.10566000000E+00 0. -1.
     999900   -1    0    0    0    0 -0.00000000000E+00 -0.00000000000E+00 -0.74505805969E-08  0.93827000000E+00  0.93827000000E+00 0.  1.
     999902    2    1    2    0    0  0.89500382500E-02  0.19097708353E-02 -0.21401128587E-01  0.10206542892E+01  0.10203888569E+01 0.  0.
     999903    2    3    3    0    0 -0.16294057185E-01  0.90885776752E-01 -0.93458523527E-01  0.13287826892E+00  0.19910249025E-01 0.  0.
         14    1    1    2    0    0 -0.89500382500E-02 -0.19097708353E-02  0.21401128587E-01  0.23275710819E-01  0.00000000000E+00 0. -1.
     999901    1    3    3    0    0  0.25244095435E-01 -0.88976005917E-01  0.72057394939E-01  0.88777602026E+00  0.88000000000E+00 0. -1.
        -11    1    4    4    0    0 -0.15552343275E-01  0.34497110617E-01 -0.41985514039E-01  0.56524070380E-01  0.51100000000E-03 0.  1.
         11    1    4    4    0    0 -0.74171390973E-03  0.56388666135E-01 -0.51473009488E-01  0.76354198541E-01  0.51100000000E-03 0. -1.
</event>
<event>
 8    1  0.1074844E+005  0.1043930E+01  0.7957747E-01            NaN
         13   -1    0    0    0    0  0.00000000000E+00  0.00000000000E+00  0.74505805969E-08  0.10566000000E+00  0.10566000000E+00 0. -1.
     999900   -1    0    0    0    0 -0.00000000000E+00 -0.00000000000E+00 -0.74505805969E-08  0.93827000000E+00  0.93827000000E+00 0.  1.
     999902    2    1    2    0    0 -0.21462836775E-01  0.71290293666E-02  0.58494977677E-02  0.10205699262E+01  0.10203025440E+01 0.  0.
     999903    2    3    3    0    0 -0.12029180349E+00 -0.41660592464E-01 -0.32432077259E-01  0.13286892317E+00  0.19914521233E-01 0.  0.
         14    1    1    2    0    0  0.21462836775E-01 -0.71290293666E-02 -0.58494977677E-02  0.23360073764E-01  0.00000000000E+00 0.  1.
     999901    1    3    3    0    0  0.98828966720E-01  0.48789621831E-01  0.38281575027E-01  0.88770100307E+00  0.88000000000E+00 0. -1.
        -11    1    4    4    0    0 -0.74257978176E-01 -0.18478034060E-01 -0.26508431064E-01  0.80985449952E-01  0.51100000000E-03 0. -1.
         11    1    4    4    0    0 -0.46033825319E-01 -0.23182558404E-01 -0.59236461951E-02  0.51883473216E-01  0.51100000000E-03 0.  1.
</event>
<event>
 8    1  0.1074844E+005  0.1043930E+01  0.7957747E-01            NaN
         13   -1    0    0    0    0  0.00000000000E+00  0.00000000000E+00  0.74505805969E-08  0.10566000000E+00  0.10566000000E+00 0. -1.
     999900   -1    0    0    0    0 -0.00000000000E+00 -0.00000000000E+00 -0.74505805969E-08  0.93827000000E+00  0.93827000000E+00 0.  1.
     999902    2    1    2    0    0  0.21565839019E-01 -0.62487451725E-02 -0.95955405949E-02  0.10195126572E+01  0.10192202174E+01 0.  0.
     999903    2    3    3    0    0  0.98395003499E-01  0.62451397184E-01 -0.58988137040E-01  0.13212206754E+00  0.19871756253E-01 0.  0.
         14    1    1    2    0    0 -0.21565839019E-01  0.62487451725E-02  0.95955405949E-02  0.24417342774E-01  0.00000000000E+00 0. -1.
     999901    1    3    3    0    0 -0.76829164480E-01 -0.68700142356E-01  0.49392596445E-01  0.88739058968E+00  0.88000000000E+00 0. -1.
        -11    1    4    4    0    0  0.46415416800E-01  0.21232727463E-01 -0.33490555511E-01  0.61049963650E-01  0.51100000000E-03 0. -1.
         11    1    4    4    0    0  0.51979586699E-01  0.41218669721E-01 -0.25497581530E-01  0.71072103893E-01  0.51100000000E-03 0.  1.
</event>
<event>
 8    1  0.1074844E+005  0.1043930E+01  0.7957747E-01            NaN
         13   -1    0    0    0    0  0.00000000000E+00  0.00000000000E+00  0.74505805969E-08  0.10566000000E+00  0.10566000000E+00 0.  1.
     999900   -1    0    0    0    0 -0.00000000000E+00 -0.00000000000E+00 -0.74505805969E-08  0.93827000000E+00  0.93827000000E+00 0.  1.
     999902    2    1    2    0    0 -0.22588683054E-01 -0.26489913060E-02  0.69370770362E-02  0.10201520944E+01  0.10198749467E+01 0.  0.
     999903    2    3    3    0    0  0.59386781578E-01 -0.10806834750E+00 -0.32975993129E-01  0.12918280725E+00  0.19880241689E-01 0.  0.
         14    1    1    2    0    0  0.22588683054E-01  0.26489913060E-02 -0.69370770362E-02  0.23777905603E-01  0.00000000000E+00 0.  1.
     999901    1    3    3    0    0 -0.81975464633E-01  0.10541935619E+00  0.39913070165E-01  0.89096928714E+00  0.88000000000E+00 0.  1.
        -11    1    4    4    0    0  0.33452702082E-01 -0.77720506716E-01 -0.26975494538E-01  0.88811591965E-01  0.51100000000E-03 0.  1.
         11    1    4    4    0    0  0.25934079497E-01 -0.30347840784E-01 -0.60004985902E-02  0.40371215289E-01  0.51100000000E-03 0. -1.
</event>
<event>
 8    1  0.1074844E+005  0.1043930E+01  0.7957747E-01            NaN
         13   -1    0    0    0    0  0.00000000000E+00  0.00000000000E+00  0.74505805969E-08  0.10566000000E+00  0.10566000000E+00 0.  1.
     999900   -1    0    0    0    0 -0.00000000000E+00 -0.00000000000E+00 -0.74505805969E-08  0.93827000000E+00  0.93827000000E+00 0.  1.
     999902    2    1    2    0    0 -0.22492668691E-01 -0.37972387379E-02  0.49241810817E-02  0.10205936180E+01  0.10203267841E+01 0.  0.
     999903    2    3    3    0    0  0.22726937347E-01  0.28836353854E-01 -0.12274002864E+00  0.12963463206E+00  0.19798338664E-01 0.  0.
         14    1    1    2    0    0  0.22492668691E-01  0.37972387379E-02 -0.49241810817E-02  0.23336382029E-01  0.00000000000E+00 0. -1.
     999901    1    3    3    0    0 -0.45219606038E-01 -0.32633592592E-01  0.12766420972E+00  0.89095898591E+00  0.88000000000E+00 0. -1.
        -11    1    4    4    0    0  0.13655826598E-01  0.37913136270E-02 -0.56138295788E-01  0.57901856914E-01  0.51100000000E-03 0.  1.
         11    1    4    4    0    0  0.90711107484E-02  0.25045040227E-01 -0.66601732851E-01  0.71732775144E-01  0.51100000000E-03 0. -1.
</event>
<event>
 8    1  0.1074844E+005  0.1043930E+01  0.7957747E-01            NaN
         13   -1    0    0    0    0  0.00000000000E+00  0.00000000000E+00  0.74505805969E-08  0.10566000000E+00  0.10566000000E+00 0.  1.
     999900   -1    0    0    0    0 -0.00000000000E+00 -0.00000000000E+00 -0.74505805969E-08  0.93827000000E+00  0.93827000000E+00 0. -1.
     999902    2    1    2    0    0  0.19413048191E-01  0.20004462088E-02  0.14020761683E-01  0.10198998110E+01  0.10196166802E+01 0.  0.
     999903    2    3    3    0    0  0.12253189112E+00  0.46091531311E-01  0.10915374749E-01  0.13277684152E+00  0.19288614205E-01 0.  0.
         14    1    1    2    0    0 -0.19413048191E-01 -0.20004462088E-02 -0.14020761683E-01  0.24030188998E-01  0.00000000000E+00 0. -1.
     999901    1    3    3    0    0 -0.10311884293E+00 -0.44091085102E-01  0.31053869332E-02  0.88712296948E+00  0.88000000000E+00 0.  1.
        -11    1    4    4    0    0  0.44216371820E-01  0.11406916199E-01 -0.39696504869E-02  0.45839115612E-01  0.51100000000E-03 0.  1.
         11    1    4    4    0    0  0.78315519302E-01  0.34684615112E-01  0.14885025236E-01  0.86937725909E-01  0.51100000000E-03 0. -1.
</event>
<event>
 8    1  0.1074844E+005  0.1043930E+01  0.7957747E-01            NaN
         13   -1    0    0    0    0  0.00000000000E+00  0.00000000000E+00  0.74505805969E-08  0.10566000000E+00  0.10566000000E+00 0.  1.
     999900   -1    0    0    0    0 -0.00000000000E+00 -0.00000000000E+00 -0.74505805969E-08  0.93827000000E+00  0.93827000000E+00 0.  1.
     999902    2    1    2    0    0 -0.39649187262E-02 -0.86852032698E-02  0.21368892639E-01  0.10205252375E+01  0.10202568193E+01 0.  0.
     999903    2    3    3    0    0  0.10489288810E+00  0.32303019332E-01 -0.64431839116E-01  0.12873388179E+00  0.19363558476E-01 0.  0.
         14    1    1    2    0    0  0.39649187262E-02  0.86852032698E-02 -0.21368892639E-01  0.23404762528E-01  0.00000000000E+00 0. -1.
     999901    1    3    3    0    0 -0.10885780683E+00 -0.40988222602E-01  0.85800731755E-01  0.89179135568E+00  0.88000000000E+00 0. -1.
        -11    1    4    4    0    0  0.44057011425E-01  0.21948084212E-01 -0.34748611643E-01  0.60253346699E-01  0.51100000000E-03 0. -1.
         11    1    4    4    0    0  0.60835876675E-01  0.10354935120E-01 -0.29683227474E-01  0.68480535092E-01  0.51100000000E-03 0.  1.
</event>
<event>
 8    1  0.1204416E+005  0.1043930E+01  0.7957747E-01            NaN
         13   -1    0    0    0    0  0.00000000000E+00  0.00000000000E+00  0.74505805969E-08  0.10566000000E+00  0.10566000000E+00 0.  1.
     999900   -1    0    0    0    0 -0.00000000000E+00 -0.00000000000E+00 -0.74505805969E-08  0.93827000000E+00  0.93827000000E+00 0. -1.
     999902    2    1    2    0    0  0.11243334821E-01  0.20194806580E-01  0.31169250229E-02  0.10206070925E+01  0.10203405703E+01 0.  0.
     999903    2    3    3    0    0  0.29819328478E-01 -0.11246408703E+00 -0.51724233219E-01  0.12878255698E+00  0.19292160517E-01 0.  0.
         14    1    1    2    0    0 -0.11243334821E-01 -0.20194806580E-01 -0.31169250229E-02  0.23322907458E-01  0.00000000000E+00 0.  1.
     999901    1    3    3    0    0 -0.18575993657E-01  0.13265889361E+00  0.54841158242E-01  0.89182453556E+00  0.88000000000E+00 0. -1.
        -11    1    4    4    0    0  0.23716702599E-01 -0.55479051352E-01 -0.22030730128E-01  0.64234113305E-01  0.51100000000E-03 0. -1.
         11    1    4    4    0    0  0.61026258790E-02 -0.56985035678E-01 -0.29693503091E-01  0.64548443674E-01  0.51100000000E-03 0.  1.
</event>
<event>
 8    1  0.1074844E+005  0.1043930E+01  0.7957747E-01            NaN
         13   -1    0    0    0    0  0.00000000000E+00  0.00000000000E+00  0.74505805969E-08  0.10566000000E+00  0.10566000000E+00 0.  1.
     999900   -1    0    0    0    0 -0.00000000000E+00 -0.00000000000E+00 -0.74505805969E-08  0.93827000000E+00  0.93827000000E+00 0.  1.
     999902    2    1    2    0    0  0.22164177312E-01  0.62584054607E-02  0.13305324692E-02  0.10208607843E+01  0.10206000942E+01 0.  0.
     999903    2    3    3    0    0  0.74085733463E-01  0.13063170165E-01 -0.10723396528E+00  0.13264436758E+00  0.20882112556E-01 0.  0.
         14    1    1    2    0    0 -0.22164177312E-01 -0.62584054607E-02 -0.13305324692E-02  0.23069215667E-01  0.00000000000E+00 0. -1.
     999901    1    3    3    0    0 -0.51921556151E-01 -0.68047647040E-02  0.10856449775E+00  0.88821641675E+00  0.88000000000E+00 0. -1.
        -11    1    4    4    0    0  0.47026355285E-01  0.12072113602E-01 -0.83709294878E-01  0.96771489542E-01  0.51100000000E-03 0.  1.
         11    1    4    4    0    0  0.27059378179E-01  0.99105656242E-03 -0.23524670398E-01  0.35872878039E-01  0.51100000000E-03 0. -1.
</event>
<event>
 8    1  0.1074844E+005  0.1043930E+01  0.7957747E-01            NaN
         13   -1    0    0    0    0  0.00000000000E+00  0.00000000000E+00  0.74505805969E-08  0.10566000000E+00  0.10566000000E+00 0.  1.
     999900   -1    0    0    0    0 -0.00000000000E+00 -0.00000000000E+00 -0.74505805969E-08  0.93827000000E+00  0.93827000000E+00 0. -1.
     999902    2    1    2    0    0  0.22108615390E-01 -0.11419995738E-01 -0.10714364315E-02  0.10190230702E+01  0.10187186375E+01 0.  0.
     999903    2    3    3    0    0 -0.83538090745E-01 -0.87518832055E-01 -0.37938143308E-01  0.12867964572E+00  0.21931482723E-01 0.  0.
         14    1    1    2    0    0 -0.22108615390E-01  0.11419995738E-01  0.10714364315E-02  0.24906929822E-01  0.00000000000E+00 0.  1.
     999901    1    3    3    0    0  0.10564670613E+00  0.76098836317E-01  0.36866706877E-01  0.89034342446E+00  0.88000000000E+00 0.  1.
        -11    1    4    4    0    0 -0.54332561011E-01 -0.51288842464E-01 -0.33643420569E-01  0.81943354922E-01  0.51100000000E-03 0.  1.
         11    1    4    4    0    0 -0.29205529734E-01 -0.36229989591E-01 -0.42947227396E-02  0.46736290794E-01  0.51100000000E-03 0. -1.
</event>
<event>
 8    1  0.1074844E+005  0.1043930E+01  0.7957747E-01            NaN
         13   -1    0    0    0    0  0.00000000000E+00  0.00000000000E+00  0.74505805969E-08  0.10566000000E+00  0.10566000000E+00 0.  1.
     999900   -1    0    0    0    0 -0.00000000000E+00 -0.00000000000E+00 -0.74505805969E-08  0.93827000000E+00  0.93827000000E+00 0.  1.
     999902    2    1    2    0    0 -0.20162627216E-01 -0.77558572510E-02 -0.11670850695E-01  0.10193761080E+01  0.10190803481E+01 0.  0.
     999903    2    3    3    0    0 -0.84966514770E-01 -0.99057087998E-01  0.59290334676E-02  0.13210770748E+00  0.19638676733E-01 0.  0.
         14    1    1    2    0    0  0.20162627216E-01  0.77558572510E-02  0.11670850695E-01  0.24553892031E-01  0.00000000000E+00 0.  1.
     999901    1    3    3    0    0  0.64803887554E-01  0.91301230747E-01 -0.17599884163E-01  0.88726840049E+00  0.88000000000E+00 0.  1.
        -11    1    4    4    0    0 -0.26350128247E-01 -0.20889850167E-01 -0.41463455663E-02  0.33884633703E-01  0.51100000000E-03 0. -1.
         11    1    4    4    0    0 -0.58616386523E-01 -0.78167237831E-01  0.10075379034E-01  0.98223073780E-01  0.51100000000E-03 0.  1.
</event>
<event>
 8    1  0.1074844E+005  0.1043930E+01  0.7957747E-01            NaN
         13   -1    0    0    0    0  0.00000000000E+00  0.00000000000E+00  0.74505805969E-08  0.10566000000E+00  0.10566000000E+00 0. -1.
     999900   -1    0    0    0    0 -0.00000000000E+00 -0.00000000000E+00 -0.74505805969E-08  0.93827000000E+00  0.93827000000E+00 0. -1.
     999902    2    1    2    0    0  0.43797233757E-02  0.14298256843E-01  0.17713947544E-01  0.10207479797E+01  0.10204847045E+01 0.  0.
     999903    2    3    3    0    0 -0.37140085835E-01  0.79238812490E-01  0.99015475995E-01  0.13364533131E+00  0.19970846613E-01 0.  0.
         14    1    1    2    0    0 -0.43797233757E-02 -0.14298256843E-01 -0.17713947544E-01  0.23182020257E-01  0.00000000000E+00 0.  1.
     999901    1    3    3    0    0  0.41519809210E-01 -0.64940555647E-01 -0.81301528451E-01  0.88710264843E+00  0.88000000000E+00 0. -1.
        -11    1    4    4    0    0 -0.26609749109E-01  0.35400458930E-01  0.55238323483E-01  0.70801163425E-01  0.51100000000E-03 0.  1.
         11    1    4    4    0    0 -0.10530336725E-01  0.43838353560E-01  0.43777152512E-01  0.62844167888E-01  0.51100000000E-03 0. -1.
</event>
<event>
 8    1  0.1074844E+005  0.1043930E+01  0.7957747E-01            NaN
         13   -1    0    0    0    0  0.00000000000E+00  0.00000000000E+00  0.74505805969E-08  0.10566000000E+00  0.10566000000E+00 0. -1.
     999900   -1    0    0    0    0 -0.00000000000E+00 -0.00000000000E+00 -0.74505805969E-08  0.93827000000E+00  0.93827000000E+00 0. -1.
     999902    2    1    2    0    0  0.18573779119E-01  0.86992809760E-02 -0.14063859330E-01  0.10190612465E+01  0.10187577579E+01 0.  0.
     999903    2    3    3    0    0  0.67894631442E-02  0.19293881290E-01 -0.12804989843E+00  0.13156818584E+00  0.22249952151E-01 0.  0.
         14    1    1    2    0    0 -0.18573779119E-01 -0.86992809760E-02  0.14063859330E-01  0.24868753477E-01  0.00000000000E+00 0.  1.
     999901    1    3    3    0    0  0.11784315975E-01 -0.10594600314E-01  0.11398603910E+00  0.88749306069E+00  0.88000000000E+00 0.  1.
        -11    1    4    4    0    0 -0.70724375992E-02  0.11037423300E-01 -0.41446780047E-01  0.43473449185E-01  0.51100000000E-03 0.  1.
         11    1    4    4    0    0  0.13861900743E-01  0.82564579902E-02 -0.86603118384E-01  0.88094736651E-01  0.51100000000E-03 0. -1.
</event>
<event>
 8    1  0.1074844E+005  0.1043930E+01  0.7957747E-01            NaN
         13   -1    0    0    0    0  0.00000000000E+00  0.00000000000E+00  0.74505805969E-08  0.10566000000E+00  0.10566000000E+00 0.  1.
     999900   -1    0    0    0    0 -0.00000000000E+00 -0.00000000000E+00 -0.74505805969E-08  0.93827000000E+00  0.93827000000E+00 0. -1.
     999902    2    1    2    0    0  0.25480710930E-01 -0.31371061702E-02  0.15131809899E-02  0.10182123449E+01  0.10178875093E+01 0.  0.
     999903    2    3    3    0    0 -0.47126189841E-01 -0.21447872777E-01 -0.11488927618E+00  0.12739441841E+00  0.18678946587E-01 0.  0.
         14    1    1    2    0    0 -0.25480710930E-01  0.31371061702E-02 -0.15131809899E-02  0.25717655052E-01  0.00000000000E+00 0. -1.
     999901    1    3    3    0    0  0.72606900771E-01  0.18310766607E-01  0.11640245717E+00  0.89081792654E+00  0.88000000000E+00 0.  1.
        -11    1    4    4    0    0 -0.29099755140E-01 -0.22281793476E-01 -0.70121613670E-01  0.79123801061E-01  0.51100000000E-03 0. -1.
         11    1    4    4    0    0 -0.18026434701E-01  0.83392069854E-03 -0.44767662506E-01  0.48270617346E-01  0.51100000000E-03 0.  1.
</event>
<event>
 8    1  0.1074844E+005  0.1043930E+01  0.7957747E-01            NaN
         13   -1    0    0    0    0  0.00000000000E+00  0.00000000000E+00  0.74505805969E-08  0.10566000000E+00  0.10566000000E+00 0.  1.
     999900   -1    0    0    0    0 -0.00000000000E+00 -0.00000000000E+00 -0.74505805969E-08  0.93827000000E+00  0.93827000000E+00 0. -1.
     999902    2    1    2    0    0  0.20241133319E-01  0.29424508339E-02  0.12573716994E-01  0.10199204216E+01  0.10196377820E+01 0.  0.
     999903    2    3    3    0    0 -0.45967789940E-01 -0.91826433843E-01  0.77137112032E-01  0.13001413723E+00  0.20209160349E-01 0.  0.
         14    1    1    2    0    0 -0.20241133319E-01 -0.29424508339E-02 -0.12573716994E-01  0.24009578380E-01  0.00000000000E+00 0. -1.
     999901    1    3    3    0    0  0.66208923259E-01  0.94768884677E-01 -0.64563395038E-01  0.88990628439E+00  0.88000000000E+00 0.  1.
        -11    1    4    4    0    0 -0.29701901642E-01 -0.50959366294E-01  0.32507474450E-01  0.67350256053E-01  0.51100000000E-03 0.  1.
         11    1    4    4    0    0 -0.16265888298E-01 -0.40867067550E-01  0.44629637582E-01  0.62663881175E-01  0.51100000000E-03 0. -1.
</event>
<event>
 8    1  0.1074844E+005  0.1043930E+01  0.7957747E-01            NaN
         13   -1    0    0    0    0  0.00000000000E+00  0.00000000000E+00  0.74505805969E-08  0.10566000000E+00  0.10566000000E+00 0.  1.
     999900   -1    0    0    0    0 -0.00000000000E+00 -0.00000000000E+00 -0.74505805969E-08  0.93827000000E+00  0.93827000000E+00 0. -1.
     999902    2    1    2    0    0 -0.14931455274E-01  0.13849577358E-01  0.13179208672E-01  0.10196719974E+01  0.10193834075E+01 0.  0.
     999903    2    3    3    0    0  0.12241119919E+00  0.33900571292E-01  0.74564140721E-02  0.12877481057E+00  0.19839438164E-01 0.  0.
         14    1    1    2    0    0  0.14931455274E-01 -0.13849577358E-01 -0.13179208672E-01  0.24258002614E-01  0.00000000000E+00 0.  1.
     999901    1    3    3    0    0 -0.13734265446E+00 -0.20050993934E-01  0.57227946002E-02  0.89089718681E+00  0.88000000000E+00 0. -1.
        -11    1    4    4    0    0  0.64147100130E-01  0.11117281319E-01  0.11367795247E-01  0.66090334307E-01  0.51100000000E-03 0.  1.
         11    1    4    4    0    0  0.58264099059E-01  0.22783289973E-01 -0.39113811749E-02  0.62684476267E-01  0.51100000000E-03 0. -1.
</event>
<event>
 8    1  0.1074844E+005  0.1043930E+01  0.7957747E-01            NaN
         13   -1    0    0    0    0  0.00000000000E+00  0.00000000000E+00  0.74505805969E-08  0.10566000000E+00  0.10566000000E+00 0. -1.
     999900   -1    0    0    0    0 -0.00000000000E+00 -0.00000000000E+00 -0.74505805969E-08  0.93827000000E+00  0.93827000000E+00 0.  1.
     999902    2    1    2    0    0  0.17772846120E-01  0.16372125839E-01 -0.91682246237E-02  0.10180847508E+01  0.10177566423E+01 0.  0.
     999903    2    3    3    0    0  0.29273526170E-01 -0.11106586263E+00 -0.52243499887E-01  0.12778806660E+00  0.20195086245E-01 0.  0.
         14    1    1    2    0    0 -0.17772846120E-01 -0.16372125839E-01  0.91682246237E-02  0.25845249205E-01  0.00000000000E+00 0. -1.
     999901    1    3    3    0    0 -0.11500680049E-01  0.12743798847E+00  0.43075275263E-01  0.89029668419E+00  0.88000000000E+00 0. -1.
        -11    1    4    4    0    0  0.13617358577E-01 -0.75988169711E-01 -0.26844313932E-01  0.81734403419E-01  0.51100000000E-03 0. -1.
         11    1    4    4    0    0  0.15656167593E-01 -0.35077692922E-01 -0.25399185954E-01  0.46053663183E-01  0.51100000000E-03 0.  1.
</event>
<event>
 8    1  0.1074844E+005  0.1043930E+01  0.7957747E-01            NaN
         13   -1    0    0    0    0  0.00000000000E+00  0.00000000000E+00  0.74505805969E-08  0.10566000000E+00  0.10566000000E+00 0.  1.
     999900   -1    0    0    0    0 -0.00000000000E+00 -0.00000000000E+00 -0.74505805969E-08  0.93827000000E+00  0.93827000000E+00 0. -1.
     999902    2    1    2    0    0 -0.20203528730E-01  0.95641795508E-02  0.27262092334E-02  0.10214113784E+01  0.10211631190E+01 0.  0.
     999903    2    3    3    0    0 -0.80002475060E-01 -0.10275831016E+00  0.11514400020E-01  0.13221539998E+00  0.19714569752E-01 0.  0.
         14    1    1    2    0    0  0.20203528730E-01 -0.95641795508E-02 -0.27262092334E-02  0.22518621636E-01  0.00000000000E+00 0. -1.
     999901    1    3    3    0    0  0.59798946330E-01  0.11232248971E+00 -0.87881907861E-02  0.88919597838E+00  0.88000000000E+00 0. -1.
        -11    1    4    4    0    0 -0.12497731593E-01 -0.26966516934E-01 -0.21466897133E-02  0.29803619382E-01  0.51100000000E-03 0.  1.
         11    1    4    4    0    0 -0.67504743467E-01 -0.75791793229E-01  0.13661089733E-01  0.10241178060E+00  0.51100000000E-03 0. -1.
</event>
<event>
 8    1  0.1074844E+005  0.1043930E+01  0.7957747E-01            NaN
         13   -1    0    0    0    0  0.00000000000E+00  0.00000000000E+00  0.74505805969E-08  0.10566000000E+00  0.10566000000E+00 0. -1.
     999900   -1    0    0    0    0 -0.00000000000E+00 -0.00000000000E+00 -0.74505805969E-08  0.93827000000E+00  0.93827000000E+00 0.  1.
     999902    2    1    2    0    0 -0.14443984502E-01 -0.17427534259E-01  0.48793763864E-02  0.10207749584E+01  0.10205123026E+01 0.  0.
     999903    2    3    3    0    0 -0.39301963407E-01 -0.38144542934E-01  0.11940437706E+00  0.13276420994E+00  0.19216651504E-01 0.  0.
         14    1    1    2    0    0  0.14443984502E-01  0.17427534259E-01 -0.48793763864E-02  0.23155041623E-01  0.00000000000E+00 0. -1.
     999901    1    3    3    0    0  0.24857978905E-01  0.20717008675E-01 -0.11452500068E+00  0.88801074844E+00  0.88000000000E+00 0.  1.
        -11    1    4    4    0    0 -0.96674157801E-02 -0.11841190941E-01  0.55513041923E-01  0.57581521995E-01  0.51100000000E-03 0.  1.
         11    1    4    4    0    0 -0.29634547627E-01 -0.26303351993E-01  0.63891335141E-01  0.75182687942E-01  0.51100000000E-03 0. -1.
</event>
<event>
 8    1  0.1074844E+005  0.1043930E+01  0.7957747E-01            NaN
         13   -1    0    0    0    0  0.00000000000E+00  0.00000000000E+00  0.74505805969E-08  0.10566000000E+00  0.10566000000E+00 0.  1.
     999900   -1    0    0    0    0 -0.00000000000E+00 -0.00000000000E+00 -0.74505805969E-08  0.93827000000E+00  0.93827000000E+00 0.  1.
     999902    2    1    2    0    0 -0.23133580707E-01  0.26310627063E-02 -0.75941954285E-02  0.10194400663E+01  0.10191458639E+01 0.  0.
     999903    2    3    3    0    0 -0.10234369160E+00 -0.47939814705E-01 -0.66429988469E-01  0.13248273598E+00  0.19138310276E-01 0.  0.
         14    1    1    2    0    0  0.23133580707E-01 -0.26310627063E-02  0.75941954285E-02  0.24489933677E-01  0.00000000000E+00 0.  1.
     999901    1    3    3    0    0  0.79210110891E-01  0.50570877412E-01  0.58835793041E-01  0.88695733034E+00  0.88000000000E+00 0. -1.
        -11    1    4    4    0    0 -0.73513014437E-01 -0.30968962089E-01 -0.37050229013E-01  0.87955787163E-01  0.51100000000E-03 0. -1.
         11    1    4    4    0    0 -0.28830677162E-01 -0.16970852616E-01 -0.29379759456E-01  0.44526948815E-01  0.51100000000E-03 0.  1.
</event>
<event>
 8    1  0.1074844E+005  0.1043930E+01  0.7957747E-01            NaN
         13   -1    0    0    0    0  0.00000000000E+00  0.00000000000E+00  0.74505805969E-08  0.10566000000E+00  0.10566000000E+00 0.  1.
     999900   -1    0    0    0    0 -0.00000000000E+00 -0.00000000000E+00 -0.74505805969E-08  0.93827000000E+00  0.93827000000E+00 0. -1.
     999902    2    1    2    0    0  0.20718550079E-01 -0.89408442045E-02  0.71010185321E-02  0.10202736800E+01  0.10199993924E+01 0.  0.
     999903    2    3    3    0    0 -0.93437508659E-01 -0.71656510920E-01 -0.48552219287E-01  0.12894762097E+00  0.20123304267E-01 0.  0.
         14    1    1    2    0    0 -0.20718550079E-01  0.89408442045E-02 -0.71010185321E-02  0.23656320015E-01  0.00000000000E+00 0. -1.
     999901    1    3    3    0    0  0.11415605874E+00  0.62715666716E-01  0.55653237819E-01  0.89132605901E+00  0.88000000000E+00 0.  1.
        -11    1    4    4    0    0 -0.64726087628E-01 -0.49356797427E-01 -0.23257817552E-01  0.84656642210E-01  0.51100000000E-03 0. -1.
         11    1    4    4    0    0 -0.28711421031E-01 -0.22299713493E-01 -0.25294401735E-01  0.44290978761E-01  0.51100000000E-03 0.  1.
</event>
<event>
 8    1  0.1074844E+005  0.1043930E+01  0.7957747E-01            NaN
         13   -1    0    0    0    0  0.00000000000E+00  0.00000000000E+00  0.74505805969E-08  0.10566000000E+00  0.10566000000E+00 0.  1.
     999900   -1    0    0    0    0 -0.00000000000E+00 -0.00000000000E+00 -0.74505805969E-08  0.93827000000E+00  0.93827000000E+00 0. -1.
     999902    2    1    2    0    0 -0.22298203016E-01 -0.87336019009E-02 -0.36014959893E-02  0.10197131374E+01  0.10194255373E+01 0.  0.
     999903    2    3    3    0    0  0.66621874103E-01 -0.10831688253E+00 -0.15030772424E-01  0.12957031840E+00  0.19786918398E-01 0.  0.
         14    1    1    2    0    0  0.22298203016E-01  0.87336019009E-02  0.36014959893E-02  0.24216862581E-01  0.00000000000E+00 0. -1.
     999901    1    3    3    0    0 -0.88920077119E-01  0.99583280630E-01  0.11429276435E-01  0.89014281902E+00  0.88000000000E+00 0. -1.
        -11    1    4    4    0    0  0.90812677394E-02 -0.19411418126E-01  0.44424928499E-02  0.21892223303E-01  0.51100000000E-03 0.  1.
         11    1    4    4    0    0  0.57540606364E-01 -0.88905464404E-01 -0.19473265274E-01  0.10767809509E+00  0.51100000000E-03 0. -1.
</event>
<event>
 8    1  0.1074844E+005  0.1043930E+01  0.7957747E-01            NaN
         13   -1    0    0    0    0  0.00000000000E+00  0.00000000000E+00  0.74505805969E-08  0.10566000000E+00  0.10566000000E+00 0.  1.
     999900   -1    0    0    0    0 -0.00000000000E+00 -0.00000000000E+00 -0.74505805969E-08  0.93827000000E+00  0.93827000000E+00 0. -1.
     999902    2    1    2    0    0 -0.46563462274E-02  0.70315188019E-02  0.22177757066E-01  0.10202028694E+01  0.10199269180E+01 0.  0.
     999903    2    3    3    0    0 -0.12075149290E+00 -0.27031469229E-02 -0.43738428308E-01  0.13008052374E+00  0.20485665795E-01 0.  0.
         14    1    1    2    0    0  0.46563462274E-02 -0.70315188019E-02 -0.22177757066E-01  0.23727130575E-01  0.00000000000E+00 0. -1.
     999901    1    3    3    0    0  0.11609514668E+00  0.97346657249E-02  0.65916185373E-01  0.89012234569E+00  0.88000000000E+00 0.  1.
        -11    1    4    4    0    0 -0.69928038182E-01  0.43311152945E-02 -0.16467416825E-01  0.71973092344E-01  0.51100000000E-03 0. -1.
         11    1    4    4    0    0 -0.50823454723E-01 -0.70342622174E-02 -0.27271011482E-01  0.58107431394E-01  0.51100000000E-03 0.  1.
</event>
<event>
 8    1  0.1074844E+005  0.1043930E+01  0.7957747E-01            NaN
         13   -1    0    0    0    0  0.00000000000E+00  0.00000000000E+00  0.74505805969E-08  0.10566000000E+00  0.10566000000E+00 0.  1.
     999900   -1    0    0    0    0 -0.00000000000E+00 -0.00000000000E+00 -0.74505805969E-08  0.93827000000E+00  0.93827000000E+00 0.  1.
     999902    2    1    2    0    0 -0.90869360430E-02  0.64350353525E-02  0.20837750261E-01  0.10203038720E+01  0.10200302924E+01 0.  0.
     999903    2    3    3    0    0  0.29786131991E-01 -0.91854655117E-01 -0.81367142170E-01  0.12810556521E+00  0.21585473970E-01 0.  0.
         14    1    1    2    0    0  0.90869360430E-02 -0.64350353525E-02 -0.20837750261E-01  0.23626127964E-01  0.00000000000E+00 0. -1.
     999901    1    3    3    0    0 -0.38873068034E-01  0.98289690470E-01  0.10220489243E+00  0.89219830683E+00  0.88000000000E+00 0.  1.
        -11    1    4    4    0    0  0.69012840815E-03 -0.31417168940E-01 -0.20467500390E-01  0.37505925860E-01  0.51100000000E-03 0.  1.
         11    1    4    4    0    0  0.29096003583E-01 -0.60437486178E-01 -0.60899641780E-01  0.90599639347E-01  0.51100000000E-03 0. -1.
</event>
<event>
 8    1  0.1074844E+005  0.1043930E+01  0.7957747E-01            NaN
         13   -1    0    0    0    0  0.00000000000E+00  0.00000000000E+00  0.74505805969E-08  0.10566000000E+00  0.10566000000E+00 0.  1.
     999900   -1    0    0    0    0 -0.00000000000E+00 -0.00000000000E+00 -0.74505805969E-08  0.93827000000E+00  0.93827000000E+00 0.  1.
     999902    2    1    2    0    0  0.82803604391E-02  0.18138037362E-01  0.15781393078E-01  0.10185015684E+01  0.10181840893E+01 0.  0.
     999903    2    3    3    0    0  0.49895373976E-01 -0.58709176383E-01  0.10292370239E+00  0.12988968138E+00  0.18485807517E-01 0.  0.
         14    1    1    2    0    0 -0.82803604391E-02 -0.18138037362E-01 -0.15781393078E-01  0.25428431643E-01  0.00000000000E+00 0.  1.
     999901    1    3    3    0    0 -0.41615013537E-01  0.76847213745E-01 -0.87142309307E-01  0.88861188698E+00  0.88000000000E+00 0.  1.
        -11    1    4    4    0    0  0.16363438759E-01 -0.32723467308E-01  0.52488943162E-01  0.63983886377E-01  0.51100000000E-03 0. -1.
         11    1    4    4    0    0  0.33531935217E-01 -0.25985709075E-01  0.50434759223E-01  0.65905794999E-01  0.51100000000E-03 0.  1.
</event>
<event>
 8    1  0.1074844E+005  0.1043930E+01  0.7957747E-01            NaN
         13   -1    0    0    0    0  0.00000000000E+00  0.00000000000E+00  0.74505805969E-08  0.10566000000E+00  0.10566000000E+00 0.  1.
     999900   -1    0    0    0    0 -0.00000000000E+00 -0.00000000000E+00 -0.74505805969E-08  0.93827000000E+00  0.93827000000E+00 0.  1.
     999902    2    1    2    0    0  0.71970218097E-03 -0.10307374459E-01 -0.21747271544E-01  0.10198529620E+01  0.10195687129E+01 0.  0.
     999903    2    3    3    0    0  0.92362430614E-02  0.83848779769E-01  0.92989471687E-01  0.12738311203E+00  0.21528802367E-01 0.  0.
         14    1    1    2    0    0 -0.71970218097E-03  0.10307374459E-01  0.21747271544E-01  0.24077038005E-01  0.00000000000E+00 0.  1.
     999901    1    3    3    0    0 -0.85165408804E-02 -0.94156154228E-01 -0.11473674323E+00  0.89246984996E+00  0.88000000000E+00 0.  1.
        -11    1    4    4    0    0 -0.41412313154E-02  0.27265269378E-01  0.40812583724E-01  0.49259240983E-01  0.51100000000E-03 0.  1.
         11    1    4    4    0    0  0.13377474377E-01  0.56583510391E-01  0.52176887964E-01  0.78123871048E-01  0.51100000000E-03 0. -1.
</event>
<event>
 8    1  0.1074844E+005  0.1043930E+01  0.7957747E-01            NaN
         13   -1    0    0    0    0  0.00000000000E+00  0.00000000000E+00  0.74505805969E-08  0.10566000000E+00  0.10566000000E+00 0.  1.
     999900   -1    0    0    0    0 -0.00000000000E+00 -0.00000000000E+00 -0.74505805969E-08  0.93827000000E+00  0.93827000000E+00 0. -1.
     999902    2    1    2    0    0 -0.50558770254E-02 -0.15703662312E-01 -0.23102166059E-01  0.10155420276E+01  0.10151451782E+01 0.  0.
     999903    2    3    3    0    0  0.22920793481E-01 -0.12170098708E+00 -0.28368398924E-01  0.12872419951E+00  0.20704116746E-01 0.  0.
         14    1    1    2    0    0  0.50558770254E-02  0.15703662312E-01  0.23102166059E-01  0.28387972437E-01  0.00000000000E+00 0.  1.
     999901    1    3    3    0    0 -0.27976670506E-01  0.10599732477E+00  0.52662328652E-02  0.88681782806E+00  0.88000000000E+00 0. -1.
        -11    1    4    4    0    0  0.12084661183E-01 -0.26269139562E-01 -0.11916431253E-01  0.31278893587E-01  0.51100000000E-03 0.  1.
         11    1    4    4    0    0  0.10836132298E-01 -0.95431847520E-01 -0.16451967671E-01  0.97445305918E-01  0.51100000000E-03 0. -1.
</event>
<event>
 8    1  0.1749857E+005  0.1043930E+01  0.7957747E-01            NaN
         13   -1    0    0    0    0  0.00000000000E+00  0.00000000000E+00  0.74505805969E-08  0.10566000000E+00  0.10566000000E+00 0.  1.
     999900   -1    0    0    0    0 -0.00000000000E+00 -0.00000000000E+00 -0.74505805969E-08  0.93827000000E+00  0.93827000000E+00 0.  1.
     999902    2    1    2    0    0 -0.22359055241E-01 -0.85743847668E-02  0.99945817702E-03  0.10199623897E+01  0.10196807491E+01 0.  0.
     999903    2    3    3    0    0 -0.62183938955E-01 -0.10292926606E+00 -0.51706246782E-01  0.13245647070E+00  0.20246100784E-01 0.  0.
         14    1    1    2    0    0  0.22359055241E-01  0.85743847668E-02 -0.99945817702E-03  0.23967610270E-01  0.00000000000E+00 0. -1.
     999901    1    3    3    0    0  0.39824883715E-01  0.94354881294E-01  0.52705704959E-01  0.88750591904E+00  0.88000000000E+00 0. -1.
        -11    1    4    4    0    0 -0.31498993729E-01 -0.45164589383E-01 -0.13470019864E-01  0.56689763593E-01  0.51100000000E-03 0. -1.
         11    1    4    4    0    0 -0.30684945227E-01 -0.57764676678E-01 -0.38236226918E-01  0.75766707103E-01  0.51100000000E-03 0.  1.
</event>
<event>
 8    1  0.1074844E+005  0.1043930E+01  0.7957747E-01            NaN
         13   -1    0    0    0    0  0.00000000000E+00  0.00000000000E+00  0.74505805969E-08  0.10566000000E+00  0.10566000000E+00 0. -1.
     999900   -1    0    0    0    0 -0.00000000000E+00 -0.00000000000E+00 -0.74505805969E-08  0.93827000000E+00  0.93827000000E+00 0.  1.
     999902    2    1    2    0    0 -0.65628068110E-02  0.11775757967E-01  0.19670483081E-01  0.10200832641E+01  0.10198044905E+01 0.  0.
     999903    2    3    3    0    0 -0.91373232830E-01 -0.28859982848E-01 -0.83826286789E-01  0.12904137216E+00  0.21044312420E-01 0.  0.
         14    1    1    2    0    0  0.65628068110E-02 -0.11775757967E-01 -0.19670483081E-01  0.23846735910E-01  0.00000000000E+00 0.  1.
     999901    1    3    3    0    0  0.84810426019E-01  0.40635740815E-01  0.10349676987E+00  0.89104189193E+00  0.88000000000E+00 0. -1.
        -11    1    4    4    0    0 -0.53172101839E-01 -0.26498356777E-01 -0.45097085067E-01  0.74588494611E-01  0.51100000000E-03 0. -1.
         11    1    4    4    0    0 -0.38201130991E-01 -0.23616260715E-02 -0.38729201722E-01  0.54452877553E-01  0.51100000000E-03 0.  1.
</event>
<event>
 8    1  0.1074844E+005  0.1043930E+01  0.7957747E-01            NaN
         13   -1    0    0    0    0  0.00000000000E+00  0.00000000000E+00  0.74505805969E-08  0.10566000000E+00  0.10566000000E+00 0. -1.
     999900   -1    0    0    0    0 -0.00000000000E+00 -0.00000000000E+00 -0.74505805969E-08  0.93827000000E+00  0.93827000000E+00 0. -1.
     999902    2    1    2    0    0 -0.11477376128E-01  0.11620254603E-01 -0.20803024006E-01  0.10174814407E+01  0.10171376288E+01 0.  0.
     999903    2    3    3    0    0 -0.12202725905E+00 -0.29177761566E-01 -0.25362221373E-01  0.12961515518E+00  0.20367927146E-01 0.  0.
         14    1    1    2    0    0  0.11477376128E-01 -0.11620254603E-01  0.20803024006E-01  0.26448559273E-01  0.00000000000E+00 0.  1.
     999901    1    3    3    0    0  0.11054988292E+00  0.40798016169E-01  0.45591973670E-02  0.88786628555E+00  0.88000000000E+00 0. -1.
        -11    1    4    4    0    0 -0.33933459033E-01 -0.17634211707E-01 -0.85728715135E-02  0.39194391327E-01  0.51100000000E-03 0.  1.
         11    1    4    4    0    0 -0.88093800020E-01 -0.11543549859E-01 -0.16789349859E-01  0.90420763849E-01  0.51100000000E-03 0. -1.
</event>
<event>
 8    1  0.1074844E+005  0.1043930E+01  0.7957747E-01            NaN
         13   -1    0    0    0    0  0.00000000000E+00  0.00000000000E+00  0.74505805969E-08  0.10566000000E+00  0.10566000000E+00 0. -1.
     999900   -1    0    0    0    0 -0.00000000000E+00 -0.00000000000E+00 -0.74505805969E-08  0.93827000000E+00  0.93827000000E+00 0. -1.
     999902    2    1    2    0    0 -0.16986119158E-01 -0.11263813594E-01 -0.11241375992E-01  0.10206540408E+01  0.10203886028E+01 0.  0.
     999903    2    3    3    0    0 -0.11267636665E+00 -0.28714793695E-01 -0.63320012869E-01  0.13376433823E+00  0.19051802376E-01 0.  0.
         14    1    1    2    0    0  0.16986119158E-01  0.11263813594E-01  0.11241375992E-01  0.23275959162E-01  0.00000000000E+00 0.  1.
     999901    1    3    3    0    0  0.95690247494E-01  0.17450980101E-01  0.52078636877E-01  0.88688970261E+00  0.88000000000E+00 0. -1.
        -11    1    4    4    0    0 -0.56408143099E-01 -0.11049074204E-01 -0.21103737380E-01  0.61233891767E-01  0.51100000000E-03 0.  1.
         11    1    4    4    0    0 -0.56268223553E-01 -0.17665719491E-01 -0.42216275490E-01  0.72530446463E-01  0.51100000000E-03 0. -1.
</event>
<event>
 8    1  0.1074844E+005  0.1043930E+01  0.7957747E-01            NaN
         13   -1    0    0    0    0  0.00000000000E+00  0.00000000000E+00  0.74505805969E-08  0.10566000000E+00  0.10566000000E+00 0.  1.
     999900   -1    0    0    0    0 -0.00000000000E+00 -0.00000000000E+00 -0.74505805969E-08  0.93827000000E+00  0.93827000000E+00 0. -1.
     999902    2    1    2    0    0 -0.21842950672E-01  0.75615826923E-02 -0.55616499723E-02  0.10201555604E+01  0.10198784945E+01 0.  0.
     999903    2    3    3    0    0  0.79362178098E-01 -0.54268757700E-01  0.82024136414E-01  0.12789061151E+00  0.19611123948E-01 0.  0.
         14    1    1    2    0    0  0.21842950672E-01 -0.75615826923E-02  0.55616499723E-02  0.23774439579E-01  0.00000000000E+00 0. -1.
     999901    1    3    3    0    0 -0.10120512877E+00  0.61830340392E-01 -0.87585786386E-01  0.89226494891E+00  0.88000000000E+00 0. -1.
        -11    1    4    4    0    0  0.71004545166E-02 -0.74343047230E-02  0.23172852293E-02  0.10550652723E-01  0.51100000000E-03 0. -1.
         11    1    4    4    0    0  0.72261723582E-01 -0.46834452977E-01  0.79706851185E-01  0.11733995878E+00  0.51100000000E-03 0.  1.
</event>
<event>
 8    1  0.1097687E+005  0.1043930E+01  0.7957747E-01            NaN
         13   -1    0    0    0    0  0.00000000000E+00  0.00000000000E+00  0.74505805969E-08  0.10566000000E+00  0.10566000000E+00 0. -1.
     999900   -1    0    0    0    0 -0.00000000000E+00 -0.00000000000E+00 -0.74505805969E-08  0.93827000000E+00  0.93827000000E+00 0. -1.
     999902    2    1    2    0    0  0.82495160203E-02 -0.15980994210E-01 -0.16319493598E-01  0.10196447666E+01  0.10193555206E+01 0.  0.
     999903    2    3    3    0    0 -0.76873060387E-04 -0.23045222956E-01 -0.12877234545E+00  0.13242164022E+00  0.20544722807E-01 0.  0.
         14    1    1    2    0    0 -0.82495160203E-02  0.15980994210E-01  0.16319493598E-01  0.24285233410E-01  0.00000000000E+00 0. -1.
     999901    1    3    3    0    0  0.83263890807E-02  0.70642287461E-02  0.11245285185E+00  0.88722312637E+00  0.88000000000E+00 0.  1.
        -11    1    4    4    0    0  0.90764870588E-02 -0.13341110176E-01 -0.50460837490E-01  0.52980421659E-01  0.51100000000E-03 0.  1.
         11    1    4    4    0    0 -0.91533601192E-02 -0.97041127797E-02 -0.78311507957E-01  0.79441218557E-01  0.51100000000E-03 0. -1.
</event>
<event>
 8    1  0.1074844E+005  0.1043930E+01  0.7957747E-01            NaN
         13   -1    0    0    0    0  0.00000000000E+00  0.00000000000E+00  0.74505805969E-08  0.10566000000E+00  0.10566000000E+00 0. -1.
     999900   -1    0    0    0    0 -0.00000000000E+00 -0.00000000000E+00 -0.74505805969E-08  0.93827000000E+00  0.93827000000E+00 0.  1.
     999902    2    1    2    0    0  0.48980375717E-03  0.23262437547E-01  0.22390632037E-02  0.10205549211E+01  0.10202871913E+01 0.  0.
     999903    2    3    3    0    0  0.10230716163E+00 -0.75706252553E-01  0.83902895646E-02  0.12915186214E+00  0.20288285751E-01 0.  0.
         14    1    1    2    0    0 -0.48980375717E-03 -0.23262437547E-01 -0.22390632037E-02  0.23375078874E-01  0.00000000000E+00 0.  1.
     999901    1    3    3    0    0 -0.10181735787E+00  0.98968690099E-01 -0.61512263609E-02  0.89140305899E+00  0.88000000000E+00 0. -1.
        -11    1    4    4    0    0  0.93514114271E-01 -0.62137684816E-01  0.10803855185E-01  0.11279612516E+00  0.51100000000E-03 0.  1.
         11    1    4    4    0    0  0.87930473594E-02 -0.13568567737E-01 -0.24135656208E-02  0.16355736984E-01  0.51100000000E-03 0. -1.
</event>
<event>
 8    1  0.1074844E+005  0.1043930E+01  0.7957747E-01            NaN
         13   -1    0    0    0    0  0.00000000000E+00  0.00000000000E+00  0.74505805969E-08  0.10566000000E+00  0.10566000000E+00 0. -1.
     999900   -1    0    0    0    0 -0.00000000000E+00 -0.00000000000E+00 -0.74505805969E-08  0.93827000000E+00  0.93827000000E+00 0.  1.
     999902    2    1    2    0    0 -0.15312714232E-01 -0.16048156312E-01 -0.76467947384E-02  0.10204673487E+01  0.10201975856E+01 0.  0.
     999903    2    3    3    0    0 -0.82383520305E-01  0.68594635227E-01  0.71324393303E-01  0.13035536485E+00  0.20324459755E-01 0.  0.
         14    1    1    2    0    0  0.15312714232E-01  0.16048156312E-01  0.76467947384E-02  0.23462651341E-01  0.00000000000E+00 0.  1.
     999901    1    3    3    0    0  0.67070806073E-01 -0.84642791540E-01 -0.78971188042E-01  0.89011198381E+00  0.88000000000E+00 0.  1.
        -11    1    4    4    0    0 -0.16705716089E-01  0.78830858509E-02  0.54263507539E-02  0.19259553372E-01  0.51100000000E-03 0.  1.
         11    1    4    4    0    0 -0.65677804216E-01  0.60711549376E-01  0.65898042549E-01  0.11109581147E+00  0.51100000000E-03 0. -1.
</event>
<event>
 8    1  0.1074844E+005  0.1043930E+01  0.7957747E-01            NaN
         13   -1    0    0    0    0  0.00000000000E+00  0.00000000000E+00  0.74505805969E-08  0.10566000000E+00  0.10566000000E+00 0. -1.
     999900   -1    0    0    0    0 -0.00000000000E+00 -0.00000000000E+00 -0.74505805969E-08  0.93827000000E+00  0.93827000000E+00 0. -1.
     999902    2    1    2    0    0  0.58226474394E-02  0.23993741001E-01 -0.15092524027E-01  0.10149923582E+01  0.10145797653E+01 0.  0.
     999903    2    3    3    0    0 -0.11824657952E+00 -0.31758173084E-01  0.34772771710E-02  0.12434860984E+00  0.21439454020E-01 0.  0.
         14    1    1    2    0    0 -0.58226474394E-02 -0.23993741001E-01  0.15092524027E-01  0.28937641782E-01  0.00000000000E+00 0. -1.
     999901    1    3    3    0    0  0.12406922696E+00  0.55751914085E-01 -0.18569801198E-01  0.89064374837E+00  0.88000000000E+00 0.  1.
        -11    1    4    4    0    0 -0.83003490949E-01 -0.16340772238E-01  0.10481263359E-01  0.85245048828E-01  0.51100000000E-03 0.  1.
         11    1    4    4    0    0 -0.35243088567E-01 -0.15417400846E-01 -0.70039861883E-02  0.39103561016E-01  0.51100000000E-03 0. -1.
</event>
<event>
 8    1  0.1074844E+005  0.1043930E+01  0.7957747E-01            NaN
         13   -1    0    0    0    0  0.00000000000E+00  0.00000000000E+00  0.74505805969E-08  0.10566000000E+00  0.10566000000E+00 0.  1.
     999900   -1    0    0    0    0 -0.00000000000E+00 -0.00000000000E+00 -0.74505805969E-08  0.93827000000E+00  0.93827000000E+00 0.  1.
     999902    2    1    2    0    0 -0.22557391761E-01 -0.35390011093E-02 -0.79345451984E-02  0.10197573407E+01  0.10194708021E+01 0.  0.
     999903    2    3    3    0    0 -0.24368830449E-01 -0.87520262099E-01  0.91211764004E-01  0.13021469181E+00  0.19561285590E-01 0.  0.
         14    1    1    2    0    0  0.22557391761E-01  0.35390011093E-02  0.79345451984E-02  0.24172659337E-01  0.00000000000E+00 0.  1.
     999901    1    3    3    0    0  0.18114386878E-02  0.83981260990E-01 -0.99146309202E-01  0.88954264886E+00  0.88000000000E+00 0.  1.
        -11    1    4    4    0    0 -0.29006721125E-02 -0.25574450880E-01  0.15451271176E-01  0.30024478988E-01  0.51100000000E-03 0. -1.
         11    1    4    4    0    0 -0.21468158337E-01 -0.61945811219E-01  0.75760492828E-01  0.10019021282E+00  0.51100000000E-03 0.  1.
</event>
<event>
 8    1  0.1074844E+005  0.1043930E+01  0.7957747E-01            NaN
         13   -1    0    0    0    0  0.00000000000E+00  0.00000000000E+00  0.74505805969E-08  0.10566000000E+00  0.10566000000E+00 0.  1.
     999900   -1    0    0    0    0 -0.00000000000E+00 -0.00000000000E+00 -0.74505805969E-08  0.93827000000E+00  0.93827000000E+00 0. -1.
     999902    2    1    2    0    0  0.17990386505E-01  0.52829603414E-02 -0.12302451560E-01  0.10215042561E+01  0.10212580630E+01 0.  0.
     999903    2    3    3    0    0  0.39840935698E-01  0.12236257213E+00  0.25441180318E-01  0.13267937807E+00  0.19916437750E-01 0.  0.
         14    1    1    2    0    0 -0.17990386505E-01 -0.52829603414E-02  0.12302451560E-01  0.22425743933E-01  0.00000000000E+00 0. -1.
     999901    1    3    3    0    0 -0.21850549194E-01 -0.11707961179E+00 -0.37743631878E-01  0.88882487800E+00  0.88000000000E+00 0.  1.
        -11    1    4    4    0    0  0.36012893439E-01  0.93821346253E-01  0.13106803665E-01  0.10134802874E+00  0.51100000000E-03 0.  1.
         11    1    4    4    0    0  0.38280422595E-02  0.28541225882E-01  0.12334376653E-01  0.31331349329E-01  0.51100000000E-03 0. -1.
</event>
<event>
 8    1  0.1074844E+005  0.1043930E+01  0.7957747E-01            NaN
         13   -1    0    0    0    0  0.00000000000E+00  0.00000000000E+00  0.74505805969E-08  0.10566000000E+00  0.10566000000E+00 0.  1.
     999900   -1    0    0    0    0 -0.00000000000E+00 -0.00000000000E+00 -0.74505805969E-08  0.93827000000E+00  0.93827000000E+00 0. -1.
     999902    2    1    2    0    0  0.86486881006E-02 -0.21718530053E-01 -0.14615124609E-02  0.10205071400E+01  0.10202383017E+01 0.  0.
     999903    2    3    3    0    0  0.12149794353E+00 -0.40107049515E-01  0.31880063756E-01  0.13248419386E+00  0.12860694206E-01 0.  0.
         14    1    1    2    0    0 -0.86486881006E-02  0.21718530053E-01  0.14615124609E-02  0.23422860034E-01  0.00000000000E+00 0.  1.
     999901    1    3    3    0    0 -0.11284925543E+00  0.18388519462E-01 -0.33341576217E-01  0.88802294610E+00  0.88000000000E+00 0. -1.
        -11    1    4    4    0    0  0.72538036739E-01 -0.29710040122E-01  0.22555610433E-01  0.81568804950E-01  0.51100000000E-03 0. -1.
         11    1    4    4    0    0  0.48959906792E-01 -0.10397009393E-01  0.93244533232E-02  0.50915388913E-01  0.51100000000E-03 0.  1.
</event>
<event>
 8    1  0.1074844E+005  0.1043930E+01  0.7957747E-01            NaN
         13   -1    0    0    0    0  0.00000000000E+00  0.00000000000E+00  0.74505805969E-08  0.10566000000E+00  0.10566000000E+00 0. -1.
     999900   -1    0    0    0    0 -0.00000000000E+00 -0.00000000000E+00 -0.74505805969E-08  0.93827000000E+00  0.93827000000E+00 0. -1.
     999902    2    1    2    0    0  0.18863151104E-01  0.83567529374E-02 -0.53704915046E-02  0.10226110890E+01  0.10223888415E+01 0.  0.
     999903    2    3    3    0    0  0.12536456294E+00  0.13929466252E-01 -0.44624461573E-01  0.13530365631E+00  0.20135371123E-01 0.  0.
         14    1    1    2    0    0 -0.18863151104E-01 -0.83567529374E-02  0.53704915046E-02  0.21318911047E-01  0.00000000000E+00 0. -1.
     999901    1    3    3    0    0 -0.10650141183E+00 -0.55727133144E-02  0.39253970069E-01  0.88730743264E+00  0.88000000000E+00 0. -1.
        -11    1    4    4    0    0  0.92601226758E-01  0.19035111898E-01 -0.34349673076E-01  0.10058570397E+00  0.51100000000E-03 0.  1.
         11    1    4    4    0    0  0.32763336177E-01 -0.51056456464E-02 -0.10274788498E-01  0.34717952339E-01  0.51100000000E-03 0. -1.
</event>
<event>
 8    1  0.1074844E+005  0.1043930E+01  0.7957747E-01            NaN
         13   -1    0    0    0    0  0.00000000000E+00  0.00000000000E+00  0.74505805969E-08  0.10566000000E+00  0.10566000000E+00 0.  1.
     999900   -1    0    0    0    0 -0.00000000000E+00 -0.00000000000E+00 -0.74505805969E-08  0.93827000000E+00  0.93827000000E+00 0.  1.
     999902    2    1    2    0    0  0.43986395828E-02 -0.19502709488E-01 -0.75950612177E-02  0.10225433532E+01  0.10223196763E+01 0.  0.
     999903    2    3    3    0    0  0.11905228874E-01  0.12681504511E+00  0.23220795564E-01  0.12989849030E+00  0.10517713329E-01 0.  0.
         14    1    1    2    0    0 -0.43986395828E-02  0.19502709488E-01  0.75950612177E-02  0.21386646826E-01  0.00000000000E+00 0. -1.
     999901    1    3    3    0    0 -0.75065892915E-02 -0.14631775460E+00 -0.30815856782E-01  0.89264486288E+00  0.88000000000E+00 0. -1.
        -11    1    4    4    0    0  0.43027640202E-03  0.60433939016E-01  0.10728194749E-01  0.61382419359E-01  0.51100000000E-03 0.  1.
         11    1    4    4    0    0  0.11474952472E-01  0.66381106094E-01  0.12492600815E-01  0.68516070937E-01  0.51100000000E-03 0. -1.
</event>
<event>
 8    1  0.1074844E+005  0.1043930E+01  0.7957747E-01            NaN
         13   -1    0    0    0    0  0.00000000000E+00  0.00000000000E+00  0.74505805969E-08  0.10566000000E+00  0.10566000000E+00 0. -1.
     999900   -1    0    0    0    0 -0.00000000000E+00 -0.00000000000E+00 -0.74505805969E-08  0.93827000000E+00  0.93827000000E+00 0. -1.
     999902    2    1    2    0    0  0.21461910694E-01 -0.80184770306E-02  0.75294139058E-02  0.10198135811E+01  0.10195283903E+01 0.  0.
     999903    2    3    3    0    0 -0.46797003109E-01 -0.58228791548E-01 -0.10310513577E+00  0.12884761177E+00  0.19760728045E-01 0.  0.
         14    1    1    2    0    0 -0.21461910694E-01  0.80184770306E-02 -0.75294139058E-02  0.24116418853E-01  0.00000000000E+00 0.  1.
     999901    1    3    3    0    0  0.68258913803E-01  0.50210314518E-01  0.11063454968E+00  0.89096596937E+00  0.88000000000E+00 0.  1.
        -11    1    4    4    0    0 -0.19456674608E-01 -0.29556644433E-01 -0.33362605720E-01  0.48636221054E-01  0.51100000000E-03 0. -1.
         11    1    4    4    0    0 -0.27340328501E-01 -0.28672147115E-01 -0.69742530049E-01  0.80211390721E-01  0.51100000000E-03 0.  1.
</event>
<event>
 8    1  0.1074844E+005  0.1043930E+01  0.7957747E-01            NaN
         13   -1    0    0    0    0  0.00000000000E+00  0.00000000000E+00  0.74505805969E-08  0.10566000000E+00  0.10566000000E+00 0.  1.
     999900   -1    0    0    0    0 -0.00000000000E+00 -0.00000000000E+00 -0.74505805969E-08  0.93827000000E+00  0.93827000000E+00 0.  1.
     999902    2    1    2    0    0 -0.32506910623E-02 -0.11567042011E-01 -0.22427788715E-01  0.10184865498E+01  0.10181686908E+01 0.  0.
     999903    2    3    3    0    0  0.46990729386E-01  0.52692494982E-01  0.10249913656E+00  0.12592830232E+00  0.19163419651E-01 0.  0.
         14    1    1    2    0    0  0.32506910623E-02  0.11567042011E-01  0.22427788715E-01  0.25443450236E-01  0.00000000000E+00 0.  1.
     999901    1    3    3    0    0 -0.50241420448E-01 -0.64259536992E-01 -0.12492692528E+00  0.89255824745E+00  0.88000000000E+00 0.  1.
        -11    1    4    4    0    0  0.30410172533E-01  0.45776763116E-01  0.81334859601E-01  0.98162676931E-01  0.51100000000E-03 0.  1.
         11    1    4    4    0    0  0.16580556853E-01  0.69157318652E-02  0.21164276964E-01  0.27765625388E-01  0.51100000000E-03 0. -1.
</event>
<event>
 8    1  0.1074844E+005  0.1043930E+01  0.7957747E-01            NaN
         13   -1    0    0    0    0  0.00000000000E+00  0.00000000000E+00  0.74505805969E-08  0.10566000000E+00  0.10566000000E+00 0. -1.
     999900   -1    0    0    0    0 -0.00000000000E+00 -0.00000000000E+00 -0.74505805969E-08  0.93827000000E+00  0.93827000000E+00 0. -1.
     999902    2    1    2    0    0 -0.58980601343E-02 -0.20390555528E-01 -0.96703724285E-02  0.10206045210E+01  0.10203379393E+01 0.  0.
     999903    2    3    3    0    0 -0.90254293893E-01 -0.53275177832E-01 -0.80308606356E-01  0.13314346120E+00  0.17135543930E-01 0.  0.
         14    1    1    2    0    0  0.58980601343E-02  0.20390555528E-01  0.96703724285E-02  0.23325479009E-01  0.00000000000E+00 0.  1.
     999901    1    3    3    0    0  0.84356233758E-01  0.32884622304E-01  0.70638233927E-01  0.88746105979E+00  0.88000000000E+00 0.  1.
        -11    1    4    4    0    0 -0.62754428656E-01 -0.29921656486E-01 -0.46077454552E-01  0.83407534323E-01  0.51100000000E-03 0.  1.
         11    1    4    4    0    0 -0.27499865237E-01 -0.23353521346E-01 -0.34231151804E-01  0.49735926875E-01  0.51100000000E-03 0. -1.
</event>
<event>
 8    1  0.1074844E+005  0.1043930E+01  0.7957747E-01            NaN
         13   -1    0    0    0    0  0.00000000000E+00  0.00000000000E+00  0.74505805969E-08  0.10566000000E+00  0.10566000000E+00 0. -1.
     999900   -1    0    0    0    0 -0.00000000000E+00 -0.00000000000E+00 -0.74505805969E-08  0.93827000000E+00  0.93827000000E+00 0.  1.
     999902    2    1    2    0    0 -0.92166612559E-02 -0.21652119963E-01 -0.42892826812E-02  0.10200101528E+01  0.10197296469E+01 0.  0.
     999903    2    3    3    0    0  0.45920439418E-02 -0.83580226298E-01 -0.10099349159E+00  0.13244185983E+00  0.18287148345E-01 0.  0.
         14    1    1    2    0    0  0.92166612559E-02  0.21652119963E-01  0.42892826812E-02  0.23919847188E-01  0.00000000000E+00 0. -1.
     999901    1    3    3    0    0 -0.13808705198E-01  0.61928106335E-01  0.96704208910E-01  0.88756829299E+00  0.88000000000E+00 0. -1.
        -11    1    4    4    0    0  0.58779268868E-02 -0.42207260781E-01 -0.38205533267E-01  0.57235712455E-01  0.51100000000E-03 0.  1.
         11    1    4    4    0    0 -0.12858829450E-02 -0.41372965518E-01 -0.62787958325E-01  0.75206147370E-01  0.51100000000E-03 0. -1.
</event>
<event>
 8    1  0.1074844E+005  0.1043930E+01  0.7957747E-01            NaN
         13   -1    0    0    0    0  0.00000000000E+00  0.00000000000E+00  0.74505805969E-08  0.10566000000E+00  0.10566000000E+00 0.  1.
     999900   -1    0    0    0    0 -0.00000000000E+00 -0.00000000000E+00 -0.74505805969E-08  0.93827000000E+00  0.93827000000E+00 0. -1.
     999902    2    1    2    0    0 -0.23056566172E-01 -0.60306943648E-02 -0.79166119968E-02  0.10188173087E+01  0.10185077620E+01 0.  0.
     999903    2    3    3    0    0 -0.17647564852E-01 -0.10414071693E+00  0.72459585614E-01  0.12970811015E+00  0.20422458801E-01 0.  0.
         14    1    1    2    0    0  0.23056566172E-01  0.60306943648E-02  0.79166119968E-02  0.25112691287E-01  0.00000000000E+00 0.  1.
     999901    1    3    3    0    0 -0.54090013194E-02  0.98110022568E-01 -0.80376197611E-01  0.88910919856E+00  0.88000000000E+00 0. -1.
        -11    1    4    4    0    0 -0.10609945871E-01 -0.21315711681E-01  0.22272310171E-01  0.32607475174E-01  0.51100000000E-03 0. -1.
         11    1    4    4    0    0 -0.70376189812E-02 -0.82825005251E-01  0.50187275443E-01  0.97100634978E-01  0.51100000000E-03 0.  1.
</event>
<event>
 8    1  0.1074844E+005  0.1043930E+01  0.7957747E-01            NaN
         13   -1    0    0    0    0  0.00000000000E+00  0.00000000000E+00  0.74505805969E-08  0.10566000000E+00  0.10566000000E+00 0. -1.
     999900   -1    0    0    0    0 -0.00000000000E+00 -0.00000000000E+00 -0.74505805969E-08  0.93827000000E+00  0.93827000000E+00 0. -1.
     999902    2    1    2    0    0 -0.86132757033E-02  0.24105306884E-02  0.20629227442E-01  0.10214452451E+01  0.10211977402E+01 0.  0.
     999903    2    3    3    0    0  0.10247074942E+00 -0.26299223439E-01 -0.71228927808E-01  0.12925589791E+00  0.21014836343E-01 0.  0.
         14    1    1    2    0    0  0.86132757033E-02 -0.24105306884E-02 -0.20629227442E-01  0.22484754867E-01  0.00000000000E+00 0.  1.
     999901    1    3    3    0    0 -0.11108402512E+00  0.28709754127E-01  0.91858155250E-01  0.89218934723E+00  0.88000000000E+00 0.  1.
        -11    1    4    4    0    0  0.33533911124E-01 -0.16380307979E-01 -0.32915233467E-01  0.49764559678E-01  0.51100000000E-03 0. -1.
         11    1    4    4    0    0  0.68936838297E-01 -0.99189154595E-02 -0.38313694341E-01  0.79491338228E-01  0.51100000000E-03 0.  1.
</event>
<event>
 8    1  0.1074844E+005  0.1043930E+01  0.7957747E-01            NaN
         13   -1    0    0    0    0  0.00000000000E+00  0.00000000000E+00  0.74505805969E-08  0.10566000000E+00  0.10566000000E+00 0.  1.
     999900   -1    0    0    0    0 -0.00000000000E+00 -0.00000000000E+00 -0.74505805969E-08  0.93827000000E+00  0.93827000000E+00 0. -1.
     999902    2    1    2    0    0 -0.45765882892E-03 -0.18321377325E-01 -0.12758137009E-01  0.10215994743E+01  0.10213553904E+01 0.  0.
     999903    2    3    3    0    0 -0.10665782961E+00  0.53927026128E-01 -0.50866594969E-01  0.13145871989E+00  0.20247661267E-01 0.  0.
         14    1    1    2    0    0  0.45765882892E-03  0.18321377325E-01  0.12758137009E-01  0.22330525713E-01  0.00000000000E+00 0.  1.
     999901    1    3    3    0    0  0.10620017078E+00 -0.72248403453E-01  0.38108457960E-01  0.89014075440E+00  0.88000000000E+00 0.  1.
        -11    1    4    4    0    0 -0.91530034609E-01  0.42376723919E-01 -0.49535092924E-01  0.11237224087E+00  0.51100000000E-03 0. -1.
         11    1    4    4    0    0 -0.15127795000E-01  0.11550302209E-01 -0.13315020454E-02  0.19086479020E-01  0.51100000000E-03 0.  1.
</event>
<event>
 8    1  0.1074844E+005  0.1043930E+01  0.7957747E-01            NaN
         13   -1    0    0    0    0  0.00000000000E+00  0.00000000000E+00  0.74505805969E-08  0.10566000000E+00  0.10566000000E+00 0. -1.
     999900   -1    0    0    0    0 -0.00000000000E+00 -0.00000000000E+00 -0.74505805969E-08  0.93827000000E+00  0.93827000000E+00 0. -1.
     999902    2    1    2    0    0  0.74524540328E-02  0.19737838701E-01  0.92485501223E-02  0.10208940058E+01  0.10206340745E+01 0.  0.
     999903    2    3    3    0    0  0.29420854804E-02 -0.12635499555E+00  0.14956348888E-01  0.12881999623E+00  0.19916282049E-01 0.  0.
         14    1    1    2    0    0 -0.74524540328E-02 -0.19737838701E-01 -0.92485501223E-02  0.23035994162E-01  0.00000000000E+00 0.  1.
     999901    1    3    3    0    0  0.45103685524E-02  0.14609283425E+00 -0.57077987656E-02  0.89207400960E+00  0.88000000000E+00 0.  1.
        -11    1    4    4    0    0  0.90299882091E-02 -0.10261636640E+00  0.16181034215E-01  0.10427725701E+00  0.51100000000E-03 0.  1.
         11    1    4    4    0    0 -0.60879027286E-02 -0.23738629150E-01 -0.12246853275E-02  0.24542739226E-01  0.51100000000E-03 0. -1.
</event>
<event>
 8    1  0.1074844E+005  0.1043930E+01  0.7957747E-01            NaN
         13   -1    0    0    0    0  0.00000000000E+00  0.00000000000E+00  0.74505805969E-08  0.10566000000E+00  0.10566000000E+00 0.  1.
     999900   -1    0    0    0    0 -0.00000000000E+00 -0.00000000000E+00 -0.74505805969E-08  0.93827000000E+00  0.93827000000E+00 0. -1.
     999902    2    1    2    0    0  0.22211631313E-01 -0.11531535230E-03  0.92959121943E-02  0.10198512989E+01  0.10195670101E+01 0.  0.
     999903    2    3    3    0    0 -0.37174892079E-01 -0.48650909177E-01 -0.11116678387E+00  0.12833925514E+00  0.19079491852E-01 0.  0.
         14    1    1    2    0    0 -0.22211631313E-01  0.11531535230E-03 -0.92959121943E-02  0.24078701101E-01  0.00000000000E+00 0.  1.
     999901    1    3    3    0    0  0.59386523391E-01  0.48535593825E-01  0.12046269606E+00  0.89151204376E+00  0.88000000000E+00 0.  1.
        -11    1    4    4    0    0 -0.26260165034E-01 -0.19428171330E-01 -0.62662738170E-01  0.70667743595E-01  0.51100000000E-03 0. -1.
         11    1    4    4    0    0 -0.10914727045E-01 -0.29222737847E-01 -0.48504045696E-01  0.57671511543E-01  0.51100000000E-03 0.  1.
</event>
<event>
 8    1  0.1074844E+005  0.1043930E+01  0.7957747E-01            NaN
         13   -1    0    0    0    0  0.00000000000E+00  0.00000000000E+00  0.74505805969E-08  0.10566000000E+00  0.10566000000E+00 0.  1.
     999900   -1    0    0    0    0 -0.00000000000E+00 -0.00000000000E+00 -0.74505805969E-08  0.93827000000E+00  0.93827000000E+00 0.  1.
     999902    2    1    2    0    0  0.43221445818E-02  0.72847925726E-02  0.21348900546E-01  0.10209620943E+01  0.10207037148E+01 0.  0.
     999903    2    3    3    0    0 -0.87664085907E-01  0.75864756023E-02  0.97523733755E-01  0.13289443765E+00  0.20186786357E-01 0.  0.
         14    1    1    2    0    0 -0.43221445818E-02 -0.72847925726E-02 -0.21348900546E-01  0.22967905676E-01  0.00000000000E+00 0. -1.
     999901    1    3    3    0    0  0.91986230489E-01 -0.30168302971E-03 -0.76174833209E-01  0.88806765667E+00  0.88000000000E+00 0. -1.
        -11    1    4    4    0    0 -0.46553961915E-01  0.38710509369E-02  0.66434450098E-01  0.81216092532E-01  0.51100000000E-03 0. -1.
         11    1    4    4    0    0 -0.41110123992E-01  0.37154246654E-02  0.31089283657E-01  0.51678345120E-01  0.51100000000E-03 0.  1.
</event>
<event>
 8    1  0.1074844E+005  0.1043930E+01  0.7957747E-01            NaN
         13   -1    0    0    0    0  0.00000000000E+00  0.00000000000E+00  0.74505805969E-08  0.10566000000E+00  0.10566000000E+00 0.  1.
     999900   -1    0    0    0    0 -0.00000000000E+00 -0.00000000000E+00 -0.74505805969E-08  0.93827000000E+00  0.93827000000E+00 0.  1.
     999902    2    1    2    0    0  0.22727082674E-02 -0.57952422934E-02  0.23598711665E-01  0.10195240739E+01  0.10192319108E+01 0.  0.
     999903    2    3    3    0    0  0.21024627462E-01  0.12572857742E+00  0.10516641976E-01  0.12945593597E+00  0.19963202659E-01 0.  0.
         14    1    1    2    0    0 -0.22727082674E-02  0.57952422934E-02 -0.23598711665E-01  0.24405926091E-01  0.00000000000E+00 0. -1.
     999901    1    3    3    0    0 -0.18751919195E-01 -0.13152381971E+00  0.13082069690E-01  0.89006813794E+00  0.88000000000E+00 0. -1.
        -11    1    4    4    0    0 -0.35598891116E-02  0.22466496275E-01  0.40453868856E-02  0.23109360471E-01  0.51100000000E-03 0.  1.
         11    1    4    4    0    0  0.24584516573E-01  0.10326208114E+00  0.64712550900E-02  0.10634657550E+00  0.51100000000E-03 0. -1.
</event>
<event>
 7    1  0.1074844E+005  0.1043930E+01  0.7957747E-01            NaN
         13   -1    0    0    0    0  0.00000000000E+00  0.00000000000E+00  0.74505805969E-08  0.10566000000E+00  0.10566000000E+00 0.  1.
     999900   -1    0    0    0    0 -0.00000000000E+00 -0.00000000000E+00 -0.74505805969E-08  0.93827000000E+00  0.93827000000E+00 0. -1.
     999903    2    1    2    0    0 -0.10594513135E+00 -0.33540195582E-01  0.30931142874E-01  0.11882758227E+00  0.28529688613E-01 0.  0.
         14    1    1    2    0    0  0.44874763966E-02  0.38439116799E-01  0.47235532811E-03  0.38703052390E-01  0.00000000000E+00 0. -1.
     999901    1    1    2    0    0  0.10145765495E+00 -0.48989212173E-02 -0.31403498202E-01  0.88639936534E+00  0.88000000000E+00 0.  1.
        -11    1    3    3    0    0 -0.72718805940E-01 -0.87028965909E-02  0.20283571896E-01  0.75996378573E-01  0.51100000000E-03 0. -1.
         11    1    3    3    0    0 -0.33226325409E-01 -0.24837298991E-01  0.10647570978E-01  0.42831203696E-01  0.51100000000E-03 0.  1.
</event>
<event>
 8    1  0.1074844E+005  0.1043930E+01  0.7957747E-01            NaN
         13   -1    0    0    0    0  0.00000000000E+00  0.00000000000E+00  0.74505805969E-08  0.10566000000E+00  0.10566000000E+00 0. -1.
     999900   -1    0    0    0    0 -0.00000000000E+00 -0.00000000000E+00 -0.74505805969E-08  0.93827000000E+00  0.93827000000E+00 0. -1.
     999902    2    1    2    0    0 -0.22853149783E-01  0.54378550309E-02  0.90929936959E-03  0.10204212028E+01  0.10201503651E+01 0.  0.
     999903    2    3    3    0    0  0.58606769107E-01 -0.10898678003E+00  0.29784150111E-01  0.12881452238E+00  0.19829623576E-01 0.  0.
         14    1    1    2    0    0  0.22853149783E-01 -0.54378550309E-02 -0.90929936959E-03  0.23508797241E-01  0.00000000000E+00 0. -1.
     999901    1    3    3    0    0 -0.81459918890E-01  0.11442463506E+00 -0.28874850741E-01  0.89160668038E+00  0.88000000000E+00 0. -1.
        -11    1    4    4    0    0  0.15203463533E-01 -0.42509740173E-01  0.17754312177E-01  0.48514946510E-01  0.51100000000E-03 0.  1.
         11    1    4    4    0    0  0.43403305574E-01 -0.66477039857E-01  0.12029837934E-01  0.80299575868E-01  0.51100000000E-03 0. -1.
</event>
<event>
 8    1  0.1074844E+005  0.1043930E+01  0.7957747E-01            NaN
         13   -1    0    0    0    0  0.00000000000E+00  0.00000000000E+00  0.74505805969E-08  0.10566000000E+00  0.10566000000E+00 0.  1.
     999900   -1    0    0    0    0 -0.00000000000E+00 -0.00000000000E+00 -0.74505805969E-08  0.93827000000E+00  0.93827000000E+00 0. -1.
     999902    2    1    2    0    0 -0.14109620283E-01  0.41259932931E-02  0.18945897501E-01  0.10199497532E+01  0.10196678120E+01 0.  0.
     999903    2    3    3    0    0  0.31762233277E-01 -0.10645472344E+00  0.65631019924E-01  0.13061751914E+00  0.20299209922E-01 0.  0.
         14    1    1    2    0    0  0.14109620283E-01 -0.41259932931E-02 -0.18945897501E-01  0.23980246815E-01  0.00000000000E+00 0. -1.
     999901    1    3    3    0    0 -0.45871853559E-01  0.11058071673E+00 -0.46685122423E-01  0.88933223405E+00  0.88000000000E+00 0. -1.
        -11    1    4    4    0    0  0.22032311175E-02 -0.41537311428E-01  0.23989134580E-01  0.48020226644E-01  0.51100000000E-03 0. -1.
         11    1    4    4    0    0  0.29559002159E-01 -0.64917412013E-01  0.41641885344E-01  0.82597292493E-01  0.51100000000E-03 0.  1.
</event>
<event>
 8    1  0.1074844E+005  0.1043930E+01  0.7957747E-01            NaN
         13   -1    0    0    0    0  0.00000000000E+00  0.00000000000E+00  0.74505805969E-08  0.10566000000E+00  0.10566000000E+00 0. -1.
     999900   -1    0    0    0    0 -0.00000000000E+00 -0.00000000000E+00 -0.74505805969E-08  0.93827000000E+00  0.93827000000E+00 0.  1.
     999902    2    1    2    0    0 -0.11616589194E-01 -0.11604089811E-01  0.14497018713E-01  0.10220264935E+01  0.10217917546E+01 0.  0.
     999903    2    3    3    0    0 -0.24377286279E-01 -0.44971648335E-01  0.12289407737E+00  0.13465613584E+00  0.20313035860E-01 0.  0.
         14    1    1    2    0    0  0.11616589194E-01  0.11604089811E-01 -0.14497018713E-01  0.21903506486E-01  0.00000000000E+00 0.  1.
     999901    1    3    3    0    0  0.12760697085E-01  0.33367558525E-01 -0.10839705866E+00  0.88737035767E+00  0.88000000000E+00 0.  1.
        -11    1    4    4    0    0 -0.28185071257E-02 -0.20950715074E-01  0.65224956255E-01  0.68566992671E-01  0.51100000000E-03 0. -1.
         11    1    4    4    0    0 -0.21558779153E-01 -0.24020933261E-01  0.57669121118E-01  0.66089143169E-01  0.51100000000E-03 0.  1.
</event>
<event>
 8    1  0.1074844E+005  0.1043930E+01  0.7957747E-01            NaN
         13   -1    0    0    0    0  0.00000000000E+00  0.00000000000E+00  0.74505805969E-08  0.10566000000E+00  0.10566000000E+00 0. -1.
     999900   -1    0    0    0    0 -0.00000000000E+00 -0.00000000000E+00 -0.74505805969E-08  0.93827000000E+00  0.93827000000E+00 0. -1.
     999902    2    1    2    0    0 -0.13761082970E-01  0.17146832969E-01  0.43791128736E-02  0.10215121965E+01  0.10212661796E+01 0.  0.
     999903    2    3    3    0    0  0.26087177399E-01 -0.11629827761E+00 -0.45881589192E-01  0.12914365178E+00  0.19160698522E-01 0.  0.
         14    1    1    2    0    0  0.13761082970E-01 -0.17146832969E-01 -0.43791128736E-02  0.22417803526E-01  0.00000000000E+00 0.  1.
     999901    1    3    3    0    0 -0.39848260369E-01  0.13344511058E+00  0.50260702066E-01  0.89236854470E+00  0.88000000000E+00 0.  1.
        -11    1    4    4    0    0  0.24201816160E-01 -0.10870179385E+00 -0.47605257415E-01  0.12111287936E+00  0.51100000000E-03 0.  1.
         11    1    4    4    0    0  0.18853612394E-02 -0.75964837619E-02  0.17236682228E-02  0.80307724218E-02  0.51100000000E-03 0. -1.
</event>
<event>
 8    1  0.1207384E+005  0.1043930E+01  0.7957747E-01            NaN
         13   -1    0    0    0    0  0.00000000000E+00  0.00000000000E+00  0.74505805969E-08  0.10566000000E+00  0.10566000000E+00 0. -1.
     999900   -1    0    0    0    0 -0.00000000000E+00 -0.00000000000E+00 -0.74505805969E-08  0.93827000000E+00  0.93827000000E+00 0. -1.
     999902    2    1    2    0    0 -0.85380741356E-02  0.23226477683E-01  0.36077642563E-02  0.10189223224E+01  0.10186153912E+01 0.  0.
     999903    2    3    3    0    0 -0.20632912899E-01 -0.10787115120E+00 -0.60198298811E-01  0.12684380170E+00  0.20090109365E-01 0.  0.
         14    1    1    2    0    0  0.85380741356E-02 -0.23226477683E-01 -0.36077642563E-02  0.25007677590E-01  0.00000000000E+00 0.  1.
     999901    1    3    3    0    0  0.12094838763E-01  0.13109762888E+00  0.63806063067E-01  0.89207852071E+00  0.88000000000E+00 0.  1.
        -11    1    4    4    0    0  0.78294315041E-04 -0.52613785163E-01 -0.29550819990E-01  0.60346736467E-01  0.51100000000E-03 0. -1.
         11    1    4    4    0    0 -0.20711207214E-01 -0.55257366039E-01 -0.30647478821E-01  0.66497065235E-01  0.51100000000E-03 0.  1.
</event>
<event>
 8    1  0.1074844E+005  0.1043930E+01  0.7957747E-01            NaN
         13   -1    0    0    0    0  0.00000000000E+00  0.00000000000E+00  0.74505805969E-08  0.10566000000E+00  0.10566000000E+00 0. -1.
     999900   -1    0    0    0    0 -0.00000000000E+00 -0.00000000000E+00 -0.74505805969E-08  0.93827000000E+00  0.93827000000E+00 0. -1.
     999902    2    1    2    0    0  0.48741154409E-02  0.41942743853E-02 -0.21703380057E-01  0.10212940630E+01  0.10210431810E+01 0.  0.
     999903    2    3    3    0    0  0.71705582622E-01  0.60244204554E-01 -0.93618227842E-01  0.13406253457E+00  0.20912575845E-01 0.  0.
         14    1    1    2    0    0 -0.48741154409E-02 -0.41942743853E-02  0.21703380057E-01  0.22635937022E-01  0.00000000000E+00 0. -1.
     999901    1    3    3    0    0 -0.66831467181E-01 -0.56049930168E-01  0.71914847785E-01  0.88723152841E+00  0.88000000000E+00 0.  1.
        -11    1    4    4    0    0  0.25981372852E-01  0.33424090915E-01 -0.49139166181E-01  0.64862318512E-01  0.51100000000E-03 0.  1.
         11    1    4    4    0    0  0.45724209770E-01  0.26820113639E-01 -0.44479061661E-01  0.69200216054E-01  0.51100000000E-03 0. -1.
</event>
<event>
 8    1  0.1074844E+005  0.1043930E+01  0.7957747E-01            NaN
         13   -1    0    0    0    0  0.00000000000E+00  0.00000000000E+00  0.74505805969E-08  0.10566000000E+00  0.10566000000E+00 0.  1.
     999900   -1    0    0    0    0 -0.00000000000E+00 -0.00000000000E+00 -0.74505805969E-08  0.93827000000E+00  0.93827000000E+00 0. -1.
     999902    2    1    2    0    0  0.12900058561E-01 -0.87739458392E-02  0.18271407920E-01  0.10199042225E+01  0.10196211969E+01 0.  0.
     999903    2    3    3    0    0 -0.72329744004E-01 -0.18790359128E-01 -0.10148240064E+00  0.12765682272E+00  0.20320366181E-01 0.  0.
         14    1    1    2    0    0 -0.12900058561E-01  0.87739458392E-02 -0.18271407920E-01  0.24025777487E-01  0.00000000000E+00 0. -1.
     999901    1    3    3    0    0  0.85229802565E-01  0.10016413289E-01  0.11975380856E+00  0.89224739980E+00  0.88000000000E+00 0. -1.
        -11    1    4    4    0    0 -0.47908872088E-01 -0.67423029759E-02 -0.51021073468E-01  0.70314505850E-01  0.51100000000E-03 0. -1.
         11    1    4    4    0    0 -0.24420871915E-01 -0.12048056152E-01 -0.50461327175E-01  0.57342316865E-01  0.51100000000E-03 0.  1.
</event>
<event>
 8    1  0.1074844E+005  0.1043930E+01  0.7957747E-01            NaN
         13   -1    0    0    0    0  0.00000000000E+00  0.00000000000E+00  0.74505805969E-08  0.10566000000E+00  0.10566000000E+00 0. -1.
     999900   -1    0    0    0    0 -0.00000000000E+00 -0.00000000000E+00 -0.74505805969E-08  0.93827000000E+00  0.93827000000E+00 0.  1.
     999902    2    1    2    0    0 -0.25622293875E-02  0.10124238311E-01 -0.19451834790E-01  0.10218519770E+01  0.10216134415E+01 0.  0.
     999903    2    3    3    0    0 -0.44719351575E-01 -0.94676795619E-01  0.74048002228E-01  0.12971818709E+00  0.19498343353E-01 0.  0.
         14    1    1    2    0    0  0.25622293875E-02 -0.10124238311E-01  0.19451834790E-01  0.22078022953E-01  0.00000000000E+00 0.  1.
     999901    1    3    3    0    0  0.42157122188E-01  0.10480103393E+00 -0.93499837018E-01  0.89213378996E+00  0.88000000000E+00 0.  1.
        -11    1    4    4    0    0 -0.31544885414E-01 -0.78415944958E-01  0.51630827695E-01  0.99046169582E-01  0.51100000000E-03 0.  1.
         11    1    4    4    0    0 -0.13174466161E-01 -0.16260850661E-01  0.22417174533E-01  0.30672017506E-01  0.51100000000E-03 0. -1.
</event>
<event>
 8    1  0.1074844E+005  0.1043930E+01  0.7957747E-01            NaN
         13   -1    0    0    0    0  0.00000000000E+00  0.00000000000E+00  0.74505805969E-08  0.10566000000E+00  0.10566000000E+00 0.  1.
     999900   -1    0    0    0    0 -0.00000000000E+00 -0.00000000000E+00 -0.74505805969E-08  0.93827000000E+00  0.93827000000E+00 0. -1.
     999902    2    1    2    0    0  0.34780862009E-02 -0.22998205516E-01 -0.12173286007E-02  0.10206384473E+01  0.10203726494E+01 0.  0.
     999903    2    3    3    0    0  0.80858410801E-01 -0.49517873706E-01  0.90051606684E-01  0.13214476354E+00  0.19048471131E-01 0.  0.
         14    1    1    2    0    0 -0.34780862009E-02  0.22998205516E-01  0.12173286007E-02  0.23291552750E-01  0.00000000000E+00 0.  1.
     999901    1    3    3    0    0 -0.77380324600E-01  0.26519668190E-01 -0.91268935284E-01  0.88849368371E+00  0.88000000000E+00 0. -1.
        -11    1    4    4    0    0  0.63935418859E-01 -0.41168047888E-01  0.81349881888E-01  0.11135802780E+00  0.51100000000E-03 0. -1.
         11    1    4    4    0    0  0.16922991941E-01 -0.83498258187E-02  0.87017247951E-02  0.20786735743E-01  0.51100000000E-03 0.  1.
</event>
<event>
 7    1  0.1074844E+005  0.1043930E+01  0.7957747E-01            NaN
         13   -1    0    0    0    0  0.00000000000E+00  0.00000000000E+00  0.74505805969E-08  0.10566000000E+00  0.10566000000E+00 0.  1.
     999900   -1    0    0    0    0 -0.00000000000E+00 -0.00000000000E+00 -0.74505805969E-08  0.93827000000E+00  0.93827000000E+00 0. -1.
     999903    2    1    2    0    0  0.73370003936E-01  0.46537926120E-01 -0.36240346375E-01  0.96631639424E-01  0.21803095818E-01 0.  0.
         14    1    1    2    0    0 -0.65207338266E-01 -0.20025908957E-02 -0.24655775535E-02  0.65284656748E-01  0.00000000000E+00 0.  1.
     999901    1    1    2    0    0 -0.81626656701E-02 -0.44535335224E-01  0.38705923929E-01  0.88201370383E+00  0.88000000000E+00 0. -1.
        -11    1    3    3    0    0  0.45628557992E-01  0.20148839784E-01 -0.28880693391E-01  0.57639366937E-01  0.51100000000E-03 0. -1.
         11    1    3    3    0    0  0.27741445944E-01  0.26389086335E-01 -0.73596529838E-02  0.38992272487E-01  0.51100000000E-03 0.  1.
</event>
<event>
 8    1  0.1074844E+005  0.1043930E+01  0.7957747E-01            NaN
         13   -1    0    0    0    0  0.00000000000E+00  0.00000000000E+00  0.74505805969E-08  0.10566000000E+00  0.10566000000E+00 0. -1.
     999900   -1    0    0    0    0 -0.00000000000E+00 -0.00000000000E+00 -0.74505805969E-08  0.93827000000E+00  0.93827000000E+00 0.  1.
     999902    2    1    2    0    0  0.21532696972E-01  0.17853319599E-01 -0.11488247436E-01  0.10136913180E+01  0.10132402037E+01 0.  0.
     999903    2    3    3    0    0 -0.11708047337E+00 -0.20892372537E-01 -0.18167779068E-01  0.12197417911E+00  0.20082422668E-01 0.  0.
         14    1    1    2    0    0 -0.21532696972E-01 -0.17853319599E-01  0.11488247436E-01  0.30238681995E-01  0.00000000000E+00 0.  1.
     999901    1    3    3    0    0  0.13861317034E+00  0.38745692137E-01  0.66795316322E-02  0.89171713889E+00  0.88000000000E+00 0. -1.
        -11    1    4    4    0    0 -0.44413551461E-01 -0.12707120895E-01  0.15834590303E-02  0.46225565852E-01  0.51100000000E-03 0.  1.
         11    1    4    4    0    0 -0.72666921906E-01 -0.81852516420E-02 -0.19751238098E-01  0.75748613262E-01  0.51100000000E-03 0. -1.
</event>
<event>
 8    1  0.1074844E+005  0.1043930E+01  0.7957747E-01            NaN
         13   -1    0    0    0    0  0.00000000000E+00  0.00000000000E+00  0.74505805969E-08  0.10566000000E+00  0.10566000000E+00 0.  1.
     999900   -1    0    0    0    0 -0.00000000000E+00 -0.00000000000E+00 -0.74505805969E-08  0.93827000000E+00  0.93827000000E+00 0.  1.
     999902    2    1    2    0    0 -0.20373859969E-02 -0.21938303341E-01  0.42494514051E-02  0.10214912404E+01  0.10212447583E+01 0.  0.
     999903    2    3    3    0    0  0.41797803452E-01 -0.12424489460E+00  0.22755854977E-01  0.13428740282E+00  0.18205147949E-01 0.  0.
         14    1    1    2    0    0  0.20373859969E-02  0.21938303341E-01 -0.42494514051E-02  0.22438759601E-01  0.00000000000E+00 0.  1.
     999901    1    3    3    0    0 -0.43835189449E-01  0.10230659126E+00 -0.18506403572E-01  0.88720383758E+00  0.88000000000E+00 0.  1.
        -11    1    4    4    0    0  0.36208402630E-01 -0.11831198001E+00  0.18587564327E-01  0.12511807105E+00  0.51100000000E-03 0. -1.
         11    1    4    4    0    0  0.55894008221E-02 -0.59329145898E-02  0.41682906496E-02  0.91693317652E-02  0.51100000000E-03 0.  1.
</event>
<event>
 8    1  0.1074844E+005  0.1043930E+01  0.7957747E-01            NaN
         13   -1    0    0    0    0  0.00000000000E+00  0.00000000000E+00  0.74505805969E-08  0.10566000000E+00  0.10566000000E+00 0.  1.
     999900   -1    0    0    0    0 -0.00000000000E+00 -0.00000000000E+00 -0.74505805969E-08  0.93827000000E+00  0.93827000000E+00 0. -1.
     999902    2    1    2    0    0  0.14444432546E-01 -0.12172443757E-01  0.14837148039E-01  0.10199101961E+01  0.10196273128E+01 0.  0.
     999903    2    3    3    0    0  0.52178985135E-01  0.15915127906E-02 -0.11678106210E+00  0.12921569390E+00  0.18267448705E-01 0.  0.
         14    1    1    2    0    0 -0.14444432546E-01  0.12172443757E-01 -0.14837148039E-01  0.24019803923E-01  0.00000000000E+00 0. -1.
     999901    1    3    3    0    0 -0.37734552589E-01 -0.13763956548E-01  0.13161821014E+00  0.89069450217E+00  0.88000000000E+00 0.  1.
        -11    1    4    4    0    0  0.48098241574E-01  0.55050642897E-03 -0.89514809279E-01  0.10162138604E+00  0.51100000000E-03 0.  1.
         11    1    4    4    0    0  0.40807435617E-02  0.10410063617E-02 -0.27266252825E-01  0.27594307862E-01  0.51100000000E-03 0. -1.
</event>
<event>
 8    1  0.1074844E+005  0.1043930E+01  0.7957747E-01            NaN
         13   -1    0    0    0    0  0.00000000000E+00  0.00000000000E+00  0.74505805969E-08  0.10566000000E+00  0.10566000000E+00 0.  1.
     999900   -1    0    0    0    0 -0.00000000000E+00 -0.00000000000E+00 -0.74505805969E-08  0.93827000000E+00  0.93827000000E+00 0. -1.
     999902    2    1    2    0    0 -0.19740139419E-02 -0.21727480577E-01  0.86936337618E-02  0.10204446980E+01  0.10201744077E+01 0.  0.
     999903    2    3    3    0    0  0.10169104463E+00  0.35333663500E-01 -0.68721975588E-01  0.12915597085E+00  0.19209855322E-01 0.  0.
         14    1    1    2    0    0  0.19740139419E-02  0.21727480577E-01 -0.86936337618E-02  0.23485302026E-01  0.00000000000E+00 0. -1.
     999901    1    3    3    0    0 -0.10366505858E+00 -0.57061144077E-01  0.77415609350E-01  0.89128872713E+00  0.88000000000E+00 0.  1.
        -11    1    4    4    0    0  0.54877378430E-01  0.24559790517E-01 -0.28672439343E-01  0.66611409477E-01  0.51100000000E-03 0.  1.
         11    1    4    4    0    0  0.46813666204E-01  0.10773872983E-01 -0.40049536245E-01  0.62544561370E-01  0.51100000000E-03 0. -1.
</event>
<event>
 8    1  0.1074844E+005  0.1043930E+01  0.7957747E-01            NaN
         13   -1    0    0    0    0  0.00000000000E+00  0.00000000000E+00  0.74505805969E-08  0.10566000000E+00  0.10566000000E+00 0. -1.
     999900   -1    0    0    0    0 -0.00000000000E+00 -0.00000000000E+00 -0.74505805969E-08  0.93827000000E+00  0.93827000000E+00 0.  1.
     999902    2    1    2    0    0 -0.16394141431E-01  0.16296468136E-01 -0.42099686135E-03  0.10208103117E+01  0.10205484665E+01 0.  0.
     999903    2    3    3    0    0 -0.29325055430E-02  0.13159546862E+00  0.40386442210E-02  0.13317583542E+00  0.19837478239E-01 0.  0.
         14    1    1    2    0    0  0.16394141431E-01 -0.16296468136E-01  0.42099686135E-03  0.23119688262E-01  0.00000000000E+00 0.  1.
     999901    1    3    3    0    0 -0.13461635888E-01 -0.11529900048E+00 -0.44596410823E-02  0.88763447632E+00  0.88000000000E+00 0. -1.
        -11    1    4    4    0    0 -0.86892685517E-02  0.56984395566E-01  0.82000120726E-02  0.58225647657E-01  0.51100000000E-03 0. -1.
         11    1    4    4    0    0  0.57567630087E-02  0.74611073051E-01 -0.41613678516E-02  0.74950187762E-01  0.51100000000E-03 0.  1.
</event>
<event>
 8    1  0.1074844E+005  0.1043930E+01  0.7957747E-01            NaN
         13   -1    0    0    0    0  0.00000000000E+00  0.00000000000E+00  0.74505805969E-08  0.10566000000E+00  0.10566000000E+00 0.  1.
     999900   -1    0    0    0    0 -0.00000000000E+00 -0.00000000000E+00 -0.74505805969E-08  0.93827000000E+00  0.93827000000E+00 0. -1.
     999902    2    1    2    0    0 -0.21583959795E-01  0.17861704855E-02  0.84044463144E-02  0.10206987184E+01  0.10204343102E+01 0.  0.
     999903    2    3    3    0    0 -0.10298704852E+00 -0.61578988741E-01 -0.52602028113E-01  0.13257519314E+00  0.20270778398E-01 0.  0.
         14    1    1    2    0    0  0.21583959795E-01 -0.17861704855E-02 -0.84044463144E-02  0.23231281568E-01  0.00000000000E+00 0. -1.
     999901    1    3    3    0    0  0.81403088725E-01  0.63365159226E-01  0.61006474428E-01  0.88812352529E+00  0.88000000000E+00 0.  1.
        -11    1    4    4    0    0 -0.93725290362E-02 -0.11066254510E-02 -0.85206402793E-02  0.12725225035E-01  0.51100000000E-03 0.  1.
         11    1    4    4    0    0 -0.93614519484E-01 -0.60472363290E-01 -0.44081387834E-01  0.11984996810E+00  0.51100000000E-03 0. -1.
</event>
<event>
 8    1  0.1074844E+005  0.1043930E+01  0.7957747E-01            NaN
         13   -1    0    0    0    0  0.00000000000E+00  0.00000000000E+00  0.74505805969E-08  0.10566000000E+00  0.10566000000E+00 0. -1.
     999900   -1    0    0    0    0 -0.00000000000E+00 -0.00000000000E+00 -0.74505805969E-08  0.93827000000E+00  0.93827000000E+00 0.  1.
     999902    2    1    2    0    0  0.97928731012E-02 -0.21185502484E-01  0.53847625571E-02  0.10199775148E+01  0.10196962338E+01 0.  0.
     999903    2    3    3    0    0 -0.69632112791E-01  0.73386402499E-01  0.76636360256E-01  0.12850179233E+00  0.20134143014E-01 0.  0.
         14    1    1    2    0    0 -0.97928731012E-02  0.21185502484E-01 -0.53847625571E-02  0.23952485192E-01  0.00000000000E+00 0.  1.
     999901    1    3    3    0    0  0.79424985892E-01 -0.94571904983E-01 -0.71251597698E-01  0.89147572248E+00  0.88000000000E+00 0.  1.
        -11    1    4    4    0    0 -0.13553405595E-01  0.27455746950E-01  0.24319466171E-01  0.39105119865E-01  0.51100000000E-03 0.  1.
         11    1    4    4    0    0 -0.56078707195E-01  0.45930655550E-01  0.52316894085E-01  0.89396672464E-01  0.51100000000E-03 0. -1.
</event>
<event>
 8    1  0.1074844E+005  0.1043930E+01  0.7957747E-01            NaN
         13   -1    0    0    0    0  0.00000000000E+00  0.00000000000E+00  0.74505805969E-08  0.10566000000E+00  0.10566000000E+00 0.  1.
     999900   -1    0    0    0    0 -0.00000000000E+00 -0.00000000000E+00 -0.74505805969E-08  0.93827000000E+00  0.93827000000E+00 0.  1.
     999902    2    1    2    0    0  0.38191475507E-02 -0.55443735115E-02 -0.21933297041E-01  0.10209866898E+01  0.10207288696E+01 0.  0.
     999903    2    3    3    0    0 -0.42598137759E-02 -0.91652229309E-01 -0.95273708589E-01  0.13371071893E+00  0.19575486148E-01 0.  0.
         14    1    1    2    0    0 -0.38191475507E-02  0.55443735115E-02  0.21933297041E-01  0.22943310240E-01  0.00000000000E+00 0.  1.
     999901    1    3    3    0    0  0.80789613266E-02  0.86107855797E-01  0.73340411548E-01  0.88727597083E+00  0.88000000000E+00 0. -1.
        -11    1    4    4    0    0  0.61291032231E-02 -0.36302117516E-01 -0.45653797224E-01  0.58651001394E-01  0.51100000000E-03 0.  1.
         11    1    4    4    0    0 -0.10388916999E-01 -0.55350111793E-01 -0.49619911365E-01  0.75059717537E-01  0.51100000000E-03 0. -1.
</event>
<event>
 8    1  0.1074844E+005  0.1043930E+01  0.7957747E-01            NaN
         13   -1    0    0    0    0  0.00000000000E+00  0.00000000000E+00  0.74505805969E-08  0.10566000000E+00  0.10566000000E+00 0.  1.
     999900   -1    0    0    0    0 -0.00000000000E+00 -0.00000000000E+00 -0.74505805969E-08  0.93827000000E+00  0.93827000000E+00 0. -1.
     999902    2    1    2    0    0  0.11184809497E-01  0.14116890285E-01  0.73240608000E-02  0.10244870470E+01  0.10243025339E+01 0.  0.
     999903    2    3    3    0    0  0.97257451448E-01  0.55225438409E-01 -0.74147085293E-01  0.13559112504E+00  0.19449987755E-01 0.  0.
         14    1    1    2    0    0 -0.11184809497E-01 -0.14116890285E-01 -0.73240608000E-02  0.19442953002E-01  0.00000000000E+00 0. -1.
     999901    1    3    3    0    0 -0.86072641951E-01 -0.41108548124E-01  0.81471146093E-01  0.88889592195E+00  0.88000000000E+00 0.  1.
        -11    1    4    4    0    0  0.50875005131E-01  0.17872975742E-01 -0.33415393770E-01  0.63439412598E-01  0.51100000000E-03 0. -1.
         11    1    4    4    0    0  0.46382446317E-01  0.37352462667E-01 -0.40731691522E-01  0.72151712446E-01  0.51100000000E-03 0.  1.
</event>
<event>
 8    1  0.1074844E+005  0.1043930E+01  0.7957747E-01            NaN
         13   -1    0    0    0    0  0.00000000000E+00  0.00000000000E+00  0.74505805969E-08  0.10566000000E+00  0.10566000000E+00 0. -1.
     999900   -1    0    0    0    0 -0.00000000000E+00 -0.00000000000E+00 -0.74505805969E-08  0.93827000000E+00  0.93827000000E+00 0.  1.
     999902    2    1    2    0    0 -0.15369559368E-01  0.20983086462E-01 -0.52576103729E-02  0.10173940670E+01  0.10170479496E+01 0.  0.
     999903    2    3    3    0    0 -0.66482600885E-01 -0.46291592598E-01 -0.97842967211E-01  0.12851248111E+00  0.19477263743E-01 0.  0.
         14    1    1    2    0    0  0.15369559368E-01 -0.20983086462E-01  0.52576103729E-02  0.26535932987E-01  0.00000000000E+00 0. -1.
     999901    1    3    3    0    0  0.51113041517E-01  0.67274679061E-01  0.92585356838E-01  0.88888158590E+00  0.88000000000E+00 0. -1.
        -11    1    4    4    0    0 -0.25582619611E-01 -0.25091351896E-01 -0.54704441695E-01  0.65397885504E-01  0.51100000000E-03 0.  1.
         11    1    4    4    0    0 -0.40899981273E-01 -0.21200240702E-01 -0.43138525516E-01  0.63114595607E-01  0.51100000000E-03 0. -1.
</event>
<event>
 8    1  0.1074844E+005  0.1043930E+01  0.7957747E-01            NaN
         13   -1    0    0    0    0  0.00000000000E+00  0.00000000000E+00  0.74505805969E-08  0.10566000000E+00  0.10566000000E+00 0. -1.
     999900   -1    0    0    0    0 -0.00000000000E+00 -0.00000000000E+00 -0.74505805969E-08  0.93827000000E+00  0.93827000000E+00 0. -1.
     999902    2    1    2    0    0 -0.54853001622E-02 -0.24565179077E-02 -0.23137592778E-01  0.10200245362E+01  0.10197443716E+01 0.  0.
     999903    2    3    3    0    0  0.12680943744E+00  0.16698611174E-01 -0.88292091281E-02  0.12981470344E+00  0.20357437349E-01 0.  0.
         14    1    1    2    0    0  0.54853001622E-02  0.24565179077E-02  0.23137592778E-01  0.23905463761E-01  0.00000000000E+00 0. -1.
     999901    1    3    3    0    0 -0.13229473761E+00 -0.19155129082E-01 -0.14308383649E-01  0.89020983280E+00  0.88000000000E+00 0. -1.
        -11    1    4    4    0    0  0.68552299823E-01  0.18417070743E-01 -0.88025260816E-03  0.70990437887E-01  0.51100000000E-03 0.  1.
         11    1    4    4    0    0  0.58257137622E-01 -0.17184595690E-02 -0.79489565200E-02  0.58824265553E-01  0.51100000000E-03 0. -1.
</event>
<event>
 8    1  0.1074844E+005  0.1043930E+01  0.7957747E-01            NaN
         13   -1    0    0    0    0  0.00000000000E+00  0.00000000000E+00  0.74505805969E-08  0.10566000000E+00  0.10566000000E+00 0. -1.
     999900   -1    0    0    0    0 -0.00000000000E+00 -0.00000000000E+00 -0.74505805969E-08  0.93827000000E+00  0.93827000000E+00 0.  1.
     999902    2    1    2    0    0 -0.86308429804E-02 -0.19041985535E-01  0.98146912069E-02  0.10208341816E+01  0.10205728830E+01 0.  0.
     999903    2    3    3    0    0  0.12821598497E-02  0.81823850385E-01  0.10000090291E+00  0.13043778827E+00  0.17805886686E-01 0.  0.
         14    1    1    2    0    0  0.86308429804E-02  0.19041985535E-01 -0.98146912069E-02  0.23095818391E-01  0.00000000000E+00 0. -1.
     999901    1    3    3    0    0 -0.99130028301E-02 -0.10086583592E+00 -0.90186211707E-01  0.89039639333E+00  0.88000000000E+00 0.  1.
        -11    1    4    4    0    0  0.80849816038E-02  0.40439329350E-01  0.42037028891E-01  0.58890399937E-01  0.51100000000E-03 0. -1.
         11    1    4    4    0    0 -0.68028217540E-02  0.41384521034E-01  0.57963874023E-01  0.71547388337E-01  0.51100000000E-03 0.  1.
</event>
<event>
 8    1  0.1074844E+005  0.1043930E+01  0.7957747E-01            NaN
         13   -1    0    0    0    0  0.00000000000E+00  0.00000000000E+00  0.74505805969E-08  0.10566000000E+00  0.10566000000E+00 0. -1.
     999900   -1    0    0    0    0 -0.00000000000E+00 -0.00000000000E+00 -0.74505805969E-08  0.93827000000E+00  0.93827000000E+00 0.  1.
     999902    2    1    2    0    0 -0.72386703867E-02 -0.22546567256E-01  0.33333616062E-02  0.10200164611E+01  0.10197361048E+01 0.  0.
     999903    2    3    3    0    0 -0.71074065205E-01  0.29203416970E-01  0.10359568239E+00  0.13051910219E+00  0.19970185794E-01 0.  0.
         14    1    1    2    0    0  0.72386703867E-02  0.22546567256E-01 -0.33333616062E-02  0.23913538918E-01  0.00000000000E+00 0.  1.
     999901    1    3    3    0    0  0.63835394818E-01 -0.51749984226E-01 -0.10026232078E+00  0.88949735889E+00  0.88000000000E+00 0.  1.
        -11    1    4    4    0    0 -0.28494399574E-01  0.25771319213E-02  0.30385753659E-01  0.41738801641E-01  0.51100000000E-03 0. -1.
         11    1    4    4    0    0 -0.42579665631E-01  0.26626285049E-01  0.73209928729E-01  0.88780300553E-01  0.51100000000E-03 0.  1.
</event>
<event>
 8    1  0.1074844E+005  0.1043930E+01  0.7957747E-01            NaN
         13   -1    0    0    0    0  0.00000000000E+00  0.00000000000E+00  0.74505805969E-08  0.10566000000E+00  0.10566000000E+00 0.  1.
     999900   -1    0    0    0    0 -0.00000000000E+00 -0.00000000000E+00 -0.74505805969E-08  0.93827000000E+00  0.93827000000E+00 0.  1.
     999902    2    1    2    0    0  0.39671717024E-02  0.29992342911E-01 -0.27186212455E-02  0.10135545167E+01  0.10130992490E+01 0.  0.
     999903    2    3    3    0    0  0.26213362365E-01 -0.10207673083E+00 -0.57357806210E-01  0.12174591964E+00  0.20624055670E-01 0.  0.
         14    1    1    2    0    0 -0.39671717024E-02 -0.29992342911E-01  0.27186212455E-02  0.30375483306E-01  0.00000000000E+00 0. -1.
     999901    1    3    3    0    0 -0.22246190662E-01  0.13206907375E+00  0.54639184965E-01  0.89180859705E+00  0.88000000000E+00 0.  1.
        -11    1    4    4    0    0  0.55241526542E-02 -0.60378149626E-01 -0.36145557296E-01  0.70588948484E-01  0.51100000000E-03 0. -1.
         11    1    4    4    0    0  0.20689209711E-01 -0.41698581208E-01 -0.21212248914E-01  0.51156971160E-01  0.51100000000E-03 0.  1.
</event>
<event>
 8    1  0.1074844E+005  0.1043930E+01  0.7957747E-01            NaN
         13   -1    0    0    0    0  0.00000000000E+00  0.00000000000E+00  0.74505805969E-08  0.10566000000E+00  0.10566000000E+00 0. -1.
     999900   -1    0    0    0    0 -0.00000000000E+00 -0.00000000000E+00 -0.74505805969E-08  0.93827000000E+00  0.93827000000E+00 0.  1.
     999902    2    1    2    0    0 -0.63391561269E-02  0.19371989139E-01  0.12460931872E-01  0.10200399668E+01  0.10197601680E+01 0.  0.
     999903    2    3    3    0    0 -0.11467704684E-01  0.11968188939E-01  0.12993457989E+00  0.13218796547E+00  0.17774064418E-01 0.  0.
         14    1    1    2    0    0  0.63391561269E-02 -0.19371989139E-01 -0.12460931872E-01  0.23890033209E-01  0.00000000000E+00 0.  1.
     999901    1    3    3    0    0  0.51285485576E-02  0.74038002002E-02 -0.11747364802E+00  0.88785200132E+00  0.88000000000E+00 0.  1.
        -11    1    4    4    0    0 -0.12494807589E-01  0.11967840694E-02  0.87279285641E-01  0.88178723804E-01  0.51100000000E-03 0. -1.
         11    1    4    4    0    0  0.10271029049E-02  0.10771404870E-01  0.42655294253E-01  0.44009241667E-01  0.51100000000E-03 0.  1.
</event>
<event>
 8    1  0.1074844E+005  0.1043930E+01  0.7957747E-01            NaN
         13   -1    0    0    0    0  0.00000000000E+00  0.00000000000E+00  0.74505805969E-08  0.10566000000E+00  0.10566000000E+00 0.  1.
     999900   -1    0    0    0    0 -0.00000000000E+00 -0.00000000000E+00 -0.74505805969E-08  0.93827000000E+00  0.93827000000E+00 0. -1.
     999902    2    1    2    0    0 -0.22035846623E-01 -0.94626018897E-02  0.40278228463E-02  0.10196124605E+01  0.10193224352E+01 0.  0.
     999903    2    3    3    0    0 -0.45558099782E-01 -0.40875294301E-01  0.11499312819E+00  0.13177612837E+00  0.19879596037E-01 0.  0.
         14    1    1    2    0    0  0.22035846623E-01  0.94626018897E-02 -0.40278228463E-02  0.24317539509E-01  0.00000000000E+00 0. -1.
     999901    1    3    3    0    0  0.23522253159E-01  0.31412692412E-01 -0.11096530534E+00  0.88783633212E+00  0.88000000000E+00 0. -1.
        -11    1    4    4    0    0 -0.16752229298E-01 -0.24548380857E-01  0.40343082819E-01  0.50110733796E-01  0.51100000000E-03 0.  1.
         11    1    4    4    0    0 -0.28805870484E-01 -0.16326913444E-01  0.74650045369E-01  0.81665394578E-01  0.51100000000E-03 0. -1.
</event>
<event>
 8    1  0.1074844E+005  0.1043930E+01  0.7957747E-01            NaN
         13   -1    0    0    0    0  0.00000000000E+00  0.00000000000E+00  0.74505805969E-08  0.10566000000E+00  0.10566000000E+00 0. -1.
     999900   -1    0    0    0    0 -0.00000000000E+00 -0.00000000000E+00 -0.74505805969E-08  0.93827000000E+00  0.93827000000E+00 0. -1.
     999902    2    1    2    0    0  0.14927533222E-03 -0.21770013099E-01 -0.84388720603E-02  0.10205811175E+01  0.10203139943E+01 0.  0.
     999903    2    3    3    0    0  0.12692597890E+00  0.51539523473E-02 -0.25228892254E-01  0.13092998514E+00  0.19219694568E-01 0.  0.
         14    1    1    2    0    0 -0.14927533222E-03  0.21770013099E-01  0.84388720603E-02  0.23348882524E-01  0.00000000000E+00 0. -1.
     999901    1    3    3    0    0 -0.12677670357E+00 -0.26923965447E-01  0.16790020193E-01  0.88965113233E+00  0.88000000000E+00 0. -1.
        -11    1    4    4    0    0  0.75864126780E-01 -0.63508327788E-02 -0.15167772104E-01  0.77627451592E-01  0.51100000000E-03 0.  1.
         11    1    4    4    0    0  0.51061852125E-01  0.11504785126E-01 -0.10061120149E-01  0.53302533551E-01  0.51100000000E-03 0. -1.
</event>
<event>
 8    1  0.1074844E+005  0.1043930E+01  0.7957747E-01            NaN
         13   -1    0    0    0    0  0.00000000000E+00  0.00000000000E+00  0.74505805969E-08  0.10566000000E+00  0.10566000000E+00 0.  1.
     999900   -1    0    0    0    0 -0.00000000000E+00 -0.00000000000E+00 -0.74505805969E-08  0.93827000000E+00  0.93827000000E+00 0. -1.
     999902    2    1    2    0    0  0.99986759835E-02  0.67015693482E-02 -0.17173277126E-01  0.10229584478E+01  0.10227434576E+01 0.  0.
     999903    2    3    3    0    0  0.45134423672E-01  0.57648941844E-01  0.10793993279E+00  0.13195706128E+00  0.20027986300E-01 0.  0.
         14    1    1    2    0    0 -0.99986759835E-02 -0.67015693482E-02  0.17173277126E-01  0.20971552170E-01  0.00000000000E+00 0.  1.
     999901    1    3    3    0    0 -0.35135747689E-01 -0.50947372496E-01 -0.12511320992E+00  0.89100138655E+00  0.88000000000E+00 0. -1.
        -11    1    4    4    0    0  0.33546513119E-01  0.27913071961E-01  0.68465821740E-01  0.81193213979E-01  0.51100000000E-03 0. -1.
         11    1    4    4    0    0  0.11587910553E-01  0.29735869883E-01  0.39474111055E-01  0.50763847306E-01  0.51100000000E-03 0.  1.
</event>
<event>
 8    1  0.1074844E+005  0.1043930E+01  0.7957747E-01            NaN
         13   -1    0    0    0    0  0.00000000000E+00  0.00000000000E+00  0.74505805969E-08  0.10566000000E+00  0.10566000000E+00 0. -1.
     999900   -1    0    0    0    0 -0.00000000000E+00 -0.00000000000E+00 -0.74505805969E-08  0.93827000000E+00  0.93827000000E+00 0. -1.
     999902    2    1    2    0    0 -0.10203328975E-01 -0.17105613296E-01  0.13786889107E-01  0.10197062877E+01  0.10194185229E+01 0.  0.
     999903    2    3    3    0    0 -0.12334945984E+00  0.36172356903E-01  0.12091954287E-01  0.13086239707E+00  0.21335954644E-01 0.  0.
         14    1    1    2    0    0  0.10203328975E-01  0.17105613296E-01 -0.13786889107E-01  0.24223712342E-01  0.00000000000E+00 0. -1.
     999901    1    3    3    0    0  0.11314613087E+00 -0.53277970198E-01  0.16949348196E-02  0.88884389059E+00  0.88000000000E+00 0.  1.
        -11    1    4    4    0    0 -0.77673578330E-01  0.14461415772E-01  0.66980396266E-03  0.79012828547E-01  0.51100000000E-03 0.  1.
         11    1    4    4    0    0 -0.45675881511E-01  0.21710941131E-01  0.11422150325E-01  0.51849568519E-01  0.51100000000E-03 0. -1.
</event>
<event>
 8    1  0.1074844E+005  0.1043930E+01  0.7957747E-01            NaN
         13   -1    0    0    0    0  0.00000000000E+00  0.00000000000E+00  0.74505805969E-08  0.10566000000E+00  0.10566000000E+00 0.  1.
     999900   -1    0    0    0    0 -0.00000000000E+00 -0.00000000000E+00 -0.74505805969E-08  0.93827000000E+00  0.93827000000E+00 0. -1.
     999902    2    1    2    0    0 -0.27492642446E-01 -0.15079106654E-01 -0.18395529615E-02  0.10125196705E+01  0.10120323484E+01 0.  0.
     999903    2    3    3    0    0  0.72618212459E-01  0.63946292290E-01 -0.68890500871E-01  0.12080052939E+00  0.22007583073E-01 0.  0.
         14    1    1    2    0    0  0.27492642446E-01  0.15079106654E-01  0.18395529615E-02  0.31410329531E-01  0.00000000000E+00 0. -1.
     999901    1    3    3    0    0 -0.10011085490E+00 -0.79025398944E-01  0.67050947909E-01  0.89171914108E+00  0.88000000000E+00 0.  1.
        -11    1    4    4    0    0  0.51934322052E-01  0.57122231962E-01 -0.57127147270E-01  0.96041112382E-01  0.51100000000E-03 0.  1.
         11    1    4    4    0    0  0.20683890408E-01  0.68240603276E-02 -0.11763353601E-01  0.24759417010E-01  0.51100000000E-03 0. -1.
</event>
<event>
 8    1  0.1074844E+005  0.1043930E+01  0.7957747E-01            NaN
         13   -1    0    0    0    0  0.00000000000E+00  0.00000000000E+00  0.74505805969E-08  0.10566000000E+00  0.10566000000E+00 0.  1.
     999900   -1    0    0    0    0 -0.00000000000E+00 -0.00000000000E+00 -0.74505805969E-08  0.93827000000E+00  0.93827000000E+00 0.  1.
     999902    2    1    2    0    0  0.10355974930E-01 -0.75694349331E-02 -0.19794179797E-01  0.10203428824E+01  0.10200702160E+01 0.  0.
     999903    2    3    3    0    0 -0.11259828680E+00 -0.61727668164E-01 -0.54084063538E-03  0.12993760628E+00  0.19869821602E-01 0.  0.
         14    1    1    2    0    0 -0.10355974930E-01  0.75694349331E-02  0.19794179797E-01  0.23587117581E-01  0.00000000000E+00 0.  1.
     999901    1    3    3    0    0  0.12295426173E+00  0.54158233231E-01 -0.19253339162E-01  0.89040527614E+00  0.88000000000E+00 0. -1.
        -11    1    4    4    0    0 -0.34070351372E-01 -0.25716738728E-01 -0.71844420423E-02  0.43289915938E-01  0.51100000000E-03 0.  1.
         11    1    4    4    0    0 -0.78527935427E-01 -0.36010929436E-01  0.66436014069E-02  0.86647690344E-01  0.51100000000E-03 0. -1.
</event>
<event>
 8    1  0.1074844E+005  0.1043930E+01  0.7957747E-01            NaN
         13   -1    0    0    0    0  0.00000000000E+00  0.00000000000E+00  0.74505805969E-08  0.10566000000E+00  0.10566000000E+00 0.  1.
     999900   -1    0    0    0    0 -0.00000000000E+00 -0.00000000000E+00 -0.74505805969E-08  0.93827000000E+00  0.93827000000E+00 0. -1.
     999902    2    1    2    0    0 -0.19007120354E-02 -0.16914535376E-01 -0.15908227660E-01  0.10206322336E+01  0.10203662922E+01 0.  0.
     999903    2    3    3    0    0  0.48256201902E-01 -0.77449824624E-01  0.91189107450E-01  0.13066028095E+00  0.20724848494E-01 0.  0.
         14    1    1    2    0    0  0.19007120354E-02  0.16914535376E-01  0.15908227660E-01  0.23297766428E-01  0.00000000000E+00 0.  1.
     999901    1    3    3    0    0 -0.50156913938E-01  0.60535289248E-01 -0.10709733511E+00  0.88997195262E+00  0.88000000000E+00 0. -1.
        -11    1    4    4    0    0  0.16637622214E-02 -0.17481165920E-01  0.19093403508E-01  0.25945682593E-01  0.51100000000E-03 0.  1.
         11    1    4    4    0    0  0.46592439681E-01 -0.59968658704E-01  0.72095703942E-01  0.10471459836E+00  0.51100000000E-03 0. -1.
</event>
<event>
 8    1  0.1074844E+005  0.1043930E+01  0.7957747E-01            NaN
         13   -1    0    0    0    0  0.00000000000E+00  0.00000000000E+00  0.74505805969E-08  0.10566000000E+00  0.10566000000E+00 0. -1.
     999900   -1    0    0    0    0 -0.00000000000E+00 -0.00000000000E+00 -0.74505805969E-08  0.93827000000E+00  0.93827000000E+00 0.  1.
     999902    2    1    2    0    0  0.11179343607E-01  0.17370448472E-01 -0.11719450484E-01  0.10201801427E+01  0.10199036561E+01 0.  0.
     999903    2    3    3    0    0  0.11495103971E+00  0.53463175051E-01 -0.35240321186E-01  0.13303614016E+00  0.19613305066E-01 0.  0.
         14    1    1    2    0    0 -0.11179343607E-01 -0.17370448472E-01  0.11719450484E-01  0.23749857331E-01  0.00000000000E+00 0. -1.
     999901    1    3    3    0    0 -0.10377169610E+00 -0.36092726579E-01  0.23520870702E-01  0.88714400251E+00  0.88000000000E+00 0.  1.
        -11    1    4    4    0    0  0.83609984864E-01  0.29159283138E-01 -0.26361129373E-01  0.92390820025E-01  0.51100000000E-03 0.  1.
         11    1    4    4    0    0  0.31341054845E-01  0.24303891913E-01 -0.88791918132E-02  0.40645320138E-01  0.51100000000E-03 0. -1.
</event>
<event>
 8    1  0.1074844E+005  0.1043930E+01  0.7957747E-01            NaN
         13   -1    0    0    0    0  0.00000000000E+00  0.00000000000E+00  0.74505805969E-08  0.10566000000E+00  0.10566000000E+00 0.  1.
     999900   -1    0    0    0    0 -0.00000000000E+00 -0.00000000000E+00 -0.74505805969E-08  0.93827000000E+00  0.93827000000E+00 0. -1.
     999902    2    1    2    0    0 -0.54326701568E-02  0.22035062695E-01  0.25432123682E-02  0.10210930601E+01  0.10208376520E+01 0.  0.
     999903    2    3    3    0    0  0.53518048086E-01  0.68346125881E-03 -0.11777048476E+00  0.13069625883E+00  0.18627302617E-01 0.  0.
         14    1    1    2    0    0  0.54326701568E-02 -0.22035062695E-01 -0.25432123682E-02  0.22836939860E-01  0.00000000000E+00 0. -1.
     999901    1    3    3    0    0 -0.58950718243E-01  0.21351601436E-01  0.12031369712E+00  0.89039680131E+00  0.88000000000E+00 0.  1.
        -11    1    4    4    0    0  0.34142598494E-01 -0.30141990571E-02 -0.54167902314E-01  0.64103238530E-01  0.51100000000E-03 0. -1.
         11    1    4    4    0    0  0.19375449592E-01  0.36976603159E-02 -0.63602582442E-01  0.66593020302E-01  0.51100000000E-03 0.  1.
</event>
<event>
 8    1  0.1074844E+005  0.1043930E+01  0.7957747E-01            NaN
         13   -1    0    0    0    0  0.00000000000E+00  0.00000000000E+00  0.74505805969E-08  0.10566000000E+00  0.10566000000E+00 0. -1.
     999900   -1    0    0    0    0 -0.00000000000E+00 -0.00000000000E+00 -0.74505805969E-08  0.93827000000E+00  0.93827000000E+00 0.  1.
     999902    2    1    2    0    0  0.88865959705E-02  0.95133353897E-02  0.20359099300E-01  0.10197645689E+01  0.10194782037E+01 0.  0.
     999903    2    3    3    0    0 -0.86270463030E-01  0.82451530970E-01  0.51123018629E-01  0.13110194165E+00  0.18256733569E-01 0.  0.
         14    1    1    2    0    0 -0.88865959705E-02 -0.95133353897E-02 -0.20359099300E-01  0.24165431146E-01  0.00000000000E+00 0.  1.
     999901    1    3    3    0    0  0.95157059001E-01 -0.72938195580E-01 -0.30763919329E-01  0.88866262720E+00  0.88000000000E+00 0.  1.
        -11    1    4    4    0    0 -0.20330793592E-01  0.27128289682E-01  0.80339764502E-02  0.34843811040E-01  0.51100000000E-03 0. -1.
         11    1    4    4    0    0 -0.65939669438E-01  0.55323241287E-01  0.43089042179E-01  0.96258130613E-01  0.51100000000E-03 0.  1.
</event>
<event>
 8    1  0.1074844E+005  0.1043930E+01  0.7957747E-01            NaN
         13   -1    0    0    0    0  0.00000000000E+00  0.00000000000E+00  0.74505805969E-08  0.10566000000E+00  0.10566000000E+00 0.  1.
     999900   -1    0    0    0    0 -0.00000000000E+00 -0.00000000000E+00 -0.74505805969E-08  0.93827000000E+00  0.93827000000E+00 0.  1.
     999902    2    1    2    0    0 -0.34970202640E-02 -0.23305771014E-02  0.23535653619E-01  0.10200220990E+01  0.10197418765E+01 0.  0.
     999903    2    3    3    0    0 -0.25162312190E-01  0.61594639890E-01 -0.10723335231E+00  0.12780219830E+00  0.20183370007E-01 0.  0.
         14    1    1    2    0    0  0.34970202640E-02  0.23305771014E-02 -0.23535653619E-01  0.23907901029E-01  0.00000000000E+00 0. -1.
     999901    1    3    3    0    0  0.21665291926E-01 -0.63925216992E-01  0.13076900593E+00  0.89221990067E+00  0.88000000000E+00 0.  1.
        -11    1    4    4    0    0 -0.17889246859E-01  0.37114377042E-01 -0.82648195823E-01  0.92349810666E-01  0.51100000000E-03 0.  1.
         11    1    4    4    0    0 -0.72730653317E-02  0.24480262849E-01 -0.24585156487E-01  0.35452387634E-01  0.51100000000E-03 0. -1.
</event>
<event>
 8    1  0.1074844E+005  0.1043930E+01  0.7957747E-01            NaN
         13   -1    0    0    0    0  0.00000000000E+00  0.00000000000E+00  0.74505805969E-08  0.10566000000E+00  0.10566000000E+00 0.  1.
     999900   -1    0    0    0    0 -0.00000000000E+00 -0.00000000000E+00 -0.74505805969E-08  0.93827000000E+00  0.93827000000E+00 0.  1.
     999902    2    1    2    0    0  0.14493310010E-01 -0.17537408702E-01 -0.44514272528E-02  0.10207474215E+01  0.10204841335E+01 0.  0.
     999903    2    3    3    0    0  0.37526526835E-01  0.10828747076E+00  0.56387376152E-01  0.12942043925E+00  0.20873364993E-01 0.  0.
         14    1    1    2    0    0 -0.14493310010E-01  0.17537408702E-01  0.44514272528E-02  0.23182578451E-01  0.00000000000E+00 0. -1.
     999901    1    3    3    0    0 -0.23033216825E-01 -0.12582487947E+00 -0.60838803405E-01  0.89132698230E+00  0.88000000000E+00 0.  1.
        -11    1    4    4    0    0  0.25880645826E-01  0.55060549998E-01  0.38813779286E-01  0.72168154874E-01  0.51100000000E-03 0. -1.
         11    1    4    4    0    0  0.11645881009E-01  0.53226920766E-01  0.17573596866E-01  0.57252284378E-01  0.51100000000E-03 0.  1.
</event>
<event>
 8    1  0.1074844E+005  0.1043930E+01  0.7957747E-01            NaN
         13   -1    0    0    0    0  0.00000000000E+00  0.00000000000E+00  0.74505805969E-08  0.10566000000E+00  0.10566000000E+00 0.  1.
     999900   -1    0    0    0    0 -0.00000000000E+00 -0.00000000000E+00 -0.74505805969E-08  0.93827000000E+00  0.93827000000E+00 0.  1.
     999902    2    1    2    0    0  0.89895309994E-02  0.19043642939E-01 -0.18768956575E-01  0.10157210345E+01  0.10153292442E+01 0.  0.
     999903    2    3    3    0    0 -0.20696210863E-01 -0.25528456527E-01 -0.12204973311E+00  0.12806409957E+00  0.20597111654E-01 0.  0.
         14    1    1    2    0    0 -0.89895309994E-02 -0.19043642939E-01  0.18768956575E-01  0.28208965506E-01  0.00000000000E+00 0.  1.
     999901    1    3    3    0    0  0.29685741862E-01  0.44572099466E-01  0.10328077654E+00  0.88765693493E+00  0.88000000000E+00 0. -1.
        -11    1    4    4    0    0 -0.67197419263E-02 -0.17972447787E-01 -0.92894627643E-01  0.94856927934E-01  0.51100000000E-03 0.  1.
         11    1    4    4    0    0 -0.13976468936E-01 -0.75560087401E-02 -0.29155105469E-01  0.33207171634E-01  0.51100000000E-03 0. -1.
</event>
<event>
 8    1  0.1074844E+005  0.1043930E+01  0.7957747E-01            NaN
         13   -1    0    0    0    0  0.00000000000E+00  0.00000000000E+00  0.74505805969E-08  0.10566000000E+00  0.10566000000E+00 0.  1.
     999900   -1    0    0    0    0 -0.00000000000E+00 -0.00000000000E+00 -0.74505805969E-08  0.93827000000E+00  0.93827000000E+00 0. -1.
     999902    2    1    2    0    0  0.19949226764E-01 -0.12182451475E-01  0.63527412509E-02  0.10197072608E+01  0.10194195195E+01 0.  0.
     999903    2    3    3    0    0  0.71190666232E-01  0.43314200808E-01 -0.94951772776E-01  0.13068073247E+00  0.33427290274E-01 0.  0.
         14    1    1    2    0    0 -0.19949226764E-01  0.12182451475E-01 -0.63527412509E-02  0.24222739189E-01  0.00000000000E+00 0. -1.
     999901    1    3    3    0    0 -0.51241439468E-01 -0.55496652283E-01  0.10130451403E+00  0.88902652834E+00  0.88000000000E+00 0.  1.
        -11    1    4    4    0    0  0.99872649378E-02  0.12803321440E-01 -0.39245490282E-01  0.42475170739E-01  0.51100000000E-03 0. -1.
         11    1    4    4    0    0  0.61203401294E-01  0.30510879368E-01 -0.55706282494E-01  0.88205561730E-01  0.51100000000E-03 0.  1.
</event>
<event>
 8    1  0.1074844E+005  0.1043930E+01  0.7957747E-01            NaN
         13   -1    0    0    0    0  0.00000000000E+00  0.00000000000E+00  0.74505805969E-08  0.10566000000E+00  0.10566000000E+00 0.  1.
     999900   -1    0    0    0    0 -0.00000000000E+00 -0.00000000000E+00 -0.74505805969E-08  0.93827000000E+00  0.93827000000E+00 0.  1.
     999902    2    1    2    0    0  0.13999113705E-01  0.16877464493E-01 -0.29324055684E-01  0.10073140986E+01  0.10066483840E+01 0.  0.
     999903    2    3    3    0    0  0.92629932228E-01  0.56966044944E-01  0.45676862113E-01  0.11972464534E+00  0.20547027707E-01 0.  0.
         14    1    1    2    0    0 -0.13999113705E-01 -0.16877464493E-01  0.29324055684E-01  0.36615901382E-01  0.00000000000E+00 0. -1.
     999901    1    3    3    0    0 -0.78630818524E-01 -0.40088580451E-01 -0.75000917797E-01  0.88758945328E+00  0.88000000000E+00 0. -1.
        -11    1    4    4    0    0  0.26142918972E-01  0.96141875601E-02  0.19489246319E-01  0.33999656733E-01  0.51100000000E-03 0. -1.
         11    1    4    4    0    0  0.66487013256E-01  0.47351857384E-01  0.26187615794E-01  0.85724988605E-01  0.51100000000E-03 0.  1.
</event>
<event>
 8    1  0.1074844E+005  0.1043930E+01  0.7957747E-01            NaN
         13   -1    0    0    0    0  0.00000000000E+00  0.00000000000E+00  0.74505805969E-08  0.10566000000E+00  0.10566000000E+00 0. -1.
     999900   -1    0    0    0    0 -0.00000000000E+00 -0.00000000000E+00 -0.74505805969E-08  0.93827000000E+00  0.93827000000E+00 0. -1.
     999902    2    1    2    0    0  0.11536354050E-01 -0.11951669994E-01  0.16748113898E-01  0.10203412485E+01  0.10200685438E+01 0.  0.
     999903    2    3    3    0    0  0.87613198053E-01  0.92881927597E-01  0.19741936012E-01  0.13085446814E+00  0.20736992256E-01 0.  0.
         14    1    1    2    0    0 -0.11536354050E-01  0.11951669994E-01 -0.16748113898E-01  0.23588751547E-01  0.00000000000E+00 0.  1.
     999901    1    3    3    0    0 -0.76076844004E-01 -0.10483359759E+00 -0.29938221133E-02  0.88948678031E+00  0.88000000000E+00 0. -1.
        -11    1    4    4    0    0  0.24477855815E-01  0.34751890449E-01 -0.11510385918E-02  0.42525819521E-01  0.51100000000E-03 0. -1.
         11    1    4    4    0    0  0.63135342238E-01  0.58130037148E-01  0.20892974603E-01  0.88328648621E-01  0.51100000000E-03 0.  1.
</event>
<event>
 8    1  0.1074844E+005  0.1043930E+01  0.7957747E-01            NaN
         13   -1    0    0    0    0  0.00000000000E+00  0.00000000000E+00  0.74505805969E-08  0.10566000000E+00  0.10566000000E+00 0. -1.
     999900   -1    0    0    0    0 -0.00000000000E+00 -0.00000000000E+00 -0.74505805969E-08  0.93827000000E+00  0.93827000000E+00 0. -1.
     999902    2    1    2    0    0 -0.23795057247E-02  0.27215017243E-01  0.61120509546E-02  0.10159357796E+01  0.10155500144E+01 0.  0.
     999903    2    3    3    0    0 -0.21953912316E-01  0.20486248555E-02  0.12396928298E+00  0.12750636096E+00  0.20082774544E-01 0.  0.
         14    1    1    2    0    0  0.23795057247E-02 -0.27215017243E-01 -0.61120509546E-02  0.27994220437E-01  0.00000000000E+00 0. -1.
     999901    1    3    3    0    0  0.19574406592E-01  0.25166392387E-01 -0.11785723202E+00  0.88842941860E+00  0.88000000000E+00 0. -1.
        -11    1    4    4    0    0 -0.15669625674E-01 -0.32565773778E-02  0.39298222436E-01  0.42435290415E-01  0.51100000000E-03 0.  1.
         11    1    4    4    0    0 -0.62842866418E-02  0.53052022333E-02  0.84671060541E-01  0.85071070544E-01  0.51100000000E-03 0. -1.
</event>
<event>
 8    1  0.1074844E+005  0.1043930E+01  0.7957747E-01            NaN
         13   -1    0    0    0    0  0.00000000000E+00  0.00000000000E+00  0.74505805969E-08  0.10566000000E+00  0.10566000000E+00 0. -1.
     999900   -1    0    0    0    0 -0.00000000000E+00 -0.00000000000E+00 -0.74505805969E-08  0.93827000000E+00  0.93827000000E+00 0.  1.
     999902    2    1    2    0    0  0.20055853507E-01  0.11498130157E-01 -0.30579825029E-02  0.10206105765E+01  0.10203441347E+01 0.  0.
     999903    2    3    3    0    0  0.88273915942E-02 -0.11249513720E+00  0.59972963625E-01  0.12961489248E+00  0.21683755467E-01 0.  0.
         14    1    1    2    0    0 -0.20055853507E-01 -0.11498130157E-01  0.30579825029E-02  0.23319423535E-01  0.00000000000E+00 0. -1.
     999901    1    3    3    0    0  0.11228461912E-01  0.12399326736E+00 -0.63030946127E-01  0.89099568398E+00  0.88000000000E+00 0.  1.
        -11    1    4    4    0    0 -0.34825616703E-02 -0.44461923548E-01  0.32638836215E-01  0.55267943980E-01  0.51100000000E-03 0.  1.
         11    1    4    4    0    0  0.12309953264E-01 -0.68033213653E-01  0.27334127409E-01  0.74346948502E-01  0.51100000000E-03 0. -1.
</event>
<event>
 8    1  0.1074844E+005  0.1043930E+01  0.7957747E-01            NaN
         13   -1    0    0    0    0  0.00000000000E+00  0.00000000000E+00  0.74505805969E-08  0.10566000000E+00  0.10566000000E+00 0. -1.
     999900   -1    0    0    0    0 -0.00000000000E+00 -0.00000000000E+00 -0.74505805969E-08  0.93827000000E+00  0.93827000000E+00 0. -1.
     999902    2    1    2    0    0  0.22361355417E-01 -0.11240846560E-01 -0.39193481903E-02  0.10185972517E+01  0.10182821873E+01 0.  0.
     999903    2    3    3    0    0  0.95586576712E-01 -0.86529217786E-01  0.20180743976E-01  0.13202458893E+00  0.19978250118E-01 0.  0.
         14    1    1    2    0    0 -0.22361355417E-01  0.11240846560E-01  0.39193481903E-02  0.25332748326E-01  0.00000000000E+00 0.  1.
     999901    1    3    3    0    0 -0.73225221295E-01  0.75288371226E-01 -0.24100092166E-01  0.88657266274E+00  0.88000000000E+00 0. -1.
        -11    1    4    4    0    0  0.63278748140E-01 -0.44076424782E-01  0.12459275961E-01  0.78118025233E-01  0.51100000000E-03 0. -1.
         11    1    4    4    0    0  0.32307828572E-01 -0.42452793004E-01  0.77214680150E-02  0.53906563702E-01  0.51100000000E-03 0.  1.
</event>
<event>
 8    1  0.1074844E+005  0.1043930E+01  0.7957747E-01            NaN
         13   -1    0    0    0    0  0.00000000000E+00  0.00000000000E+00  0.74505805969E-08  0.10566000000E+00  0.10566000000E+00 0. -1.
     999900   -1    0    0    0    0 -0.00000000000E+00 -0.00000000000E+00 -0.74505805969E-08  0.93827000000E+00  0.93827000000E+00 0. -1.
     999902    2    1    2    0    0  0.22021709698E-01 -0.45407978220E-02  0.72546299601E-02  0.10203036546E+01  0.10200300698E+01 0.  0.
     999903    2    3    3    0    0 -0.99059694526E-01  0.77438010236E-01  0.15046713131E-01  0.12820391351E+00  0.20009281724E-01 0.  0.
         14    1    1    2    0    0 -0.22021709698E-01  0.45407978220E-02 -0.72546299601E-02  0.23626345438E-01  0.00000000000E+00 0.  1.
     999901    1    3    3    0    0  0.12108140422E+00 -0.81978808058E-01 -0.77920831705E-02  0.89209974105E+00  0.88000000000E+00 0.  1.
        -11    1    4    4    0    0 -0.60980390622E-01  0.59269218281E-01  0.12240972832E-01  0.85915952028E-01  0.51100000000E-03 0. -1.
         11    1    4    4    0    0 -0.38079303904E-01  0.18168791955E-01  0.28057402990E-02  0.42287961485E-01  0.51100000000E-03 0.  1.
</event>
<event>
 8    1  0.1074844E+005  0.1043930E+01  0.7957747E-01            NaN
         13   -1    0    0    0    0  0.00000000000E+00  0.00000000000E+00  0.74505805969E-08  0.10566000000E+00  0.10566000000E+00 0. -1.
     999900   -1    0    0    0    0 -0.00000000000E+00 -0.00000000000E+00 -0.74505805969E-08  0.93827000000E+00  0.93827000000E+00 0.  1.
     999902    2    1    2    0    0  0.17848304695E-02  0.17458580725E-01  0.98073707155E-02  0.10238259660E+01  0.10236285638E+01 0.  0.
     999903    2    3    3    0    0 -0.29533263074E-01 -0.25774871286E-01  0.12689867775E+00  0.13446646138E+00  0.21009455147E-01 0.  0.
         14    1    1    2    0    0 -0.17848304695E-02 -0.17458580725E-01 -0.98073707155E-02  0.20104033951E-01  0.00000000000E+00 0.  1.
     999901    1    3    3    0    0  0.31318093543E-01  0.43233452011E-01 -0.11709130703E+00  0.88935950467E+00  0.88000000000E+00 0.  1.
        -11    1    4    4    0    0  0.35299160319E-03 -0.10162321581E-01  0.21187766696E-01  0.23507019410E-01  0.51100000000E-03 0. -1.
         11    1    4    4    0    0 -0.29886254677E-01 -0.15612549705E-01  0.10571091105E+00  0.11095944197E+00  0.51100000000E-03 0.  1.
</event>
<event>
 8    1  0.1074844E+005  0.1043930E+01  0.7957747E-01            NaN
         13   -1    0    0    0    0  0.00000000000E+00  0.00000000000E+00  0.74505805969E-08  0.10566000000E+00  0.10566000000E+00 0. -1.
     999900   -1    0    0    0    0 -0.00000000000E+00 -0.00000000000E+00 -0.74505805969E-08  0.93827000000E+00  0.93827000000E+00 0.  1.
     999902    2    1    2    0    0 -0.27943949601E-02  0.24098857190E-01 -0.38436442318E-02  0.10193670775E+01  0.10190710974E+01 0.  0.
     999903    2    3    3    0    0  0.10478131528E+00  0.49543671629E-01  0.56334004720E-01  0.13041189221E+00  0.20001052767E-01 0.  0.
         14    1    1    2    0    0  0.27943949601E-02 -0.24098857190E-01  0.38436442318E-02  0.24562922506E-01  0.00000000000E+00 0. -1.
     999901    1    3    3    0    0 -0.10757571024E+00 -0.25444814438E-01 -0.60177648952E-01  0.88895518529E+00  0.88000000000E+00 0. -1.
        -11    1    4    4    0    0  0.94951575098E-01  0.41943002074E-01  0.56056143446E-01  0.11797274845E+00  0.51100000000E-03 0. -1.
         11    1    4    4    0    0  0.98297401776E-02  0.76006695549E-02  0.27786127402E-03  0.12439143762E-01  0.51100000000E-03 0.  1.
</event>
<event>
 8    1  0.1074844E+005  0.1043930E+01  0.7957747E-01            NaN
         13   -1    0    0    0    0  0.00000000000E+00  0.00000000000E+00  0.74505805969E-08  0.10566000000E+00  0.10566000000E+00 0. -1.
     999900   -1    0    0    0    0 -0.00000000000E+00 -0.00000000000E+00 -0.74505805969E-08  0.93827000000E+00  0.93827000000E+00 0.  1.
     999902    2    1    2    0    0  0.10269261935E-01  0.17196096535E-01 -0.12990738515E-01  0.10200569448E+01  0.10197775482E+01 0.  0.
     999903    2    3    3    0    0  0.10115819426E+00  0.22335872572E-01 -0.80494170558E-01  0.13278926894E+00  0.20537940047E-01 0.  0.
         14    1    1    2    0    0 -0.10269261935E-01 -0.17196096535E-01  0.12990738515E-01  0.23873055185E-01  0.00000000000E+00 0. -1.
     999901    1    3    3    0    0 -0.90888932327E-01 -0.51397760376E-02  0.67503432043E-01  0.88726767588E+00  0.88000000000E+00 0. -1.
        -11    1    4    4    0    0  0.88558904009E-01  0.22651690566E-01 -0.62192569655E-01  0.11056199802E+00  0.51100000000E-03 0.  1.
         11    1    4    4    0    0  0.12599290253E-01 -0.31581799325E-03 -0.18301600903E-01  0.22227270918E-01  0.51100000000E-03 0. -1.
</event>
<event>
 8    1  0.1074844E+005  0.1043930E+01  0.7957747E-01            NaN
         13   -1    0    0    0    0  0.00000000000E+00  0.00000000000E+00  0.74505805969E-08  0.10566000000E+00  0.10566000000E+00 0.  1.
     999900   -1    0    0    0    0 -0.00000000000E+00 -0.00000000000E+00 -0.74505805969E-08  0.93827000000E+00  0.93827000000E+00 0. -1.
     999902    2    1    2    0    0  0.50598048627E-02  0.19281490963E-01  0.12488048285E-01  0.10204070565E+01  0.10201358891E+01 0.  0.
     999903    2    3    3    0    0 -0.69593402993E-01  0.18389867734E-01  0.10879794334E+00  0.13200990868E+00  0.20203824864E-01 0.  0.
         14    1    1    2    0    0 -0.50598048627E-02 -0.19281490963E-01 -0.12488048285E-01  0.23522943459E-01  0.00000000000E+00 0.  1.
     999901    1    3    3    0    0  0.74653207856E-01  0.89162322911E-03 -0.96309895060E-01  0.88839714786E+00  0.88000000000E+00 0. -1.
        -11    1    4    4    0    0 -0.38469599482E-01  0.74483713537E-03  0.63982956951E-01  0.74662874094E-01  0.51100000000E-03 0.  1.
         11    1    4    4    0    0 -0.31123803511E-01  0.17645030599E-01  0.44814986393E-01  0.57347034590E-01  0.51100000000E-03 0. -1.
</event>
<event>
 8    1  0.1074844E+005  0.1043930E+01  0.7957747E-01            NaN
         13   -1    0    0    0    0  0.00000000000E+00  0.00000000000E+00  0.74505805969E-08  0.10566000000E+00  0.10566000000E+00 0.  1.
     999900   -1    0    0    0    0 -0.00000000000E+00 -0.00000000000E+00 -0.74505805969E-08  0.93827000000E+00  0.93827000000E+00 0. -1.
     999902    2    1    2    0    0 -0.60788749325E-02 -0.17280866753E-01  0.14530156951E-01  0.10205482435E+01  0.10202803589E+01 0.  0.
     999903    2    3    3    0    0 -0.10854641156E+00 -0.11717159912E-01  0.72029194268E-01  0.13272129516E+00  0.22519370847E-01 0.  0.
         14    1    1    2    0    0  0.60788749325E-02  0.17280866753E-01 -0.14530156951E-01  0.23381756504E-01  0.00000000000E+00 0. -1.
     999901    1    3    3    0    0  0.10246753663E+00 -0.55637068407E-02 -0.57499037316E-01  0.88782694833E+00  0.88000000000E+00 0. -1.
        -11    1    4    4    0    0 -0.10872503314E-01 -0.83657560248E-02  0.95830810371E-02  0.16741976148E-01  0.51100000000E-03 0. -1.
         11    1    4    4    0    0 -0.97673908247E-01 -0.33514038873E-02  0.62446113230E-01  0.11597931901E+00  0.51100000000E-03 0.  1.
</event>
<event>
 8    1  0.1074844E+005  0.1043930E+01  0.7957747E-01            NaN
         13   -1    0    0    0    0  0.00000000000E+00  0.00000000000E+00  0.74505805969E-08  0.10566000000E+00  0.10566000000E+00 0. -1.
     999900   -1    0    0    0    0 -0.00000000000E+00 -0.00000000000E+00 -0.74505805969E-08  0.93827000000E+00  0.93827000000E+00 0.  1.
     999902    2    1    2    0    0  0.16072021554E-01 -0.27726466048E-01 -0.60311867217E-03  0.10118764425E+01  0.10113686293E+01 0.  0.
     999903    2    3    3    0    0  0.55983917606E-01  0.97356952604E-01  0.40847859438E-01  0.12117054005E+00  0.20029401011E-01 0.  0.
         14    1    1    2    0    0 -0.16072021554E-01  0.27726466048E-01  0.60311867217E-03  0.32053557501E-01  0.00000000000E+00 0.  1.
     999901    1    3    3    0    0 -0.39911896053E-01 -0.12508341865E+00 -0.41450978110E-01  0.89070590245E+00  0.88000000000E+00 0. -1.
        -11    1    4    4    0    0  0.31519694529E-01  0.68128980524E-01  0.19839879330E-01  0.77646191557E-01  0.51100000000E-03 0.  1.
         11    1    4    4    0    0  0.24464223078E-01  0.29227972080E-01  0.21007980108E-01  0.43524348495E-01  0.51100000000E-03 0. -1.
</event>
<event>
 8    1  0.1074844E+005  0.1043930E+01  0.7957747E-01            NaN
         13   -1    0    0    0    0  0.00000000000E+00  0.00000000000E+00  0.74505805969E-08  0.10566000000E+00  0.10566000000E+00 0. -1.
     999900   -1    0    0    0    0 -0.00000000000E+00 -0.00000000000E+00 -0.74505805969E-08  0.93827000000E+00  0.93827000000E+00 0.  1.
     999902    2    1    2    0    0 -0.73848469760E-02  0.14731427539E-01  0.16363168595E-01  0.10207070758E+01  0.10204428599E+01 0.  0.
     999903    2    3    3    0    0 -0.60082730200E-01  0.11684110533E+00  0.57216025797E-02  0.13317302229E+00  0.20989015384E-01 0.  0.
         14    1    1    2    0    0  0.73848469760E-02 -0.14731427539E-01 -0.16363168595E-01  0.23222924206E-01  0.00000000000E+00 0.  1.
     999901    1    3    3    0    0  0.52697883224E-01 -0.10210967779E+00  0.10641566015E-01  0.88753405350E+00  0.88000000000E+00 0.  1.
        -11    1    4    4    0    0 -0.41887737416E-01  0.62492503821E-01  0.89613130182E-02  0.75765835518E-01  0.51100000000E-03 0.  1.
         11    1    4    4    0    0 -0.18194992784E-01  0.54348601513E-01 -0.32397104385E-02  0.57407186776E-01  0.51100000000E-03 0. -1.
</event>
<event>
 8    1  0.1074844E+005  0.1043930E+01  0.7957747E-01            NaN
         13   -1    0    0    0    0  0.00000000000E+00  0.00000000000E+00  0.74505805969E-08  0.10566000000E+00  0.10566000000E+00 0. -1.
     999900   -1    0    0    0    0 -0.00000000000E+00 -0.00000000000E+00 -0.74505805969E-08  0.93827000000E+00  0.93827000000E+00 0.  1.
     999902    2    1    2    0    0  0.84665645332E-02 -0.32736222893E-02  0.22001384797E-01  0.10201295746E+01  0.10198518954E+01 0.  0.
     999903    2    3    3    0    0 -0.59704219873E-01  0.54172943010E-01 -0.96462439535E-01  0.12772773605E+00  0.22584744632E-01 0.  0.
         14    1    1    2    0    0 -0.84665645332E-02  0.32736222893E-02 -0.22001384797E-01  0.23800425435E-01  0.00000000000E+00 0.  1.
     999901    1    3    3    0    0  0.68170784406E-01 -0.57446565300E-01  0.11846382433E+00  0.89240183852E+00  0.88000000000E+00 0.  1.
        -11    1    4    4    0    0 -0.23657514504E-01  0.22623132651E-01 -0.22939939415E-01  0.39974817883E-01  0.51100000000E-03 0. -1.
         11    1    4    4    0    0 -0.36046705369E-01  0.31549810360E-01 -0.73522500120E-01  0.87752918166E-01  0.51100000000E-03 0.  1.
</event>
<event>
 8    1  0.1074844E+005  0.1043930E+01  0.7957747E-01            NaN
         13   -1    0    0    0    0  0.00000000000E+00  0.00000000000E+00  0.74505805969E-08  0.10566000000E+00  0.10566000000E+00 0.  1.
     999900   -1    0    0    0    0 -0.00000000000E+00 -0.00000000000E+00 -0.74505805969E-08  0.93827000000E+00  0.93827000000E+00 0.  1.
     999902    2    1    2    0    0 -0.15196215466E-01  0.19824158058E-02 -0.18383670928E-01  0.10199964609E+01  0.10197156299E+01 0.  0.
     999903    2    3    3    0    0  0.10947334516E+00  0.52657185636E-01  0.35658921928E-01  0.12812705707E+00  0.19692423436E-01 0.  0.
         14    1    1    2    0    0  0.15196215466E-01 -0.19824158058E-02  0.18383670928E-01  0.23933539097E-01  0.00000000000E+00 0.  1.
     999901    1    3    3    0    0 -0.12466956063E+00 -0.50674769830E-01 -0.54042592856E-01  0.89186940383E+00  0.88000000000E+00 0. -1.
        -11    1    4    4    0    0  0.92439683978E-01  0.43059153651E-01  0.37097762211E-01  0.10851585584E+00  0.51100000000E-03 0. -1.
         11    1    4    4    0    0  0.17033661186E-01  0.95980319845E-02 -0.14388402828E-02  0.19611201231E-01  0.51100000000E-03 0.  1.
</event>
<event>
 8    1  0.1074844E+005  0.1043930E+01  0.7957747E-01            NaN
         13   -1    0    0    0    0  0.00000000000E+00  0.00000000000E+00  0.74505805969E-08  0.10566000000E+00  0.10566000000E+00 0. -1.
     999900   -1    0    0    0    0 -0.00000000000E+00 -0.00000000000E+00 -0.74505805969E-08  0.93827000000E+00  0.93827000000E+00 0.  1.
     999902    2    1    2    0    0  0.17060498689E-01  0.15768184919E-01  0.17722832036E-02  0.10206311318E+01  0.10203651650E+01 0.  0.
     999903    2    3    3    0    0  0.12137956391E+00 -0.77535866413E-02  0.49625431054E-01  0.13286671212E+00  0.19944000139E-01 0.  0.
         14    1    1    2    0    0 -0.17060498689E-01 -0.15768184919E-01 -0.17722832036E-02  0.23298868189E-01  0.00000000000E+00 0. -1.
     999901    1    3    3    0    0 -0.10431906522E+00  0.23521771560E-01 -0.47853147851E-01  0.88776441969E+00  0.88000000000E+00 0.  1.
        -11    1    4    4    0    0  0.58120609660E-01 -0.10377360295E-01  0.31940403747E-01  0.67127828703E-01  0.51100000000E-03 0.  1.
         11    1    4    4    0    0  0.63258954252E-01  0.26237736536E-02  0.17685027307E-01  0.65738883419E-01  0.51100000000E-03 0. -1.
</event>
<event>
 8    1  0.1074844E+005  0.1043930E+01  0.7957747E-01            NaN
         13   -1    0    0    0    0  0.00000000000E+00  0.00000000000E+00  0.74505805969E-08  0.10566000000E+00  0.10566000000E+00 0. -1.
     999900   -1    0    0    0    0 -0.00000000000E+00 -0.00000000000E+00 -0.74505805969E-08  0.93827000000E+00  0.93827000000E+00 0. -1.
     999902    2    1    2    0    0 -0.77812776249E-02 -0.22120183963E-01  0.56144885304E-02  0.10198183161E+01  0.10195332386E+01 0.  0.
     999903    2    3    3    0    0 -0.45077845200E-01 -0.10415611178E+00  0.66835085556E-01  0.13310027244E+00  0.19189739806E-01 0.  0.
         14    1    1    2    0    0  0.77812776249E-02  0.22120183963E-01 -0.56144885304E-02  0.24111683921E-01  0.00000000000E+00 0.  1.
     999901    1    3    3    0    0  0.37296567575E-01  0.82035927820E-01 -0.61220597025E-01  0.88671804363E+00  0.88000000000E+00 0. -1.
        -11    1    4    4    0    0 -0.42545090528E-01 -0.99979387853E-01  0.58443009317E-01  0.12337669627E+00  0.51100000000E-03 0. -1.
         11    1    4    4    0    0 -0.25327546720E-02 -0.41767239306E-02  0.83920762389E-02  0.97235761744E-02  0.51100000000E-03 0.  1.
</event>
<event>
 8    1  0.1074844E+005  0.1043930E+01  0.7957747E-01            NaN
         13   -1    0    0    0    0  0.00000000000E+00  0.00000000000E+00  0.74505805969E-08  0.10566000000E+00  0.10566000000E+00 0. -1.
     999900   -1    0    0    0    0 -0.00000000000E+00 -0.00000000000E+00 -0.74505805969E-08  0.93827000000E+00  0.93827000000E+00 0.  1.
     999902    2    1    2    0    0 -0.13982533074E-01  0.14128452408E-01 -0.33475079131E-02  0.10237723660E+01  0.10235738992E+01 0.  0.
     999903    2    3    3    0    0 -0.80952176534E-01 -0.63039559671E-01 -0.84270975370E-01  0.13417220706E+00  0.19322082905E-01 0.  0.
         14    1    1    2    0    0  0.13982533074E-01 -0.14128452408E-01  0.33475079131E-02  0.20157633984E-01  0.00000000000E+00 0. -1.
     999901    1    3    3    0    0  0.66969643460E-01  0.77168012078E-01  0.80923467457E-01  0.88960015896E+00  0.88000000000E+00 0. -1.
        -11    1    4    4    0    0 -0.45357904705E-01 -0.40675938304E-01 -0.38737108419E-01  0.72199003911E-01  0.51100000000E-03 0.  1.
         11    1    4    4    0    0 -0.35594271829E-01 -0.22363621367E-01 -0.45533866952E-01  0.61973203147E-01  0.51100000000E-03 0. -1.
</event>
<event>
 8    1  0.1074844E+005  0.1043930E+01  0.7957747E-01            NaN
         13   -1    0    0    0    0  0.00000000000E+00  0.00000000000E+00  0.74505805969E-08  0.10566000000E+00  0.10566000000E+00 0. -1.
     999900   -1    0    0    0    0 -0.00000000000E+00 -0.00000000000E+00 -0.74505805969E-08  0.93827000000E+00  0.93827000000E+00 0.  1.
     999902    2    1    2    0    0 -0.21544435414E-01 -0.12331268486E-01  0.16944384598E-02  0.10190484003E+01  0.10187445942E+01 0.  0.
     999903    2    3    3    0    0 -0.11653656749E+00  0.38695741841E-01 -0.42571330600E-01  0.13136224001E+00  0.19120353365E-01 0.  0.
         14    1    1    2    0    0  0.21544435414E-01  0.12331268486E-01 -0.16944384598E-02  0.24881599657E-01  0.00000000000E+00 0. -1.
     999901    1    3    3    0    0  0.94992132073E-01 -0.51027010328E-01  0.44265769060E-01  0.88768616033E+00  0.88000000000E+00 0. -1.
        -11    1    4    4    0    0 -0.89868464932E-01  0.21378354200E-01 -0.29429218851E-01  0.96952127675E-01  0.51100000000E-03 0.  1.
         11    1    4    4    0    0 -0.26668102555E-01  0.17317387641E-01 -0.13142111749E-01  0.34410112334E-01  0.51100000000E-03 0. -1.
</event>
<event>
 8    1  0.1074844E+005  0.1043930E+01  0.7957747E-01            NaN
         13   -1    0    0    0    0  0.00000000000E+00  0.00000000000E+00  0.74505805969E-08  0.10566000000E+00  0.10566000000E+00 0. -1.
     999900   -1    0    0    0    0 -0.00000000000E+00 -0.00000000000E+00 -0.74505805969E-08  0.93827000000E+00  0.93827000000E+00 0. -1.
     999902    2    1    2    0    0  0.21902263888E-01 -0.26587550251E-04  0.95249572239E-02  0.10200462256E+01  0.10197665751E+01 0.  0.
     999903    2    3    3    0    0 -0.39309628498E-01  0.14360004381E-01  0.12212665198E+00  0.13064585935E+00  0.20049060407E-01 0.  0.
         14    1    1    2    0    0 -0.21902263888E-01  0.26587550251E-04 -0.95249572239E-02  0.23883774418E-01  0.00000000000E+00 0. -1.
     999901    1    3    3    0    0  0.61211892386E-01 -0.14386591931E-01 -0.11260169475E+00  0.88940036623E+00  0.88000000000E+00 0. -1.
        -11    1    4    4    0    0 -0.13798607793E-01  0.14850462414E-01  0.64710180028E-01  0.67813024790E-01  0.51100000000E-03 0.  1.
         11    1    4    4    0    0 -0.25511020705E-01 -0.49045803284E-03  0.57416471949E-01  0.62832834558E-01  0.51100000000E-03 0. -1.
</event>
<event>
 8    1  0.1074844E+005  0.1043930E+01  0.7957747E-01            NaN
         13   -1    0    0    0    0  0.00000000000E+00  0.00000000000E+00  0.74505805969E-08  0.10566000000E+00  0.10566000000E+00 0.  1.
     999900   -1    0    0    0    0 -0.00000000000E+00 -0.00000000000E+00 -0.74505805969E-08  0.93827000000E+00  0.93827000000E+00 0.  1.
     999902    2    1    2    0    0  0.17190755245E-01 -0.24665128469E-02  0.16665590626E-01  0.10198603581E+01  0.10195762857E+01 0.  0.
     999903    2    3    3    0    0  0.53889171951E-01  0.11704518424E+00  0.13413685600E-01  0.13101819300E+00  0.19550496866E-01 0.  0.
         14    1    1    2    0    0 -0.17190755245E-01  0.24665128469E-02 -0.16665590626E-01  0.24069641926E-01  0.00000000000E+00 0. -1.
     999901    1    3    3    0    0 -0.36698416706E-01 -0.11951169709E+00  0.32519050265E-02  0.88884216508E+00  0.88000000000E+00 0. -1.
        -11    1    4    4    0    0  0.45901721889E-01  0.78607064992E-01  0.79173861623E-02  0.91372779665E-01  0.51100000000E-03 0. -1.
         11    1    4    4    0    0  0.79874500613E-02  0.38438119249E-01  0.54962994375E-02  0.39645413334E-01  0.51100000000E-03 0.  1.
</event>
<event>
 8    1  0.1074844E+005  0.1043930E+01  0.7957747E-01            NaN
         13   -1    0    0    0    0  0.00000000000E+00  0.00000000000E+00  0.74505805969E-08  0.10566000000E+00  0.10566000000E+00 0.  1.
     999900   -1    0    0    0    0 -0.00000000000E+00 -0.00000000000E+00 -0.74505805969E-08  0.93827000000E+00  0.93827000000E+00 0. -1.
     999902    2    1    2    0    0  0.72393698998E-02  0.31393073493E-02 -0.24892066744E-01  0.10178171925E+01  0.10174821663E+01 0.  0.
     999903    2    3    3    0    0  0.35663171399E-01 -0.10923425938E+00 -0.56472106928E-01  0.12965446536E+00  0.20425384004E-01 0.  0.
         14    1    1    2    0    0 -0.72393698998E-02 -0.31393073493E-02  0.24892066744E-01  0.26112807470E-01  0.00000000000E+00 0.  1.
     999901    1    3    3    0    0 -0.28423801499E-01  0.11237356673E+00  0.31580040185E-01  0.88816272717E+00  0.88000000000E+00 0. -1.
        -11    1    4    4    0    0  0.84128378066E-02 -0.54287800043E-01 -0.32289742957E-01  0.63724639620E-01  0.51100000000E-03 0. -1.
         11    1    4    4    0    0  0.27250333592E-01 -0.54946459334E-01 -0.24182363971E-01  0.65929825743E-01  0.51100000000E-03 0.  1.
</event>
<event>
 8    1  0.1074844E+005  0.1043930E+01  0.7957747E-01            NaN
         13   -1    0    0    0    0  0.00000000000E+00  0.00000000000E+00  0.74505805969E-08  0.10566000000E+00  0.10566000000E+00 0.  1.
     999900   -1    0    0    0    0 -0.00000000000E+00 -0.00000000000E+00 -0.74505805969E-08  0.93827000000E+00  0.93827000000E+00 0.  1.
     999902    2    1    2    0    0 -0.20073512457E-01  0.64801431961E-02 -0.12657655206E-01  0.10193301140E+01  0.10190332315E+01 0.  0.
     999903    2    3    3    0    0  0.12254368671E+00 -0.22170864820E-01  0.13988328885E-01  0.12699018196E+00  0.20550682997E-01 0.  0.
         14    1    1    2    0    0  0.20073512457E-01 -0.64801431961E-02  0.12657655206E-01  0.24599886047E-01  0.00000000000E+00 0.  1.
     999901    1    3    3    0    0 -0.14261719916E+00  0.28651008016E-01 -0.26645984091E-01  0.89233993199E+00  0.88000000000E+00 0.  1.
        -11    1    4    4    0    0  0.39147265131E-01 -0.10740774427E-01  0.13590492676E-01  0.42811624761E-01  0.51100000000E-03 0. -1.
         11    1    4    4    0    0  0.83396421575E-01 -0.11430090392E-01  0.39783620904E-03  0.84178557201E-01  0.51100000000E-03 0.  1.
</event>
<event>
 8    1  0.1074844E+005  0.1043930E+01  0.7957747E-01            NaN
         13   -1    0    0    0    0  0.00000000000E+00  0.00000000000E+00  0.74505805969E-08  0.10566000000E+00  0.10566000000E+00 0.  1.
     999900   -1    0    0    0    0 -0.00000000000E+00 -0.00000000000E+00 -0.74505805969E-08  0.93827000000E+00  0.93827000000E+00 0.  1.
     999902    2    1    2    0    0  0.34072262510E-02 -0.23331157219E-01  0.37438615338E-02  0.10200559851E+01  0.10197765658E+01 0.  0.
     999903    2    3    3    0    0  0.99568101913E-01  0.25157278539E-01 -0.76776404876E-01  0.12984165377E+00  0.20433872045E-01 0.  0.
         14    1    1    2    0    0 -0.34072262510E-02  0.23331157219E-01 -0.37438615338E-02  0.23874014893E-01  0.00000000000E+00 0.  1.
     999901    1    3    3    0    0 -0.96160875662E-01 -0.48488435759E-01  0.80520266410E-01  0.89021433133E+00  0.88000000000E+00 0. -1.
        -11    1    4    4    0    0  0.63843286328E-01  0.59111160725E-02 -0.47862957406E-01  0.80012688463E-01  0.51100000000E-03 0.  1.
         11    1    4    4    0    0  0.35724815585E-01  0.19246162467E-01 -0.28913447470E-01  0.49828965310E-01  0.51100000000E-03 0. -1.
</event>
<event>
 8    1  0.1074844E+005  0.1043930E+01  0.7957747E-01            NaN
         13   -1    0    0    0    0  0.00000000000E+00  0.00000000000E+00  0.74505805969E-08  0.10566000000E+00  0.10566000000E+00 0. -1.
     999900   -1    0    0    0    0 -0.00000000000E+00 -0.00000000000E+00 -0.74505805969E-08  0.93827000000E+00  0.93827000000E+00 0.  1.
     999902    2    1    2    0    0  0.20521157760E-01  0.88953362132E-02 -0.86916656366E-02  0.10199343759E+01  0.10196520687E+01 0.  0.
     999903    2    3    3    0    0 -0.39525850792E-01 -0.46971982369E-02 -0.12261133042E+00  0.13045807483E+00  0.20035328486E-01 0.  0.
         14    1    1    2    0    0 -0.20521157760E-01 -0.88953362132E-02  0.86916656366E-02  0.23995624053E-01  0.00000000000E+00 0. -1.
     999901    1    3    3    0    0  0.60047008553E-01  0.13592534450E-01  0.11391966479E+00  0.88947630112E+00  0.88000000000E+00 0. -1.
        -11    1    4    4    0    0 -0.33221162777E-01 -0.10889605418E-01 -0.86996989507E-01  0.93760153940E-01  0.51100000000E-03 0. -1.
         11    1    4    4    0    0 -0.63046880153E-02  0.61924071810E-02 -0.35614340915E-01  0.36697920887E-01  0.51100000000E-03 0.  1.
</event>
<event>
 8    1  0.1074844E+005  0.1043930E+01  0.7957747E-01            NaN
         13   -1    0    0    0    0  0.00000000000E+00  0.00000000000E+00  0.74505805969E-08  0.10566000000E+00  0.10566000000E+00 0.  1.
     999900   -1    0    0    0    0 -0.00000000000E+00 -0.00000000000E+00 -0.74505805969E-08  0.93827000000E+00  0.93827000000E+00 0.  1.
     999902    2    1    2    0    0  0.13930168374E-01  0.12579569731E-02  0.19865258886E-01  0.10196347215E+01  0.10193452333E+01 0.  0.
     999903    2    3    3    0    0 -0.35952824238E-01 -0.11835535851E+00 -0.30929030680E-01  0.12869380424E+00  0.17461209973E-01 0.  0.
         14    1    1    2    0    0 -0.13930168374E-01 -0.12579569731E-02 -0.19865258886E-01  0.24295278498E-01  0.00000000000E+00 0. -1.
     999901    1    3    3    0    0  0.49882992612E-01  0.11961331548E+00  0.50794289566E-01  0.89094091726E+00  0.88000000000E+00 0.  1.
        -11    1    4    4    0    0 -0.28694012625E-01 -0.10630791861E+00 -0.22829676727E-01  0.11245521411E+00  0.51100000000E-03 0.  1.
         11    1    4    4    0    0 -0.72588116124E-02 -0.12047439897E-01 -0.80993539535E-02  0.16238590135E-01  0.51100000000E-03 0. -1.
</event>
<event>
 8    1  0.1074844E+005  0.1043930E+01  0.7957747E-01            NaN
         13   -1    0    0    0    0  0.00000000000E+00  0.00000000000E+00  0.74505805969E-08  0.10566000000E+00  0.10566000000E+00 0.  1.
     999900   -1    0    0    0    0 -0.00000000000E+00 -0.00000000000E+00 -0.74505805969E-08  0.93827000000E+00  0.93827000000E+00 0. -1.
     999902    2    1    2    0    0 -0.20943800419E-01  0.94067772140E-02 -0.93552188022E-02  0.10191378570E+01  0.10188362583E+01 0.  0.
     999903    2    3    3    0    0 -0.46282721200E-01  0.33388742056E-01  0.11483106482E+00  0.12973388326E+00  0.19692857607E-01 0.  0.
         14    1    1    2    0    0  0.20943800419E-01 -0.94067772140E-02  0.93552188022E-02  0.24792142956E-01  0.00000000000E+00 0.  1.
     999901    1    3    3    0    0  0.25338920782E-01 -0.23981964842E-01 -0.12418628362E+00  0.88940397378E+00  0.88000000000E+00 0. -1.
        -11    1    4    4    0    0 -0.42615672455E-01  0.22393845021E-01  0.84392664134E-01  0.97159470533E-01  0.51100000000E-03 0.  1.
         11    1    4    4    0    0 -0.36670487451E-02  0.10994897035E-01  0.30438400684E-01  0.32574412727E-01  0.51100000000E-03 0. -1.
</event>
<event>
 8    1  0.1074844E+005  0.1043930E+01  0.7957747E-01            NaN
         13   -1    0    0    0    0  0.00000000000E+00  0.00000000000E+00  0.74505805969E-08  0.10566000000E+00  0.10566000000E+00 0.  1.
     999900   -1    0    0    0    0 -0.00000000000E+00 -0.00000000000E+00 -0.74505805969E-08  0.93827000000E+00  0.93827000000E+00 0.  1.
     999902    2    1    2    0    0  0.13663172814E-01 -0.13777146807E-01 -0.62165749609E-02  0.10235550676E+01  0.10233522554E+01 0.  0.
     999903    2    3    3    0    0  0.14134672207E-01 -0.64380783148E-01 -0.11636857680E+00  0.13524520398E+00  0.20123253625E-01 0.  0.
         14    1    1    2    0    0 -0.13663172814E-01  0.13777146807E-01  0.62165749609E-02  0.20374932386E-01  0.00000000000E+00 0. -1.
     999901    1    3    3    0    0 -0.47149939275E-03  0.50603636341E-01  0.11015200184E+00  0.88830986363E+00  0.88000000000E+00 0. -1.
        -11    1    4    4    0    0  0.75763172321E-02 -0.36386235966E-01 -0.84534742608E-01  0.92345777269E-01  0.51100000000E-03 0. -1.
         11    1    4    4    0    0  0.65583549745E-02 -0.27994547182E-01 -0.31833834189E-01  0.42899426710E-01  0.51100000000E-03 0.  1.
</event>
<event>
 8    1  0.1074844E+005  0.1043930E+01  0.7957747E-01            NaN
         13   -1    0    0    0    0  0.00000000000E+00  0.00000000000E+00  0.74505805969E-08  0.10566000000E+00  0.10566000000E+00 0. -1.
     999900   -1    0    0    0    0 -0.00000000000E+00 -0.00000000000E+00 -0.74505805969E-08  0.93827000000E+00  0.93827000000E+00 0.  1.
     999902    2    1    2    0    0  0.54675431105E-02  0.22718579651E-01  0.25153099429E-02  0.10204277730E+01  0.10201570885E+01 0.  0.
     999903    2    3    3    0    0  0.94778180960E-01 -0.62810831341E-01  0.58593129882E-01  0.13001416572E+00  0.23290004244E-01 0.  0.
         14    1    1    2    0    0 -0.54675431105E-02 -0.22718579651E-01 -0.25153099429E-02  0.23502226983E-01  0.00000000000E+00 0.  1.
     999901    1    3    3    0    0 -0.89310637850E-01  0.85529410992E-01 -0.56077819939E-01  0.89041360730E+00  0.88000000000E+00 0.  1.
        -11    1    4    4    0    0  0.48984174129E-01 -0.34503768945E-01  0.43674622776E-01  0.74146430677E-01  0.51100000000E-03 0. -1.
         11    1    4    4    0    0  0.45794006832E-01 -0.28307062395E-01  0.14918507106E-01  0.55867735039E-01  0.51100000000E-03 0.  1.
</event>
<event>
 7    1  0.1074844E+005  0.1043930E+01  0.7957747E-01            NaN
         13   -1    0    0    0    0  0.00000000000E+00  0.00000000000E+00  0.74505805969E-08  0.10566000000E+00  0.10566000000E+00 0. -1.
     999900   -1    0    0    0    0 -0.00000000000E+00 -0.00000000000E+00 -0.74505805969E-08  0.93827000000E+00  0.93827000000E+00 0. -1.
     999903    2    1    2    0    0 -0.41401318945E-01  0.73792446589E-01 -0.69219536281E-01  0.11073018805E+00  0.17619192904E-01 0.  0.
         14    1    1    2    0    0  0.24189147539E-01 -0.27533228742E-01 -0.28485337318E-01  0.46417755070E-01  0.00000000000E+00 0.  1.
     999901    1    1    2    0    0  0.17212171406E-01 -0.46259217847E-01  0.97704873599E-01  0.88678205688E+00  0.88000000000E+00 0. -1.
        -11    1    3    3    0    0 -0.11343423139E-01  0.36759564171E-01 -0.35160636830E-01  0.52119768897E-01  0.51100000000E-03 0. -1.
         11    1    3    3    0    0 -0.30057895806E-01  0.37032882418E-01 -0.34058899451E-01  0.58610419153E-01  0.51100000000E-03 0.  1.
</event>
<event>
 8    1  0.1074844E+005  0.1043930E+01  0.7957747E-01            NaN
         13   -1    0    0    0    0  0.00000000000E+00  0.00000000000E+00  0.74505805969E-08  0.10566000000E+00  0.10566000000E+00 0.  1.
     999900   -1    0    0    0    0 -0.00000000000E+00 -0.00000000000E+00 -0.74505805969E-08  0.93827000000E+00  0.93827000000E+00 0. -1.
     999902    2    1    2    0    0 -0.21137537698E-01  0.64587002037E-02  0.10129279360E-01  0.10196171925E+01  0.10193272814E+01 0.  0.
     999903    2    3    3    0    0 -0.64958755657E-01  0.11311647079E+00  0.22861868138E-02  0.13206004320E+00  0.20485420665E-01 0.  0.
         14    1    1    2    0    0  0.21137537698E-01 -0.64587002037E-02 -0.10129279360E-01  0.24312807502E-01  0.00000000000E+00 0.  1.
     999901    1    3    3    0    0  0.43821217959E-01 -0.10665777058E+00  0.78430925465E-02  0.88755714930E+00  0.88000000000E+00 0. -1.
        -11    1    4    4    0    0 -0.25801072530E-01  0.60014603818E-01  0.80819322548E-02  0.65825730266E-01  0.51100000000E-03 0. -1.
         11    1    4    4    0    0 -0.39157683127E-01  0.53101866970E-01 -0.57957454409E-02  0.66234312933E-01  0.51100000000E-03 0.  1.
</event>
<event>
 8    1  0.1074844E+005  0.1043930E+01  0.7957747E-01            NaN
         13   -1    0    0    0    0  0.00000000000E+00  0.00000000000E+00  0.74505805969E-08  0.10566000000E+00  0.10566000000E+00 0.  1.
     999900   -1    0    0    0    0 -0.00000000000E+00 -0.00000000000E+00 -0.74505805969E-08  0.93827000000E+00  0.93827000000E+00 0. -1.
     999902    2    1    2    0    0  0.24025587608E-01 -0.54789561215E-02  0.78749821726E-02  0.10180598789E+01  0.10177311305E+01 0.  0.
     999903    2    3    3    0    0 -0.18226041842E-02 -0.64416385847E-01 -0.10901734331E+00  0.12800057450E+00  0.18616478667E-01 0.  0.
         14    1    1    2    0    0 -0.24025587608E-01  0.54789561215E-02 -0.78749821726E-02  0.25870121072E-01  0.00000000000E+00 0.  1.
     999901    1    3    3    0    0  0.25848191792E-01  0.58937429726E-01  0.11689232548E+00  0.89005930443E+00  0.88000000000E+00 0.  1.
        -11    1    4    4    0    0 -0.23619991874E-02 -0.16688241119E-01 -0.45660016178E-01  0.48674167997E-01  0.51100000000E-03 0.  1.
         11    1    4    4    0    0  0.53939500328E-03 -0.47728144729E-01 -0.63357327133E-01  0.79326406503E-01  0.51100000000E-03 0. -1.
</event>
<event>
 8    1  0.1074844E+005  0.1043930E+01  0.7957747E-01            NaN
         13   -1    0    0    0    0  0.00000000000E+00  0.00000000000E+00  0.74505805969E-08  0.10566000000E+00  0.10566000000E+00 0. -1.
     999900   -1    0    0    0    0 -0.00000000000E+00 -0.00000000000E+00 -0.74505805969E-08  0.93827000000E+00  0.93827000000E+00 0.  1.
     999902    2    1    2    0    0  0.13519418335E-01  0.16268139599E-01 -0.10215872845E-01  0.10204397659E+01  0.10201693609E+01 0.  0.
     999903    2    3    3    0    0 -0.10320820234E+00 -0.71674571387E-01 -0.16660526281E-01  0.12836309244E+00  0.20256681663E-01 0.  0.
         14    1    1    2    0    0 -0.13519418335E-01 -0.16268139599E-01  0.10215872845E-01  0.23490234059E-01  0.00000000000E+00 0. -1.
     999901    1    3    3    0    0  0.11672762067E+00  0.87942710987E-01  0.64446534360E-02  0.89207667350E+00  0.88000000000E+00 0.  1.
        -11    1    4    4    0    0 -0.56056999317E-01 -0.35029569755E-01  0.91967466873E-03  0.66110247709E-01  0.51100000000E-03 0.  1.
         11    1    4    4    0    0 -0.47151203020E-01 -0.36645001633E-01 -0.17580200949E-01  0.62252844733E-01  0.51100000000E-03 0. -1.
</event>
<event>
 8    1  0.1074844E+005  0.1043930E+01  0.7957747E-01            NaN
         13   -1    0    0    0    0  0.00000000000E+00  0.00000000000E+00  0.74505805969E-08  0.10566000000E+00  0.10566000000E+00 0. -1.
     999900   -1    0    0    0    0 -0.00000000000E+00 -0.00000000000E+00 -0.74505805969E-08  0.93827000000E+00  0.93827000000E+00 0.  1.
     999902    2    1    2    0    0 -0.17935911537E-01 -0.13714667132E-01  0.63771180425E-02  0.10204681874E+01  0.10201984438E+01 0.  0.
     999903    2    3    3    0    0  0.93151464112E-01 -0.70964944155E-01 -0.52149978219E-01  0.12971377664E+00  0.19819814731E-01 0.  0.
         14    1    1    2    0    0  0.17935911537E-01  0.13714667132E-01 -0.63771180425E-02  0.23461812627E-01  0.00000000000E+00 0. -1.
     999901    1    3    3    0    0 -0.11108737565E+00  0.57250277023E-01  0.58527096262E-01  0.89075441074E+00  0.88000000000E+00 0. -1.
        -11    1    4    4    0    0  0.69952415798E-01 -0.54610841822E-01 -0.29911087487E-01  0.93651581920E-01  0.51100000000E-03 0.  1.
         11    1    4    4    0    0  0.23199048315E-01 -0.16354102334E-01 -0.22238890732E-01  0.36062194718E-01  0.51100000000E-03 0. -1.
</event>
<event>
 8    1  0.1074844E+005  0.1043930E+01  0.7957747E-01            NaN
         13   -1    0    0    0    0  0.00000000000E+00  0.00000000000E+00  0.74505805969E-08  0.10566000000E+00  0.10566000000E+00 0.  1.
     999900   -1    0    0    0    0 -0.00000000000E+00 -0.00000000000E+00 -0.74505805969E-08  0.93827000000E+00  0.93827000000E+00 0. -1.
     999902    2    1    2    0    0  0.14046285166E-01 -0.19063662062E-01 -0.30046810497E-02  0.10200605751E+01  0.10197812645E+01 0.  0.
     999903    2    3    3    0    0  0.10915178308E+00 -0.65590289600E-01 -0.33553342462E-01  0.13318797795E+00  0.19925181127E-01 0.  0.
         14    1    1    2    0    0 -0.14046285166E-01  0.19063662062E-01  0.30046810497E-02  0.23869424928E-01  0.00000000000E+00 0.  1.
     999901    1    3    3    0    0 -0.95105497910E-01  0.46526627537E-01  0.30548661412E-01  0.88687259712E+00  0.88000000000E+00 0. -1.
        -11    1    4    4    0    0  0.38144016712E-01 -0.27962863810E-01 -0.21388221300E-01  0.51909583843E-01  0.51100000000E-03 0. -1.
         11    1    4    4    0    0  0.71007766363E-01 -0.37627425790E-01 -0.12165121162E-01  0.81278394112E-01  0.51100000000E-03 0.  1.
</event>
<event>
 8    1  0.1074844E+005  0.1043930E+01  0.7957747E-01            NaN
         13   -1    0    0    0    0  0.00000000000E+00  0.00000000000E+00  0.74505805969E-08  0.10566000000E+00  0.10566000000E+00 0.  1.
     999900   -1    0    0    0    0 -0.00000000000E+00 -0.00000000000E+00 -0.74505805969E-08  0.93827000000E+00  0.93827000000E+00 0. -1.
     999902    2    1    2    0    0  0.19129382026E-01  0.65031829890E-02  0.89752425638E-02  0.10218216390E+01  0.10215824403E+01 0.  0.
     999903    2    3    3    0    0 -0.35451403769E-01 -0.55834922779E-01 -0.11010366766E+00  0.12994446785E+00  0.19708030398E-01 0.  0.
         14    1    1    2    0    0 -0.19129382026E-01 -0.65031829890E-02 -0.89752425638E-02  0.22108360969E-01  0.00000000000E+00 0. -1.
     999901    1    3    3    0    0  0.54580785794E-01  0.62338105768E-01  0.11907891022E+00  0.89187717118E+00  0.88000000000E+00 0.  1.
        -11    1    4    4    0    0 -0.32349885322E-01 -0.52969593535E-01 -0.89564366941E-01  0.10896939876E+00  0.51100000000E-03 0.  1.
         11    1    4    4    0    0 -0.31015184464E-02 -0.28653292435E-02 -0.20539300720E-01  0.20975069092E-01  0.51100000000E-03 0. -1.
</event>
<event>
 8    1  0.1074844E+005  0.1043930E+01  0.7957747E-01            NaN
         13   -1    0    0    0    0  0.00000000000E+00  0.00000000000E+00  0.74505805969E-08  0.10566000000E+00  0.10566000000E+00 0.  1.
     999900   -1    0    0    0    0 -0.00000000000E+00 -0.00000000000E+00 -0.74505805969E-08  0.93827000000E+00  0.93827000000E+00 0.  1.
     999902    2    1    2    0    0 -0.76663779388E-02 -0.12373431152E-01  0.18781517651E-01  0.10201682544E+01  0.10198914877E+01 0.  0.
     999903    2    3    3    0    0 -0.12441926049E+00  0.17933696215E-02 -0.34813610742E-01  0.13072777205E+00  0.19859363986E-01 0.  0.
         14    1    1    2    0    0  0.76663779388E-02  0.12373431152E-01 -0.18781517651E-01  0.23761745611E-01  0.00000000000E+00 0. -1.
     999901    1    3    3    0    0  0.11675288255E+00 -0.14166800774E-01  0.53595128394E-01  0.88944048233E+00  0.88000000000E+00 0. -1.
        -11    1    4    4    0    0 -0.44061948988E-01  0.98502176889E-02 -0.14896295456E-01  0.47546218319E-01  0.51100000000E-03 0.  1.
         11    1    4    4    0    0 -0.80357311502E-01 -0.80568480673E-02 -0.19917315286E-01  0.83181553736E-01  0.51100000000E-03 0. -1.
</event>
<event>
 8    1  0.1074844E+005  0.1043930E+01  0.7957747E-01            NaN
         13   -1    0    0    0    0  0.00000000000E+00  0.00000000000E+00  0.74505805969E-08  0.10566000000E+00  0.10566000000E+00 0. -1.
     999900   -1    0    0    0    0 -0.00000000000E+00 -0.00000000000E+00 -0.74505805969E-08  0.93827000000E+00  0.93827000000E+00 0.  1.
     999902    2    1    2    0    0 -0.12775264768E-01 -0.22784245108E-02 -0.20720753164E-01  0.10194811100E+01  0.10191879049E+01 0.  0.
     999903    2    3    3    0    0 -0.34115284090E-01 -0.31100981607E-01 -0.12292886807E+00  0.13283990022E+00  0.20094994886E-01 0.  0.
         14    1    1    2    0    0  0.12775264768E-01  0.22784245108E-02  0.20720753164E-01  0.24448889951E-01  0.00000000000E+00 0. -1.
     999901    1    3    3    0    0  0.21340019322E-01  0.28822557096E-01  0.10220811490E+00  0.88664120983E+00  0.88000000000E+00 0. -1.
        -11    1    4    4    0    0 -0.22307427475E-01 -0.26130712664E-01 -0.10705768039E+00  0.11243684234E+00  0.51100000000E-03 0.  1.
         11    1    4    4    0    0 -0.11807856616E-01 -0.49702689427E-02 -0.15871187679E-01  0.20403057873E-01  0.51100000000E-03 0. -1.
</event>
<event>
 8    1  0.1074844E+005  0.1043930E+01  0.7957747E-01            NaN
         13   -1    0    0    0    0  0.00000000000E+00  0.00000000000E+00  0.74505805969E-08  0.10566000000E+00  0.10566000000E+00 0.  1.
     999900   -1    0    0    0    0 -0.00000000000E+00 -0.00000000000E+00 -0.74505805969E-08  0.93827000000E+00  0.93827000000E+00 0.  1.
     999902    2    1    2    0    0 -0.20144432901E-01 -0.15682732452E-01  0.25601583706E-02  0.10182726290E+01  0.10179493339E+01 0.  0.
     999903    2    3    3    0    0 -0.19801232089E-01 -0.68559565223E-01 -0.10692478127E+00  0.12991288814E+00  0.18760247338E-01 0.  0.
         14    1    1    2    0    0  0.20144432901E-01  0.15682732452E-01 -0.25601583706E-02  0.25657370967E-01  0.00000000000E+00 0. -1.
     999901    1    3    3    0    0 -0.34320081213E-03  0.52876832771E-01  0.10948493964E+00  0.88835974089E+00  0.88000000000E+00 0. -1.
        -11    1    4    4    0    0 -0.15021897994E-01 -0.60770764197E-01 -0.10155994957E+00  0.11930392985E+00  0.51100000000E-03 0.  1.
         11    1    4    4    0    0 -0.47793340950E-02 -0.77888010258E-02 -0.53648316945E-02  0.10608958286E-01  0.51100000000E-03 0. -1.
</event>
<event>
 7    1  0.1074844E+005  0.1043930E+01  0.7957747E-01            NaN
         13   -1    0    0    0    0  0.00000000000E+00  0.00000000000E+00  0.74505805969E-08  0.10566000000E+00  0.10566000000E+00 0. -1.
     999900   -1    0    0    0    0 -0.00000000000E+00 -0.00000000000E+00 -0.74505805969E-08  0.93827000000E+00  0.93827000000E+00 0.  1.
     999902    2    1    2    0    0  0.11605982508E-01  0.16960570929E-01  0.13890312668E-01  0.10191247469E+01  0.10188228252E+01 0.  0.
         14    1    1    2    0    0 -0.11605982508E-01 -0.16960570929E-01 -0.13890312668E-01  0.24805253118E-01  0.00000000000E+00 0. -1.
     999901    1    3    3    0    0  0.75655696904E-01  0.31672655864E-01 -0.98130300302E-01  0.88924490296E+00  0.88000000000E+00 0.  1.
        -11    1    3    3    0    0 -0.19441560827E-01 -0.45612074675E-02  0.34285352685E-01  0.39680290204E-01  0.51100000000E-03 0.  1.
         11    1    3    3    0    0 -0.44608153569E-01 -0.10150877467E-01  0.77735260286E-01  0.90199553718E-01  0.51100000000E-03 0. -1.
</event>
<event>
 8    1  0.1074844E+005  0.1043930E+01  0.7957747E-01            NaN
         13   -1    0    0    0    0  0.00000000000E+00  0.00000000000E+00  0.74505805969E-08  0.10566000000E+00  0.10566000000E+00 0.  1.
     999900   -1    0    0    0    0 -0.00000000000E+00 -0.00000000000E+00 -0.74505805969E-08  0.93827000000E+00  0.93827000000E+00 0. -1.
     999902    2    1    2    0    0 -0.13694018887E-01 -0.25432312103E-02  0.17836967980E-01  0.10212992332E+01  0.10210484671E+01 0.  0.
     999903    2    3    3    0    0  0.12063067026E-01 -0.17520250935E-01  0.13043797587E+00  0.13362433464E+00  0.19721066869E-01 0.  0.
         14    1    1    2    0    0  0.13694018887E-01  0.25432312103E-02 -0.17836967980E-01  0.22630766779E-01  0.00000000000E+00 0. -1.
     999901    1    3    3    0    0 -0.25757085913E-01  0.14977019725E-01 -0.11260100789E+00  0.88767489858E+00  0.88000000000E+00 0. -1.
        -11    1    4    4    0    0  0.49334540972E-02 -0.63638963686E-03  0.76345198145E-01  0.76508786175E-01  0.51100000000E-03 0.  1.
         11    1    4    4    0    0  0.71296129285E-02 -0.16883861298E-01  0.54092777730E-01  0.57115548464E-01  0.51100000000E-03 0. -1.
</event>
<event>
 8    1  0.1074844E+005  0.1043930E+01  0.7957747E-01            NaN
         13   -1    0    0    0    0  0.00000000000E+00  0.00000000000E+00  0.74505805969E-08  0.10566000000E+00  0.10566000000E+00 0.  1.
     999900   -1    0    0    0    0 -0.00000000000E+00 -0.00000000000E+00 -0.74505805969E-08  0.93827000000E+00  0.93827000000E+00 0.  1.
     999902    2    1    2    0    0 -0.17178052094E-01  0.13972554953E-01 -0.14855033890E-01  0.10172656081E+01  0.10169160868E+01 0.  0.
     999903    2    3    3    0    0  0.10180087532E+00  0.63141325424E-01 -0.39319584688E-01  0.12756224884E+00  0.19386913038E-01 0.  0.
         14    1    1    2    0    0  0.17178052094E-01 -0.13972554953E-01  0.14855033890E-01  0.26664391940E-01  0.00000000000E+00 0.  1.
     999901    1    3    3    0    0 -0.11897892741E+00 -0.49168770471E-01  0.24464550798E-01  0.88970335922E+00  0.88000000000E+00 0.  1.
        -11    1    4    4    0    0  0.29655399748E-01  0.20648805778E-01 -0.21181085533E-01  0.41889323456E-01  0.51100000000E-03 0. -1.
         11    1    4    4    0    0  0.72145475573E-01  0.42492519647E-01 -0.18138499155E-01  0.85672925386E-01  0.51100000000E-03 0.  1.
</event>
<event>
 8    1  0.1074844E+005  0.1043930E+01  0.7957747E-01            NaN
         13   -1    0    0    0    0  0.00000000000E+00  0.00000000000E+00  0.74505805969E-08  0.10566000000E+00  0.10566000000E+00 0.  1.
     999900   -1    0    0    0    0 -0.00000000000E+00 -0.00000000000E+00 -0.74505805969E-08  0.93827000000E+00  0.93827000000E+00 0. -1.
     999902    2    1    2    0    0 -0.77824151754E-02  0.11241460171E-02 -0.22342214438E-01  0.10202444720E+01  0.10199694988E+01 0.  0.
     999903    2    3    3    0    0  0.10175415455E+00 -0.75465700339E-01  0.17594544415E-01  0.12925670027E+00  0.18674760451E-01 0.  0.
         14    1    1    2    0    0  0.77824151754E-02 -0.11241460171E-02  0.22342214438E-01  0.23685527992E-01  0.00000000000E+00 0.  1.
     999901    1    3    3    0    0 -0.10953656972E+00  0.76589846356E-01 -0.39936758853E-01  0.89098777173E+00  0.88000000000E+00 0. -1.
        -11    1    4    4    0    0  0.65374613993E-01 -0.58839633360E-01  0.97699688858E-02  0.88496644127E-01  0.51100000000E-03 0. -1.
         11    1    4    4    0    0  0.36379540552E-01 -0.16626066979E-01  0.78245755292E-02  0.40760056148E-01  0.51100000000E-03 0.  1.
</event>
<event>
 8    1  0.1074844E+005  0.1043930E+01  0.7957747E-01            NaN
         13   -1    0    0    0    0  0.00000000000E+00  0.00000000000E+00  0.74505805969E-08  0.10566000000E+00  0.10566000000E+00 0. -1.
     999900   -1    0    0    0    0 -0.00000000000E+00 -0.00000000000E+00 -0.74505805969E-08  0.93827000000E+00  0.93827000000E+00 0.  1.
     999902    2    1    2    0    0 -0.25754447756E-02  0.21790146406E-01 -0.37572149200E-02  0.10216688217E+01  0.10214262681E+01 0.  0.
     999903    2    3    3    0    0  0.35620462708E-01  0.15361342019E-01  0.12421212993E+00  0.13156972040E+00  0.19420347934E-01 0.  0.
         14    1    1    2    0    0  0.25754447756E-02 -0.21790146406E-01  0.37572149200E-02  0.22261178319E-01  0.00000000000E+00 0.  1.
     999901    1    3    3    0    0 -0.38195907484E-01  0.64288043870E-02 -0.12796934485E+00  0.89009910128E+00  0.88000000000E+00 0.  1.
        -11    1    4    4    0    0  0.13343438593E-01  0.10951389988E-01  0.80236295789E-01  0.82073775221E-01  0.51100000000E-03 0. -1.
         11    1    4    4    0    0  0.22277024115E-01  0.44099520311E-02  0.43975834138E-01  0.49495945182E-01  0.51100000000E-03 0.  1.
</event>
<event>
 8    1  0.1074844E+005  0.1043930E+01  0.7957747E-01            NaN
         13   -1    0    0    0    0  0.00000000000E+00  0.00000000000E+00  0.74505805969E-08  0.10566000000E+00  0.10566000000E+00 0.  1.
     999900   -1    0    0    0    0 -0.00000000000E+00 -0.00000000000E+00 -0.74505805969E-08  0.93827000000E+00  0.93827000000E+00 0. -1.
     999902    2    1    2    0    0 -0.22845885516E-01  0.23038063460E-02 -0.64650635267E-02  0.10200754605E+01  0.10197965023E+01 0.  0.
     999903    2    3    3    0    0 -0.26942837315E-01  0.11492817425E-01 -0.12708868670E+00  0.13178987499E+00  0.18948232884E-01 0.  0.
         14    1    1    2    0    0  0.22845885516E-01 -0.23038063460E-02  0.64650635267E-02  0.23854539507E-01  0.00000000000E+00 0. -1.
     999901    1    3    3    0    0  0.40969517993E-02 -0.91890110792E-02  0.12062362317E+00  0.88828558550E+00  0.88000000000E+00 0.  1.
        -11    1    4    4    0    0 -0.24776653894E-01  0.50485131068E-02 -0.72657600089E-01  0.76933464984E-01  0.51100000000E-03 0.  1.
         11    1    4    4    0    0 -0.21661834211E-02  0.64443043183E-02 -0.54431086609E-01  0.54856410010E-01  0.51100000000E-03 0. -1.
</event>
<event>
 8    1  0.1074844E+005  0.1043930E+01  0.7957747E-01            NaN
         13   -1    0    0    0    0  0.00000000000E+00  0.00000000000E+00  0.74505805969E-08  0.10566000000E+00  0.10566000000E+00 0. -1.
     999900   -1    0    0    0    0 -0.00000000000E+00 -0.00000000000E+00 -0.74505805969E-08  0.93827000000E+00  0.93827000000E+00 0. -1.
     999902    2    1    2    0    0  0.73279000804E-02  0.18282173385E-01 -0.14807443343E-01  0.10192886453E+01  0.10189907488E+01 0.  0.
     999903    2    3    3    0    0 -0.33004548135E-03  0.49213848691E-01  0.11736318845E+00  0.12884803045E+00  0.20139143788E-01 0.  0.
         14    1    1    2    0    0 -0.73279000804E-02 -0.18282173385E-01  0.14807443343E-01  0.24641354704E-01  0.00000000000E+00 0. -1.
     999901    1    3    3    0    0  0.76579455617E-02 -0.30931675306E-01 -0.13217063180E+00  0.89044061485E+00  0.88000000000E+00 0. -1.
        -11    1    4    4    0    0 -0.30065143308E-02  0.32320149293E-01  0.96785770633E-01  0.10208514925E+00  0.51100000000E-03 0. -1.
         11    1    4    4    0    0  0.26764688495E-02  0.16893699398E-01  0.20577417821E-01  0.26762881198E-01  0.51100000000E-03 0.  1.
</event>
<event>
 8    1  0.1074844E+005  0.1043930E+01  0.7957747E-01            NaN
         13   -1    0    0    0    0  0.00000000000E+00  0.00000000000E+00  0.74505805969E-08  0.10566000000E+00  0.10566000000E+00 0.  1.
     999900   -1    0    0    0    0 -0.00000000000E+00 -0.00000000000E+00 -0.74505805969E-08  0.93827000000E+00  0.93827000000E+00 0.  1.
     999902    2    1    2    0    0  0.20922266731E-01 -0.37192178705E-02  0.12451085856E-01  0.10193006808E+01  0.10190030787E+01 0.  0.
     999903    2    3    3    0    0 -0.24568787998E-01  0.12465268184E+00 -0.12555832882E-02  0.12871848160E+00  0.20614426589E-01 0.  0.
         14    1    1    2    0    0 -0.20922266731E-01  0.37192178705E-02 -0.12451085856E-01  0.24629319229E-01  0.00000000000E+00 0. -1.
     999901    1    3    3    0    0  0.45491054729E-01 -0.12837189971E+00  0.13706669144E-01  0.89058219917E+00  0.88000000000E+00 0.  1.
        -11    1    4    4    0    0 -0.13385550583E-01  0.60495754349E-01  0.95789050987E-02  0.62697095647E-01  0.51100000000E-03 0.  1.
         11    1    4    4    0    0 -0.11183237415E-01  0.64156927489E-01 -0.10834488387E-01  0.66021385956E-01  0.51100000000E-03 0. -1.
</event>
<event>
 8    1  0.1074844E+005  0.1043930E+01  0.7957747E-01            NaN
         13   -1    0    0    0    0  0.00000000000E+00  0.00000000000E+00  0.74505805969E-08  0.10566000000E+00  0.10566000000E+00 0. -1.
     999900   -1    0    0    0    0 -0.00000000000E+00 -0.00000000000E+00 -0.74505805969E-08  0.93827000000E+00  0.93827000000E+00 0. -1.
     999902    2    1    2    0    0 -0.17581161568E-01  0.11966363945E-01  0.11944269695E-01  0.10195382660E+01  0.10192464467E+01 0.  0.
     999903    2    3    3    0    0  0.11686100876E+00 -0.30714946230E-01  0.37839462148E-01  0.12792907338E+00  0.18278939504E-01 0.  0.
         14    1    1    2    0    0  0.17581161568E-01 -0.11966363945E-01 -0.11944269695E-01  0.24391733983E-01  0.00000000000E+00 0.  1.
     999901    1    3    3    0    0 -0.13444217033E+00  0.42681310175E-01 -0.25895192453E-01  0.89160919264E+00  0.88000000000E+00 0. -1.
        -11    1    4    4    0    0  0.68045213965E-01 -0.26688273638E-01  0.19790641098E-01  0.75725462622E-01  0.51100000000E-03 0.  1.
         11    1    4    4    0    0  0.48815794798E-01 -0.40266725928E-02  0.18048821049E-01  0.52203610759E-01  0.51100000000E-03 0. -1.
</event>
<event>
 8    1  0.1074844E+005  0.1043930E+01  0.7957747E-01            NaN
         13   -1    0    0    0    0  0.00000000000E+00  0.00000000000E+00  0.74505805969E-08  0.10566000000E+00  0.10566000000E+00 0. -1.
     999900   -1    0    0    0    0 -0.00000000000E+00 -0.00000000000E+00 -0.74505805969E-08  0.93827000000E+00  0.93827000000E+00 0. -1.
     999902    2    1    2    0    0  0.23874750350E-01 -0.24492024115E-02  0.21893378181E-02  0.10198303009E+01  0.10195455101E+01 0.  0.
     999903    2    3    3    0    0 -0.78182140980E-01  0.61607260670E-01  0.79126873052E-01  0.12829330006E+00  0.17035464966E-01 0.  0.
         14    1    1    2    0    0 -0.23874750350E-01  0.24492024115E-02 -0.21893378181E-02  0.24099699102E-01  0.00000000000E+00 0.  1.
     999901    1    3    3    0    0  0.10205689133E+00 -0.64056463082E-01 -0.76937535234E-01  0.89153700084E+00  0.88000000000E+00 0. -1.
        -11    1    4    4    0    0 -0.17157013562E-01  0.21910285279E-01  0.17227659446E-01  0.32733424605E-01  0.51100000000E-03 0. -1.
         11    1    4    4    0    0 -0.61025127418E-01  0.39696975392E-01  0.61899213606E-01  0.95559875458E-01  0.51100000000E-03 0.  1.
</event>
<event>
 8    1  0.1232193E+005  0.1043930E+01  0.7957747E-01            NaN
         13   -1    0    0    0    0  0.00000000000E+00  0.00000000000E+00  0.74505805969E-08  0.10566000000E+00  0.10566000000E+00 0. -1.
     999900   -1    0    0    0    0 -0.00000000000E+00 -0.00000000000E+00 -0.74505805969E-08  0.93827000000E+00  0.93827000000E+00 0. -1.
     999902    2    1    2    0    0 -0.22774721925E-01 -0.87290930613E-02  0.62961502811E-02  0.10187401899E+01  0.10184287152E+01 0.  0.
     999903    2    3    3    0    0  0.17270877452E-01 -0.12194140220E+00  0.36645913765E-01  0.13006601726E+00  0.20155819790E-01 0.  0.
         14    1    1    2    0    0  0.22774721925E-01  0.87290930613E-02 -0.62961502811E-02  0.25189810099E-01  0.00000000000E+00 0.  1.
     999901    1    3    3    0    0 -0.40045599377E-01  0.11321230914E+00 -0.30349763484E-01  0.88867417264E+00  0.88000000000E+00 0.  1.
        -11    1    4    4    0    0 -0.21006936248E-02 -0.55941516569E-01  0.17804444012E-01  0.58746281050E-01  0.51100000000E-03 0.  1.
         11    1    4    4    0    0  0.19371571077E-01 -0.65999885636E-01  0.18841469754E-01  0.71319736212E-01  0.51100000000E-03 0. -1.
</event>
<event>
 8    1  0.1074844E+005  0.1043930E+01  0.7957747E-01            NaN
         13   -1    0    0    0    0  0.00000000000E+00  0.00000000000E+00  0.74505805969E-08  0.10566000000E+00  0.10566000000E+00 0.  1.
     999900   -1    0    0    0    0 -0.00000000000E+00 -0.00000000000E+00 -0.74505805969E-08  0.93827000000E+00  0.93827000000E+00 0. -1.
     999902    2    1    2    0    0 -0.73499081790E-02  0.21910515872E-01  0.97787198433E-02  0.10188358728E+01  0.10185267893E+01 0.  0.
     999903    2    3    3    0    0  0.67869984761E-01  0.37926604100E-01 -0.10059657198E+00  0.12861272530E+00  0.19411354552E-01 0.  0.
         14    1    1    2    0    0  0.73499081790E-02 -0.21910515872E-01 -0.97787198433E-02  0.25094127158E-01  0.00000000000E+00 0. -1.
     999901    1    3    3    0    0 -0.75219892940E-01 -0.16016088228E-01  0.11037529182E+00  0.89022314754E+00  0.88000000000E+00 0.  1.
        -11    1    4    4    0    0  0.34454397273E-01  0.10421099084E-01 -0.36460777822E-01  0.51238210722E-01  0.51100000000E-03 0. -1.
         11    1    4    4    0    0  0.33415587488E-01  0.27505505016E-01 -0.64135794155E-01  0.77374514578E-01  0.51100000000E-03 0.  1.
</event>
<event>
 8    1  0.1074844E+005  0.1043930E+01  0.7957747E-01            NaN
         13   -1    0    0    0    0  0.00000000000E+00  0.00000000000E+00  0.74505805969E-08  0.10566000000E+00  0.10566000000E+00 0.  1.
     999900   -1    0    0    0    0 -0.00000000000E+00 -0.00000000000E+00 -0.74505805969E-08  0.93827000000E+00  0.93827000000E+00 0.  1.
     999902    2    1    2    0    0 -0.21210979992E-01  0.54913487880E-03 -0.14379100198E-02  0.10226632465E+01  0.10224420966E+01 0.  0.
     999903    2    3    3    0    0 -0.35133797404E-01  0.61143376868E-01 -0.11188943797E+00  0.13358223381E+00  0.18763544594E-01 0.  0.
         14    1    1    2    0    0  0.21210979992E-01 -0.54913487880E-03  0.14379100198E-02  0.21266753550E-01  0.00000000000E+00 0.  1.
     999901    1    3    3    0    0  0.13922817412E-01 -0.60594241990E-01  0.11045152795E+00  0.88908101264E+00  0.88000000000E+00 0. -1.
        -11    1    4    4    0    0 -0.11126931340E-01  0.79001490469E-02 -0.30364441905E-01  0.33293864438E-01  0.51100000000E-03 0. -1.
         11    1    4    4    0    0 -0.24006866064E-01  0.53243227822E-01 -0.81524996067E-01  0.10028836937E+00  0.51100000000E-03 0.  1.
</event>
<event>
 8    1  0.1074844E+005  0.1043930E+01  0.7957747E-01            NaN
         13   -1    0    0    0    0  0.00000000000E+00  0.00000000000E+00  0.74505805969E-08  0.10566000000E+00  0.10566000000E+00 0.  1.
     999900   -1    0    0    0    0 -0.00000000000E+00 -0.00000000000E+00 -0.74505805969E-08  0.93827000000E+00  0.93827000000E+00 0. -1.
     999902    2    1    2    0    0 -0.22767587383E-01  0.40769648428E-02  0.41091454193E-02  0.10204380917E+01  0.10201676477E+01 0.  0.
     999903    2    3    3    0    0 -0.13185079915E+00 -0.75900186699E-02 -0.30277506725E-02  0.13359751933E+00  0.19922055021E-01 0.  0.
         14    1    1    2    0    0  0.22767587383E-01 -0.40769648428E-02 -0.41091454193E-02  0.23491908259E-01  0.00000000000E+00 0. -1.
     999901    1    3    3    0    0  0.10908321177E+00  0.11666983513E-01  0.71368960918E-02  0.88684057241E+00  0.88000000000E+00 0.  1.
        -11    1    4    4    0    0 -0.82210517741E-01 -0.92074836763E-02 -0.10425232304E-01  0.83380414801E-01  0.51100000000E-03 0. -1.
         11    1    4    4    0    0 -0.49640281410E-01  0.16174650064E-02  0.73974816318E-02  0.50217104526E-01  0.51100000000E-03 0.  1.
</event>
<event>
 8    1  0.1074844E+005  0.1043930E+01  0.7957747E-01            NaN
         13   -1    0    0    0    0  0.00000000000E+00  0.00000000000E+00  0.74505805969E-08  0.10566000000E+00  0.10566000000E+00 0. -1.
     999900   -1    0    0    0    0 -0.00000000000E+00 -0.00000000000E+00 -0.74505805969E-08  0.93827000000E+00  0.93827000000E+00 0. -1.
     999902    2    1    2    0    0 -0.10604250475E-01 -0.24002239594E-01  0.26118749386E-02  0.10175599502E+01  0.10172182031E+01 0.  0.
     999903    2    3    3    0    0  0.60417219257E-01 -0.43982650335E-01  0.10295018009E+00  0.12879055301E+00  0.20088629861E-01 0.  0.
         14    1    1    2    0    0  0.10604250475E-01  0.24002239594E-01 -0.26118749386E-02  0.26370049760E-01  0.00000000000E+00 0.  1.
     999901    1    3    3    0    0 -0.71021469732E-01  0.19980410742E-01 -0.10033830515E+00  0.88876939723E+00  0.88000000000E+00 0. -1.
        -11    1    4    4    0    0  0.17951586992E-01 -0.20179517208E-01  0.50207056907E-01  0.57012999172E-01  0.51100000000E-03 0.  1.
         11    1    4    4    0    0  0.42465632264E-01 -0.23803133127E-01  0.52743123185E-01  0.71777553835E-01  0.51100000000E-03 0. -1.
</event>
<event>
 8    1  0.1074844E+005  0.1043930E+01  0.7957747E-01            NaN
         13   -1    0    0    0    0  0.00000000000E+00  0.00000000000E+00  0.74505805969E-08  0.10566000000E+00  0.10566000000E+00 0.  1.
     999900   -1    0    0    0    0 -0.00000000000E+00 -0.00000000000E+00 -0.74505805969E-08  0.93827000000E+00  0.93827000000E+00 0. -1.
     999902    2    1    2    0    0  0.15976638137E-01 -0.97410968069E-02 -0.23470569483E-04  0.10252179054E+01  0.10250471263E+01 0.  0.
     999903    2    3    3    0    0  0.72749676244E-01  0.10333548315E+00  0.43442877123E-01  0.13510621906E+00  0.19891439989E-01 0.  0.
         14    1    1    2    0    0 -0.15976638137E-01  0.97410968069E-02  0.23470569483E-04  0.18712094592E-01  0.00000000000E+00 0. -1.
     999901    1    3    3    0    0 -0.56773038107E-01 -0.11307657996E+00 -0.43466347692E-01  0.89011168635E+00  0.88000000000E+00 0. -1.
        -11    1    4    4    0    0  0.16630961299E-01  0.38016849334E-01  0.97176734217E-02  0.42621168505E-01  0.51100000000E-03 0.  1.
         11    1    4    4    0    0  0.56118714945E-01  0.65318633815E-01  0.33725203701E-01  0.92485050555E-01  0.51100000000E-03 0. -1.
</event>
<event>
 8    1  0.1074844E+005  0.1043930E+01  0.7957747E-01            NaN
         13   -1    0    0    0    0  0.00000000000E+00  0.00000000000E+00  0.74505805969E-08  0.10566000000E+00  0.10566000000E+00 0.  1.
     999900   -1    0    0    0    0 -0.00000000000E+00 -0.00000000000E+00 -0.74505805969E-08  0.93827000000E+00  0.93827000000E+00 0.  1.
     999902    2    1    2    0    0 -0.14934782777E-01  0.18349663315E-01 -0.82706757839E-04  0.10202706526E+01  0.10199962940E+01 0.  0.
     999903    2    3    3    0    0  0.12645485474E+00 -0.56344125188E-02  0.11328598384E-01  0.12858882402E+00  0.19600296639E-01 0.  0.
         14    1    1    2    0    0  0.14934782777E-01 -0.18349663315E-01  0.82706757839E-04  0.23659347429E-01  0.00000000000E+00 0.  1.
     999901    1    3    3    0    0 -0.14138963752E+00  0.23984075834E-01 -0.11411305142E-01  0.89168182856E+00  0.88000000000E+00 0. -1.
        -11    1    4    4    0    0  0.16522804484E-01 -0.43194216484E-02 -0.40990683179E-02  0.17570542207E-01  0.51100000000E-03 0.  1.
         11    1    4    4    0    0  0.10993205026E+00 -0.13149908704E-02  0.15427666702E-01  0.11101828181E+00  0.51100000000E-03 0. -1.
</event>
<event>
 8    1  0.1074844E+005  0.1043930E+01  0.7957747E-01            NaN
         13   -1    0    0    0    0  0.00000000000E+00  0.00000000000E+00  0.74505805969E-08  0.10566000000E+00  0.10566000000E+00 0.  1.
     999900   -1    0    0    0    0 -0.00000000000E+00 -0.00000000000E+00 -0.74505805969E-08  0.93827000000E+00  0.93827000000E+00 0.  1.
     999902    2    1    2    0    0 -0.13708506850E-01  0.13826906718E-01  0.13074703361E-01  0.10204767619E+01  0.10202072178E+01 0.  0.
     999903    2    3    3    0    0  0.12298670039E+00 -0.31085910862E-01  0.10142362273E-01  0.12878660299E+00  0.19775218620E-01 0.  0.
         14    1    1    2    0    0  0.13708506850E-01 -0.13826906718E-01 -0.13074703361E-01  0.23453238101E-01  0.00000000000E+00 0. -1.
     999901    1    3    3    0    0 -0.13669520724E+00  0.44912817580E-01  0.29323410884E-02  0.89169015891E+00  0.88000000000E+00 0.  1.
        -11    1    4    4    0    0  0.99716336071E-01 -0.18718010888E-01  0.31105051600E-02  0.10150688634E+00  0.51100000000E-03 0. -1.
         11    1    4    4    0    0  0.23270364317E-01 -0.12367899974E-01  0.70318571128E-02  0.27279716653E-01  0.51100000000E-03 0.  1.
</event>
<event>
 8    1  0.1074844E+005  0.1043930E+01  0.7957747E-01            NaN
         13   -1    0    0    0    0  0.00000000000E+00  0.00000000000E+00  0.74505805969E-08  0.10566000000E+00  0.10566000000E+00 0. -1.
     999900   -1    0    0    0    0 -0.00000000000E+00 -0.00000000000E+00 -0.74505805969E-08  0.93827000000E+00  0.93827000000E+00 0. -1.
     999902    2    1    2    0    0  0.14742714764E-01 -0.12045107268E-01  0.15295757815E-01  0.10195088523E+01  0.10192163203E+01 0.  0.
     999903    2    3    3    0    0 -0.21508953984E-02  0.10761040412E+00  0.69414134714E-01  0.12960344486E+00  0.19852087940E-01 0.  0.
         14    1    1    2    0    0 -0.14742714764E-01  0.12045107268E-01 -0.15295757815E-01  0.24421147697E-01  0.00000000000E+00 0.  1.
     999901    1    3    3    0    0  0.16893610163E-01 -0.11965551139E+00 -0.54118376899E-01  0.88990540744E+00  0.88000000000E+00 0. -1.
        -11    1    4    4    0    0  0.43304278276E-02  0.89437821217E-01  0.62067799908E-01  0.10895205081E+00  0.51100000000E-03 0. -1.
         11    1    4    4    0    0 -0.64813232260E-02  0.18172582908E-01  0.73463348061E-02  0.20651394054E-01  0.51100000000E-03 0.  1.
</event>
<event>
 8    1  0.1074844E+005  0.1043930E+01  0.7957747E-01            NaN
         13   -1    0    0    0    0  0.00000000000E+00  0.00000000000E+00  0.74505805969E-08  0.10566000000E+00  0.10566000000E+00 0.  1.
     999900   -1    0    0    0    0 -0.00000000000E+00 -0.00000000000E+00 -0.74505805969E-08  0.93827000000E+00  0.93827000000E+00 0. -1.
     999902    2    1    2    0    0  0.24729924611E-04 -0.20918382365E-01  0.10230287735E-01  0.10206439931E+01  0.10203783232E+01 0.  0.
     999903    2    3    3    0    0 -0.37983003343E-01 -0.11346135104E+00  0.56383061131E-01  0.13377372783E+00  0.20004348390E-01 0.  0.
         14    1    1    2    0    0 -0.24729924611E-04  0.20918382365E-01 -0.10230287735E-01  0.23286006946E-01  0.00000000000E+00 0.  1.
     999901    1    3    3    0    0  0.38007733267E-01  0.92542968670E-01 -0.46152773396E-01  0.88687026522E+00  0.88000000000E+00 0.  1.
        -11    1    4    4    0    0 -0.34114048539E-01 -0.10751565784E+00  0.47494967836E-01  0.12239043296E+00  0.51100000000E-03 0.  1.
         11    1    4    4    0    0 -0.38689548032E-02 -0.59456931939E-02  0.88880932953E-02  0.11383294877E-01  0.51100000000E-03 0. -1.
</event>
<event>
 8    1  0.1074844E+005  0.1043930E+01  0.7957747E-01            NaN
         13   -1    0    0    0    0  0.00000000000E+00  0.00000000000E+00  0.74505805969E-08  0.10566000000E+00  0.10566000000E+00 0.  1.
     999900   -1    0    0    0    0 -0.00000000000E+00 -0.00000000000E+00 -0.74505805969E-08  0.93827000000E+00  0.93827000000E+00 0.  1.
     999902    2    1    2    0    0  0.16839601953E-01  0.16253952285E-01  0.43101281361E-02  0.10201320933E+01  0.10198544736E+01 0.  0.
     999903    2    3    3    0    0  0.51597252723E-01  0.51931469187E-01 -0.10742211636E+00  0.13166989716E+00  0.20935538081E-01 0.  0.
         14    1    1    2    0    0 -0.16839601953E-01 -0.16253952285E-01 -0.43101281361E-02  0.23797906702E-01  0.00000000000E+00 0. -1.
     999901    1    3    3    0    0 -0.34757650770E-01 -0.35677516901E-01  0.11173224450E+00  0.88846219613E+00  0.88000000000E+00 0. -1.
        -11    1    4    4    0    0  0.81789122678E-02  0.15787455754E-01 -0.14626100183E-01  0.23028727551E-01  0.51100000000E-03 0.  1.
         11    1    4    4    0    0  0.43418340455E-01  0.36144013433E-01 -0.92796016180E-01  0.10864116961E+00  0.51100000000E-03 0. -1.
</event>
<event>
 8    1  0.1074844E+005  0.1043930E+01  0.7957747E-01            NaN
         13   -1    0    0    0    0  0.00000000000E+00  0.00000000000E+00  0.74505805969E-08  0.10566000000E+00  0.10566000000E+00 0. -1.
     999900   -1    0    0    0    0 -0.00000000000E+00 -0.00000000000E+00 -0.74505805969E-08  0.93827000000E+00  0.93827000000E+00 0.  1.
     999902    2    1    2    0    0 -0.13200135734E-02  0.18702186733E-01  0.14059680309E-01  0.10204952217E+01  0.10202261066E+01 0.  0.
     999903    2    3    3    0    0 -0.12608837188E+00  0.26816405657E-01  0.17334516481E-01  0.13165119243E+00  0.20350770778E-01 0.  0.
         14    1    1    2    0    0  0.13200135734E-02 -0.18702186733E-01 -0.14059680309E-01  0.23434778318E-01  0.00000000000E+00 0.  1.
     999901    1    3    3    0    0  0.12476835831E+00 -0.81142189237E-02 -0.32748361722E-02  0.88884402925E+00  0.88000000000E+00 0.  1.
        -11    1    4    4    0    0 -0.11814207737E+00  0.23639264633E-01  0.21045739994E-01  0.12230923747E+00  0.51100000000E-03 0. -1.
         11    1    4    4    0    0 -0.79462945089E-02  0.31771410234E-02 -0.37112235134E-02  0.93419549599E-02  0.51100000000E-03 0.  1.
</event>
<event>
 8    1  0.1074844E+005  0.1043930E+01  0.7957747E-01            NaN
         13   -1    0    0    0    0  0.00000000000E+00  0.00000000000E+00  0.74505805969E-08  0.10566000000E+00  0.10566000000E+00 0. -1.
     999900   -1    0    0    0    0 -0.00000000000E+00 -0.00000000000E+00 -0.74505805969E-08  0.93827000000E+00  0.93827000000E+00 0. -1.
     999902    2    1    2    0    0  0.16034709037E-02  0.23186663587E-01 -0.47304487324E-03  0.10206831452E+01  0.10204183782E+01 0.  0.
     999903    2    3    3    0    0 -0.68610783027E-01  0.10283887726E-01 -0.10919419686E+00  0.13112324728E+00  0.21371369978E-01 0.  0.
         14    1    1    2    0    0 -0.16034709037E-02 -0.23186663587E-01  0.47304487324E-03  0.23246854812E-01  0.00000000000E+00 0. -1.
     999901    1    3    3    0    0  0.70214253931E-01  0.12902775860E-01  0.10872115199E+00  0.88955989791E+00  0.88000000000E+00 0.  1.
        -11    1    4    4    0    0 -0.19685958015E-01 -0.54564272397E-02 -0.40128612002E-01  0.45031946032E-01  0.51100000000E-03 0. -1.
         11    1    4    4    0    0 -0.48924825012E-01  0.15740314966E-01 -0.69065584857E-01  0.86091301246E-01  0.51100000000E-03 0.  1.
</event>
<event>
 8    1  0.1074844E+005  0.1043930E+01  0.7957747E-01            NaN
         13   -1    0    0    0    0  0.00000000000E+00  0.00000000000E+00  0.74505805969E-08  0.10566000000E+00  0.10566000000E+00 0. -1.
     999900   -1    0    0    0    0 -0.00000000000E+00 -0.00000000000E+00 -0.74505805969E-08  0.93827000000E+00  0.93827000000E+00 0. -1.
     999902    2    1    2    0    0  0.49098145905E-02  0.62638673108E-02 -0.22275868528E-01  0.10202750506E+01  0.10200007952E+01 0.  0.
     999903    2    3    3    0    0 -0.37265871807E-01 -0.10831154602E+00  0.54742679510E-01  0.12851377614E+00  0.19972318213E-01 0.  0.
         14    1    1    2    0    0 -0.49098145905E-02 -0.62638673108E-02  0.22275868528E-01  0.23654949412E-01  0.00000000000E+00 0. -1.
     999901    1    3    3    0    0  0.42175686398E-01  0.11457541333E+00 -0.77018548039E-01  0.89176127445E+00  0.88000000000E+00 0.  1.
        -11    1    4    4    0    0 -0.19423533575E-01 -0.38860108711E-01  0.29396639346E-01  0.52457651791E-01  0.51100000000E-03 0.  1.
         11    1    4    4    0    0 -0.17842338232E-01 -0.69451437309E-01  0.25346040164E-01  0.76056124349E-01  0.51100000000E-03 0. -1.
</event>
<event>
 8    1  0.1074844E+005  0.1043930E+01  0.7957747E-01            NaN
         13   -1    0    0    0    0  0.00000000000E+00  0.00000000000E+00  0.74505805969E-08  0.10566000000E+00  0.10566000000E+00 0.  1.
     999900   -1    0    0    0    0 -0.00000000000E+00 -0.00000000000E+00 -0.74505805969E-08  0.93827000000E+00  0.93827000000E+00 0. -1.
     999902    2    1    2    0    0  0.22621406474E-01  0.58766245238E-02  0.79190830261E-02  0.10192525888E+01  0.10189538092E+01 0.  0.
     999903    2    3    3    0    0  0.10764987850E+00  0.73917221424E-01  0.88813367082E-02  0.13253939403E+00  0.20870094958E-01 0.  0.
         14    1    1    2    0    0 -0.22621406474E-01 -0.58766245238E-02 -0.79190830261E-02  0.24677411182E-01  0.00000000000E+00 0. -1.
     999901    1    3    3    0    0 -0.85028472027E-01 -0.68040596900E-01 -0.96225368215E-03  0.88671319479E+00  0.88000000000E+00 0. -1.
        -11    1    4    4    0    0  0.52730060079E-01  0.45322229683E-01  0.11907933364E-01  0.70545189328E-01  0.51100000000E-03 0. -1.
         11    1    4    4    0    0  0.54919818421E-01  0.28594991741E-01 -0.30265966557E-02  0.61994204700E-01  0.51100000000E-03 0.  1.
</event>
<event>
 8    1  0.1074844E+005  0.1043930E+01  0.7957747E-01            NaN
         13   -1    0    0    0    0  0.00000000000E+00  0.00000000000E+00  0.74505805969E-08  0.10566000000E+00  0.10566000000E+00 0.  1.
     999900   -1    0    0    0    0 -0.00000000000E+00 -0.00000000000E+00 -0.74505805969E-08  0.93827000000E+00  0.93827000000E+00 0. -1.
     999902    2    1    2    0    0  0.20036341437E-01  0.16562963918E-01 -0.11647400763E-01  0.10154440614E+01  0.10150444292E+01 0.  0.
     999903    2    3    3    0    0 -0.38686134563E-01 -0.94469805982E-01  0.65936280776E-01  0.12314599866E+00  0.19904336543E-01 0.  0.
         14    1    1    2    0    0 -0.20036341437E-01 -0.16562963918E-01  0.11647400763E-01  0.28485938574E-01  0.00000000000E+00 0.  1.
     999901    1    3    3    0    0  0.58722476000E-01  0.11103276990E+00 -0.77583681539E-01  0.89229806277E+00  0.88000000000E+00 0. -1.
        -11    1    4    4    0    0 -0.24345832529E-01 -0.36861714316E-01  0.22456151934E-01  0.49558505067E-01  0.51100000000E-03 0.  1.
         11    1    4    4    0    0 -0.14340302034E-01 -0.57608091666E-01  0.43480128842E-01  0.73587493590E-01  0.51100000000E-03 0. -1.
</event>
<event>
 8    1  0.1074844E+005  0.1043930E+01  0.7957747E-01            NaN
         13   -1    0    0    0    0  0.00000000000E+00  0.00000000000E+00  0.74505805969E-08  0.10566000000E+00  0.10566000000E+00 0.  1.
     999900   -1    0    0    0    0 -0.00000000000E+00 -0.00000000000E+00 -0.74505805969E-08  0.93827000000E+00  0.93827000000E+00 0.  1.
     999902    2    1    2    0    0  0.22484646325E-01  0.16763682303E-02  0.57937934226E-02  0.10206504473E+01  0.10203849264E+01 0.  0.
     999903    2    3    3    0    0  0.11101718039E-01  0.10074410795E+00  0.80910659759E-01  0.13183858212E+00  0.23711884002E-01 0.  0.
         14    1    1    2    0    0 -0.22484646325E-01 -0.16763682303E-02 -0.57937934226E-02  0.23279552681E-01  0.00000000000E+00 0. -1.
     999901    1    3    3    0    0  0.11382928286E-01 -0.99067739719E-01 -0.75116866337E-01  0.88881186520E+00  0.88000000000E+00 0.  1.
        -11    1    4    4    0    0  0.16795730324E-01  0.58639994089E-01  0.54563775647E-01  0.81842606250E-01  0.51100000000E-03 0.  1.
         11    1    4    4    0    0 -0.56940122849E-02  0.42104113860E-01  0.26346884113E-01  0.49995975871E-01  0.51100000000E-03 0. -1.
</event>
<event>
 8    1  0.1074844E+005  0.1043930E+01  0.7957747E-01            NaN
         13   -1    0    0    0    0  0.00000000000E+00  0.00000000000E+00  0.74505805969E-08  0.10566000000E+00  0.10566000000E+00 0. -1.
     999900   -1    0    0    0    0 -0.00000000000E+00 -0.00000000000E+00 -0.74505805969E-08  0.93827000000E+00  0.93827000000E+00 0.  1.
     999902    2    1    2    0    0 -0.12516018944E-02  0.36891713460E-02  0.15724294418E-01  0.10277303109E+01  0.10276026284E+01 0.  0.
     999903    2    3    3    0    0  0.41306504931E-01 -0.30461145096E-01  0.12746765452E+00  0.13898736993E+00  0.20865697701E-01 0.  0.
         14    1    1    2    0    0  0.12516018944E-02 -0.36891713460E-02 -0.15724294418E-01  0.16199689117E-01  0.00000000000E+00 0.  1.
     999901    1    3    3    0    0 -0.42558106825E-01  0.34150316442E-01 -0.11174336010E+00  0.88874294095E+00  0.88000000000E+00 0.  1.
        -11    1    4    4    0    0  0.37472569612E-01 -0.30265561340E-01  0.97292193034E-01  0.10856440311E+00  0.51100000000E-03 0.  1.
         11    1    4    4    0    0  0.38339353188E-02 -0.19558375523E-03  0.30175461487E-01  0.30422966817E-01  0.51100000000E-03 0. -1.
</event>
<event>
 8    1  0.1074844E+005  0.1043930E+01  0.7957747E-01            NaN
         13   -1    0    0    0    0  0.00000000000E+00  0.00000000000E+00  0.74505805969E-08  0.10566000000E+00  0.10566000000E+00 0. -1.
     999900   -1    0    0    0    0 -0.00000000000E+00 -0.00000000000E+00 -0.74505805969E-08  0.93827000000E+00  0.93827000000E+00 0.  1.
     999902    2    1    2    0    0 -0.10733670484E-01  0.15344649245E-01 -0.14791008639E-01  0.10200669767E+01  0.10197878177E+01 0.  0.
     999903    2    3    3    0    0  0.10216935455E+00  0.56241051994E-01  0.52726678210E-01  0.12934915001E+00  0.18694038481E-01 0.  0.
         14    1    1    2    0    0  0.10733670484E-01 -0.15344649245E-01  0.14791008639E-01  0.23863023259E-01  0.00000000000E+00 0. -1.
     999901    1    3    3    0    0 -0.11290302503E+00 -0.40896402750E-01 -0.67517686848E-01  0.89071782673E+00  0.88000000000E+00 0.  1.
        -11    1    4    4    0    0  0.66959759404E-01  0.40319053304E-01  0.26048424033E-01  0.82389422588E-01  0.51100000000E-03 0. -1.
         11    1    4    4    0    0  0.35209595145E-01  0.15921998690E-01  0.26678254177E-01  0.46959727421E-01  0.51100000000E-03 0.  1.
</event>
<event>
 8    1  0.1074844E+005  0.1043930E+01  0.7957747E-01            NaN
         13   -1    0    0    0    0  0.00000000000E+00  0.00000000000E+00  0.74505805969E-08  0.10566000000E+00  0.10566000000E+00 0. -1.
     999900   -1    0    0    0    0 -0.00000000000E+00 -0.00000000000E+00 -0.74505805969E-08  0.93827000000E+00  0.93827000000E+00 0. -1.
     999902    2    1    2    0    0 -0.11733242077E-01  0.62039556853E-02 -0.21403865413E-01  0.10187450146E+01  0.10184336607E+01 0.  0.
     999903    2    3    3    0    0  0.78376852530E-01 -0.61982241629E-01  0.74664267715E-01  0.12633352157E+00  0.20016905601E-01 0.  0.
         14    1    1    2    0    0  0.11733242077E-01 -0.62039556853E-02  0.21403865413E-01  0.25184985416E-01  0.00000000000E+00 0. -1.
     999901    1    3    3    0    0 -0.90110094607E-01  0.68186197314E-01 -0.96068133128E-01  0.89241149301E+00  0.88000000000E+00 0. -1.
        -11    1    4    4    0    0  0.21294889676E-01 -0.86800720378E-02  0.10636075589E-01  0.25341728470E-01  0.51100000000E-03 0.  1.
         11    1    4    4    0    0  0.57081962854E-01 -0.53302169591E-01  0.64028192126E-01  0.10099179310E+00  0.51100000000E-03 0. -1.
</event>
<event>
 8    1  0.1074844E+005  0.1043930E+01  0.7957747E-01            NaN
         13   -1    0    0    0    0  0.00000000000E+00  0.00000000000E+00  0.74505805969E-08  0.10566000000E+00  0.10566000000E+00 0. -1.
     999900   -1    0    0    0    0 -0.00000000000E+00 -0.00000000000E+00 -0.74505805969E-08  0.93827000000E+00  0.93827000000E+00 0. -1.
     999902    2    1    2    0    0  0.16648715952E-01 -0.14161112757E-01  0.82088853687E-02  0.10205825664E+01  0.10203154768E+01 0.  0.
     999903    2    3    3    0    0  0.95840743631E-01  0.87377765670E-01  0.96646279105E-02  0.13120995591E+00  0.17387507691E-01 0.  0.
         14    1    1    2    0    0 -0.16648715952E-01  0.14161112757E-01 -0.82088853687E-02  0.23347433614E-01  0.00000000000E+00 0. -1.
     999901    1    3    3    0    0 -0.79192027679E-01 -0.10153887843E+00 -0.14557425418E-02  0.88937261048E+00  0.88000000000E+00 0. -1.
        -11    1    4    4    0    0  0.41217021130E-01  0.46685979308E-01  0.10096959379E-01  0.63092259465E-01  0.51100000000E-03 0. -1.
         11    1    4    4    0    0  0.54623722502E-01  0.40691786362E-01 -0.43233146893E-03  0.68117696444E-01  0.51100000000E-03 0.  1.
</event>
<event>
 8    1  0.1074844E+005  0.1043930E+01  0.7957747E-01            NaN
         13   -1    0    0    0    0  0.00000000000E+00  0.00000000000E+00  0.74505805969E-08  0.10566000000E+00  0.10566000000E+00 0.  1.
     999900   -1    0    0    0    0 -0.00000000000E+00 -0.00000000000E+00 -0.74505805969E-08  0.93827000000E+00  0.93827000000E+00 0. -1.
     999902    2    1    2    0    0 -0.14355851557E-01 -0.56283335586E-02  0.18202043559E-01  0.10200745394E+01  0.10197955593E+01 0.  0.
     999903    2    3    3    0    0 -0.26136975377E-01  0.92021633613E-02 -0.12275906956E+00  0.12865501191E+00  0.26730163435E-01 0.  0.
         14    1    1    2    0    0  0.14355851557E-01  0.56283335586E-02 -0.18202043559E-01  0.23855460639E-01  0.00000000000E+00 0. -1.
     999901    1    3    3    0    0  0.11781123820E-01 -0.14830496920E-01  0.14096111312E+00  0.89141952746E+00  0.88000000000E+00 0.  1.
        -11    1    4    4    0    0  0.52888209679E-02 -0.10638265416E-02 -0.18695506967E-01  0.19465005931E-01  0.51100000000E-03 0.  1.
         11    1    4    4    0    0 -0.31425796345E-01  0.10265989903E-01 -0.10406356259E+00  0.10919000597E+00  0.51100000000E-03 0. -1.
</event>
<event>
 8    1  0.1074844E+005  0.1043930E+01  0.7957747E-01            NaN
         13   -1    0    0    0    0  0.00000000000E+00  0.00000000000E+00  0.74505805969E-08  0.10566000000E+00  0.10566000000E+00 0. -1.
     999900   -1    0    0    0    0 -0.00000000000E+00 -0.00000000000E+00 -0.74505805969E-08  0.93827000000E+00  0.93827000000E+00 0. -1.
     999902    2    1    2    0    0 -0.14251474774E-01  0.10465759105E-01 -0.16526007319E-01  0.10197278190E+01  0.10194405717E+01 0.  0.
     999903    2    3    3    0    0  0.78185437508E-01  0.76186256636E-01  0.64827026707E-01  0.12872721144E+00  0.21233069347E-01 0.  0.
         14    1    1    2    0    0  0.14251474774E-01 -0.10465759105E-01  0.16526007319E-01  0.24202180992E-01  0.00000000000E+00 0. -1.
     999901    1    3    3    0    0 -0.92436912282E-01 -0.65720497531E-01 -0.81353034026E-01  0.89100060757E+00  0.88000000000E+00 0. -1.
        -11    1    4    4    0    0  0.62377237135E-01  0.58919881873E-01  0.40237359591E-01  0.94772244989E-01  0.51100000000E-03 0. -1.
         11    1    4    4    0    0  0.15808200373E-01  0.17266374763E-01  0.24589667116E-01  0.33954966447E-01  0.51100000000E-03 0.  1.
</event>
<event>
 8    1  0.1074844E+005  0.1043930E+01  0.7957747E-01            NaN
         13   -1    0    0    0    0  0.00000000000E+00  0.00000000000E+00  0.74505805969E-08  0.10566000000E+00  0.10566000000E+00 0. -1.
     999900   -1    0    0    0    0 -0.00000000000E+00 -0.00000000000E+00 -0.74505805969E-08  0.93827000000E+00  0.93827000000E+00 0.  1.
     999902    2    1    2    0    0 -0.54946468895E-02  0.11237136667E-01 -0.17452346987E-01  0.10224579530E+01  0.10222324672E+01 0.  0.
     999903    2    3    3    0    0  0.99348241205E-01  0.77099068673E-01  0.35445056831E-01  0.13221755821E+00  0.20267985213E-01 0.  0.
         14    1    1    2    0    0  0.54946468895E-02 -0.11237136667E-01  0.17452346987E-01  0.21472046951E-01  0.00000000000E+00 0. -1.
     999901    1    3    3    0    0 -0.10484288809E+00 -0.65861932006E-01 -0.52897403818E-01  0.89024039484E+00  0.88000000000E+00 0. -1.
        -11    1    4    4    0    0  0.68769921310E-01  0.51802930652E-01  0.14402683745E-01  0.87295727966E-01  0.51100000000E-03 0. -1.
         11    1    4    4    0    0  0.30578319895E-01  0.25296138021E-01  0.21042373086E-01  0.44921830244E-01  0.51100000000E-03 0.  1.
</event>
<event>
 8    1  0.1074844E+005  0.1043930E+01  0.7957747E-01            NaN
         13   -1    0    0    0    0  0.00000000000E+00  0.00000000000E+00  0.74505805969E-08  0.10566000000E+00  0.10566000000E+00 0. -1.
     999900   -1    0    0    0    0 -0.00000000000E+00 -0.00000000000E+00 -0.74505805969E-08  0.93827000000E+00  0.93827000000E+00 0. -1.
     999902    2    1    2    0    0 -0.13642734772E-01  0.14167430771E-01 -0.11307604555E-01  0.10212429502E+01  0.10209909212E+01 0.  0.
     999903    2    3    3    0    0  0.76702399938E-01 -0.60136220681E-01 -0.84418764437E-01  0.13049690466E+00  0.20082110041E-01 0.  0.
         14    1    1    2    0    0  0.13642734772E-01 -0.14167430771E-01  0.11307604555E-01  0.22687049774E-01  0.00000000000E+00 0. -1.
     999901    1    3    3    0    0 -0.90345134710E-01  0.74303651452E-01  0.73111159882E-01  0.89074604556E+00  0.88000000000E+00 0. -1.
        -11    1    4    4    0    0  0.30210223926E-01 -0.11819184196E-01 -0.26475964912E-01  0.41875871140E-01  0.51100000000E-03 0. -1.
         11    1    4    4    0    0  0.46492176012E-01 -0.48317036485E-01 -0.57942799525E-01  0.88621033524E-01  0.51100000000E-03 0.  1.
</event>
<event>
 8    1  0.1074844E+005  0.1043930E+01  0.7957747E-01            NaN
         13   -1    0    0    0    0  0.00000000000E+00  0.00000000000E+00  0.74505805969E-08  0.10566000000E+00  0.10566000000E+00 0. -1.
     999900   -1    0    0    0    0 -0.00000000000E+00 -0.00000000000E+00 -0.74505805969E-08  0.93827000000E+00  0.93827000000E+00 0. -1.
     999902    2    1    2    0    0 -0.27375509262E-03  0.15211299201E-02  0.20483999557E-01  0.10233877748E+01  0.10231815844E+01 0.  0.
     999903    2    3    3    0    0  0.11886585468E+00  0.56844960954E-01  0.78185292200E-02  0.13354768410E+00  0.20332573225E-01 0.  0.
         14    1    1    2    0    0  0.27375509262E-03 -0.15211299201E-02 -0.20483999557E-01  0.20542225194E-01  0.00000000000E+00 0.  1.
     999901    1    3    3    0    0 -0.11913960977E+00 -0.55323831034E-01  0.12665470337E-01  0.88984009071E+00  0.88000000000E+00 0.  1.
        -11    1    4    4    0    0  0.85870602656E-02 -0.40045439537E-03 -0.22112203394E-02  0.88909270673E-02  0.51100000000E-03 0.  1.
         11    1    4    4    0    0  0.11027879441E+00  0.57245415350E-01  0.10029749559E-01  0.12465675703E+00  0.51100000000E-03 0. -1.
</event>
<event>
 8    1  0.1074844E+005  0.1043930E+01  0.7957747E-01            NaN
         13   -1    0    0    0    0  0.00000000000E+00  0.00000000000E+00  0.74505805969E-08  0.10566000000E+00  0.10566000000E+00 0.  1.
     999900   -1    0    0    0    0 -0.00000000000E+00 -0.00000000000E+00 -0.74505805969E-08  0.93827000000E+00  0.93827000000E+00 0.  1.
     999902    2    1    2    0    0  0.15463552205E-01  0.13169904867E-01 -0.10608055935E-01  0.10210149680E+01  0.10207577902E+01 0.  0.
     999903    2    3    3    0    0  0.80919205921E-01 -0.11528292327E-01  0.10075501357E+00  0.13124186389E+00  0.19799865306E-01 0.  0.
         14    1    1    2    0    0 -0.15463552205E-01 -0.13169904867E-01  0.10608055935E-01  0.22915032004E-01  0.00000000000E+00 0. -1.
     999901    1    3    3    0    0 -0.65455653716E-01  0.24698197194E-01 -0.11136306950E+00  0.88977310411E+00  0.88000000000E+00 0.  1.
        -11    1    4    4    0    0  0.42731387629E-01 -0.63099914568E-02  0.37684737756E-01  0.57325282918E-01  0.51100000000E-03 0.  1.
         11    1    4    4    0    0  0.38187818292E-01 -0.52183008701E-02  0.63070275813E-01  0.73916580968E-01  0.51100000000E-03 0. -1.
</event>
<event>
 8    1  0.1074844E+005  0.1043930E+01  0.7957747E-01            NaN
         13   -1    0    0    0    0  0.00000000000E+00  0.00000000000E+00  0.74505805969E-08  0.10566000000E+00  0.10566000000E+00 0.  1.
     999900   -1    0    0    0    0 -0.00000000000E+00 -0.00000000000E+00 -0.74505805969E-08  0.93827000000E+00  0.93827000000E+00 0. -1.
     999902    2    1    2    0    0 -0.17404455909E-01 -0.75001140269E-02 -0.14567134720E-01  0.10200266904E+01  0.10197465768E+01 0.  0.
     999903    2    3    3    0    0 -0.12883490223E+00 -0.12105439846E-01 -0.22912406236E-01  0.13294856704E+00  0.20133787797E-01 0.  0.
         14    1    1    2    0    0  0.17404455909E-01  0.75001140269E-02  0.14567134720E-01  0.23903309601E-01  0.00000000000E+00 0. -1.
     999901    1    3    3    0    0  0.11143044632E+00  0.46053258194E-02  0.83452715164E-02  0.88707812336E+00  0.88000000000E+00 0.  1.
        -11    1    4    4    0    0 -0.69018021841E-02 -0.32554054164E-02 -0.55884896364E-02  0.94723215333E-02  0.51100000000E-03 0. -1.
         11    1    4    4    0    0 -0.12193310005E+00 -0.88500344300E-02 -0.17323916600E-01  0.12347624550E+00  0.51100000000E-03 0.  1.
</event>
<event>
 8    1  0.1074844E+005  0.1043930E+01  0.7957747E-01            NaN
         13   -1    0    0    0    0  0.00000000000E+00  0.00000000000E+00  0.74505805969E-08  0.10566000000E+00  0.10566000000E+00 0. -1.
     999900   -1    0    0    0    0 -0.00000000000E+00 -0.00000000000E+00 -0.74505805969E-08  0.93827000000E+00  0.93827000000E+00 0.  1.
     999902    2    1    2    0    0 -0.16096710467E-02 -0.57803269818E-02  0.17010623138E-01  0.10258921365E+01  0.10257335478E+01 0.  0.
     999903    2    3    3    0    0 -0.29396614987E-01  0.10104500985E+00 -0.80099707685E-01  0.13369586704E+00  0.19605272366E-01 0.  0.
         14    1    1    2    0    0  0.16096710467E-02  0.57803269818E-02 -0.17010623138E-01  0.18037863522E-01  0.00000000000E+00 0.  1.
     999901    1    3    3    0    0  0.27786943940E-01 -0.10682533683E+00  0.97110330822E-01  0.89219626944E+00  0.88000000000E+00 0. -1.
        -11    1    4    4    0    0 -0.11349409613E-01  0.18935849939E-01 -0.24070901546E-01  0.32665653732E-01  0.51100000000E-03 0.  1.
         11    1    4    4    0    0 -0.18047205374E-01  0.82109159912E-01 -0.56028806139E-01  0.10103021331E+00  0.51100000000E-03 0. -1.
</event>
<event>
 8    1  0.1074844E+005  0.1043930E+01  0.7957747E-01            NaN
         13   -1    0    0    0    0  0.00000000000E+00  0.00000000000E+00  0.74505805969E-08  0.10566000000E+00  0.10566000000E+00 0.  1.
     999900   -1    0    0    0    0 -0.00000000000E+00 -0.00000000000E+00 -0.74505805969E-08  0.93827000000E+00  0.93827000000E+00 0. -1.
     999902    2    1    2    0    0  0.14268498671E-01 -0.50973741049E-02 -0.17392568865E-01  0.10208632549E+01  0.10206026213E+01 0.  0.
     999903    2    3    3    0    0  0.29666800716E-01 -0.33396273376E-01 -0.12457084547E+00  0.13377525568E+00  0.19557437261E-01 0.  0.
         14    1    1    2    0    0 -0.14268498671E-01  0.50973741049E-02  0.17392568865E-01  0.23066745085E-01  0.00000000000E+00 0.  1.
     999901    1    3    3    0    0 -0.15398302045E-01  0.28298899271E-01  0.10717827660E+00  0.88708799923E+00  0.88000000000E+00 0.  1.
        -11    1    4    4    0    0  0.27527618043E-01 -0.17831927831E-01 -0.77758515300E-01  0.84394284332E-01  0.51100000000E-03 0.  1.
         11    1    4    4    0    0  0.21391826731E-02 -0.15564345545E-01 -0.46812330168E-01  0.49380971351E-01  0.51100000000E-03 0. -1.
</event>
<event>
 8    1  0.1074844E+005  0.1043930E+01  0.7957747E-01            NaN
         13   -1    0    0    0    0  0.00000000000E+00  0.00000000000E+00  0.74505805969E-08  0.10566000000E+00  0.10566000000E+00 0.  1.
     999900   -1    0    0    0    0 -0.00000000000E+00 -0.00000000000E+00 -0.74505805969E-08  0.93827000000E+00  0.93827000000E+00 0.  1.
     999902    2    1    2    0    0 -0.10327256928E-01  0.21113267619E-01 -0.12069506325E-02  0.10203953652E+01  0.10201239250E+01 0.  0.
     999903    2    3    3    0    0 -0.55310904047E-01  0.11855366066E+00  0.19792888911E-01  0.13362642576E+00  0.18708197329E-01 0.  0.
         14    1    1    2    0    0  0.10327256928E-01 -0.21113267619E-01  0.12069506325E-02  0.23534634797E-01  0.00000000000E+00 0. -1.
     999901    1    3    3    0    0  0.44983647118E-01 -0.97440393040E-01 -0.20999839543E-01  0.88676893945E+00  0.88000000000E+00 0. -1.
        -11    1    4    4    0    0 -0.35821300566E-01  0.61800343080E-01  0.17640239683E-01  0.73579121740E-01  0.51100000000E-03 0.  1.
         11    1    4    4    0    0 -0.19489603481E-01  0.56753317579E-01  0.21526492279E-02  0.60047304018E-01  0.51100000000E-03 0. -1.
</event>
<event>
 8    1  0.1074844E+005  0.1043930E+01  0.7957747E-01            NaN
         13   -1    0    0    0    0  0.00000000000E+00  0.00000000000E+00  0.74505805969E-08  0.10566000000E+00  0.10566000000E+00 0.  1.
     999900   -1    0    0    0    0 -0.00000000000E+00 -0.00000000000E+00 -0.74505805969E-08  0.93827000000E+00  0.93827000000E+00 0.  1.
     999902    2    1    2    0    0 -0.54601277219E-02 -0.16868816068E-01 -0.17683539635E-01  0.10188884840E+01  0.10185807112E+01 0.  0.
     999903    2    3    3    0    0  0.68936718725E-01  0.47634400635E-01 -0.97236466000E-01  0.12983042974E+00  0.19485965559E-01 0.  0.
         14    1    1    2    0    0  0.54601277219E-02  0.16868816068E-01  0.17683539635E-01  0.25041516014E-01  0.00000000000E+00 0.  1.
     999901    1    3    3    0    0 -0.74396846447E-01 -0.64503216703E-01  0.79552926365E-01  0.88905805425E+00  0.88000000000E+00 0. -1.
        -11    1    4    4    0    0  0.58803530931E-01  0.30988209875E-01 -0.73055668314E-01  0.98770016680E-01  0.51100000000E-03 0. -1.
         11    1    4    4    0    0  0.10133187794E-01  0.16646190760E-01 -0.24180797686E-01  0.31060413059E-01  0.51100000000E-03 0.  1.
</event>
<event>
 8    1  0.1074844E+005  0.1043930E+01  0.7957747E-01            NaN
         13   -1    0    0    0    0  0.00000000000E+00  0.00000000000E+00  0.74505805969E-08  0.10566000000E+00  0.10566000000E+00 0. -1.
     999900   -1    0    0    0    0 -0.00000000000E+00 -0.00000000000E+00 -0.74505805969E-08  0.93827000000E+00  0.93827000000E+00 0.  1.
     999902    2    1    2    0    0 -0.80973148105E-02 -0.21488441267E-01 -0.79213902915E-02  0.10196386839E+01  0.10193492913E+01 0.  0.
     999903    2    3    3    0    0 -0.81715750178E-01  0.95137535644E-01  0.21972475012E-01  0.12839520664E+00  0.16550677180E-01 0.  0.
         14    1    1    2    0    0  0.80973148105E-02  0.21488441267E-01  0.79213902915E-02  0.24291316131E-01  0.00000000000E+00 0. -1.
     999901    1    3    3    0    0  0.73618435368E-01 -0.11662597691E+00 -0.29893865303E-01  0.89124347723E+00  0.88000000000E+00 0.  1.
        -11    1    4    4    0    0 -0.11593396583E-01  0.15329990379E-01 -0.24588361082E-02  0.19383561215E-01  0.51100000000E-03 0.  1.
         11    1    4    4    0    0 -0.70122353595E-01  0.79807545265E-01  0.24431311120E-01  0.10901164543E+00  0.51100000000E-03 0. -1.
</event>
<event>
 8    1  0.1074844E+005  0.1043930E+01  0.7957747E-01            NaN
         13   -1    0    0    0    0  0.00000000000E+00  0.00000000000E+00  0.74505805969E-08  0.10566000000E+00  0.10566000000E+00 0. -1.
     999900   -1    0    0    0    0 -0.00000000000E+00 -0.00000000000E+00 -0.74505805969E-08  0.93827000000E+00  0.93827000000E+00 0.  1.
     999902    2    1    2    0    0 -0.13006797490E-01  0.13559652622E-01  0.13488980308E-01  0.10208000724E+01  0.10205379926E+01 0.  0.
     999903    2    3    3    0    0 -0.75402545786E-01  0.95107278285E-01 -0.50063940621E-01  0.13255336209E+00  0.18249859068E-01 0.  0.
         14    1    1    2    0    0  0.13006797490E-01 -0.13559652622E-01 -0.13488980308E-01  0.23129927582E-01  0.00000000000E+00 0.  1.
     999901    1    3    3    0    0  0.62395748295E-01 -0.81547625663E-01  0.63552920929E-01  0.88824671033E+00  0.88000000000E+00 0.  1.
        -11    1    4    4    0    0 -0.29883822152E-01  0.44320058150E-01 -0.30747777966E-01  0.61668446970E-01  0.51100000000E-03 0. -1.
         11    1    4    4    0    0 -0.45518723633E-01  0.50787220135E-01 -0.19316162655E-01  0.70884915116E-01  0.51100000000E-03 0.  1.
</event>
<event>
 8    1  0.1074844E+005  0.1043930E+01  0.7957747E-01            NaN
         13   -1    0    0    0    0  0.00000000000E+00  0.00000000000E+00  0.74505805969E-08  0.10566000000E+00  0.10566000000E+00 0.  1.
     999900   -1    0    0    0    0 -0.00000000000E+00 -0.00000000000E+00 -0.74505805969E-08  0.93827000000E+00  0.93827000000E+00 0. -1.
     999902    2    1    2    0    0  0.90381864550E-03 -0.12010364338E-01 -0.19572916022E-01  0.10209481641E+01  0.10206894675E+01 0.  0.
     999903    2    3    3    0    0  0.95665649781E-01  0.66301102882E-01 -0.58463880567E-01  0.13155230305E+00  0.18445333138E-01 0.  0.
         14    1    1    2    0    0 -0.90381864550E-03  0.12010364338E-01  0.19572916022E-01  0.22981835899E-01  0.00000000000E+00 0.  1.
     999901    1    3    3    0    0 -0.94761831136E-01 -0.78311467220E-01  0.38890964545E-01  0.88939586105E+00  0.88000000000E+00 0.  1.
        -11    1    4    4    0    0  0.71982756607E-01  0.40125247803E-01 -0.43753119402E-01  0.93306748622E-01  0.51100000000E-03 0.  1.
         11    1    4    4    0    0  0.23682893174E-01  0.26175855079E-01 -0.14710761165E-01  0.38245554424E-01  0.51100000000E-03 0. -1.
</event>
<event>
 8    1  0.1074844E+005  0.1043930E+01  0.7957747E-01            NaN
         13   -1    0    0    0    0  0.00000000000E+00  0.00000000000E+00  0.74505805969E-08  0.10566000000E+00  0.10566000000E+00 0. -1.
     999900   -1    0    0    0    0 -0.00000000000E+00 -0.00000000000E+00 -0.74505805969E-08  0.93827000000E+00  0.93827000000E+00 0.  1.
     999902    2    1    2    0    0 -0.17120774618E-01  0.90991563408E-02  0.13571774339E-01  0.10202633858E+01  0.10199888567E+01 0.  0.
     999903    2    3    3    0    0 -0.12147532310E+00 -0.47955708271E-01  0.21170498037E-02  0.13218887310E+00  0.20332540248E-01 0.  0.
         14    1    1    2    0    0  0.17120774618E-01 -0.90991563408E-02 -0.13571774339E-01  0.23666614214E-01  0.00000000000E+00 0.  1.
     999901    1    3    3    0    0  0.10435454849E+00  0.57054864611E-01  0.11454724535E-01  0.88807451268E+00  0.88000000000E+00 0. -1.
        -11    1    4    4    0    0 -0.10540312616E+00 -0.34686326891E-01 -0.17810367032E-02  0.11097924802E+00  0.51100000000E-03 0. -1.
         11    1    4    4    0    0 -0.16072196941E-01 -0.13269381380E-01  0.38980865069E-02  0.21209625082E-01  0.51100000000E-03 0.  1.
</event>
<event>
 8    1  0.1074844E+005  0.1043930E+01  0.7957747E-01            NaN
         13   -1    0    0    0    0  0.00000000000E+00  0.00000000000E+00  0.74505805969E-08  0.10566000000E+00  0.10566000000E+00 0. -1.
     999900   -1    0    0    0    0 -0.00000000000E+00 -0.00000000000E+00 -0.74505805969E-08  0.93827000000E+00  0.93827000000E+00 0.  1.
     999902    2    1    2    0    0  0.14381617664E-01  0.20938315542E-01  0.10101673988E-02  0.10185082687E+01  0.10181909590E+01 0.  0.
     999903    2    3    3    0    0  0.12715199471E+00  0.26154800137E-01  0.36603365243E-02  0.13129274074E+00  0.19304983263E-01 0.  0.
         14    1    1    2    0    0 -0.14381617664E-01 -0.20938315542E-01 -0.10101673988E-02  0.25421731305E-01  0.00000000000E+00 0. -1.
     999901    1    3    3    0    0 -0.11277037704E+00 -0.52164845951E-02 -0.26501691255E-02  0.88721552796E+00  0.88000000000E+00 0. -1.
        -11    1    4    4    0    0  0.58373025895E-01  0.45769005934E-02  0.78848444316E-02  0.59082908391E-01  0.51100000000E-03 0.  1.
         11    1    4    4    0    0  0.68778968813E-01  0.21577899543E-01 -0.42245079072E-02  0.72209832348E-01  0.51100000000E-03 0. -1.
</event>
<event>
 8    1  0.1074844E+005  0.1043930E+01  0.7957747E-01            NaN
         13   -1    0    0    0    0  0.00000000000E+00  0.00000000000E+00  0.74505805969E-08  0.10566000000E+00  0.10566000000E+00 0. -1.
     999900   -1    0    0    0    0 -0.00000000000E+00 -0.00000000000E+00 -0.74505805969E-08  0.93827000000E+00  0.93827000000E+00 0.  1.
     999902    2    1    2    0    0  0.22647402300E-01  0.36961458326E-02 -0.27219052376E-02  0.10208220989E+01  0.10205605237E+01 0.  0.
     999903    2    3    3    0    0 -0.47591113950E-01 -0.94272667275E-01  0.72861763489E-01  0.12939390298E+00  0.16783790635E-01 0.  0.
         14    1    1    2    0    0 -0.22647402300E-01 -0.36961458326E-02  0.27219052376E-02  0.23107901096E-01  0.00000000000E+00 0. -1.
     999901    1    3    3    0    0  0.70238516250E-01  0.97968813107E-01 -0.75583668726E-01  0.89142819592E+00  0.88000000000E+00 0. -1.
        -11    1    4    4    0    0 -0.37532417703E-01 -0.77655549447E-01  0.51239781733E-01  0.10032369158E+00  0.51100000000E-03 0. -1.
         11    1    4    4    0    0 -0.10058696247E-01 -0.16617117828E-01  0.21621981756E-01  0.29070211405E-01  0.51100000000E-03 0.  1.
</event>
<event>
 8    1  0.1074844E+005  0.1043930E+01  0.7957747E-01            NaN
         13   -1    0    0    0    0  0.00000000000E+00  0.00000000000E+00  0.74505805969E-08  0.10566000000E+00  0.10566000000E+00 0.  1.
     999900   -1    0    0    0    0 -0.00000000000E+00 -0.00000000000E+00 -0.74505805969E-08  0.93827000000E+00  0.93827000000E+00 0.  1.
     999902    2    1    2    0    0  0.21748012594E-01 -0.77794205840E-02  0.59360587740E-02  0.10200818925E+01  0.10198030865E+01 0.  0.
     999903    2    3    3    0    0 -0.12535699415E+00  0.12492813619E-01 -0.30345614157E-02  0.12759585985E+00  0.20026195724E-01 0.  0.
         14    1    1    2    0    0 -0.21748012594E-01  0.77794205840E-02 -0.59360587740E-02  0.23848107476E-01  0.00000000000E+00 0.  1.
     999901    1    3    3    0    0  0.14710500674E+00 -0.20272234202E-01  0.89706201898E-02  0.89248603267E+00  0.88000000000E+00 0.  1.
        -11    1    4    4    0    0 -0.66602616493E-01  0.39642984813E-04  0.59329279979E-02  0.66868309765E-01  0.51100000000E-03 0. -1.
         11    1    4    4    0    0 -0.58754377653E-01  0.12453170634E-01 -0.89674894137E-02  0.60727550087E-01  0.51100000000E-03 0.  1.
</event>
<event>
 8    1  0.1074844E+005  0.1043930E+01  0.7957747E-01            NaN
         13   -1    0    0    0    0  0.00000000000E+00  0.00000000000E+00  0.74505805969E-08  0.10566000000E+00  0.10566000000E+00 0. -1.
     999900   -1    0    0    0    0 -0.00000000000E+00 -0.00000000000E+00 -0.74505805969E-08  0.93827000000E+00  0.93827000000E+00 0. -1.
     999902    2    1    2    0    0 -0.19110540367E-01  0.63989322541E-02 -0.67663563936E-02  0.10226710568E+01  0.10224500710E+01 0.  0.
     999903    2    3    3    0    0 -0.12034695620E+00 -0.56156219955E-01 -0.99977511181E-02  0.13465506546E+00  0.19877643788E-01 0.  0.
         14    1    1    2    0    0  0.19110540367E-01 -0.63989322541E-02  0.67663563936E-02  0.21258943199E-01  0.00000000000E+00 0. -1.
     999901    1    3    3    0    0  0.10123641583E+00  0.62555152209E-01  0.32313947245E-02  0.88801599134E+00  0.88000000000E+00 0.  1.
        -11    1    4    4    0    0 -0.33943850103E-01 -0.70338149867E-02  0.80238196123E-03  0.34678011058E-01  0.51100000000E-03 0.  1.
         11    1    4    4    0    0 -0.86403106092E-01 -0.49122404968E-01 -0.10800133079E-01  0.99977054406E-01  0.51100000000E-03 0. -1.
</event>
<event>
 8    1  0.1074844E+005  0.1043930E+01  0.7957747E-01            NaN
         13   -1    0    0    0    0  0.00000000000E+00  0.00000000000E+00  0.74505805969E-08  0.10566000000E+00  0.10566000000E+00 0.  1.
     999900   -1    0    0    0    0 -0.00000000000E+00 -0.00000000000E+00 -0.74505805969E-08  0.93827000000E+00  0.93827000000E+00 0. -1.
     999902    2    1    2    0    0 -0.17318966651E-01  0.10653320951E-01 -0.12093348105E-01  0.10202722545E+01  0.10199979335E+01 0.  0.
     999903    2    3    3    0    0 -0.12888125053E+00 -0.10456824148E-01  0.19555813787E-01  0.13241334069E+00  0.20763935767E-01 0.  0.
         14    1    1    2    0    0  0.17318966651E-01 -0.10653320951E-01  0.12093348105E-01  0.23657745487E-01  0.00000000000E+00 0.  1.
     999901    1    3    3    0    0  0.11156228388E+00  0.21110145099E-01 -0.31649161892E-01  0.88785891383E+00  0.88000000000E+00 0.  1.
        -11    1    4    4    0    0 -0.11820521276E+00 -0.42051403629E-02  0.15041016981E-01  0.11923358940E+00  0.51100000000E-03 0.  1.
         11    1    4    4    0    0 -0.10676037773E-01 -0.62516837847E-02  0.45147968068E-02  0.13179751283E-01  0.51100000000E-03 0. -1.
</event>
<event>
 8    1  0.1074844E+005  0.1043930E+01  0.7957747E-01            NaN
         13   -1    0    0    0    0  0.00000000000E+00  0.00000000000E+00  0.74505805969E-08  0.10566000000E+00  0.10566000000E+00 0. -1.
     999900   -1    0    0    0    0 -0.00000000000E+00 -0.00000000000E+00 -0.74505805969E-08  0.93827000000E+00  0.93827000000E+00 0.  1.
     999902    2    1    2    0    0  0.16103166960E-01 -0.13720735186E-01 -0.60741354300E-02  0.10219194189E+01  0.10216823543E+01 0.  0.
     999903    2    3    3    0    0  0.10715884538E+00  0.68800021340E-01 -0.32676938973E-01  0.13298268267E+00  0.20003761380E-01 0.  0.
         14    1    1    2    0    0 -0.16103166960E-01  0.13720735186E-01  0.60741354300E-02  0.22010581123E-01  0.00000000000E+00 0. -1.
     999901    1    3    3    0    0 -0.91055678418E-01 -0.82520756525E-01  0.26602803543E-01  0.88893673621E+00  0.88000000000E+00 0.  1.
        -11    1    4    4    0    0  0.66239818312E-01  0.31654889536E-01 -0.22498903267E-01  0.76786765336E-01  0.51100000000E-03 0. -1.
         11    1    4    4    0    0  0.40919027066E-01  0.37145131804E-01 -0.10178035706E-01  0.56195917330E-01  0.51100000000E-03 0.  1.
</event>
<event>
 8    1  0.1074844E+005  0.1043930E+01  0.7957747E-01            NaN
         13   -1    0    0    0    0  0.00000000000E+00  0.00000000000E+00  0.74505805969E-08  0.10566000000E+00  0.10566000000E+00 0. -1.
     999900   -1    0    0    0    0 -0.00000000000E+00 -0.00000000000E+00 -0.74505805969E-08  0.93827000000E+00  0.93827000000E+00 0.  1.
     999902    2    1    2    0    0 -0.40702589790E-02  0.22510300624E-01 -0.17247102264E-02  0.10209897457E+01  0.10207319950E+01 0.  0.
     999903    2    3    3    0    0 -0.88327428975E-01 -0.92639973055E-01  0.38988305222E-02  0.12947952117E+00  0.19127106558E-01 0.  0.
         14    1    1    2    0    0  0.40702589790E-02 -0.22510300624E-01  0.17247102264E-02  0.22940254307E-01  0.00000000000E+00 0. -1.
     999901    1    3    3    0    0  0.84257169996E-01  0.11515027368E+00 -0.56235407485E-02  0.89151022453E+00  0.88000000000E+00 0.  1.
        -11    1    4    4    0    0 -0.36027706745E-01 -0.43118185285E-01  0.10451540897E-01  0.57154784434E-01  0.51100000000E-03 0.  1.
         11    1    4    4    0    0 -0.52299722230E-01 -0.49521787769E-01 -0.65527103744E-02  0.72324736733E-01  0.51100000000E-03 0. -1.
</event>
<event>
 8    1  0.1074844E+005  0.1043930E+01  0.7957747E-01            NaN
         13   -1    0    0    0    0  0.00000000000E+00  0.00000000000E+00  0.74505805969E-08  0.10566000000E+00  0.10566000000E+00 0.  1.
     999900   -1    0    0    0    0 -0.00000000000E+00 -0.00000000000E+00 -0.74505805969E-08  0.93827000000E+00  0.93827000000E+00 0. -1.
     999902    2    1    2    0    0  0.32010050900E-02 -0.10010361538E-01 -0.22223712913E-01  0.10193465261E+01  0.10190500445E+01 0.  0.
     999903    2    3    3    0    0  0.63571467514E-01  0.11385208448E-01 -0.11362363026E+00  0.13229731214E+00  0.20525471813E-01 0.  0.
         14    1    1    2    0    0 -0.32010050900E-02  0.10010361538E-01  0.22223712913E-01  0.24583473867E-01  0.00000000000E+00 0.  1.
     999901    1    3    3    0    0 -0.60370462424E-01 -0.21395569986E-01  0.91399917349E-01  0.88704921399E+00  0.88000000000E+00 0.  1.
        -11    1    4    4    0    0  0.25380121528E-01  0.11099316815E-04 -0.62623992594E-01  0.67573487859E-01  0.51100000000E-03 0.  1.
         11    1    4    4    0    0  0.38191345986E-01  0.11374109131E-01 -0.50999637668E-01  0.64723824285E-01  0.51100000000E-03 0. -1.
</event>
<event>
 8    1  0.1074844E+005  0.1043930E+01  0.7957747E-01            NaN
         13   -1    0    0    0    0  0.00000000000E+00  0.00000000000E+00  0.74505805969E-08  0.10566000000E+00  0.10566000000E+00 0. -1.
     999900   -1    0    0    0    0 -0.00000000000E+00 -0.00000000000E+00 -0.74505805969E-08  0.93827000000E+00  0.93827000000E+00 0. -1.
     999902    2    1    2    0    0  0.59049670749E-02 -0.23051363094E-01 -0.55584817816E-02  0.10194937422E+01  0.10192008436E+01 0.  0.
     999903    2    3    3    0    0 -0.25675905339E-02 -0.66943052357E-02  0.12769564284E+00  0.12927129846E+00  0.18801201052E-01 0.  0.
         14    1    1    2    0    0 -0.59049670749E-02  0.23051363094E-01  0.55584817816E-02  0.24436257822E-01  0.00000000000E+00 0.  1.
     999901    1    3    3    0    0  0.84725576088E-02 -0.16357057858E-01 -0.13325412462E+00  0.89022244372E+00  0.88000000000E+00 0. -1.
        -11    1    4    4    0    0  0.41931715666E-02 -0.10271028669E-01  0.96968540218E-01  0.97602436602E-01  0.51100000000E-03 0. -1.
         11    1    4    4    0    0 -0.67607621004E-02  0.35767234332E-02  0.30727102622E-01  0.31668861856E-01  0.51100000000E-03 0.  1.
</event>
<event>
 8    1  0.1074844E+005  0.1043930E+01  0.7957747E-01            NaN
         13   -1    0    0    0    0  0.00000000000E+00  0.00000000000E+00  0.74505805969E-08  0.10566000000E+00  0.10566000000E+00 0. -1.
     999900   -1    0    0    0    0 -0.00000000000E+00 -0.00000000000E+00 -0.74505805969E-08  0.93827000000E+00  0.93827000000E+00 0.  1.
     999902    2    1    2    0    0  0.81095773238E-02  0.20881532634E-01 -0.37131461714E-02  0.10212233687E+01  0.10209708995E+01 0.  0.
     999903    2    3    3    0    0 -0.11119169825E+00 -0.19070394450E-01 -0.61178246569E-01  0.13041969305E+00  0.23221644577E-01 0.  0.
         14    1    1    2    0    0 -0.81095773238E-02 -0.20881532634E-01  0.37131461714E-02  0.22706631278E-01  0.00000000000E+00 0. -1.
     999901    1    3    3    0    0  0.11930127558E+00  0.39951927083E-01  0.57465100397E-01  0.89080367567E+00  0.88000000000E+00 0. -1.
        -11    1    4    4    0    0 -0.35380367547E-01  0.46067828417E-02 -0.21132134658E-01  0.41470725725E-01  0.51100000000E-03 0.  1.
         11    1    4    4    0    0 -0.75811330704E-01 -0.23677177291E-01 -0.40046111910E-01  0.88948967322E-01  0.51100000000E-03 0. -1.
</event>
<event>
 8    1  0.1074844E+005  0.1043930E+01  0.7957747E-01            NaN
         13   -1    0    0    0    0  0.00000000000E+00  0.00000000000E+00  0.74505805969E-08  0.10566000000E+00  0.10566000000E+00 0. -1.
     999900   -1    0    0    0    0 -0.00000000000E+00 -0.00000000000E+00 -0.74505805969E-08  0.93827000000E+00  0.93827000000E+00 0.  1.
     999902    2    1    2    0    0  0.23271579585E-01  0.13691332186E-02 -0.55470849469E-02  0.10199672979E+01  0.10196857740E+01 0.  0.
     999903    2    3    3    0    0  0.55562230614E-01 -0.10744649326E+00  0.46479453174E-01  0.13115331993E+00  0.20222348436E-01 0.  0.
         14    1    1    2    0    0 -0.23271579585E-01 -0.13691332186E-02  0.55470849469E-02  0.23962702134E-01  0.00000000000E+00 0.  1.
     999901    1    3    3    0    0 -0.32290651029E-01  0.10881562648E+00 -0.52026538121E-01  0.88881397794E+00  0.88000000000E+00 0. -1.
        -11    1    4    4    0    0  0.11870283780E-01 -0.37023072132E-01  0.22285457415E-01  0.44816450555E-01  0.51100000000E-03 0. -1.
         11    1    4    4    0    0  0.43691946834E-01 -0.70423421127E-01  0.24193995759E-01  0.86336869373E-01  0.51100000000E-03 0.  1.
</event>
<event>
 8    1  0.1074844E+005  0.1043930E+01  0.7957747E-01            NaN
         13   -1    0    0    0    0  0.00000000000E+00  0.00000000000E+00  0.74505805969E-08  0.10566000000E+00  0.10566000000E+00 0.  1.
     999900   -1    0    0    0    0 -0.00000000000E+00 -0.00000000000E+00 -0.74505805969E-08  0.93827000000E+00  0.93827000000E+00 0.  1.
     999902    2    1    2    0    0  0.19072621266E-01 -0.12894867810E-01 -0.85380199902E-02  0.10193751576E+01  0.10190793746E+01 0.  0.
     999903    2    3    3    0    0 -0.28536791374E-01 -0.22229206571E-01  0.12103654767E+00  0.12856465331E+00  0.23885939803E-01 0.  0.
         14    1    1    2    0    0 -0.19072621266E-01  0.12894867810E-01  0.85380199902E-02  0.24554842357E-01  0.00000000000E+00 0.  1.
     999901    1    3    3    0    0  0.47609412640E-01  0.93343387603E-02 -0.12957456766E+00  0.89081050434E+00  0.88000000000E+00 0.  1.
        -11    1    4    4    0    0 -0.23917846041E-01 -0.16452060728E-01  0.55740451905E-01  0.62848967859E-01  0.51100000000E-03 0. -1.
         11    1    4    4    0    0 -0.46189453327E-02 -0.57771458427E-02  0.65296095769E-01  0.65715685447E-01  0.51100000000E-03 0.  1.
</event>
<event>
 8    1  0.1074844E+005  0.1043930E+01  0.7957747E-01            NaN
         13   -1    0    0    0    0  0.00000000000E+00  0.00000000000E+00  0.74505805969E-08  0.10566000000E+00  0.10566000000E+00 0. -1.
     999900   -1    0    0    0    0 -0.00000000000E+00 -0.00000000000E+00 -0.74505805969E-08  0.93827000000E+00  0.93827000000E+00 0. -1.
     999902    2    1    2    0    0 -0.67527181152E-02  0.77135067682E-02  0.22011537751E-01  0.10196482129E+01  0.10193590501E+01 0.  0.
     999903    2    3    3    0    0 -0.11480198056E+00  0.52430417360E-01 -0.25586509979E-01  0.13063762844E+00  0.21979014239E-01 0.  0.
         14    1    1    2    0    0  0.67527181152E-02 -0.77135067682E-02 -0.22011537751E-01  0.24281787058E-01  0.00000000000E+00 0.  1.
     999901    1    3    3    0    0  0.10804926244E+00 -0.44716910592E-01  0.47598047730E-01  0.88901058450E+00  0.88000000000E+00 0.  1.
        -11    1    4    4    0    0 -0.48347509432E-01  0.16337856270E-01 -0.75915920438E-03  0.51041597345E-01  0.51100000000E-03 0.  1.
         11    1    4    4    0    0 -0.66454471126E-01  0.36092561090E-01 -0.24827350775E-01  0.79596031095E-01  0.51100000000E-03 0. -1.
</event>
<event>
 8    1  0.1074844E+005  0.1043930E+01  0.7957747E-01            NaN
         13   -1    0    0    0    0  0.00000000000E+00  0.00000000000E+00  0.74505805969E-08  0.10566000000E+00  0.10566000000E+00 0.  1.
     999900   -1    0    0    0    0 -0.00000000000E+00 -0.00000000000E+00 -0.74505805969E-08  0.93827000000E+00  0.93827000000E+00 0. -1.
     999902    2    1    2    0    0  0.20668137346E-01  0.21319129902E-02  0.10388451226E-01  0.10206999145E+01  0.10204355338E+01 0.  0.
     999903    2    3    3    0    0  0.12634354565E+00 -0.33001187562E-01  0.19983469534E-01  0.13362962919E+00  0.20143704579E-01 0.  0.
         14    1    1    2    0    0 -0.20668137346E-01 -0.21319129902E-02 -0.10388451226E-01  0.23230085519E-01  0.00000000000E+00 0.  1.
     999901    1    3    3    0    0 -0.10567540830E+00  0.35133100552E-01 -0.95950183077E-02  0.88707028529E+00  0.88000000000E+00 0. -1.
        -11    1    4    4    0    0  0.16456784641E-01 -0.10557786325E-01 -0.74779353145E-03  0.19573270778E-01  0.51100000000E-03 0.  1.
         11    1    4    4    0    0  0.10988676101E+00 -0.22443401237E-01  0.20731263066E-01  0.11405635841E+00  0.51100000000E-03 0. -1.
</event>
<event>
 8    1  0.1074844E+005  0.1043930E+01  0.7957747E-01            NaN
         13   -1    0    0    0    0  0.00000000000E+00  0.00000000000E+00  0.74505805969E-08  0.10566000000E+00  0.10566000000E+00 0.  1.
     999900   -1    0    0    0    0 -0.00000000000E+00 -0.00000000000E+00 -0.74505805969E-08  0.93827000000E+00  0.93827000000E+00 0.  1.
     999902    2    1    2    0    0 -0.26585327203E-01 -0.60896285472E-02  0.18162191047E-02  0.10165957385E+01  0.10162281898E+01 0.  0.
     999903    2    3    3    0    0  0.85244755716E-01 -0.74232322070E-01  0.50304593124E-01  0.12558478655E+00  0.21537885396E-01 0.  0.
         14    1    1    2    0    0  0.26585327203E-01  0.60896285472E-02 -0.18162191047E-02  0.27334261471E-01  0.00000000000E+00 0.  1.
     999901    1    3    3    0    0 -0.11183008292E+00  0.68142693523E-01 -0.48488374019E-01  0.89101095198E+00  0.88000000000E+00 0.  1.
        -11    1    4    4    0    0  0.74369676247E-01 -0.53492004893E-01  0.41295325216E-01  0.10048785169E+00  0.51100000000E-03 0.  1.
         11    1    4    4    0    0  0.10875079469E-01 -0.20740317177E-01  0.90092679078E-02  0.25096934858E-01  0.51100000000E-03 0. -1.
</event>
<event>
 8    1  0.1074844E+005  0.1043930E+01  0.7957747E-01            NaN
         13   -1    0    0    0    0  0.00000000000E+00  0.00000000000E+00  0.74505805969E-08  0.10566000000E+00  0.10566000000E+00 0.  1.
     999900   -1    0    0    0    0 -0.00000000000E+00 -0.00000000000E+00 -0.74505805969E-08  0.93827000000E+00  0.93827000000E+00 0. -1.
     999902    2    1    2    0    0  0.10078818234E-01 -0.69279215390E-02  0.20319645694E-01  0.10202136201E+01  0.10199379216E+01 0.  0.
     999903    2    3    3    0    0 -0.45859100160E-01  0.52620752775E-01  0.10984683437E+00  0.13190612108E+00  0.21468513361E-01 0.  0.
         14    1    1    2    0    0 -0.10078818234E-01  0.69279215390E-02 -0.20319645694E-01  0.23716379888E-01  0.00000000000E+00 0. -1.
     999901    1    3    3    0    0  0.55937918394E-01 -0.59548674314E-01 -0.89527188679E-01  0.88830749903E+00  0.88000000000E+00 0. -1.
        -11    1    4    4    0    0 -0.19549691058E-01  0.35500228519E-01  0.50363504659E-01  0.64646735168E-01  0.51100000000E-03 0.  1.
         11    1    4    4    0    0 -0.26309409102E-01  0.17120524257E-01  0.59483329714E-01  0.67259385910E-01  0.51100000000E-03 0. -1.
</event>
<event>
 8    1  0.1074844E+005  0.1043930E+01  0.7957747E-01            NaN
         13   -1    0    0    0    0  0.00000000000E+00  0.00000000000E+00  0.74505805969E-08  0.10566000000E+00  0.10566000000E+00 0.  1.
     999900   -1    0    0    0    0 -0.00000000000E+00 -0.00000000000E+00 -0.74505805969E-08  0.93827000000E+00  0.93827000000E+00 0. -1.
     999902    2    1    2    0    0 -0.10726041284E-01 -0.10829405199E-01 -0.17557244259E-01  0.10206796064E+01  0.10204147578E+01 0.  0.
     999903    2    3    3    0    0  0.99553945032E-01 -0.82821517621E-01 -0.49125115180E-02  0.13078948454E+00  0.17645530467E-01 0.  0.
         14    1    1    2    0    0  0.10726041284E-01  0.10829405199E-01  0.17557244259E-01  0.23250393643E-01  0.00000000000E+00 0.  1.
     999901    1    3    3    0    0 -0.11027998632E+00  0.71992112423E-01 -0.12644732741E-01  0.88989012181E+00  0.88000000000E+00 0.  1.
        -11    1    4    4    0    0  0.68016872490E-01 -0.59292433555E-01  0.44391479964E-02  0.90342984100E-01  0.51100000000E-03 0. -1.
         11    1    4    4    0    0  0.31537072542E-01 -0.23529084067E-01 -0.93516595144E-02  0.40446500445E-01  0.51100000000E-03 0.  1.
</event>
<event>
 8    1  0.1074844E+005  0.1043930E+01  0.7957747E-01            NaN
         13   -1    0    0    0    0  0.00000000000E+00  0.00000000000E+00  0.74505805969E-08  0.10566000000E+00  0.10566000000E+00 0. -1.
     999900   -1    0    0    0    0 -0.00000000000E+00 -0.00000000000E+00 -0.74505805969E-08  0.93827000000E+00  0.93827000000E+00 0. -1.
     999902    2    1    2    0    0  0.36296861029E-02 -0.20500234302E-01  0.12280792256E-01  0.10197586929E+01  0.10194721868E+01 0.  0.
     999903    2    3    3    0    0  0.68621233983E-01  0.30636441126E-01 -0.10223202034E+00  0.12849439703E+00  0.20296768430E-01 0.  0.
         14    1    1    2    0    0 -0.36296861029E-02  0.20500234302E-01 -0.12280792256E-01  0.24171307082E-01  0.00000000000E+00 0.  1.
     999901    1    3    3    0    0 -0.64991547880E-01 -0.51136675428E-01  0.11451281259E+00  0.89126429588E+00  0.88000000000E+00 0.  1.
        -11    1    4    4    0    0  0.30319633750E-01  0.21536615486E-01 -0.61297398556E-01  0.71698941332E-01  0.51100000000E-03 0.  1.
         11    1    4    4    0    0  0.38301600233E-01  0.90998256399E-02 -0.40934621780E-01  0.56795455702E-01  0.51100000000E-03 0. -1.
</event>
<event>
 8    1  0.1074844E+005  0.1043930E+01  0.7957747E-01            NaN
         13   -1    0    0    0    0  0.00000000000E+00  0.00000000000E+00  0.74505805969E-08  0.10566000000E+00  0.10566000000E+00 0. -1.
     999900   -1    0    0    0    0 -0.00000000000E+00 -0.00000000000E+00 -0.74505805969E-08  0.93827000000E+00  0.93827000000E+00 0. -1.
     999902    2    1    2    0    0  0.45366992596E-02  0.20255688349E-01  0.77749261109E-02  0.10217641698E+01  0.10215237123E+01 0.  0.
     999903    2    3    3    0    0  0.31839446508E-01 -0.30185889250E-01  0.12329430092E+00  0.13236295626E+00  0.19837572648E-01 0.  0.
         14    1    1    2    0    0 -0.45366992596E-02 -0.20255688349E-01 -0.77749261109E-02  0.22165830160E-01  0.00000000000E+00 0.  1.
     999901    1    3    3    0    0 -0.27302747249E-01  0.50441577599E-01 -0.11551937480E+00  0.88940121358E+00  0.88000000000E+00 0. -1.
        -11    1    4    4    0    0 -0.27105527966E-02 -0.10606399344E-02  0.71630688032E-02  0.77487243603E-02  0.51100000000E-03 0.  1.
         11    1    4    4    0    0  0.34549999305E-01 -0.29125249315E-01  0.11613123211E+00  0.12461423190E+00  0.51100000000E-03 0. -1.
</event>
<event>
 8    1  0.1074844E+005  0.1043930E+01  0.7957747E-01            NaN
         13   -1    0    0    0    0  0.00000000000E+00  0.00000000000E+00  0.74505805969E-08  0.10566000000E+00  0.10566000000E+00 0.  1.
     999900   -1    0    0    0    0 -0.00000000000E+00 -0.00000000000E+00 -0.74505805969E-08  0.93827000000E+00  0.93827000000E+00 0. -1.
     999902    2    1    2    0    0  0.21421353933E-01  0.44584371526E-03 -0.97352957527E-02  0.10203959998E+01  0.10201245744E+01 0.  0.
     999903    2    3    3    0    0 -0.68453184186E-01 -0.82992632776E-01  0.67420294852E-01  0.12854825658E+00  0.20138088099E-01 0.  0.
         14    1    1    2    0    0 -0.21421353933E-01 -0.44584371526E-03  0.97352957527E-02  0.23534000177E-01  0.00000000000E+00 0.  1.
     999901    1    3    3    0    0  0.89874538119E-01  0.83438476491E-01 -0.77155590604E-01  0.89184774324E+00  0.88000000000E+00 0. -1.
        -11    1    4    4    0    0 -0.24978293427E-01 -0.25377567397E-01  0.33124371262E-01  0.48635595627E-01  0.51100000000E-03 0.  1.
         11    1    4    4    0    0 -0.43474890759E-01 -0.57615065379E-01  0.34295923590E-01  0.79912660956E-01  0.51100000000E-03 0. -1.
</event>
<event>
 8    1  0.1074844E+005  0.1043930E+01  0.7957747E-01            NaN
         13   -1    0    0    0    0  0.00000000000E+00  0.00000000000E+00  0.74505805969E-08  0.10566000000E+00  0.10566000000E+00 0.  1.
     999900   -1    0    0    0    0 -0.00000000000E+00 -0.00000000000E+00 -0.74505805969E-08  0.93827000000E+00  0.93827000000E+00 0.  1.
     999902    2    1    2    0    0  0.10686810493E-01 -0.19493942023E-01 -0.87200097573E-02  0.10200498772E+01  0.10197703132E+01 0.  0.
     999903    2    3    3    0    0 -0.11750970171E+00  0.46174566623E-01  0.86107509912E-02  0.12817149199E+00  0.20326478446E-01 0.  0.
         14    1    1    2    0    0 -0.10686810493E-01  0.19493942023E-01  0.87200097573E-02  0.23880122786E-01  0.00000000000E+00 0.  1.
     999901    1    3    3    0    0  0.12819651220E+00 -0.65668508646E-01 -0.17330760748E-01  0.89187838523E+00  0.88000000000E+00 0. -1.
        -11    1    4    4    0    0 -0.43258969002E-01  0.27632600102E-01  0.44361080206E-02  0.51525131372E-01  0.51100000000E-03 0.  1.
         11    1    4    4    0    0 -0.74250732710E-01  0.18541966520E-01  0.41746429705E-02  0.76646360614E-01  0.51100000000E-03 0. -1.
</event>
<event>
 8    1  0.1074844E+005  0.1043930E+01  0.7957747E-01            NaN
         13   -1    0    0    0    0  0.00000000000E+00  0.00000000000E+00  0.74505805969E-08  0.10566000000E+00  0.10566000000E+00 0.  1.
     999900   -1    0    0    0    0 -0.00000000000E+00 -0.00000000000E+00 -0.74505805969E-08  0.93827000000E+00  0.93827000000E+00 0. -1.
     999902    2    1    2    0    0 -0.17914732607E-01 -0.39258839573E-02 -0.13844853122E-01  0.10209510930E+01  0.10206924630E+01 0.  0.
     999903    2    3    3    0    0  0.10268474000E+00  0.23358815536E-01  0.70658708190E-01  0.12829800277E+00  0.19440534427E-01 0.  0.
         14    1    1    2    0    0  0.17914732607E-01  0.39258839573E-02  0.13844853122E-01  0.22978907006E-01  0.00000000000E+00 0. -1.
     999901    1    3    3    0    0 -0.12059947261E+00 -0.27284699493E-01 -0.84503561312E-01  0.89265309023E+00  0.88000000000E+00 0. -1.
        -11    1    4    4    0    0  0.44074289929E-01  0.18584516895E-02  0.35653071721E-01  0.56722125485E-01  0.51100000000E-03 0. -1.
         11    1    4    4    0    0  0.58610450069E-01  0.21500363846E-01  0.35005636469E-01  0.71575877281E-01  0.51100000000E-03 0.  1.
</event>
<event>
 8    1  0.1074844E+005  0.1043930E+01  0.7957747E-01            NaN
         13   -1    0    0    0    0  0.00000000000E+00  0.00000000000E+00  0.74505805969E-08  0.10566000000E+00  0.10566000000E+00 0. -1.
     999900   -1    0    0    0    0 -0.00000000000E+00 -0.00000000000E+00 -0.74505805969E-08  0.93827000000E+00  0.93827000000E+00 0.  1.
     999902    2    1    2    0    0 -0.12576387975E-01 -0.18938077703E-01 -0.68934618009E-02  0.10201742399E+01  0.10198976143E+01 0.  0.
     999903    2    3    3    0    0 -0.11245136279E+00 -0.55468587032E-01 -0.40066063925E-01  0.13315117920E+00  0.20046792841E-01 0.  0.
         14    1    1    2    0    0  0.12576387975E-01  0.18938077703E-01  0.68934618009E-02  0.23755760084E-01  0.00000000000E+00 0.  1.
     999901    1    3    3    0    0  0.99874974817E-01  0.36530509330E-01  0.33172602124E-01  0.88702306071E+00  0.88000000000E+00 0.  1.
        -11    1    4    4    0    0 -0.68999390509E-01 -0.24445525980E-01 -0.28259314266E-01  0.78468781021E-01  0.51100000000E-03 0.  1.
         11    1    4    4    0    0 -0.43451972283E-01 -0.31023061052E-01 -0.11806749659E-01  0.54682398181E-01  0.51100000000E-03 0. -1.
</event>
<event>
 8    1  0.1074844E+005  0.1043930E+01  0.7957747E-01            NaN
         13   -1    0    0    0    0  0.00000000000E+00  0.00000000000E+00  0.74505805969E-08  0.10566000000E+00  0.10566000000E+00 0.  1.
     999900   -1    0    0    0    0 -0.00000000000E+00 -0.00000000000E+00 -0.74505805969E-08  0.93827000000E+00  0.93827000000E+00 0. -1.
     999902    2    1    2    0    0 -0.10980507052E-01 -0.13193596737E-01 -0.15348925866E-01  0.10209032318E+01  0.10206435110E+01 0.  0.
     999903    2    3    3    0    0  0.12384906045E+00 -0.33261609273E-01  0.69061907944E-02  0.13012995668E+00  0.21004421618E-01 0.  0.
         14    1    1    2    0    0  0.10980507052E-01  0.13193596737E-01  0.15348925866E-01  0.23026768232E-01  0.00000000000E+00 0.  1.
     999901    1    3    3    0    0 -0.13482956750E+00  0.20068012536E-01 -0.22255116661E-01  0.89077327509E+00  0.88000000000E+00 0.  1.
        -11    1    4    4    0    0  0.83172458784E-01 -0.28345712761E-01 -0.31875549757E-02  0.87929283859E-01  0.51100000000E-03 0. -1.
         11    1    4    4    0    0  0.40676601666E-01 -0.49158965115E-02  0.10093745770E-01  0.42200672817E-01  0.51100000000E-03 0.  1.
</event>
<event>
 8    1  0.1074844E+005  0.1043930E+01  0.7957747E-01            NaN
         13   -1    0    0    0    0  0.00000000000E+00  0.00000000000E+00  0.74505805969E-08  0.10566000000E+00  0.10566000000E+00 0. -1.
     999900   -1    0    0    0    0 -0.00000000000E+00 -0.00000000000E+00 -0.74505805969E-08  0.93827000000E+00  0.93827000000E+00 0. -1.
     999902    2    1    2    0    0  0.15822221247E-01  0.14065877058E-01 -0.99989851613E-02  0.10205169420E+01  0.10202483313E+01 0.  0.
     999903    2    3    3    0    0 -0.21552040009E-01  0.69539099487E-01  0.10734663059E+00  0.13021131615E+00  0.11467823135E-01 0.  0.
         14    1    1    2    0    0 -0.15822221247E-01 -0.14065877058E-01  0.99989851613E-02  0.23413058042E-01  0.00000000000E+00 0.  1.
     999901    1    3    3    0    0  0.37374261256E-01 -0.55473222429E-01 -0.11734561575E+00  0.89030562581E+00  0.88000000000E+00 0.  1.
        -11    1    4    4    0    0 -0.11299336695E-01  0.20123851901E-01  0.29978979678E-01  0.37837081925E-01  0.51100000000E-03 0.  1.
         11    1    4    4    0    0 -0.10252703314E-01  0.49415247586E-01  0.77367650915E-01  0.92374234223E-01  0.51100000000E-03 0. -1.
</event>
<event>
 8    1  0.1074844E+005  0.1043930E+01  0.7957747E-01            NaN
         13   -1    0    0    0    0  0.00000000000E+00  0.00000000000E+00  0.74505805969E-08  0.10566000000E+00  0.10566000000E+00 0.  1.
     999900   -1    0    0    0    0 -0.00000000000E+00 -0.00000000000E+00 -0.74505805969E-08  0.93827000000E+00  0.93827000000E+00 0. -1.
     999902    2    1    2    0    0 -0.85766989063E-02  0.21495561581E-01 -0.75718921663E-02  0.10195793843E+01  0.10192885600E+01 0.  0.
     999903    2    3    3    0    0  0.34680049750E-01  0.27919858019E-01 -0.12179092280E+00  0.13112094140E+00  0.19428022873E-01 0.  0.
         14    1    1    2    0    0  0.85766989063E-02 -0.21495561581E-01  0.75718921663E-02  0.24350615655E-01  0.00000000000E+00 0.  1.
     999901    1    3    3    0    0 -0.43256748656E-01 -0.64242964380E-02  0.11421903064E+00  0.88845844295E+00  0.88000000000E+00 0.  1.
        -11    1    4    4    0    0  0.75837859109E-02  0.74054497568E-02 -0.56754123480E-01  0.57737735908E-01  0.51100000000E-03 0.  1.
         11    1    4    4    0    0  0.27096263839E-01  0.20514408262E-01 -0.65036799323E-01  0.73383205487E-01  0.51100000000E-03 0. -1.
</event>
<event>
 8    1  0.1074844E+005  0.1043930E+01  0.7957747E-01            NaN
         13   -1    0    0    0    0  0.00000000000E+00  0.00000000000E+00  0.74505805969E-08  0.10566000000E+00  0.10566000000E+00 0. -1.
     999900   -1    0    0    0    0 -0.00000000000E+00 -0.00000000000E+00 -0.74505805969E-08  0.93827000000E+00  0.93827000000E+00 0.  1.
     999902    2    1    2    0    0 -0.13473263985E-01  0.53459804555E-02  0.20992936135E-01  0.10184189883E+01  0.10180994176E+01 0.  0.
     999903    2    3    3    0    0  0.39520477593E-01  0.65402731747E-01  0.10426741911E+00  0.13086629155E+00  0.20369244140E-01 0.  0.
         14    1    1    2    0    0  0.13473263985E-01 -0.53459804555E-02 -0.20992936135E-01  0.25511011681E-01  0.00000000000E+00 0.  1.
     999901    1    3    3    0    0 -0.52993741579E-01 -0.60056751292E-01 -0.83274482978E-01  0.88755269677E+00  0.88000000000E+00 0.  1.
        -11    1    4    4    0    0  0.56156728172E-02  0.15295881011E-01  0.36770896316E-01  0.40222626642E-01  0.51100000000E-03 0. -1.
         11    1    4    4    0    0  0.33904804776E-01  0.50106850736E-01  0.67496522797E-01  0.90643664910E-01  0.51100000000E-03 0.  1.
</event>
<event>
 8    1  0.1074844E+005  0.1043930E+01  0.7957747E-01            NaN
         13   -1    0    0    0    0  0.00000000000E+00  0.00000000000E+00  0.74505805969E-08  0.10566000000E+00  0.10566000000E+00 0.  1.
     999900   -1    0    0    0    0 -0.00000000000E+00 -0.00000000000E+00 -0.74505805969E-08  0.93827000000E+00  0.93827000000E+00 0. -1.
     999902    2    1    2    0    0  0.55738731726E-02 -0.36084091337E-02 -0.22673649793E-01  0.10203041016E+01  0.10200305274E+01 0.  0.
     999903    2    3    3    0    0  0.12589841055E+00 -0.28228523641E-01  0.12960869052E-01  0.13106062358E+00  0.19016929272E-01 0.  0.
         14    1    1    2    0    0 -0.55738731726E-02  0.36084091337E-02  0.22673649793E-01  0.23625898365E-01  0.00000000000E+00 0. -1.
     999901    1    3    3    0    0 -0.12032453738E+00  0.24620114508E-01 -0.35634518845E-01  0.88924347806E+00  0.88000000000E+00 0. -1.
        -11    1    4    4    0    0  0.20703327267E-01 -0.11874571975E-01  0.42186290898E-02  0.24242342542E-01  0.51100000000E-03 0.  1.
         11    1    4    4    0    0  0.10519508329E+00 -0.16353951666E-01  0.87422399619E-02  0.10681828104E+00  0.51100000000E-03 0. -1.
</event>
<event>
 8    1  0.1074844E+005  0.1043930E+01  0.7957747E-01            NaN
         13   -1    0    0    0    0  0.00000000000E+00  0.00000000000E+00  0.74505805969E-08  0.10566000000E+00  0.10566000000E+00 0.  1.
     999900   -1    0    0    0    0 -0.00000000000E+00 -0.00000000000E+00 -0.74505805969E-08  0.93827000000E+00  0.93827000000E+00 0.  1.
     999902    2    1    2    0    0  0.19443702672E-01  0.12850046636E-01  0.30950138437E-02  0.10204191433E+01  0.10201482577E+01 0.  0.
     999903    2    3    3    0    0  0.11814652827E+00  0.50179848992E-01 -0.31266639504E-01  0.13344874630E+00  0.18824073885E-01 0.  0.
         14    1    1    2    0    0 -0.19443702672E-01 -0.12850046636E-01 -0.30950138437E-02  0.23510856702E-01  0.00000000000E+00 0. -1.
     999901    1    3    3    0    0 -0.98702825595E-01 -0.37329802356E-01  0.34361653347E-01  0.88697039699E+00  0.88000000000E+00 0.  1.
        -11    1    4    4    0    0  0.55732855221E-01  0.14929996718E-01 -0.18837605725E-01  0.60697384322E-01  0.51100000000E-03 0.  1.
         11    1    4    4    0    0  0.62413673046E-01  0.35249852274E-01 -0.12429033778E-01  0.72751361981E-01  0.51100000000E-03 0. -1.
</event>
<event>
 8    1  0.1074844E+005  0.1043930E+01  0.7957747E-01            NaN
         13   -1    0    0    0    0  0.00000000000E+00  0.00000000000E+00  0.74505805969E-08  0.10566000000E+00  0.10566000000E+00 0.  1.
     999900   -1    0    0    0    0 -0.00000000000E+00 -0.00000000000E+00 -0.74505805969E-08  0.93827000000E+00  0.93827000000E+00 0.  1.
     999902    2    1    2    0    0  0.14800839704E-01  0.12608122128E-01  0.12902549563E-01  0.10205953608E+01  0.10203285673E+01 0.  0.
     999903    2    3    3    0    0 -0.95943182762E-01 -0.43703334507E-02 -0.82768593112E-01  0.12834793215E+00  0.19958896457E-01 0.  0.
         14    1    1    2    0    0 -0.14800839704E-01 -0.12608122128E-01 -0.12902549563E-01  0.23334639161E-01  0.00000000000E+00 0.  1.
     999901    1    3    3    0    0  0.11074402247E+00  0.16978455579E-01  0.95671142674E-01  0.89224742869E+00  0.88000000000E+00 0. -1.
        -11    1    4    4    0    0 -0.56576440650E-01 -0.65773713302E-03 -0.61021642228E-01  0.83217955971E-01  0.51100000000E-03 0. -1.
         11    1    4    4    0    0 -0.39366742113E-01 -0.37125963176E-02 -0.21746950884E-01  0.45129976177E-01  0.51100000000E-03 0.  1.
</event>
<event>
 8    1  0.1074844E+005  0.1043930E+01  0.7957747E-01            NaN
         13   -1    0    0    0    0  0.00000000000E+00  0.00000000000E+00  0.74505805969E-08  0.10566000000E+00  0.10566000000E+00 0.  1.
     999900   -1    0    0    0    0 -0.00000000000E+00 -0.00000000000E+00 -0.74505805969E-08  0.93827000000E+00  0.93827000000E+00 0. -1.
     999902    2    1    2    0    0 -0.14011232176E-01  0.16643282240E-01 -0.19733634453E-01  0.10145577376E+01  0.10141324731E+01 0.  0.
     999903    2    3    3    0    0 -0.11097503772E+00  0.30269081989E-01 -0.53639164048E-01  0.12847804199E+00  0.19944197934E-01 0.  0.
         14    1    1    2    0    0  0.14011232176E-01 -0.16643282240E-01  0.19733634453E-01  0.29372262418E-01  0.00000000000E+00 0. -1.
     999901    1    3    3    0    0  0.96963805548E-01 -0.13625799748E-01  0.33905529596E-01  0.88607969559E+00  0.88000000000E+00 0.  1.
        -11    1    4    4    0    0 -0.74983489013E-01  0.29023499881E-01 -0.32576693256E-01  0.86754764909E-01  0.51100000000E-03 0.  1.
         11    1    4    4    0    0 -0.35991548711E-01  0.12455821074E-02 -0.21062470793E-01  0.41723277080E-01  0.51100000000E-03 0. -1.
</event>
<event>
 8    1  0.1074844E+005  0.1043930E+01  0.7957747E-01            NaN
         13   -1    0    0    0    0  0.00000000000E+00  0.00000000000E+00  0.74505805969E-08  0.10566000000E+00  0.10566000000E+00 0.  1.
     999900   -1    0    0    0    0 -0.00000000000E+00 -0.00000000000E+00 -0.74505805969E-08  0.93827000000E+00  0.93827000000E+00 0. -1.
     999902    2    1    2    0    0  0.21620651603E-01 -0.96692567346E-02 -0.10546790251E-02  0.10202222070E+01  0.10199467105E+01 0.  0.
     999903    2    3    3    0    0  0.11743230026E+00  0.56999544098E-01 -0.60225852968E-02  0.13250080863E+00  0.21929422732E-01 0.  0.
         14    1    1    2    0    0 -0.21620651603E-01  0.96692567346E-02  0.10546790251E-02  0.23707793009E-01  0.00000000000E+00 0.  1.
     999901    1    3    3    0    0 -0.95811648656E-01 -0.66668800833E-01  0.49679062717E-02  0.88772139837E+00  0.88000000000E+00 0.  1.
        -11    1    4    4    0    0  0.18782974660E-01  0.75375993085E-02 -0.88814366693E-02  0.22107839757E-01  0.51100000000E-03 0.  1.
         11    1    4    4    0    0  0.98649325598E-01  0.49461944790E-01  0.28588513724E-02  0.11039296887E+00  0.51100000000E-03 0. -1.
</event>
<event>
 8    1  0.1074844E+005  0.1043930E+01  0.7957747E-01            NaN
         13   -1    0    0    0    0  0.00000000000E+00  0.00000000000E+00  0.74505805969E-08  0.10566000000E+00  0.10566000000E+00 0.  1.
     999900   -1    0    0    0    0 -0.00000000000E+00 -0.00000000000E+00 -0.74505805969E-08  0.93827000000E+00  0.93827000000E+00 0.  1.
     999902    2    1    2    0    0 -0.21536738864E-01 -0.84009493055E-02  0.19657010321E-02  0.10207293308E+01  0.10204656269E+01 0.  0.
     999903    2    3    3    0    0 -0.80181571774E-01 -0.83585879005E-01  0.63316544822E-01  0.13345489970E+00  0.19635217946E-01 0.  0.
         14    1    1    2    0    0  0.21536738864E-01  0.84009493055E-02 -0.19657010321E-02  0.23200669186E-01  0.00000000000E+00 0. -1.
     999901    1    3    3    0    0  0.58644832910E-01  0.75184929699E-01 -0.61350843790E-01  0.88727443112E+00  0.88000000000E+00 0.  1.
        -11    1    4    4    0    0 -0.30696346584E-01 -0.46114758295E-01  0.30508222654E-01  0.63244362569E-01  0.51100000000E-03 0. -1.
         11    1    4    4    0    0 -0.49485225190E-01 -0.37471120709E-01  0.32808322167E-01  0.70210537128E-01  0.51100000000E-03 0.  1.
</event>
<event>
 8    1  0.1074844E+005  0.1043930E+01  0.7957747E-01            NaN
         13   -1    0    0    0    0  0.00000000000E+00  0.00000000000E+00  0.74505805969E-08  0.10566000000E+00  0.10566000000E+00 0.  1.
     999900   -1    0    0    0    0 -0.00000000000E+00 -0.00000000000E+00 -0.74505805969E-08  0.93827000000E+00  0.93827000000E+00 0.  1.
     999902    2    1    2    0    0  0.20731152838E-02 -0.22106223756E-01 -0.71194255875E-02  0.10206132859E+01  0.10203469068E+01 0.  0.
     999903    2    3    3    0    0 -0.12102120748E+00 -0.21449248480E-01  0.39864452534E-01  0.13080424531E+00  0.20356156218E-01 0.  0.
         14    1    1    2    0    0 -0.20731152838E-02  0.22106223756E-01  0.71194255875E-02  0.23316714100E-01  0.00000000000E+00 0. -1.
     999901    1    3    3    0    0  0.12309432276E+00 -0.65697527586E-03 -0.46983878122E-01  0.88980904059E+00  0.88000000000E+00 0.  1.
        -11    1    4    4    0    0 -0.16975612180E-01 -0.33663255831E-02  0.13504573603E-01  0.21957645275E-01  0.51100000000E-03 0.  1.
         11    1    4    4    0    0 -0.10404559530E+00 -0.18082922897E-01  0.26359878932E-01  0.10884660004E+00  0.51100000000E-03 0. -1.
</event>
<event>
 8    1  0.1074844E+005  0.1043930E+01  0.7957747E-01            NaN
         13   -1    0    0    0    0  0.00000000000E+00  0.00000000000E+00  0.74505805969E-08  0.10566000000E+00  0.10566000000E+00 0. -1.
     999900   -1    0    0    0    0 -0.00000000000E+00 -0.00000000000E+00 -0.74505805969E-08  0.93827000000E+00  0.93827000000E+00 0. -1.
     999902    2    1    2    0    0 -0.14469175985E-01 -0.12977525011E-01  0.12181855798E-01  0.10209915864E+01  0.10207338775E+01 0.  0.
     999903    2    3    3    0    0 -0.12176398903E-01 -0.34596669039E-01 -0.12330538322E+00  0.13035729770E+00  0.21062130347E-01 0.  0.
         14    1    1    2    0    0  0.14469175985E-01  0.12977525011E-01 -0.12181855798E-01  0.22938413628E-01  0.00000000000E+00 0.  1.
     999901    1    3    3    0    0 -0.22927770814E-02  0.21619144027E-01  0.13548723902E+00  0.89063428867E+00  0.88000000000E+00 0.  1.
        -11    1    4    4    0    0 -0.38770083504E-02 -0.33043031557E-01 -0.88771516181E-01  0.94802512278E-01  0.51100000000E-03 0. -1.
         11    1    4    4    0    0 -0.82993905529E-02 -0.15536374820E-02 -0.34533867039E-01  0.35554785425E-01  0.51100000000E-03 0.  1.
</event>
<event>
 8    1  0.1074844E+005  0.1043930E+01  0.7957747E-01            NaN
         13   -1    0    0    0    0  0.00000000000E+00  0.00000000000E+00  0.74505805969E-08  0.10566000000E+00  0.10566000000E+00 0.  1.
     999900   -1    0    0    0    0 -0.00000000000E+00 -0.00000000000E+00 -0.74505805969E-08  0.93827000000E+00  0.93827000000E+00 0. -1.
     999902    2    1    2    0    0  0.16696341640E-01  0.68387208642E-02  0.14707993191E-01  0.10206520922E+01  0.10203866093E+01 0.  0.
     999903    2    3    3    0    0  0.14192227648E-01  0.71447929589E-01  0.10967181605E+00  0.13318448825E+00  0.20099121992E-01 0.  0.
         14    1    1    2    0    0 -0.16696341640E-01 -0.68387208642E-02 -0.14707993191E-01  0.23277907787E-01  0.00000000000E+00 0. -1.
     999901    1    3    3    0    0  0.25041139917E-02 -0.64609208725E-01 -0.94963822862E-01  0.88746760397E+00  0.88000000000E+00 0. -1.
        -11    1    4    4    0    0 -0.14042660064E-02  0.39034776703E-01  0.64918102326E-01  0.75764812980E-01  0.51100000000E-03 0.  1.
         11    1    4    4    0    0  0.15596493654E-01  0.32413152886E-01  0.44753713727E-01  0.57419675266E-01  0.51100000000E-03 0. -1.
</event>
<event>
 8    1  0.1074844E+005  0.1043930E+01  0.7957747E-01            NaN
         13   -1    0    0    0    0  0.00000000000E+00  0.00000000000E+00  0.74505805969E-08  0.10566000000E+00  0.10566000000E+00 0.  1.
     999900   -1    0    0    0    0 -0.00000000000E+00 -0.00000000000E+00 -0.74505805969E-08  0.93827000000E+00  0.93827000000E+00 0.  1.
     999902    2    1    2    0    0  0.88275264505E-02  0.13892010322E-01 -0.16858927689E-01  0.10203686627E+01  0.10200965989E+01 0.  0.
     999903    2    3    3    0    0 -0.82878852237E-01 -0.44520411137E-01  0.84334532024E-01  0.12792136049E+00  0.20014745132E-01 0.  0.
         14    1    1    2    0    0 -0.88275264505E-02 -0.13892010322E-01  0.16858927689E-01  0.23561337331E-01  0.00000000000E+00 0.  1.
     999901    1    3    3    0    0  0.91706378687E-01  0.58412421459E-01 -0.10119345971E+00  0.89244730218E+00  0.88000000000E+00 0.  1.
        -11    1    4    4    0    0 -0.57740460394E-01 -0.33302856627E-01  0.47126859651E-01  0.81634815168E-01  0.51100000000E-03 0.  1.
         11    1    4    4    0    0 -0.25138391843E-01 -0.11217554510E-01  0.37207672374E-01  0.46286545325E-01  0.51100000000E-03 0. -1.
</event>
<event>
 8    1  0.1074844E+005  0.1043930E+01  0.7957747E-01            NaN
         13   -1    0    0    0    0  0.00000000000E+00  0.00000000000E+00  0.74505805969E-08  0.10566000000E+00  0.10566000000E+00 0. -1.
     999900   -1    0    0    0    0 -0.00000000000E+00 -0.00000000000E+00 -0.74505805969E-08  0.93827000000E+00  0.93827000000E+00 0. -1.
     999902    2    1    2    0    0 -0.71887303218E-02  0.19603311048E-01 -0.11810188302E-01  0.10199414987E+01  0.10196593610E+01 0.  0.
     999903    2    3    3    0    0 -0.38823954038E-01 -0.32924423992E-01  0.11608361402E+00  0.12858479399E+00  0.21617740383E-01 0.  0.
         14    1    1    2    0    0  0.71887303218E-02 -0.19603311048E-01  0.11810188302E-01  0.23988501316E-01  0.00000000000E+00 0.  1.
     999901    1    3    3    0    0  0.31635223716E-01  0.52527735040E-01 -0.12789380232E+00  0.89135670469E+00  0.88000000000E+00 0. -1.
        -11    1    4    4    0    0 -0.15870557009E-01 -0.14367561663E-01  0.25427969964E-01  0.33243708960E-01  0.51100000000E-03 0.  1.
         11    1    4    4    0    0 -0.22953397029E-01 -0.18556862330E-01  0.90655644056E-01  0.95341085031E-01  0.51100000000E-03 0. -1.
</event>
<event>
 8    1  0.1074844E+005  0.1043930E+01  0.7957747E-01            NaN
         13   -1    0    0    0    0  0.00000000000E+00  0.00000000000E+00  0.74505805969E-08  0.10566000000E+00  0.10566000000E+00 0.  1.
     999900   -1    0    0    0    0 -0.00000000000E+00 -0.00000000000E+00 -0.74505805969E-08  0.93827000000E+00  0.93827000000E+00 0. -1.
     999902    2    1    2    0    0 -0.16566660258E-01 -0.14799754391E-01 -0.83346347139E-02  0.10202033673E+01  0.10199274276E+01 0.  0.
     999903    2    3    3    0    0 -0.40591016653E-01 -0.66933392870E-02  0.12194114706E+00  0.13025131076E+00  0.20083057190E-01 0.  0.
         14    1    1    2    0    0  0.16566660258E-01  0.14799754391E-01  0.83346347139E-02  0.23726632672E-01  0.00000000000E+00 0.  1.
     999901    1    3    3    0    0  0.24024356395E-01 -0.81064151045E-02 -0.13027578177E+00  0.88995205656E+00  0.88000000000E+00 0. -1.
        -11    1    4    4    0    0 -0.22944781068E-01  0.62480902000E-02  0.59093824046E-01  0.63701199132E-01  0.51100000000E-03 0.  1.
         11    1    4    4    0    0 -0.17646235585E-01 -0.12941429487E-01  0.62847323012E-01  0.66550111632E-01  0.51100000000E-03 0. -1.
</event>
<event>
 8    1  0.1074844E+005  0.1043930E+01  0.7957747E-01            NaN
         13   -1    0    0    0    0  0.00000000000E+00  0.00000000000E+00  0.74505805969E-08  0.10566000000E+00  0.10566000000E+00 0. -1.
     999900   -1    0    0    0    0 -0.00000000000E+00 -0.00000000000E+00 -0.74505805969E-08  0.93827000000E+00  0.93827000000E+00 0.  1.
     999902    2    1    2    0    0  0.18692866469E-01  0.13521599898E-01 -0.17155175017E-02  0.10207956117E+01  0.10205334296E+01 0.  0.
     999903    2    3    3    0    0 -0.38670193089E-01  0.48148951149E-01  0.11353546265E+00  0.13075495957E+00  0.19820515738E-01 0.  0.
         14    1    1    2    0    0 -0.18692866469E-01 -0.13521599898E-01  0.17155175017E-02  0.23134388277E-01  0.00000000000E+00 0. -1.
     999901    1    3    3    0    0  0.57363059559E-01 -0.34627351250E-01 -0.11525098015E+00  0.89004065215E+00  0.88000000000E+00 0. -1.
        -11    1    4    4    0    0 -0.23603335077E-01  0.42729047468E-01  0.84054968760E-01  0.97202817956E-01  0.51100000000E-03 0.  1.
         11    1    4    4    0    0 -0.15066858012E-01  0.54199036802E-02  0.29480493886E-01  0.33552141616E-01  0.51100000000E-03 0. -1.
</event>
<event>
 7    1  0.1074844E+005  0.1043930E+01  0.7957747E-01            NaN
         13   -1    0    0    0    0  0.00000000000E+00  0.00000000000E+00  0.74505805969E-08  0.10566000000E+00  0.10566000000E+00 0.  1.
     999900   -1    0    0    0    0 -0.00000000000E+00 -0.00000000000E+00 -0.74505805969E-08  0.93827000000E+00  0.93827000000E+00 0.  1.
     999903    2    1    2    0    0  0.44791163092E-02 -0.73747565878E-01  0.37212777193E-01  0.85063510594E-01  0.19805153176E-01 0.  0.
         14    1    1    2    0    0 -0.53879796980E-01 -0.97716938867E-02 -0.48960049114E-01  0.73454781555E-01  0.00000000000E+00 0. -1.
     999901    1    1    2    0    0  0.49400680671E-01  0.83519259765E-01  0.11747271921E-01  0.88541170785E+00  0.88000000000E+00 0.  1.
        -11    1    3    3    0    0 -0.34157950941E-02 -0.22374678500E-01  0.20285204450E-01  0.30398100840E-01  0.51100000000E-03 0. -1.
         11    1    3    3    0    0  0.78949114033E-02 -0.51372887378E-01  0.16927572743E-01  0.54665409754E-01  0.51100000000E-03 0.  1.
</event>
<event>
 8    1  0.1074844E+005  0.1043930E+01  0.7957747E-01            NaN
         13   -1    0    0    0    0  0.00000000000E+00  0.00000000000E+00  0.74505805969E-08  0.10566000000E+00  0.10566000000E+00 0.  1.
     999900   -1    0    0    0    0 -0.00000000000E+00 -0.00000000000E+00 -0.74505805969E-08  0.93827000000E+00  0.93827000000E+00 0.  1.
     999902    2    1    2    0    0 -0.18791783239E-01 -0.10851670242E-01  0.18710119486E-01  0.10152776278E+01  0.10148732448E+01 0.  0.
     999903    2    3    3    0    0  0.10113604917E+00  0.54768331032E-01  0.43745959781E-01  0.12437052662E+00  0.18062346680E-01 0.  0.
         14    1    1    2    0    0  0.18791783239E-01  0.10851670242E-01 -0.18710119486E-01  0.28652372249E-01  0.00000000000E+00 0.  1.
     999901    1    3    3    0    0 -0.11992783241E+00 -0.65620001274E-01 -0.25035840295E-01  0.89090710114E+00  0.88000000000E+00 0. -1.
        -11    1    4    4    0    0  0.54821947159E-01  0.38671316725E-01  0.20865383274E-01  0.70260529231E-01  0.51100000000E-03 0. -1.
         11    1    4    4    0    0  0.46314102011E-01  0.16097014307E-01  0.22880576507E-01  0.54109997385E-01  0.51100000000E-03 0.  1.
</event>
<event>
 8    1  0.1074844E+005  0.1043930E+01  0.7957747E-01            NaN
         13   -1    0    0    0    0  0.00000000000E+00  0.00000000000E+00  0.74505805969E-08  0.10566000000E+00  0.10566000000E+00 0.  1.
     999900   -1    0    0    0    0 -0.00000000000E+00 -0.00000000000E+00 -0.74505805969E-08  0.93827000000E+00  0.93827000000E+00 0. -1.
     999902    2    1    2    0    0  0.20960328403E-01  0.51613783204E-02 -0.80039299498E-02  0.10209074439E+01  0.10206478193E+01 0.  0.
     999903    2    3    3    0    0  0.97130606906E-01 -0.87908151295E-01  0.53176978541E-02  0.13262746868E+00  0.19989239038E-01 0.  0.
         14    1    1    2    0    0 -0.20960328403E-01 -0.51613783204E-02  0.80039299498E-02  0.23022556061E-01  0.00000000000E+00 0.  1.
     999901    1    3    3    0    0 -0.76170278502E-01  0.93069529615E-01 -0.13321627804E-01  0.88827997525E+00  0.88000000000E+00 0.  1.
        -11    1    4    4    0    0  0.84325391814E-01 -0.83556841352E-01  0.73567803205E-02  0.11894074482E+00  0.51100000000E-03 0.  1.
         11    1    4    4    0    0  0.12805215092E-01 -0.43513099423E-02 -0.20390824664E-02  0.13686723862E-01  0.51100000000E-03 0. -1.
</event>
<event>
 8    1  0.1074844E+005  0.1043930E+01  0.7957747E-01            NaN
         13   -1    0    0    0    0  0.00000000000E+00  0.00000000000E+00  0.74505805969E-08  0.10566000000E+00  0.10566000000E+00 0.  1.
     999900   -1    0    0    0    0 -0.00000000000E+00 -0.00000000000E+00 -0.74505805969E-08  0.93827000000E+00  0.93827000000E+00 0. -1.
     999902    2    1    2    0    0  0.17805621434E-01  0.15557838209E-01 -0.12423954372E-02  0.10202523728E+01  0.10199775851E+01 0.  0.
     999903    2    3    3    0    0  0.11303465018E+00 -0.16518453348E-01 -0.64075494307E-01  0.13230786173E+00  0.18708550515E-01 0.  0.
         14    1    1    2    0    0 -0.17805621434E-01 -0.15557838209E-01  0.12423954372E-02  0.23677627221E-01  0.00000000000E+00 0. -1.
     999901    1    3    3    0    0 -0.95229028742E-01  0.32076291558E-01  0.62833098870E-01  0.88794451105E+00  0.88000000000E+00 0.  1.
        -11    1    4    4    0    0  0.73449181300E-01 -0.17026065388E-01 -0.34654194698E-01  0.82980982565E-01  0.51100000000E-03 0. -1.
         11    1    4    4    0    0  0.39585468876E-01  0.50761203925E-03 -0.29421299609E-01  0.49326879161E-01  0.51100000000E-03 0.  1.
</event>
<event>
 8    1  0.1074844E+005  0.1043930E+01  0.7957747E-01            NaN
         13   -1    0    0    0    0  0.00000000000E+00  0.00000000000E+00  0.74505805969E-08  0.10566000000E+00  0.10566000000E+00 0.  1.
     999900   -1    0    0    0    0 -0.00000000000E+00 -0.00000000000E+00 -0.74505805969E-08  0.93827000000E+00  0.93827000000E+00 0.  1.
     999902    2    1    2    0    0 -0.10654988500E-01 -0.20294932588E-01 -0.47487302535E-02  0.10205213796E+01  0.10202528720E+01 0.  0.
     999903    2    3    3    0    0 -0.48931978925E-02 -0.70817537106E-01 -0.11037048284E+00  0.13274793645E+00  0.20032578508E-01 0.  0.
         14    1    1    2    0    0  0.10654988500E-01  0.20294932588E-01  0.47487302535E-02  0.23408620372E-01  0.00000000000E+00 0.  1.
     999901    1    3    3    0    0 -0.57617906075E-02  0.50522604517E-01  0.10562175258E+00  0.88777344318E+00  0.88000000000E+00 0. -1.
        -11    1    4    4    0    0 -0.92086883349E-02 -0.21373856409E-01 -0.26331537333E-01  0.35146161354E-01  0.51100000000E-03 0.  1.
         11    1    4    4    0    0  0.43154904424E-02 -0.49443680697E-01 -0.84038945505E-01  0.97601775093E-01  0.51100000000E-03 0. -1.
</event>
<event>
 8    1  0.1074844E+005  0.1043930E+01  0.7957747E-01            NaN
         13   -1    0    0    0    0  0.00000000000E+00  0.00000000000E+00  0.74505805969E-08  0.10566000000E+00  0.10566000000E+00 0.  1.
     999900   -1    0    0    0    0 -0.00000000000E+00 -0.00000000000E+00 -0.74505805969E-08  0.93827000000E+00  0.93827000000E+00 0.  1.
     999902    2    1    2    0    0 -0.38244079268E-02  0.17348056513E-01  0.16723082168E-01  0.10195324051E+01  0.10192404438E+01 0.  0.
     999903    2    3    3    0    0 -0.78966381428E-01  0.98453040649E-01  0.31527700547E-01  0.13249040418E+00  0.25120125180E-01 0.  0.
         14    1    1    2    0    0  0.38244079268E-02 -0.17348056513E-01 -0.16723082168E-01  0.24397594922E-01  0.00000000000E+00 0. -1.
     999901    1    3    3    0    0  0.75141973501E-01 -0.81104984136E-01 -0.14804618379E-01  0.88704200090E+00  0.88000000000E+00 0.  1.
        -11    1    4    4    0    0 -0.64488334799E-01  0.64500764042E-01  0.16788250248E-01  0.92742656607E-01  0.51100000000E-03 0.  1.
         11    1    4    4    0    0 -0.14478046629E-01  0.33952276607E-01  0.14739450299E-01  0.39747747572E-01  0.51100000000E-03 0. -1.
</event>
<event>
 8    1  0.1074844E+005  0.1043930E+01  0.7957747E-01            NaN
         13   -1    0    0    0    0  0.00000000000E+00  0.00000000000E+00  0.74505805969E-08  0.10566000000E+00  0.10566000000E+00 0.  1.
     999900   -1    0    0    0    0 -0.00000000000E+00 -0.00000000000E+00 -0.74505805969E-08  0.93827000000E+00  0.93827000000E+00 0. -1.
     999902    2    1    2    0    0 -0.98704053595E-02  0.20239917144E-01  0.78850389271E-02  0.10200709768E+01  0.10197919125E+01 0.  0.
     999903    2    3    3    0    0  0.71456679477E-01  0.61112832715E-01 -0.88413498202E-01  0.13015070050E+00  0.16775661331E-01 0.  0.
         14    1    1    2    0    0  0.98704053595E-02 -0.20239917144E-01 -0.78850389271E-02  0.23859023175E-01  0.00000000000E+00 0. -1.
     999901    1    3    3    0    0 -0.81327084836E-01 -0.40872915571E-01  0.96298537129E-01  0.88992027632E+00  0.88000000000E+00 0. -1.
        -11    1    4    4    0    0  0.48954832014E-01  0.51435879315E-01 -0.65876015602E-01  0.96861425816E-01  0.51100000000E-03 0. -1.
         11    1    4    4    0    0  0.22501847463E-01  0.96769533995E-02 -0.22537482600E-01  0.33289274688E-01  0.51100000000E-03 0.  1.
</event>
<event>
 8    1  0.1074844E+005  0.1043930E+01  0.7957747E-01            NaN
         13   -1    0    0    0    0  0.00000000000E+00  0.00000000000E+00  0.74505805969E-08  0.10566000000E+00  0.10566000000E+00 0. -1.
     999900   -1    0    0    0    0 -0.00000000000E+00 -0.00000000000E+00 -0.74505805969E-08  0.93827000000E+00  0.93827000000E+00 0. -1.
     999902    2    1    2    0    0 -0.17086638316E-01  0.12403027361E-01  0.99273235636E-02  0.10205989038E+01  0.10203321922E+01 0.  0.
     999903    2    3    3    0    0 -0.12073335366E+00  0.30644952180E-01 -0.40964875385E-01  0.13286841242E+00  0.21453163491E-01 0.  0.
         14    1    1    2    0    0  0.17086638316E-01 -0.12403027361E-01 -0.99273235636E-02  0.23331096198E-01  0.00000000000E+00 0.  1.
     999901    1    3    3    0    0  0.10364671534E+00 -0.18241924819E-01  0.50892198949E-01  0.88773049139E+00  0.88000000000E+00 0.  1.
        -11    1    4    4    0    0 -0.62345076764E-01  0.21590608564E-01 -0.31177082545E-01  0.72974890009E-01  0.51100000000E-03 0. -1.
         11    1    4    4    0    0 -0.58388276891E-01  0.90543436164E-02 -0.97877928405E-02  0.59893522407E-01  0.51100000000E-03 0.  1.
</event>
<event>
 8    1  0.1074844E+005  0.1043930E+01  0.7957747E-01            NaN
         13   -1    0    0    0    0  0.00000000000E+00  0.00000000000E+00  0.74505805969E-08  0.10566000000E+00  0.10566000000E+00 0. -1.
     999900   -1    0    0    0    0 -0.00000000000E+00 -0.00000000000E+00 -0.74505805969E-08  0.93827000000E+00  0.93827000000E+00 0.  1.
     999902    2    1    2    0    0 -0.19159002164E-01  0.11509427337E-01 -0.68808349470E-02  0.10205445308E+01  0.10202765601E+01 0.  0.
     999903    2    3    3    0    0  0.10045870269E+00  0.77407374879E-01 -0.20822247440E-01  0.12990133746E+00  0.18892825433E-01 0.  0.
         14    1    1    2    0    0  0.19159002164E-01 -0.11509427337E-01  0.68808349470E-02  0.23385469230E-01  0.00000000000E+00 0.  1.
     999901    1    3    3    0    0 -0.11961770486E+00 -0.65897947542E-01  0.13941412493E-01  0.89064319331E+00  0.88000000000E+00 0. -1.
        -11    1    4    4    0    0  0.76084743083E-01  0.50110642110E-01 -0.20095133912E-01  0.93295445284E-01  0.51100000000E-03 0.  1.
         11    1    4    4    0    0  0.24373959611E-01  0.27296732768E-01 -0.72711352796E-03  0.36605892177E-01  0.51100000000E-03 0. -1.
</event>
<event>
 8    1  0.1074844E+005  0.1043930E+01  0.7957747E-01            NaN
         13   -1    0    0    0    0  0.00000000000E+00  0.00000000000E+00  0.74505805969E-08  0.10566000000E+00  0.10566000000E+00 0. -1.
     999900   -1    0    0    0    0 -0.00000000000E+00 -0.00000000000E+00 -0.74505805969E-08  0.93827000000E+00  0.93827000000E+00 0.  1.
     999902    2    1    2    0    0  0.23367064613E-01  0.20184841400E-02  0.24072802079E-02  0.10203527019E+01  0.10200802651E+01 0.  0.
     999903    2    3    3    0    0  0.57996420326E-01  0.11730828581E+00 -0.17394762231E-02  0.13214769955E+00  0.18307649429E-01 0.  0.
         14    1    1    2    0    0 -0.23367064613E-01 -0.20184841400E-02 -0.24072802079E-02  0.23577298082E-01  0.00000000000E+00 0. -1.
     999901    1    3    3    0    0 -0.34629355713E-01 -0.11528980167E+00  0.41467564310E-02  0.88820500237E+00  0.88000000000E+00 0.  1.
        -11    1    4    4    0    0  0.21461310755E-01  0.57248821074E-01 -0.75561439300E-02  0.61606588980E-01  0.51100000000E-03 0. -1.
         11    1    4    4    0    0  0.36535109571E-01  0.60059464737E-01  0.58166677069E-02  0.70541110568E-01  0.51100000000E-03 0.  1.
</event>
<event>
 8    1  0.1074844E+005  0.1043930E+01  0.7957747E-01            NaN
         13   -1    0    0    0    0  0.00000000000E+00  0.00000000000E+00  0.74505805969E-08  0.10566000000E+00  0.10566000000E+00 0.  1.
     999900   -1    0    0    0    0 -0.00000000000E+00 -0.00000000000E+00 -0.74505805969E-08  0.93827000000E+00  0.93827000000E+00 0.  1.
     999902    2    1    2    0    0  0.56862800129E-02  0.90858986768E-02  0.21691824346E-01  0.10197344926E+01  0.10194474056E+01 0.  0.
     999903    2    3    3    0    0 -0.44112232560E-01  0.10867364324E+00  0.55740847588E-01  0.13206510216E+00  0.24047854844E-01 0.  0.
         14    1    1    2    0    0 -0.56862800129E-02 -0.90858986768E-02 -0.21691824346E-01  0.24195507406E-01  0.00000000000E+00 0. -1.
     999901    1    3    3    0    0  0.49798512573E-01 -0.99587744567E-01 -0.34049023241E-01  0.88766939043E+00  0.88000000000E+00 0. -1.
        -11    1    4    4    0    0 -0.26913984111E-01  0.35800997841E-01  0.18901093088E-01  0.48616729920E-01  0.51100000000E-03 0. -1.
         11    1    4    4    0    0 -0.17198248449E-01  0.72872645403E-01  0.36839754500E-01  0.83448372245E-01  0.51100000000E-03 0.  1.
</event>
<event>
 8    1  0.1074844E+005  0.1043930E+01  0.7957747E-01            NaN
         13   -1    0    0    0    0  0.00000000000E+00  0.00000000000E+00  0.74505805969E-08  0.10566000000E+00  0.10566000000E+00 0.  1.
     999900   -1    0    0    0    0 -0.00000000000E+00 -0.00000000000E+00 -0.74505805969E-08  0.93827000000E+00  0.93827000000E+00 0.  1.
     999902    2    1    2    0    0 -0.62794242792E-02 -0.16264929122E-01 -0.15056615150E-01  0.10208934910E+01  0.10206335479E+01 0.  0.
     999903    2    3    3    0    0  0.24014855360E-01  0.95778831940E-01 -0.83134038693E-01  0.13066538348E+00  0.20294731433E-01 0.  0.
         14    1    1    2    0    0  0.62794242792E-02  0.16264929122E-01  0.15056615150E-01  0.23036509032E-01  0.00000000000E+00 0.  1.
     999901    1    3    3    0    0 -0.30294279639E-01 -0.11204376106E+00  0.68077423544E-01  0.89022810749E+00  0.88000000000E+00 0. -1.
        -11    1    4    4    0    0  0.64776672402E-02  0.15456527924E-01 -0.24479763174E-01  0.29671271533E-01  0.51100000000E-03 0. -1.
         11    1    4    4    0    0  0.17537188120E-01  0.80322304016E-01 -0.58654275520E-01  0.10099411194E+00  0.51100000000E-03 0.  1.
</event>
<event>
 8    1  0.1074844E+005  0.1043930E+01  0.7957747E-01            NaN
         13   -1    0    0    0    0  0.00000000000E+00  0.00000000000E+00  0.74505805969E-08  0.10566000000E+00  0.10566000000E+00 0.  1.
     999900   -1    0    0    0    0 -0.00000000000E+00 -0.00000000000E+00 -0.74505805969E-08  0.93827000000E+00  0.93827000000E+00 0.  1.
     999902    2    1    2    0    0 -0.10990313080E-01  0.77363833427E-02 -0.19881985511E-01  0.10199314176E+01  0.10196490400E+01 0.  0.
     999903    2    3    3    0    0  0.99855795269E-01  0.22237987193E-01  0.75512161804E-01  0.12774466609E+00  0.12284348203E-01 0.  0.
         14    1    1    2    0    0  0.10990313080E-01 -0.77363833427E-02  0.19881985511E-01  0.23998582389E-01  0.00000000000E+00 0. -1.
     999901    1    3    3    0    0 -0.11084610835E+00 -0.14501603850E-01 -0.95394147315E-01  0.89218675152E+00  0.88000000000E+00 0. -1.
        -11    1    4    4    0    0  0.71349153852E-01  0.18741683353E-01  0.48298160951E-01  0.88175540387E-01  0.51100000000E-03 0.  1.
         11    1    4    4    0    0  0.28506641417E-01  0.34963038402E-02  0.27214000853E-01  0.39569125702E-01  0.51100000000E-03 0. -1.
</event>
<event>
 8    1  0.1074844E+005  0.1043930E+01  0.7957747E-01            NaN
         13   -1    0    0    0    0  0.00000000000E+00  0.00000000000E+00  0.74505805969E-08  0.10566000000E+00  0.10566000000E+00 0.  1.
     999900   -1    0    0    0    0 -0.00000000000E+00 -0.00000000000E+00 -0.74505805969E-08  0.93827000000E+00  0.93827000000E+00 0. -1.
     999902    2    1    2    0    0 -0.50987672558E-02  0.13168193882E-02  0.22480463494E-01  0.10208409836E+01  0.10205798406E+01 0.  0.
     999903    2    3    3    0    0  0.56496344141E-01  0.71504135865E-01  0.94063645870E-01  0.13300971067E+00  0.23214980306E-01 0.  0.
         14    1    1    2    0    0  0.50987672558E-02 -0.13168193882E-02 -0.22480463494E-01  0.23089016430E-01  0.00000000000E+00 0. -1.
     999901    1    3    3    0    0 -0.61595111397E-01 -0.70187316476E-01 -0.71583182377E-01  0.88783127290E+00  0.88000000000E+00 0.  1.
        -11    1    4    4    0    0  0.31282210803E-01  0.40790935658E-01  0.36446713759E-01  0.63016674059E-01  0.51100000000E-03 0. -1.
         11    1    4    4    0    0  0.25214133338E-01  0.30713200206E-01  0.57616932111E-01  0.69993036610E-01  0.51100000000E-03 0.  1.
</event>
<event>
 8    1  0.1074844E+005  0.1043930E+01  0.7957747E-01            NaN
         13   -1    0    0    0    0  0.00000000000E+00  0.00000000000E+00  0.74505805969E-08  0.10566000000E+00  0.10566000000E+00 0. -1.
     999900   -1    0    0    0    0 -0.00000000000E+00 -0.00000000000E+00 -0.74505805969E-08  0.93827000000E+00  0.93827000000E+00 0. -1.
     999902    2    1    2    0    0  0.57352002283E-02 -0.21705933929E-01  0.67203991884E-02  0.10204949012E+01  0.10202257787E+01 0.  0.
     999903    2    3    3    0    0 -0.92820650725E-01 -0.62100529475E-01  0.67539873272E-01  0.13198829600E+00  0.19675539029E-01 0.  0.
         14    1    1    2    0    0 -0.57352002283E-02  0.21705933929E-01 -0.67203991884E-02  0.23435098776E-01  0.00000000000E+00 0.  1.
     999901    1    3    3    0    0  0.98555850954E-01  0.40394595546E-01 -0.60819474084E-01  0.88850660523E+00  0.88000000000E+00 0. -1.
        -11    1    4    4    0    0 -0.15954118064E-01 -0.17952236885E-01  0.84977336133E-02  0.25481155585E-01  0.51100000000E-03 0. -1.
         11    1    4    4    0    0 -0.76866532661E-01 -0.44148292589E-01  0.59042139659E-01  0.10650714041E+00  0.51100000000E-03 0.  1.
</event>
<event>
 8    1  0.1074844E+005  0.1043930E+01  0.7957747E-01            NaN
         13   -1    0    0    0    0  0.00000000000E+00  0.00000000000E+00  0.74505805969E-08  0.10566000000E+00  0.10566000000E+00 0.  1.
     999900   -1    0    0    0    0 -0.00000000000E+00 -0.00000000000E+00 -0.74505805969E-08  0.93827000000E+00  0.93827000000E+00 0. -1.
     999902    2    1    2    0    0 -0.66374517143E-02  0.19473275544E-01  0.11612285612E-01  0.10203056608E+01  0.10200321230E+01 0.  0.
     999903    2    3    3    0    0 -0.59017174986E-01  0.84433698653E-01  0.82525013678E-01  0.13351814003E+00  0.20115651210E-01 0.  0.
         14    1    1    2    0    0  0.66374517143E-02 -0.19473275544E-01 -0.11612285612E-01  0.23624339204E-01  0.00000000000E+00 0. -1.
     999901    1    3    3    0    0  0.52379723272E-01 -0.64960423109E-01 -0.70912728066E-01  0.88678752076E+00  0.88000000000E+00 0.  1.
        -11    1    4    4    0    0 -0.22575709808E-01  0.42515338278E-01  0.28042007289E-01  0.55712044982E-01  0.51100000000E-03 0. -1.
         11    1    4    4    0    0 -0.36441465179E-01  0.41918360374E-01  0.54483006389E-01  0.77806095051E-01  0.51100000000E-03 0.  1.
</event>
<event>
 8    1  0.1074844E+005  0.1043930E+01  0.7957747E-01            NaN
         13   -1    0    0    0    0  0.00000000000E+00  0.00000000000E+00  0.74505805969E-08  0.10566000000E+00  0.10566000000E+00 0. -1.
     999900   -1    0    0    0    0 -0.00000000000E+00 -0.00000000000E+00 -0.74505805969E-08  0.93827000000E+00  0.93827000000E+00 0.  1.
     999902    2    1    2    0    0  0.12661845735E-01  0.18926230601E-01  0.46816188732E-02  0.10206825894E+01  0.10204178097E+01 0.  0.
     999903    2    3    3    0    0  0.14107306220E-01  0.95948048254E-01 -0.87967460840E-01  0.13247185898E+00  0.20136414810E-01 0.  0.
         14    1    1    2    0    0 -0.12661845735E-01 -0.18926230601E-01 -0.46816188732E-02  0.23247410554E-01  0.00000000000E+00 0.  1.
     999901    1    3    3    0    0 -0.14454604850E-02 -0.77021817652E-01  0.92649079713E-01  0.88821073047E+00  0.88000000000E+00 0. -1.
        -11    1    4    4    0    0  0.19584050037E-02  0.11620409109E-01 -0.21070137782E-01  0.24147071979E-01  0.51100000000E-03 0.  1.
         11    1    4    4    0    0  0.12148901216E-01  0.84327639145E-01 -0.66897323058E-01  0.10832478700E+00  0.51100000000E-03 0. -1.
</event>
<event>
 8    1  0.1074844E+005  0.1043930E+01  0.7957747E-01            NaN
         13   -1    0    0    0    0  0.00000000000E+00  0.00000000000E+00  0.74505805969E-08  0.10566000000E+00  0.10566000000E+00 0.  1.
     999900   -1    0    0    0    0 -0.00000000000E+00 -0.00000000000E+00 -0.74505805969E-08  0.93827000000E+00  0.93827000000E+00 0.  1.
     999902    2    1    2    0    0  0.10936081603E-01  0.11848957815E-01  0.17331866798E-01  0.10202574571E+01  0.10199827888E+01 0.  0.
     999903    2    3    3    0    0  0.67699393322E-01  0.10588303574E+00  0.38849631767E-01  0.13316811795E+00  0.20737131798E-01 0.  0.
         14    1    1    2    0    0 -0.10936081603E-01 -0.11848957815E-01 -0.17331866798E-01  0.23672542932E-01  0.00000000000E+00 0. -1.
     999901    1    3    3    0    0 -0.56763311718E-01 -0.94034077930E-01 -0.21517764968E-01  0.88708933912E+00  0.88000000000E+00 0.  1.
        -11    1    4    4    0    0  0.93634370977E-02  0.54781374356E-02  0.48146186070E-03  0.10870918571E-01  0.51100000000E-03 0. -1.
         11    1    4    4    0    0  0.58335956224E-01  0.10040489831E+00  0.38368169906E-01  0.12229719938E+00  0.51100000000E-03 0.  1.
</event>
<event>
 8    1  0.1074844E+005  0.1043930E+01  0.7957747E-01            NaN
         13   -1    0    0    0    0  0.00000000000E+00  0.00000000000E+00  0.74505805969E-08  0.10566000000E+00  0.10566000000E+00 0. -1.
     999900   -1    0    0    0    0 -0.00000000000E+00 -0.00000000000E+00 -0.74505805969E-08  0.93827000000E+00  0.93827000000E+00 0. -1.
     999902    2    1    2    0    0  0.30179419588E-02 -0.11371149368E-01 -0.19892304104E-01  0.10208190767E+01  0.10205574323E+01 0.  0.
     999903    2    3    3    0    0 -0.61042851187E-03  0.35124869174E-01 -0.12703778847E+00  0.13309434483E+00  0.18476359717E-01 0.  0.
         14    1    1    2    0    0 -0.30179419588E-02  0.11371149368E-01  0.19892304104E-01  0.23110923266E-01  0.00000000000E+00 0. -1.
     999901    1    3    3    0    0  0.36283704707E-02 -0.46496018542E-01  0.10714548437E+00  0.88772473190E+00  0.88000000000E+00 0.  1.
        -11    1    4    4    0    0  0.65705315263E-02  0.16890188998E-01 -0.81904617358E-01  0.83887292450E-01  0.51100000000E-03 0. -1.
         11    1    4    4    0    0 -0.71809600381E-02  0.18234680175E-01 -0.45133171115E-01  0.49207052381E-01  0.51100000000E-03 0.  1.
</event>
<event>
 8    1  0.1074844E+005  0.1043930E+01  0.7957747E-01            NaN
         13   -1    0    0    0    0  0.00000000000E+00  0.00000000000E+00  0.74505805969E-08  0.10566000000E+00  0.10566000000E+00 0.  1.
     999900   -1    0    0    0    0 -0.00000000000E+00 -0.00000000000E+00 -0.74505805969E-08  0.93827000000E+00  0.93827000000E+00 0.  1.
     999902    2    1    2    0    0  0.11770241761E-01 -0.72573584465E-02  0.18610648047E-01  0.10207445722E+01  0.10204812186E+01 0.  0.
     999903    2    3    3    0    0  0.18301010506E-01  0.91710312880E-01 -0.86055217331E-01  0.12900907648E+00  0.22184068833E-01 0.  0.
         14    1    1    2    0    0 -0.11770241761E-01  0.72573584465E-02 -0.18610648047E-01  0.23185427826E-01  0.00000000000E+00 0. -1.
     999901    1    3    3    0    0 -0.65307687446E-02 -0.98967671326E-01  0.10466586538E+00  0.89173549570E+00  0.88000000000E+00 0. -1.
        -11    1    4    4    0    0 -0.45343002994E-02  0.29077929075E-01 -0.25397519606E-01  0.38876483401E-01  0.51100000000E-03 0.  1.
         11    1    4    4    0    0  0.22835310805E-01  0.62632383805E-01 -0.60657697725E-01  0.90132593078E-01  0.51100000000E-03 0. -1.
</event>
<event>
 8    1  0.1074844E+005  0.1043930E+01  0.7957747E-01            NaN
         13   -1    0    0    0    0  0.00000000000E+00  0.00000000000E+00  0.74505805969E-08  0.10566000000E+00  0.10566000000E+00 0.  1.
     999900   -1    0    0    0    0 -0.00000000000E+00 -0.00000000000E+00 -0.74505805969E-08  0.93827000000E+00  0.93827000000E+00 0. -1.
     999902    2    1    2    0    0  0.80652523801E-02 -0.81146494562E-02 -0.20762600067E-01  0.10202238533E+01  0.10199483954E+01 0.  0.
     999903    2    3    3    0    0  0.10723379469E+00  0.69792551746E-01 -0.20148309241E-01  0.13123324075E+00  0.21121602884E-01 0.  0.
         14    1    1    2    0    0 -0.80652523801E-02  0.81146494562E-02  0.20762600067E-01  0.23706146740E-01  0.00000000000E+00 0.  1.
     999901    1    3    3    0    0 -0.99168542311E-01 -0.77907201202E-01 -0.61429082547E-03  0.88899061251E+00  0.88000000000E+00 0.  1.
        -11    1    4    4    0    0  0.51088371737E-01  0.45690072333E-01 -0.91522425275E-02  0.69149324659E-01  0.51100000000E-03 0. -1.
         11    1    4    4    0    0  0.56145422954E-01  0.24102479413E-01 -0.10996066714E-01  0.62083916087E-01  0.51100000000E-03 0.  1.
</event>
<event>
 8    1  0.1074844E+005  0.1043930E+01  0.7957747E-01            NaN
         13   -1    0    0    0    0  0.00000000000E+00  0.00000000000E+00  0.74505805969E-08  0.10566000000E+00  0.10566000000E+00 0.  1.
     999900   -1    0    0    0    0 -0.00000000000E+00 -0.00000000000E+00 -0.74505805969E-08  0.93827000000E+00  0.93827000000E+00 0. -1.
     999902    2    1    2    0    0  0.94034594589E-02  0.31601983368E-01  0.74482277844E-03  0.10109502310E+01  0.10104121458E+01 0.  0.
     999903    2    3    3    0    0 -0.18634749860E-01 -0.63888638302E-03 -0.11871890156E+00  0.12185113849E+00  0.20145974384E-01 0.  0.
         14    1    1    2    0    0 -0.94034594589E-02 -0.31601983368E-01 -0.74482277844E-03  0.32979769004E-01  0.00000000000E+00 0. -1.
     999901    1    3    3    0    0  0.28038209319E-01  0.32240869751E-01  0.11946372434E+00  0.88909909251E+00  0.88000000000E+00 0.  1.
        -11    1    4    4    0    0 -0.18889430493E-01 -0.44231116051E-02 -0.61162618516E-01  0.64167760794E-01  0.51100000000E-03 0.  1.
         11    1    4    4    0    0  0.25468063302E-03  0.37842252221E-02 -0.57556283049E-01  0.57683377694E-01  0.51100000000E-03 0. -1.
</event>
<event>
 8    1  0.1074844E+005  0.1043930E+01  0.7957747E-01            NaN
         13   -1    0    0    0    0  0.00000000000E+00  0.00000000000E+00  0.74505805969E-08  0.10566000000E+00  0.10566000000E+00 0.  1.
     999900   -1    0    0    0    0 -0.00000000000E+00 -0.00000000000E+00 -0.74505805969E-08  0.93827000000E+00  0.93827000000E+00 0.  1.
     999902    2    1    2    0    0  0.17683209556E-01 -0.21872933722E-02 -0.15628244607E-01  0.10202293211E+01  0.10199539918E+01 0.  0.
     999903    2    3    3    0    0 -0.12417039041E+00  0.23368439734E-01  0.87435686938E-02  0.12817017246E+00  0.19666552459E-01 0.  0.
         14    1    1    2    0    0 -0.17683209556E-01  0.21872933722E-02  0.15628244607E-01  0.23700678935E-01  0.00000000000E+00 0.  1.
     999901    1    3    3    0    0  0.14185359997E+00 -0.25555733106E-01 -0.24371813301E-01  0.89205914860E+00  0.88000000000E+00 0.  1.
        -11    1    4    4    0    0 -0.22350770824E-01  0.12115960894E-01  0.20380378189E-02  0.25510158446E-01  0.51100000000E-03 0.  1.
         11    1    4    4    0    0 -0.10181961959E+00  0.11252478840E-01  0.67055308750E-02  0.10266001402E+00  0.51100000000E-03 0. -1.
</event>
<event>
 8    1  0.1074844E+005  0.1043930E+01  0.7957747E-01            NaN
         13   -1    0    0    0    0  0.00000000000E+00  0.00000000000E+00  0.74505805969E-08  0.10566000000E+00  0.10566000000E+00 0.  1.
     999900   -1    0    0    0    0 -0.00000000000E+00 -0.00000000000E+00 -0.74505805969E-08  0.93827000000E+00  0.93827000000E+00 0.  1.
     999902    2    1    2    0    0  0.21353762590E-01  0.22768921020E-01  0.81113255656E-02  0.10116778599E+01  0.10111636324E+01 0.  0.
     999903    2    3    3    0    0 -0.27402358653E-01 -0.68146677162E-01  0.94712403107E-01  0.12142926987E+00  0.19487673300E-01 0.  0.
         14    1    1    2    0    0 -0.21353762590E-01 -0.22768921020E-01 -0.81113255656E-02  0.32252140140E-01  0.00000000000E+00 0. -1.
     999901    1    3    3    0    0  0.48756121243E-01  0.90915598181E-01 -0.86601077541E-01  0.89024858999E+00  0.88000000000E+00 0.  1.
        -11    1    4    4    0    0  0.16286127702E-02 -0.95011638989E-02  0.19321136519E-01  0.21598424303E-01  0.51100000000E-03 0.  1.
         11    1    4    4    0    0 -0.29030971423E-01 -0.58645513263E-01  0.75391266588E-01  0.99830845565E-01  0.51100000000E-03 0. -1.
</event>
<event>
 8    1  0.1074844E+005  0.1043930E+01  0.7957747E-01            NaN
         13   -1    0    0    0    0  0.00000000000E+00  0.00000000000E+00  0.74505805969E-08  0.10566000000E+00  0.10566000000E+00 0. -1.
     999900   -1    0    0    0    0 -0.00000000000E+00 -0.00000000000E+00 -0.74505805969E-08  0.93827000000E+00  0.93827000000E+00 0. -1.
     999902    2    1    2    0    0  0.16967165901E-01 -0.76826454242E-02 -0.15254410511E-01  0.10198550171E+01  0.10195708172E+01 0.  0.
     999903    2    3    3    0    0  0.52295707327E-02 -0.11382675703E+00  0.61223253730E-01  0.13010607688E+00  0.13979464159E-01 0.  0.
         14    1    1    2    0    0 -0.16967165901E-01  0.76826454242E-02  0.15254410511E-01  0.24074982855E-01  0.00000000000E+00 0. -1.
     999901    1    3    3    0    0  0.11737595168E-01  0.10614411161E+00 -0.76477664241E-01  0.88974894026E+00  0.88000000000E+00 0. -1.
        -11    1    4    4    0    0  0.16041542631E-02 -0.35773750074E-01  0.26749576833E-01  0.44700508800E-01  0.51100000000E-03 0. -1.
         11    1    4    4    0    0  0.36254164696E-02 -0.78053006958E-01  0.34473676897E-01  0.85405568083E-01  0.51100000000E-03 0.  1.
</event>
<event>
 8    1  0.1074844E+005  0.1043930E+01  0.7957747E-01            NaN
         13   -1    0    0    0    0  0.00000000000E+00  0.00000000000E+00  0.74505805969E-08  0.10566000000E+00  0.10566000000E+00 0. -1.
     999900   -1    0    0    0    0 -0.00000000000E+00 -0.00000000000E+00 -0.74505805969E-08  0.93827000000E+00  0.93827000000E+00 0. -1.
     999902    2    1    2    0    0  0.28496913915E-02  0.23318620709E-01  0.25895506585E-02  0.10202956059E+01  0.10200218325E+01 0.  0.
     999903    2    3    3    0    0 -0.10583287177E+00 -0.48908522918E-01  0.52183600813E-01  0.12929154886E+00  0.20013396832E-01 0.  0.
         14    1    1    2    0    0 -0.28496913915E-02 -0.23318620709E-01 -0.25895506585E-02  0.23634394120E-01  0.00000000000E+00 0. -1.
     999901    1    3    3    0    0  0.10868256316E+00  0.72227143627E-01 -0.49594050154E-01  0.89100405702E+00  0.88000000000E+00 0.  1.
        -11    1    4    4    0    0 -0.66374549448E-01 -0.40893648351E-01  0.32401535828E-01  0.84427435913E-01  0.51100000000E-03 0.  1.
         11    1    4    4    0    0 -0.39458322320E-01 -0.80148745669E-02  0.19782064985E-01  0.44864112949E-01  0.51100000000E-03 0. -1.
</event>
<event>
 8    1  0.1074844E+005  0.1043930E+01  0.7957747E-01            NaN
         13   -1    0    0    0    0  0.00000000000E+00  0.00000000000E+00  0.74505805969E-08  0.10566000000E+00  0.10566000000E+00 0. -1.
     999900   -1    0    0    0    0 -0.00000000000E+00 -0.00000000000E+00 -0.74505805969E-08  0.93827000000E+00  0.93827000000E+00 0. -1.
     999902    2    1    2    0    0  0.17838917335E-01 -0.81514099764E-02  0.12867311562E-01  0.10204728015E+01  0.10202031652E+01 0.  0.
     999903    2    3    3    0    0 -0.10663066131E+00  0.68502478525E-01  0.39173620640E-03  0.12832699802E+00  0.20124051982E-01 0.  0.
         14    1    1    2    0    0 -0.17838917335E-01  0.81514099764E-02 -0.12867311562E-01  0.23457198535E-01  0.00000000000E+00 0. -1.
     999901    1    3    3    0    0  0.12446957864E+00 -0.76653888502E-01  0.12475575356E-01  0.89214580345E+00  0.88000000000E+00 0.  1.
        -11    1    4    4    0    0 -0.17065283059E-01  0.95171188879E-02  0.72871167019E-02  0.20860551973E-01  0.51100000000E-03 0. -1.
         11    1    4    4    0    0 -0.89565378247E-01  0.58985359637E-01 -0.68953804955E-02  0.10746644604E+00  0.51100000000E-03 0.  1.
</event>
<event>
 8    1  0.1074844E+005  0.1043930E+01  0.7957747E-01            NaN
         13   -1    0    0    0    0  0.00000000000E+00  0.00000000000E+00  0.74505805969E-08  0.10566000000E+00  0.10566000000E+00 0.  1.
     999900   -1    0    0    0    0 -0.00000000000E+00 -0.00000000000E+00 -0.74505805969E-08  0.93827000000E+00  0.93827000000E+00 0. -1.
     999902    2    1    2    0    0  0.16968468860E-01  0.16873277924E-01 -0.48951737656E-02  0.10195046204E+01  0.10192119857E+01 0.  0.
     999903    2    3    3    0    0 -0.11122577760E+00  0.40292840773E-01 -0.47304532241E-01  0.12889763948E+00  0.19549835612E-01 0.  0.
         14    1    1    2    0    0 -0.16968468860E-01 -0.16873277924E-01  0.48951737656E-02  0.24425379620E-01  0.00000000000E+00 0. -1.
     999901    1    3    3    0    0  0.12819424646E+00 -0.23419562849E-01  0.42409358475E-01  0.89060698090E+00  0.88000000000E+00 0.  1.
        -11    1    4    4    0    0 -0.10051328023E+00  0.34122007213E-01 -0.35857184763E-01  0.11204119644E+00  0.51100000000E-03 0.  1.
         11    1    4    4    0    0 -0.10712497365E-01  0.61708335601E-02 -0.11447347478E-01  0.16856443038E-01  0.51100000000E-03 0. -1.
</event>
<event>
 8    1  0.1074844E+005  0.1043930E+01  0.7957747E-01            NaN
         13   -1    0    0    0    0  0.00000000000E+00  0.00000000000E+00  0.74505805969E-08  0.10566000000E+00  0.10566000000E+00 0. -1.
     999900   -1    0    0    0    0 -0.00000000000E+00 -0.00000000000E+00 -0.74505805969E-08  0.93827000000E+00  0.93827000000E+00 0.  1.
     999902    2    1    2    0    0 -0.11355224510E-01 -0.19413607105E-01  0.72961314144E-02  0.10202854912E+01  0.10200114807E+01 0.  0.
     999903    2    3    3    0    0 -0.58317487055E-01 -0.10007660679E+00  0.65030254660E-01  0.13346803384E+00  0.12981737686E-01 0.  0.
         14    1    1    2    0    0  0.11355224510E-01  0.19413607105E-01 -0.72961314144E-02  0.23644508836E-01  0.00000000000E+00 0.  1.
     999901    1    3    3    0    0  0.46962262545E-01  0.80662999687E-01 -0.57734123246E-01  0.88681745732E+00  0.88000000000E+00 0.  1.
        -11    1    4    4    0    0 -0.54008031731E-01 -0.83814385460E-01  0.56334076998E-01  0.11452295863E+00  0.51100000000E-03 0.  1.
         11    1    4    4    0    0 -0.43094553242E-02 -0.16262221332E-01  0.86961776622E-02  0.18945075212E-01  0.51100000000E-03 0. -1.
</event>
<event>
 8    1  0.1074844E+005  0.1043930E+01  0.7957747E-01            NaN
         13   -1    0    0    0    0  0.00000000000E+00  0.00000000000E+00  0.74505805969E-08  0.10566000000E+00  0.10566000000E+00 0. -1.
     999900   -1    0    0    0    0 -0.00000000000E+00 -0.00000000000E+00 -0.74505805969E-08  0.93827000000E+00  0.93827000000E+00 0.  1.
     999902    2    1    2    0    0 -0.11044723351E-01 -0.10713405941E-01 -0.18015600763E-01  0.10202377048E+01  0.10199625726E+01 0.  0.
     999903    2    3    3    0    0  0.34075464828E-01 -0.74149270398E-02  0.12187628782E+00  0.12804016399E+00  0.18009320269E-01 0.  0.
         14    1    1    2    0    0  0.11044723351E-01  0.10713405941E-01  0.18015600763E-01  0.23692295195E-01  0.00000000000E+00 0. -1.
     999901    1    3    3    0    0 -0.45120188180E-01 -0.32984789007E-02 -0.13989188858E+00  0.89219754081E+00  0.88000000000E+00 0.  1.
        -11    1    4    4    0    0  0.34653731580E-01 -0.99793733370E-02  0.11749062357E+00  0.12290149207E+00  0.51100000000E-03 0. -1.
         11    1    4    4    0    0 -0.57826675168E-03  0.25644462972E-02  0.43856642461E-02  0.51386719225E-02  0.51100000000E-03 0.  1.
</event>
<event>
 8    1  0.1074844E+005  0.1043930E+01  0.7957747E-01            NaN
         13   -1    0    0    0    0  0.00000000000E+00  0.00000000000E+00  0.74505805969E-08  0.10566000000E+00  0.10566000000E+00 0.  1.
     999900   -1    0    0    0    0 -0.00000000000E+00 -0.00000000000E+00 -0.74505805969E-08  0.93827000000E+00  0.93827000000E+00 0.  1.
     999902    2    1    2    0    0 -0.75031568546E-04 -0.96283255031E-02  0.20951188806E-01  0.10208721902E+01  0.10206117607E+01 0.  0.
     999903    2    3    3    0    0  0.27548128056E-01 -0.10860207159E+00 -0.64595461285E-01  0.13077271781E+00  0.19380938818E-01 0.  0.
         14    1    1    2    0    0  0.75031568546E-04  0.96283255031E-02 -0.20951188806E-01  0.23057809829E-01  0.00000000000E+00 0. -1.
     999901    1    3    3    0    0 -0.27623159624E-01  0.98973746092E-01  0.85546650092E-01  0.89009947237E+00  0.88000000000E+00 0. -1.
        -11    1    4    4    0    0  0.23002756812E-01 -0.52273858441E-01 -0.30040301380E-01  0.64531883014E-01  0.51100000000E-03 0. -1.
         11    1    4    4    0    0  0.45453712437E-02 -0.56328213153E-01 -0.34555159906E-01  0.66240834792E-01  0.51100000000E-03 0.  1.
</event>
<event>
 8    1  0.1074844E+005  0.1043930E+01  0.7957747E-01            NaN
         13   -1    0    0    0    0  0.00000000000E+00  0.00000000000E+00  0.74505805969E-08  0.10566000000E+00  0.10566000000E+00 0.  1.
     999900   -1    0    0    0    0 -0.00000000000E+00 -0.00000000000E+00 -0.74505805969E-08  0.93827000000E+00  0.93827000000E+00 0. -1.
     999902    2    1    2    0    0 -0.24780005340E-02  0.73389558511E-02  0.23932586873E-01  0.10187750905E+01  0.10184644891E+01 0.  0.
     999903    2    3    3    0    0  0.25715235060E-01  0.12367432280E+00  0.26734558757E-01  0.13066663583E+00  0.20060449980E-01 0.  0.
         14    1    1    2    0    0  0.24780005340E-02 -0.73389558511E-02 -0.23932586873E-01  0.25154909542E-01  0.00000000000E+00 0. -1.
     999901    1    3    3    0    0 -0.28193235594E-01 -0.11633536695E+00 -0.28019718836E-02  0.88810845463E+00  0.88000000000E+00 0.  1.
        -11    1    4    4    0    0  0.10561654676E-01  0.16414929341E-01  0.54155961686E-02  0.20262977511E-01  0.51100000000E-03 0.  1.
         11    1    4    4    0    0  0.15153580384E-01  0.10725939346E+00  0.21318962588E-01  0.11040365832E+00  0.51100000000E-03 0. -1.
</event>
<event>
 7    1  0.1074844E+005  0.1043930E+01  0.7957747E-01            NaN
         13   -1    0    0    0    0  0.00000000000E+00  0.00000000000E+00  0.74505805969E-08  0.10566000000E+00  0.10566000000E+00 0.  1.
     999900   -1    0    0    0    0 -0.00000000000E+00 -0.00000000000E+00 -0.74505805969E-08  0.93827000000E+00  0.93827000000E+00 0. -1.
     999903    2    1    2    0    0  0.37145687708E-01  0.55719269614E-01  0.83499671497E-01  0.10888384090E+00  0.19976399755E-01 0.  0.
         14    1    1    2    0    0 -0.15984929504E-01  0.34090071356E-01  0.22552570596E-01  0.43889285444E-01  0.00000000000E+00 0.  1.
     999901    1    1    2    0    0 -0.21160758204E-01 -0.89809340970E-01 -0.10605224209E+00  0.89115687366E+00  0.88000000000E+00 0. -1.
        -11    1    3    3    0    0  0.27730601696E-01  0.23662760296E-01  0.44475862781E-01  0.57508920928E-01  0.51100000000E-03 0.  1.
         11    1    3    3    0    0  0.94150860124E-02  0.32056509318E-01  0.39023808716E-01  0.51374919971E-01  0.51100000000E-03 0. -1.
</event>
<event>
 8    1  0.1074844E+005  0.1043930E+01  0.7957747E-01            NaN
         13   -1    0    0    0    0  0.00000000000E+00  0.00000000000E+00  0.74505805969E-08  0.10566000000E+00  0.10566000000E+00 0.  1.
     999900   -1    0    0    0    0 -0.00000000000E+00 -0.00000000000E+00 -0.74505805969E-08  0.93827000000E+00  0.93827000000E+00 0. -1.
     999902    2    1    2    0    0  0.11720183329E-01 -0.17657519744E-01 -0.11335085215E-01  0.10198959646E+01  0.10196127420E+01 0.  0.
     999903    2    3    3    0    0 -0.31994770855E-01 -0.12457564630E+00  0.19812195898E-01  0.13180101690E+00  0.20886070386E-01 0.  0.
         14    1    1    2    0    0 -0.11720183329E-01  0.17657519744E-01  0.11335085215E-01  0.24034035400E-01  0.00000000000E+00 0.  1.
     999901    1    3    3    0    0  0.43714954184E-01  0.10691812656E+00 -0.31147281113E-01  0.88809494770E+00  0.88000000000E+00 0. -1.
        -11    1    4    4    0    0 -0.15749434228E-01 -0.92123868413E-01  0.19654994494E-01  0.95506186917E-01  0.51100000000E-03 0.  1.
         11    1    4    4    0    0 -0.16245336626E-01 -0.32451777890E-01  0.15720140409E-03  0.36294829985E-01  0.51100000000E-03 0. -1.
</event>
<event>
 8    1  0.1074844E+005  0.1043930E+01  0.7957747E-01            NaN
         13   -1    0    0    0    0  0.00000000000E+00  0.00000000000E+00  0.74505805969E-08  0.10566000000E+00  0.10566000000E+00 0. -1.
     999900   -1    0    0    0    0 -0.00000000000E+00 -0.00000000000E+00 -0.74505805969E-08  0.93827000000E+00  0.93827000000E+00 0.  1.
     999902    2    1    2    0    0  0.34915522317E-02 -0.13122206569E-01  0.19226149191E-01  0.10203921994E+01  0.10201206853E+01 0.  0.
     999903    2    3    3    0    0  0.78345982213E-02 -0.10213932452E+00 -0.78467401099E-01  0.13051190463E+00  0.19555093224E-01 0.  0.
         14    1    1    2    0    0 -0.34915522317E-02  0.13122206569E-01 -0.19226149191E-01  0.23537800554E-01  0.00000000000E+00 0.  1.
     999901    1    3    3    0    0 -0.43430459896E-02  0.89017117954E-01  0.97693550290E-01  0.88988029482E+00  0.88000000000E+00 0. -1.
        -11    1    4    4    0    0 -0.58487404945E-02 -0.51409107918E-01 -0.39053906959E-01  0.64827254392E-01  0.51100000000E-03 0.  1.
         11    1    4    4    0    0  0.13683338716E-01 -0.50730216605E-01 -0.39413494141E-01  0.65684650236E-01  0.51100000000E-03 0. -1.
</event>
<event>
 8    1  0.1074844E+005  0.1043930E+01  0.7957747E-01            NaN
         13   -1    0    0    0    0  0.00000000000E+00  0.00000000000E+00  0.74505805969E-08  0.10566000000E+00  0.10566000000E+00 0. -1.
     999900   -1    0    0    0    0 -0.00000000000E+00 -0.00000000000E+00 -0.74505805969E-08  0.93827000000E+00  0.93827000000E+00 0.  1.
     999902    2    1    2    0    0 -0.85034449190E-02  0.20485875938E-01 -0.70603533777E-02  0.10206527949E+01  0.10203873281E+01 0.  0.
     999903    2    3    3    0    0 -0.12552843789E+00  0.34946833039E-01 -0.16333516480E-01  0.13273953345E+00  0.19347612830E-01 0.  0.
         14    1    1    2    0    0  0.85034449190E-02 -0.20485875938E-01  0.70603533777E-02  0.23277205121E-01  0.00000000000E+00 0. -1.
     999901    1    3    3    0    0  0.11702499297E+00 -0.14460957101E-01  0.92731631021E-02  0.88791326142E+00  0.88000000000E+00 0.  1.
        -11    1    4    4    0    0 -0.91986764270E-01  0.31517305205E-01 -0.18369963450E-01  0.98957677855E-01  0.51100000000E-03 0. -1.
         11    1    4    4    0    0 -0.33541673620E-01  0.34295278334E-02  0.20364469704E-02  0.33781855599E-01  0.51100000000E-03 0.  1.
</event>
<event>
 8    1  0.1074844E+005  0.1043930E+01  0.7957747E-01            NaN
         13   -1    0    0    0    0  0.00000000000E+00  0.00000000000E+00  0.74505805969E-08  0.10566000000E+00  0.10566000000E+00 0.  1.
     999900   -1    0    0    0    0 -0.00000000000E+00 -0.00000000000E+00 -0.74505805969E-08  0.93827000000E+00  0.93827000000E+00 0.  1.
     999902    2    1    2    0    0 -0.84128878590E-02  0.12432255319E-02  0.21942755046E-01  0.10203969001E+01  0.10201254957E+01 0.  0.
     999903    2    3    3    0    0  0.46786499825E-03  0.67377305120E-01 -0.10740483598E+00  0.12844208983E+00  0.20534154631E-01 0.  0.
         14    1    1    2    0    0  0.84128878590E-02 -0.12432255319E-02 -0.21942755046E-01  0.23533099899E-01  0.00000000000E+00 0. -1.
     999901    1    3    3    0    0 -0.88807528572E-02 -0.66134079588E-01  0.12934759102E+00  0.89195481027E+00  0.88000000000E+00 0. -1.
        -11    1    4    4    0    0  0.39801741916E-02  0.30593563197E-01 -0.31912126712E-01  0.44389783149E-01  0.51100000000E-03 0. -1.
         11    1    4    4    0    0 -0.35123091933E-02  0.36783741923E-01 -0.75492709267E-01  0.84052306686E-01  0.51100000000E-03 0.  1.
</event>
<event>
 8    1  0.1074844E+005  0.1043930E+01  0.7957747E-01            NaN
         13   -1    0    0    0    0  0.00000000000E+00  0.00000000000E+00  0.74505805969E-08  0.10566000000E+00  0.10566000000E+00 0. -1.
     999900   -1    0    0    0    0 -0.00000000000E+00 -0.00000000000E+00 -0.74505805969E-08  0.93827000000E+00  0.93827000000E+00 0.  1.
     999902    2    1    2    0    0 -0.61741248107E-03 -0.23513145371E-01 -0.22216452370E-02  0.10203040627E+01  0.10200304876E+01 0.  0.
     999903    2    3    3    0    0 -0.79378433157E-01  0.36638069027E-01 -0.94073547370E-01  0.12999050063E+00  0.20110051874E-01 0.  0.
         14    1    1    2    0    0  0.61741248107E-03  0.23513145371E-01  0.22216452370E-02  0.23625937251E-01  0.00000000000E+00 0. -1.
     999901    1    3    3    0    0  0.78761020676E-01 -0.60151214398E-01  0.91851902133E-01  0.89031356212E+00  0.88000000000E+00 0.  1.
        -11    1    4    4    0    0 -0.29796201176E-01  0.23813291779E-01 -0.34567891569E-01  0.51478992982E-01  0.51100000000E-03 0. -1.
         11    1    4    4    0    0 -0.49582231981E-01  0.12824777248E-01 -0.59505655801E-01  0.78511507646E-01  0.51100000000E-03 0.  1.
</event>
<event>
 8    1  0.1074844E+005  0.1043930E+01  0.7957747E-01            NaN
         13   -1    0    0    0    0  0.00000000000E+00  0.00000000000E+00  0.74505805969E-08  0.10566000000E+00  0.10566000000E+00 0.  1.
     999900   -1    0    0    0    0 -0.00000000000E+00 -0.00000000000E+00 -0.74505805969E-08  0.93827000000E+00  0.93827000000E+00 0. -1.
     999902    2    1    2    0    0  0.15442533803E-01 -0.18102872156E-01 -0.94988230767E-03  0.10201163882E+01  0.10198383977E+01 0.  0.
     999903    2    3    3    0    0 -0.34245957024E-01 -0.10388224251E+00  0.70485905157E-01  0.13167386433E+00  0.20135487056E-01 0.  0.
         14    1    1    2    0    0 -0.15442533803E-01  0.18102872156E-01  0.94988230767E-03  0.23813611800E-01  0.00000000000E+00 0. -1.
     999901    1    3    3    0    0  0.49688490827E-01  0.85779370355E-01 -0.71435787465E-01  0.88844252388E+00  0.88000000000E+00 0.  1.
        -11    1    4    4    0    0  0.75541864379E-03 -0.22973008302E-01  0.12697568409E-01  0.26264408089E-01  0.51100000000E-03 0.  1.
         11    1    4    4    0    0 -0.35001375668E-01 -0.80909234209E-01  0.57788336748E-01  0.10540945624E+00  0.51100000000E-03 0. -1.
</event>
<event>
 8    1  0.1074844E+005  0.1043930E+01  0.7957747E-01            NaN
         13   -1    0    0    0    0  0.00000000000E+00  0.00000000000E+00  0.74505805969E-08  0.10566000000E+00  0.10566000000E+00 0.  1.
     999900   -1    0    0    0    0 -0.00000000000E+00 -0.00000000000E+00 -0.74505805969E-08  0.93827000000E+00  0.93827000000E+00 0.  1.
     999902    2    1    2    0    0 -0.98508459104E-02 -0.76268818981E-02 -0.20035178162E-01  0.10203372711E+01  0.10200644734E+01 0.  0.
     999903    2    3    3    0    0  0.46374495599E-01 -0.12039489609E+00  0.92563649207E-02  0.13087906043E+00  0.19953027822E-01 0.  0.
         14    1    1    2    0    0  0.98508459104E-02  0.76268818981E-02  0.20035178162E-01  0.23592728893E-01  0.00000000000E+00 0.  1.
     999901    1    3    3    0    0 -0.56225341510E-01  0.11276801419E+00 -0.29291543083E-01  0.88945821068E+00  0.88000000000E+00 0.  1.
        -11    1    4    4    0    0  0.12598199763E-01 -0.14728281918E-01 -0.13701849389E-02  0.19436446519E-01  0.51100000000E-03 0.  1.
         11    1    4    4    0    0  0.33776295837E-01 -0.10566661417E+00  0.10626549860E-01  0.11144261391E+00  0.51100000000E-03 0. -1.
</event>
<event>
 8    1  0.1074844E+005  0.1043930E+01  0.7957747E-01            NaN
         13   -1    0    0    0    0  0.00000000000E+00  0.00000000000E+00  0.74505805969E-08  0.10566000000E+00  0.10566000000E+00 0. -1.
     999900   -1    0    0    0    0 -0.00000000000E+00 -0.00000000000E+00 -0.74505805969E-08  0.93827000000E+00  0.93827000000E+00 0.  1.
     999902    2    1    2    0    0 -0.85610549328E-02 -0.18788757144E-01  0.11557225109E-01  0.10202682480E+01  0.10199938330E+01 0.  0.
     999903    2    3    3    0    0  0.62918207632E-01 -0.10861193668E+00  0.38709781672E-01  0.13239733963E+00  0.16593815204E-01 0.  0.
         14    1    1    2    0    0  0.85610549328E-02  0.18788757144E-01 -0.11557225109E-01  0.23661752023E-01  0.00000000000E+00 0. -1.
     999901    1    3    3    0    0 -0.71479262565E-01  0.89823179537E-01 -0.27152556563E-01  0.88787090835E+00  0.88000000000E+00 0.  1.
        -11    1    4    4    0    0  0.23504582513E-01 -0.55484085968E-01  0.14747600692E-01  0.62037908104E-01  0.51100000000E-03 0. -1.
         11    1    4    4    0    0  0.39413625119E-01 -0.53127850714E-01  0.23962180979E-01  0.70359431527E-01  0.51100000000E-03 0.  1.
</event>
<event>
 8    1  0.1074844E+005  0.1043930E+01  0.7957747E-01            NaN
         13   -1    0    0    0    0  0.00000000000E+00  0.00000000000E+00  0.74505805969E-08  0.10566000000E+00  0.10566000000E+00 0.  1.
     999900   -1    0    0    0    0 -0.00000000000E+00 -0.00000000000E+00 -0.74505805969E-08  0.93827000000E+00  0.93827000000E+00 0.  1.
     999902    2    1    2    0    0  0.22808203996E-01 -0.31978216338E-02  0.90485272818E-02  0.10191849787E+01  0.10188845395E+01 0.  0.
     999903    2    3    3    0    0  0.88789622463E-01  0.94110765210E-01  0.96067211664E-02  0.13136584159E+00  0.20597622658E-01 0.  0.
         14    1    1    2    0    0 -0.22808203996E-01  0.31978216338E-02 -0.90485272818E-02  0.24745021291E-01  0.00000000000E+00 0. -1.
     999901    1    3    3    0    0 -0.65981418467E-01 -0.97308586844E-01 -0.55819388460E-03  0.88781913712E+00  0.88000000000E+00 0. -1.
        -11    1    4    4    0    0  0.55221167379E-01  0.72304176231E-01  0.65414420121E-02  0.91215803520E-01  0.51100000000E-03 0.  1.
         11    1    4    4    0    0  0.33568455084E-01  0.21806588979E-01  0.30652791543E-02  0.40150038069E-01  0.51100000000E-03 0. -1.
</event>
<event>
 8    1  0.1074844E+005  0.1043930E+01  0.7957747E-01            NaN
         13   -1    0    0    0    0  0.00000000000E+00  0.00000000000E+00  0.74505805969E-08  0.10566000000E+00  0.10566000000E+00 0.  1.
     999900   -1    0    0    0    0 -0.00000000000E+00 -0.00000000000E+00 -0.74505805969E-08  0.93827000000E+00  0.93827000000E+00 0. -1.
     999902    2    1    2    0    0 -0.22904257394E-01  0.46143910495E-02  0.51587304223E-02  0.10200028165E+01  0.10197221364E+01 0.  0.
     999903    2    3    3    0    0 -0.33276769253E-01 -0.11768895559E+00  0.41527905322E-01  0.13073996755E+00  0.20256815028E-01 0.  0.
         14    1    1    2    0    0  0.22904257394E-01 -0.46143910495E-02 -0.51587304223E-02  0.23927183518E-01  0.00000000000E+00 0. -1.
     999901    1    3    3    0    0  0.10372511858E-01  0.12230334664E+00 -0.36369174899E-01  0.88926284893E+00  0.88000000000E+00 0. -1.
        -11    1    4    4    0    0  0.29448562612E-03 -0.78537092356E-02 -0.16368738021E-02  0.80441250230E-02  0.51100000000E-03 0. -1.
         11    1    4    4    0    0 -0.33571254879E-01 -0.10983524636E+00  0.43164779124E-01  0.12269584253E+00  0.51100000000E-03 0.  1.
</event>
<event>
 8    1  0.1074844E+005  0.1043930E+01  0.7957747E-01            NaN
         13   -1    0    0    0    0  0.00000000000E+00  0.00000000000E+00  0.74505805969E-08  0.10566000000E+00  0.10566000000E+00 0.  1.
     999900   -1    0    0    0    0 -0.00000000000E+00 -0.00000000000E+00 -0.74505805969E-08  0.93827000000E+00  0.93827000000E+00 0. -1.
     999902    2    1    2    0    0 -0.18783299217E-01 -0.26853532670E-02  0.12830974096E-01  0.10210246000E+01  0.10207676408E+01 0.  0.
     999903    2    3    3    0    0  0.29841343045E-01 -0.12587748888E+00 -0.10129356704E-02  0.13100644743E+00  0.20640137327E-01 0.  0.
         14    1    1    2    0    0  0.18783299217E-01  0.26853532670E-02 -0.12830974096E-01  0.22905399973E-01  0.00000000000E+00 0. -1.
     999901    1    3    3    0    0 -0.48624642262E-01  0.12319213561E+00  0.13843909767E-01  0.89001815260E+00  0.88000000000E+00 0.  1.
        -11    1    4    4    0    0  0.98150365849E-02 -0.49264640272E-01 -0.10282845282E-01  0.51277068485E-01  0.51100000000E-03 0. -1.
         11    1    4    4    0    0  0.20026306460E-01 -0.76612848606E-01  0.92699096118E-02  0.79729378947E-01  0.51100000000E-03 0.  1.
</event>
<event>
 8    1  0.1074844E+005  0.1043930E+01  0.7957747E-01            NaN
         13   -1    0    0    0    0  0.00000000000E+00  0.00000000000E+00  0.74505805969E-08  0.10566000000E+00  0.10566000000E+00 0. -1.
     999900   -1    0    0    0    0 -0.00000000000E+00 -0.00000000000E+00 -0.74505805969E-08  0.93827000000E+00  0.93827000000E+00 0.  1.
     999902    2    1    2    0    0  0.78063036432E-02  0.17482388718E-01 -0.14320450100E-01  0.10200208473E+01  0.10197405951E+01 0.  0.
     999903    2    3    3    0    0 -0.79350675656E-01 -0.84111945767E-01  0.49805566025E-01  0.12759163790E+00  0.20680486157E-01 0.  0.
         14    1    1    2    0    0 -0.78063036432E-02 -0.17482388718E-01  0.14320450100E-01  0.23909152701E-01  0.00000000000E+00 0. -1.
     999901    1    3    3    0    0  0.87156979299E-01  0.10159433448E+00 -0.64126016125E-01  0.89242920940E+00  0.88000000000E+00 0.  1.
        -11    1    4    4    0    0 -0.57875513555E-02 -0.16112054085E-01  0.96962799063E-02  0.19681793682E-01  0.51100000000E-03 0. -1.
         11    1    4    4    0    0 -0.73563124300E-01 -0.67999891682E-01  0.40109286119E-01  0.10790984422E+00  0.51100000000E-03 0.  1.
</event>
<event>
 8    1  0.1074844E+005  0.1043930E+01  0.7957747E-01            NaN
         13   -1    0    0    0    0  0.00000000000E+00  0.00000000000E+00  0.74505805969E-08  0.10566000000E+00  0.10566000000E+00 0. -1.
     999900   -1    0    0    0    0 -0.00000000000E+00 -0.00000000000E+00 -0.74505805969E-08  0.93827000000E+00  0.93827000000E+00 0.  1.
     999902    2    1    2    0    0  0.92847834607E-02 -0.47588732481E-02 -0.20957701751E-01  0.10205189056E+01  0.10202503405E+01 0.  0.
     999903    2    3    3    0    0 -0.12004968964E+00  0.11475849788E-01  0.40251095548E-01  0.12881408390E+00  0.20719421030E-01 0.  0.
         14    1    1    2    0    0 -0.92847834607E-02  0.47588732481E-02  0.20957701751E-01  0.23411094404E-01  0.00000000000E+00 0. -1.
     999901    1    3    3    0    0  0.12933447310E+00 -0.16234723036E-01 -0.61208797299E-01  0.89170482169E+00  0.88000000000E+00 0.  1.
        -11    1    4    4    0    0 -0.20561102726E-01  0.78729343402E-02  0.13094033062E-01  0.25621414154E-01  0.51100000000E-03 0. -1.
         11    1    4    4    0    0 -0.99488586915E-01  0.36029154476E-02  0.27157062486E-01  0.10319266975E+00  0.51100000000E-03 0.  1.
</event>
<event>
 8    1  0.1074844E+005  0.1043930E+01  0.7957747E-01            NaN
         13   -1    0    0    0    0  0.00000000000E+00  0.00000000000E+00  0.74505805969E-08  0.10566000000E+00  0.10566000000E+00 0. -1.
     999900   -1    0    0    0    0 -0.00000000000E+00 -0.00000000000E+00 -0.74505805969E-08  0.93827000000E+00  0.93827000000E+00 0.  1.
     999902    2    1    2    0    0 -0.12507684365E-01 -0.46152059585E-02 -0.19643975644E-01  0.10201891476E+01  0.10199128731E+01 0.  0.
     999903    2    3    3    0    0  0.22713241529E-01 -0.11079830707E+00  0.60080657341E-01  0.12953131111E+00  0.19404097009E-01 0.  0.
         14    1    1    2    0    0  0.12507684365E-01  0.46152059585E-02  0.19643975644E-01  0.23740852413E-01  0.00000000000E+00 0. -1.
     999901    1    3    3    0    0 -0.35220925894E-01  0.10618310111E+00 -0.79724632984E-01  0.89065783648E+00  0.88000000000E+00 0.  1.
        -11    1    4    4    0    0  0.23017293972E-01 -0.80228540490E-01  0.50195821811E-01  0.97397618961E-01  0.51100000000E-03 0.  1.
         11    1    4    4    0    0 -0.30405244295E-03 -0.30569766576E-01  0.98848355301E-02  0.32133692144E-01  0.51100000000E-03 0. -1.
</event>
<event>
 8    1  0.1074844E+005  0.1043930E+01  0.7957747E-01            NaN
         13   -1    0    0    0    0  0.00000000000E+00  0.00000000000E+00  0.74505805969E-08  0.10566000000E+00  0.10566000000E+00 0.  1.
     999900   -1    0    0    0    0 -0.00000000000E+00 -0.00000000000E+00 -0.74505805969E-08  0.93827000000E+00  0.93827000000E+00 0.  1.
     999902    2    1    2    0    0  0.68826847448E-02 -0.24448520071E-02  0.22763569848E-01  0.10200233323E+01  0.10197431390E+01 0.  0.
     999903    2    3    3    0    0 -0.10036711108E-01 -0.94387955487E-01 -0.84461366958E-01  0.12859919790E+00  0.19854709288E-01 0.  0.
         14    1    1    2    0    0 -0.68826847448E-02  0.24448520071E-02 -0.22763569848E-01  0.23906667749E-01  0.00000000000E+00 0. -1.
     999901    1    3    3    0    0  0.16919395853E-01  0.91943103480E-01  0.10722493681E+00  0.89142413435E+00  0.88000000000E+00 0. -1.
        -11    1    4    4    0    0 -0.64309650860E-02 -0.49915323502E-01 -0.31624369168E-01  0.59441220365E-01  0.51100000000E-03 0. -1.
         11    1    4    4    0    0 -0.36057460220E-02 -0.44472631985E-01 -0.52836997790E-01  0.69157977533E-01  0.51100000000E-03 0.  1.
</event>
<event>
 8    1  0.1074844E+005  0.1043930E+01  0.7957747E-01            NaN
         13   -1    0    0    0    0  0.00000000000E+00  0.00000000000E+00  0.74505805969E-08  0.10566000000E+00  0.10566000000E+00 0.  1.
     999900   -1    0    0    0    0 -0.00000000000E+00 -0.00000000000E+00 -0.74505805969E-08  0.93827000000E+00  0.93827000000E+00 0.  1.
     999902    2    1    2    0    0 -0.20609906475E-01 -0.98419948983E-02 -0.16178691175E-02  0.10210334804E+01  0.10207767227E+01 0.  0.
     999903    2    3    3    0    0  0.88227865854E-01  0.80754397630E-01  0.42237445434E-01  0.12863409918E+00  0.21384588484E-01 0.  0.
         14    1    1    2    0    0  0.20609906475E-01  0.98419948983E-02  0.16178691175E-02  0.22896519582E-01  0.00000000000E+00 0.  1.
     999901    1    3    3    0    0 -0.10883777233E+00 -0.90596392528E-01 -0.43855314551E-01  0.89239938124E+00  0.88000000000E+00 0. -1.
        -11    1    4    4    0    0  0.11040420471E-01  0.20582271021E-01  0.11571586973E-01  0.26070740508E-01  0.51100000000E-03 0. -1.
         11    1    4    4    0    0  0.77187445383E-01  0.60172126609E-01  0.30665858461E-01  0.10256335867E+00  0.51100000000E-03 0.  1.
</event>
<event>
 8    1  0.1074844E+005  0.1043930E+01  0.7957747E-01            NaN
         13   -1    0    0    0    0  0.00000000000E+00  0.00000000000E+00  0.74505805969E-08  0.10566000000E+00  0.10566000000E+00 0.  1.
     999900   -1    0    0    0    0 -0.00000000000E+00 -0.00000000000E+00 -0.74505805969E-08  0.93827000000E+00  0.93827000000E+00 0.  1.
     999902    2    1    2    0    0 -0.10664975705E-01  0.99629768894E-02  0.22130442129E-01  0.10174203964E+01  0.10170749746E+01 0.  0.
     999903    2    3    3    0    0 -0.11981109682E+00 -0.16721739174E-01  0.43525107433E-01  0.13001818682E+00  0.19390163635E-01 0.  0.
         14    1    1    2    0    0  0.10664975705E-01 -0.99629768894E-02 -0.22130442129E-01  0.26509603620E-01  0.00000000000E+00 0. -1.
     999901    1    3    3    0    0  0.10914612111E+00  0.26684716063E-01 -0.21394665304E-01  0.88740220956E+00  0.88000000000E+00 0.  1.
        -11    1    4    4    0    0 -0.89506633891E-01 -0.90282422622E-02  0.23838006040E-01  0.93066956122E-01  0.51100000000E-03 0. -1.
         11    1    4    4    0    0 -0.30304462926E-01 -0.76934969113E-02  0.19687101392E-01  0.36951230699E-01  0.51100000000E-03 0.  1.
</event>
<event>
 8    1  0.1074844E+005  0.1043930E+01  0.7957747E-01            NaN
         13   -1    0    0    0    0  0.00000000000E+00  0.00000000000E+00  0.74505805969E-08  0.10566000000E+00  0.10566000000E+00 0.  1.
     999900   -1    0    0    0    0 -0.00000000000E+00 -0.00000000000E+00 -0.74505805969E-08  0.93827000000E+00  0.93827000000E+00 0.  1.
     999902    2    1    2    0    0  0.10147152415E-01  0.38918180994E-02 -0.21005073619E-01  0.10202799669E+01  0.10200058268E+01 0.  0.
     999903    2    3    3    0    0 -0.27788937324E-01 -0.84937572353E-01 -0.94969291557E-01  0.13191038551E+00  0.19863716478E-01 0.  0.
         14    1    1    2    0    0 -0.10147152415E-01 -0.38918180994E-02  0.21005073619E-01  0.23650033149E-01  0.00000000000E+00 0.  1.
     999901    1    3    3    0    0  0.37936089739E-01  0.88829390452E-01  0.73964217938E-01  0.88836958134E+00  0.88000000000E+00 0. -1.
        -11    1    4    4    0    0 -0.20777126924E-01 -0.74844887637E-01 -0.72293194055E-01  0.10611320953E+00  0.51100000000E-03 0. -1.
         11    1    4    4    0    0 -0.70118104001E-02 -0.10092684716E-01 -0.22676097501E-01  0.25797175984E-01  0.51100000000E-03 0.  1.
</event>
<event>
 8    1  0.1074844E+005  0.1043930E+01  0.7957747E-01            NaN
         13   -1    0    0    0    0  0.00000000000E+00  0.00000000000E+00  0.74505805969E-08  0.10566000000E+00  0.10566000000E+00 0.  1.
     999900   -1    0    0    0    0 -0.00000000000E+00 -0.00000000000E+00 -0.74505805969E-08  0.93827000000E+00  0.93827000000E+00 0. -1.
     999902    2    1    2    0    0  0.14654050376E-01 -0.15697034377E-01 -0.87667283991E-02  0.10207353108E+01  0.10204717444E+01 0.  0.
     999903    2    3    3    0    0  0.88109303491E-01 -0.91754631986E-01 -0.37025522137E-01  0.13395518484E+00  0.19772212892E-01 0.  0.
         14    1    1    2    0    0 -0.14654050376E-01  0.15697034377E-01  0.87667283991E-02  0.23194689209E-01  0.00000000000E+00 0.  1.
     999901    1    3    3    0    0 -0.73455253115E-01  0.76057597609E-01  0.28258793738E-01  0.88678012595E+00  0.88000000000E+00 0.  1.
        -11    1    4    4    0    0  0.58732337935E-01 -0.56855393920E-01 -0.14295552509E-01  0.82985825776E-01  0.51100000000E-03 0.  1.
         11    1    4    4    0    0  0.29376965556E-01 -0.34899238066E-01 -0.22729969627E-01  0.50969359061E-01  0.51100000000E-03 0. -1.
</event>
<event>
 8    1  0.1074844E+005  0.1043930E+01  0.7957747E-01            NaN
         13   -1    0    0    0    0  0.00000000000E+00  0.00000000000E+00  0.74505805969E-08  0.10566000000E+00  0.10566000000E+00 0. -1.
     999900   -1    0    0    0    0 -0.00000000000E+00 -0.00000000000E+00 -0.74505805969E-08  0.93827000000E+00  0.93827000000E+00 0.  1.
     999902    2    1    2    0    0  0.13130352600E-01 -0.17980332409E-01  0.65161149147E-02  0.10207317616E+01  0.10204681136E+01 0.  0.
     999903    2    3    3    0    0  0.83621317391E-01  0.34258521071E-01 -0.92531072508E-01  0.13083951007E+00  0.19768839832E-01 0.  0.
         14    1    1    2    0    0 -0.13130352600E-01  0.17980332409E-01 -0.65161149147E-02  0.23198238435E-01  0.00000000000E+00 0.  1.
     999901    1    3    3    0    0 -0.70490964791E-01 -0.52238853480E-01  0.99047187422E-01  0.88989225149E+00  0.88000000000E+00 0. -1.
        -11    1    4    4    0    0  0.38358218362E-01  0.11342120153E-01 -0.53630354761E-01  0.66906447210E-01  0.51100000000E-03 0.  1.
         11    1    4    4    0    0  0.45263099029E-01  0.22916400918E-01 -0.38900717747E-01  0.63933062862E-01  0.51100000000E-03 0. -1.
</event>
<event>
 8    1  0.1074844E+005  0.1043930E+01  0.7957747E-01            NaN
         13   -1    0    0    0    0  0.00000000000E+00  0.00000000000E+00  0.74505805969E-08  0.10566000000E+00  0.10566000000E+00 0. -1.
     999900   -1    0    0    0    0 -0.00000000000E+00 -0.00000000000E+00 -0.74505805969E-08  0.93827000000E+00  0.93827000000E+00 0.  1.
     999902    2    1    2    0    0  0.21191229465E-01  0.23880422247E-02 -0.10802275592E-01  0.10200247681E+01  0.10197446090E+01 0.  0.
     999903    2    3    3    0    0  0.41631263686E-02  0.51835226170E-01 -0.11944980802E+00  0.13180223601E+00  0.19983755631E-01 0.  0.
         14    1    1    2    0    0 -0.21191229465E-01 -0.23880422247E-02  0.10802275592E-01  0.23905231852E-01  0.00000000000E+00 0. -1.
     999901    1    3    3    0    0  0.17028103097E-01 -0.49447183946E-01  0.10864753242E+00  0.88822253214E+00  0.88000000000E+00 0. -1.
        -11    1    4    4    0    0  0.62728411215E-02  0.82383750536E-02 -0.38049776766E-01  0.39436860831E-01  0.51100000000E-03 0. -1.
         11    1    4    4    0    0 -0.21097147529E-02  0.43596851117E-01 -0.81400031250E-01  0.92365375180E-01  0.51100000000E-03 0.  1.
</event>
<event>
 8    1  0.1074844E+005  0.1043930E+01  0.7957747E-01            NaN
         13   -1    0    0    0    0  0.00000000000E+00  0.00000000000E+00  0.74505805969E-08  0.10566000000E+00  0.10566000000E+00 0.  1.
     999900   -1    0    0    0    0 -0.00000000000E+00 -0.00000000000E+00 -0.74505805969E-08  0.93827000000E+00  0.93827000000E+00 0.  1.
     999902    2    1    2    0    0  0.20344293851E-01 -0.93971162770E-02  0.76195695466E-02  0.10202603163E+01  0.10199857151E+01 0.  0.
     999903    2    3    3    0    0 -0.32909237472E-01 -0.27890204727E-01 -0.12015110294E+00  0.12924781489E+00  0.20194768710E-01 0.  0.
         14    1    1    2    0    0 -0.20344293851E-01  0.93971162770E-02 -0.76195695466E-02  0.23669683705E-01  0.00000000000E+00 0. -1.
     999901    1    3    3    0    0  0.53253531324E-01  0.18493088450E-01  0.12777067249E+00  0.89101250141E+00  0.88000000000E+00 0. -1.
        -11    1    4    4    0    0 -0.35237124102E-02 -0.11852869812E-01 -0.18784250791E-01  0.22494805416E-01  0.51100000000E-03 0.  1.
         11    1    4    4    0    0 -0.29385525062E-01 -0.16037334915E-01 -0.10136685215E+00  0.10675300947E+00  0.51100000000E-03 0. -1.
</event>
<event>
 8    1  0.1074844E+005  0.1043930E+01  0.7957747E-01            NaN
         13   -1    0    0    0    0  0.00000000000E+00  0.00000000000E+00  0.74505805969E-08  0.10566000000E+00  0.10566000000E+00 0.  1.
     999900   -1    0    0    0    0 -0.00000000000E+00 -0.00000000000E+00 -0.74505805969E-08  0.93827000000E+00  0.93827000000E+00 0. -1.
     999902    2    1    2    0    0 -0.22162193318E-01 -0.52867454706E-02  0.95032733538E-02  0.10192434714E+01  0.10189444682E+01 0.  0.
     999903    2    3    3    0    0  0.11999281365E+00 -0.24318666978E-02 -0.35297465179E-01  0.12670590775E+00  0.20106882115E-01 0.  0.
         14    1    1    2    0    0  0.22162193318E-01  0.52867454706E-02 -0.95032733538E-02  0.24686528609E-01  0.00000000000E+00 0. -1.
     999901    1    3    3    0    0 -0.14215500696E+00 -0.28548787728E-02  0.44800738532E-01  0.89253756364E+00  0.88000000000E+00 0.  1.
        -11    1    4    4    0    0  0.30581722130E-01  0.74982323457E-02 -0.57257263930E-02  0.32007972139E-01  0.51100000000E-03 0.  1.
         11    1    4    4    0    0  0.89411091516E-01 -0.99300990435E-02 -0.29571738786E-01  0.94697935611E-01  0.51100000000E-03 0. -1.
</event>
<event>
 8    1  0.1074844E+005  0.1043930E+01  0.7957747E-01            NaN
         13   -1    0    0    0    0  0.00000000000E+00  0.00000000000E+00  0.74505805969E-08  0.10566000000E+00  0.10566000000E+00 0. -1.
     999900   -1    0    0    0    0 -0.00000000000E+00 -0.00000000000E+00 -0.74505805969E-08  0.93827000000E+00  0.93827000000E+00 0. -1.
     999902    2    1    2    0    0  0.40465680859E-02 -0.65337590911E-03 -0.23005547773E-01  0.10205621408E+01  0.10202945783E+01 0.  0.
     999903    2    3    3    0    0  0.38235606058E-01  0.11162234626E+00 -0.55979008255E-01  0.13215796638E+00  0.20262501258E-01 0.  0.
         14    1    1    2    0    0 -0.40465680859E-02  0.65337590911E-03  0.23005547773E-01  0.23367859159E-01  0.00000000000E+00 0. -1.
     999901    1    3    3    0    0 -0.34189037972E-01 -0.11227572217E+00  0.32973460482E-01  0.88840417446E+00  0.88000000000E+00 0. -1.
        -11    1    4    4    0    0  0.25738831325E-01  0.89983955732E-01 -0.51298439201E-01  0.10673045822E+00  0.51100000000E-03 0.  1.
         11    1    4    4    0    0  0.12496774732E-01  0.21638390527E-01 -0.46805690538E-02  0.25427508155E-01  0.51100000000E-03 0. -1.
</event>
<event>
 8    1  0.1074844E+005  0.1043930E+01  0.7957747E-01            NaN
         13   -1    0    0    0    0  0.00000000000E+00  0.00000000000E+00  0.74505805969E-08  0.10566000000E+00  0.10566000000E+00 0.  1.
     999900   -1    0    0    0    0 -0.00000000000E+00 -0.00000000000E+00 -0.74505805969E-08  0.93827000000E+00  0.93827000000E+00 0. -1.
     999902    2    1    2    0    0  0.57815139612E-02  0.31931939062E-02  0.23382642779E-01  0.10196324616E+01  0.10193429189E+01 0.  0.
     999903    2    3    3    0    0  0.12214200036E+00 -0.36761109765E-01 -0.16401226608E-01  0.13018383154E+00  0.20218365855E-01 0.  0.
         14    1    1    2    0    0 -0.57815139612E-02 -0.31931939062E-02 -0.23382642779E-01  0.24297538442E-01  0.00000000000E+00 0. -1.
     999901    1    3    3    0    0 -0.11636048640E+00  0.39954303671E-01  0.39783869387E-01  0.88944863002E+00  0.88000000000E+00 0.  1.
        -11    1    4    4    0    0  0.47436117796E-01 -0.45945695606E-02 -0.30629982072E-02  0.47759171057E-01  0.51100000000E-03 0.  1.
         11    1    4    4    0    0  0.74705882562E-01 -0.32166540204E-01 -0.13338228401E-01  0.82424660484E-01  0.51100000000E-03 0. -1.
</event>
<event>
 8    1  0.1074844E+005  0.1043930E+01  0.7957747E-01            NaN
         13   -1    0    0    0    0  0.00000000000E+00  0.00000000000E+00  0.74505805969E-08  0.10566000000E+00  0.10566000000E+00 0.  1.
     999900   -1    0    0    0    0 -0.00000000000E+00 -0.00000000000E+00 -0.74505805969E-08  0.93827000000E+00  0.93827000000E+00 0. -1.
     999902    2    1    2    0    0 -0.10109584235E-01  0.13389535130E-01  0.12232343819E-01  0.10231667252E+01  0.10229560274E+01 0.  0.
     999903    2    3    3    0    0 -0.40192665887E-01  0.50051448360E-01  0.11772516121E+00  0.13559823648E+00  0.20175982774E-01 0.  0.
         14    1    1    2    0    0  0.10109584235E-01 -0.13389535130E-01 -0.12232343819E-01  0.20763274782E-01  0.00000000000E+00 0. -1.
     999901    1    3    3    0    0  0.30083081652E-01 -0.36661913230E-01 -0.10549281739E+00  0.88756848874E+00  0.88000000000E+00 0. -1.
        -11    1    4    4    0    0 -0.43340799261E-02  0.43328136883E-02  0.28247938743E-01  0.28909595077E-01  0.51100000000E-03 0. -1.
         11    1    4    4    0    0 -0.35858585961E-01  0.45718634672E-01  0.89477222463E-01  0.10668864140E+00  0.51100000000E-03 0.  1.
</event>
<event>
 8    1  0.1074844E+005  0.1043930E+01  0.7957747E-01            NaN
         13   -1    0    0    0    0  0.00000000000E+00  0.00000000000E+00  0.74505805969E-08  0.10566000000E+00  0.10566000000E+00 0.  1.
     999900   -1    0    0    0    0 -0.00000000000E+00 -0.00000000000E+00 -0.74505805969E-08  0.93827000000E+00  0.93827000000E+00 0.  1.
     999902    2    1    2    0    0 -0.85907614229E-02 -0.18697063532E-01  0.12921268129E-01  0.10196330756E+01  0.10193435477E+01 0.  0.
     999903    2    3    3    0    0 -0.28072935053E-01  0.80265380428E-01 -0.92992014105E-01  0.12756203369E+00  0.19847840568E-01 0.  0.
         14    1    1    2    0    0  0.85907614229E-02  0.18697063532E-01 -0.12921268129E-01  0.24296924427E-01  0.00000000000E+00 0. -1.
     999901    1    3    3    0    0  0.19482173630E-01 -0.98962443960E-01  0.10591328223E+00  0.89207104188E+00  0.88000000000E+00 0. -1.
        -11    1    4    4    0    0 -0.16807268212E-01  0.41359101896E-01 -0.34548408296E-01  0.56452752025E-01  0.51100000000E-03 0.  1.
         11    1    4    4    0    0 -0.11265666840E-01  0.38906278532E-01 -0.58443605810E-01  0.71109281670E-01  0.51100000000E-03 0. -1.
</event>
<event>
 8    1  0.1074844E+005  0.1043930E+01  0.7957747E-01            NaN
         13   -1    0    0    0    0  0.00000000000E+00  0.00000000000E+00  0.74505805969E-08  0.10566000000E+00  0.10566000000E+00 0.  1.
     999900   -1    0    0    0    0 -0.00000000000E+00 -0.00000000000E+00 -0.74505805969E-08  0.93827000000E+00  0.93827000000E+00 0. -1.
     999902    2    1    2    0    0  0.98116082189E-03  0.19888590976E-01  0.30725930892E-01  0.10073157738E+01  0.10066501213E+01 0.  0.
     999903    2    3    3    0    0  0.14976768450E-01 -0.48126965854E-01  0.10837585833E+00  0.12117159583E+00  0.19917844529E-01 0.  0.
         14    1    1    2    0    0 -0.98116082189E-03 -0.19888590976E-01 -0.30725930892E-01  0.36614226152E-01  0.00000000000E+00 0. -1.
     999901    1    3    3    0    0 -0.13995607628E-01  0.68015556829E-01 -0.77649927443E-01  0.88614417802E+00  0.88000000000E+00 0. -1.
        -11    1    4    4    0    0  0.77945425210E-02 -0.50046944696E-02  0.10724599857E-01  0.14180268790E-01  0.51100000000E-03 0.  1.
         11    1    4    4    0    0  0.71822259290E-02 -0.43122271384E-01  0.97651258477E-01  0.10699132704E+00  0.51100000000E-03 0. -1.
</event>
<event>
 8    1  0.1074844E+005  0.1043930E+01  0.7957747E-01            NaN
         13   -1    0    0    0    0  0.00000000000E+00  0.00000000000E+00  0.74505805969E-08  0.10566000000E+00  0.10566000000E+00 0. -1.
     999900   -1    0    0    0    0 -0.00000000000E+00 -0.00000000000E+00 -0.74505805969E-08  0.93827000000E+00  0.93827000000E+00 0. -1.
     999902    2    1    2    0    0 -0.63743490623E-02  0.21665163530E-01  0.40503120070E-02  0.10209862282E+01  0.10207283975E+01 0.  0.
     999903    2    3    3    0    0  0.31664256405E-01  0.11443149261E+00  0.58205915573E-01  0.13363885727E+00  0.19344868307E-01 0.  0.
         14    1    1    2    0    0  0.63743490623E-02 -0.21665163530E-01 -0.40503120070E-02  0.22943771794E-01  0.00000000000E+00 0.  1.
     999901    1    3    3    0    0 -0.38038605467E-01 -0.92766329077E-01 -0.54155603566E-01  0.88734737094E+00  0.88000000000E+00 0. -1.
        -11    1    4    4    0    0  0.78946936729E-02  0.47458549971E-01  0.14687505298E-01  0.50305308730E-01  0.51100000000E-03 0. -1.
         11    1    4    4    0    0  0.23769562732E-01  0.66972942637E-01  0.43518410276E-01  0.83333548537E-01  0.51100000000E-03 0.  1.
</event>
<event>
 8    1  0.1074844E+005  0.1043930E+01  0.7957747E-01            NaN
         13   -1    0    0    0    0  0.00000000000E+00  0.00000000000E+00  0.74505805969E-08  0.10566000000E+00  0.10566000000E+00 0. -1.
     999900   -1    0    0    0    0 -0.00000000000E+00 -0.00000000000E+00 -0.74505805969E-08  0.93827000000E+00  0.93827000000E+00 0. -1.
     999902    2    1    2    0    0 -0.15997717320E-01 -0.39564466313E-02  0.17288851628E-01  0.10200451759E+01  0.10197655006E+01 0.  0.
     999903    2    3    3    0    0 -0.34581706650E-01 -0.87495104951E-01  0.91526364273E-01  0.13278237363E+00  0.20069767428E-01 0.  0.
         14    1    1    2    0    0  0.15997717320E-01  0.39564466313E-02 -0.17288851628E-01  0.23884824052E-01  0.00000000000E+00 0.  1.
     999901    1    3    3    0    0  0.18583989330E-01  0.83538658320E-01 -0.74237512644E-01  0.88726280232E+00  0.88000000000E+00 0. -1.
        -11    1    4    4    0    0 -0.75941128363E-02 -0.17466176951E-01  0.84998466098E-02  0.20862559777E-01  0.51100000000E-03 0. -1.
         11    1    4    4    0    0 -0.26987593813E-01 -0.70028928000E-01  0.83026517663E-01  0.11191981385E+00  0.51100000000E-03 0.  1.
</event>
<event>
 8    1  0.1074844E+005  0.1043930E+01  0.7957747E-01            NaN
         13   -1    0    0    0    0  0.00000000000E+00  0.00000000000E+00  0.74505805969E-08  0.10566000000E+00  0.10566000000E+00 0. -1.
     999900   -1    0    0    0    0 -0.00000000000E+00 -0.00000000000E+00 -0.74505805969E-08  0.93827000000E+00  0.93827000000E+00 0.  1.
     999902    2    1    2    0    0 -0.16462127625E-02  0.68830515422E-03 -0.23502925231E-01  0.10203594405E+01  0.10200871613E+01 0.  0.
     999903    2    3    3    0    0 -0.37977803061E-01 -0.12331720396E+00 -0.66338929489E-02  0.13076295052E+00  0.20136890900E-01 0.  0.
         14    1    1    2    0    0  0.16462127625E-02 -0.68830515422E-03  0.23502925231E-01  0.23570559494E-01  0.00000000000E+00 0. -1.
     999901    1    3    3    0    0  0.36331590298E-01  0.12400550911E+00 -0.16869032282E-01  0.88959648999E+00  0.88000000000E+00 0.  1.
        -11    1    4    4    0    0 -0.12908269510E-01 -0.73251092242E-01 -0.75286033231E-02  0.74761533728E-01  0.51100000000E-03 0.  1.
         11    1    4    4    0    0 -0.25069533551E-01 -0.50066111719E-01  0.89471037422E-03  0.56001416792E-01  0.51100000000E-03 0. -1.
</event>
<event>
 8    1  0.1074844E+005  0.1043930E+01  0.7957747E-01            NaN
         13   -1    0    0    0    0  0.00000000000E+00  0.00000000000E+00  0.74505805969E-08  0.10566000000E+00  0.10566000000E+00 0.  1.
     999900   -1    0    0    0    0 -0.00000000000E+00 -0.00000000000E+00 -0.74505805969E-08  0.93827000000E+00  0.93827000000E+00 0.  1.
     999902    2    1    2    0    0  0.47300059844E-02 -0.99930127150E-02 -0.21211034009E-01  0.10200105263E+01  0.10197300292E+01 0.  0.
     999903    2    3    3    0    0 -0.12607963757E+00  0.67773177503E-02 -0.24470554467E-01  0.13017737826E+00  0.20132926444E-01 0.  0.
         14    1    1    2    0    0 -0.47300059844E-02  0.99930127150E-02  0.21211034009E-01  0.23919473729E-01  0.00000000000E+00 0.  1.
     999901    1    3    3    0    0  0.13080964356E+00 -0.16770330465E-01  0.32595204578E-02  0.88983314801E+00  0.88000000000E+00 0.  1.
        -11    1    4    4    0    0 -0.26940837211E-01  0.29766365811E-02  0.28837168059E-02  0.27262538741E-01  0.51100000000E-03 0.  1.
         11    1    4    4    0    0 -0.99138800363E-01  0.38006811692E-02 -0.27354271273E-01  0.10291483952E+00  0.51100000000E-03 0. -1.
</event>
<event>
 8    1  0.1074844E+005  0.1043930E+01  0.7957747E-01            NaN
         13   -1    0    0    0    0  0.00000000000E+00  0.00000000000E+00  0.74505805969E-08  0.10566000000E+00  0.10566000000E+00 0.  1.
     999900   -1    0    0    0    0 -0.00000000000E+00 -0.00000000000E+00 -0.74505805969E-08  0.93827000000E+00  0.93827000000E+00 0. -1.
     999902    2    1    2    0    0 -0.17855074167E-01  0.15426337598E-01 -0.79712517081E-02  0.10190238478E+01  0.10187194343E+01 0.  0.
     999903    2    3    3    0    0 -0.11986926106E+00  0.35333370149E-01  0.35998033950E-01  0.13181672294E+00  0.21510537022E-01 0.  0.
         14    1    1    2    0    0  0.17855074167E-01 -0.15426337598E-01  0.79712517081E-02  0.24906152232E-01  0.00000000000E+00 0.  1.
     999901    1    3    3    0    0  0.10201418690E+00 -0.19907032551E-01 -0.43969285658E-01  0.88720712483E+00  0.88000000000E+00 0. -1.
        -11    1    4    4    0    0 -0.22276384374E-01  0.56121618858E-02  0.15612852695E-01  0.27780495893E-01  0.51100000000E-03 0.  1.
         11    1    4    4    0    0 -0.97592876690E-01  0.29721208263E-01  0.20385181255E-01  0.10403622704E+00  0.51100000000E-03 0. -1.
</event>
<event>
 8    1  0.1074844E+005  0.1043930E+01  0.7957747E-01            NaN
         13   -1    0    0    0    0  0.00000000000E+00  0.00000000000E+00  0.74505805969E-08  0.10566000000E+00  0.10566000000E+00 0. -1.
     999900   -1    0    0    0    0 -0.00000000000E+00 -0.00000000000E+00 -0.74505805969E-08  0.93827000000E+00  0.93827000000E+00 0.  1.
     999902    2    1    2    0    0  0.21049278797E-01 -0.12015391398E-01  0.26581191274E-02  0.10195474783E+01  0.10192558821E+01 0.  0.
     999903    2    3    3    0    0 -0.12265212255E-01 -0.89441023525E-01  0.92722908176E-01  0.13094393898E+00  0.19966104626E-01 0.  0.
         14    1    1    2    0    0 -0.21049278797E-01  0.12015391398E-01 -0.26581191274E-02  0.24382521724E-01  0.00000000000E+00 0. -1.
     999901    1    3    3    0    0  0.33314491052E-01  0.77425632127E-01 -0.90064789049E-01  0.88860353930E+00  0.88000000000E+00 0. -1.
        -11    1    4    4    0    0 -0.17749707816E-01 -0.65283915742E-01  0.66461934970E-01  0.94839294088E-01  0.51100000000E-03 0.  1.
         11    1    4    4    0    0  0.54844955606E-02 -0.24157107783E-01  0.26260973207E-01  0.36104644892E-01  0.51100000000E-03 0. -1.
</event>
<event>
 8    1  0.1074844E+005  0.1043930E+01  0.7957747E-01            NaN
         13   -1    0    0    0    0  0.00000000000E+00  0.00000000000E+00  0.74505805969E-08  0.10566000000E+00  0.10566000000E+00 0.  1.
     999900   -1    0    0    0    0 -0.00000000000E+00 -0.00000000000E+00 -0.74505805969E-08  0.93827000000E+00  0.93827000000E+00 0.  1.
     999902    2    1    2    0    0 -0.10098237169E-01  0.85827567455E-02 -0.16478368921E-01  0.10227834932E+01  0.10225648631E+01 0.  0.
     999903    2    3    3    0    0  0.85050898296E-01  0.90043611182E-01 -0.44537636383E-01  0.13347108956E+00  0.22122917499E-01 0.  0.
         14    1    1    2    0    0  0.10098237169E-01 -0.85827567455E-02  0.16478368921E-01  0.21146506793E-01  0.00000000000E+00 0.  1.
     999901    1    3    3    0    0 -0.95149135465E-01 -0.81460854436E-01  0.28059267462E-01  0.88931240364E+00  0.88000000000E+00 0.  1.
        -11    1    4    4    0    0  0.46640429480E-01  0.33904089946E-01 -0.17374224782E-01  0.60224096381E-01  0.51100000000E-03 0.  1.
         11    1    4    4    0    0  0.38410468816E-01  0.56139521236E-01 -0.27163411601E-01  0.73246993181E-01  0.51100000000E-03 0. -1.
</event>
<event>
 8    1  0.1074844E+005  0.1043930E+01  0.7957747E-01            NaN
         13   -1    0    0    0    0  0.00000000000E+00  0.00000000000E+00  0.74505805969E-08  0.10566000000E+00  0.10566000000E+00 0.  1.
     999900   -1    0    0    0    0 -0.00000000000E+00 -0.00000000000E+00 -0.74505805969E-08  0.93827000000E+00  0.93827000000E+00 0.  1.
     999902    2    1    2    0    0  0.20538723338E-01 -0.54372053039E-02 -0.22914008212E-01  0.10126817340E+01  0.10121995061E+01 0.  0.
     999903    2    3    3    0    0  0.25565974806E-01  0.97276439356E-01  0.66393374912E-01  0.12220367430E+00  0.20231981109E-01 0.  0.
         14    1    1    2    0    0 -0.20538723338E-01  0.54372053039E-02  0.22914008212E-01  0.31248266036E-01  0.00000000000E+00 0.  1.
     999901    1    3    3    0    0 -0.50272514673E-02 -0.10271364466E+00 -0.89307383124E-01  0.89047805966E+00  0.88000000000E+00 0.  1.
        -11    1    4    4    0    0  0.72576700111E-02  0.57372649971E-01  0.29860766929E-01  0.65086260158E-01  0.51100000000E-03 0.  1.
         11    1    4    4    0    0  0.18308304795E-01  0.39903789385E-01  0.36532607983E-01  0.57117414146E-01  0.51100000000E-03 0. -1.
</event>
<event>
 8    1  0.1074844E+005  0.1043930E+01  0.7957747E-01            NaN
         13   -1    0    0    0    0  0.00000000000E+00  0.00000000000E+00  0.74505805969E-08  0.10566000000E+00  0.10566000000E+00 0.  1.
     999900   -1    0    0    0    0 -0.00000000000E+00 -0.00000000000E+00 -0.74505805969E-08  0.93827000000E+00  0.93827000000E+00 0. -1.
     999902    2    1    2    0    0 -0.71117564457E-02  0.52143039005E-02  0.22302976006E-01  0.10199469063E+01  0.10196648973E+01 0.  0.
     999903    2    3    3    0    0 -0.12382607905E+00  0.35805668091E-01  0.18624375841E-01  0.13170617498E+00  0.19613909131E-01 0.  0.
         14    1    1    2    0    0  0.71117564457E-02 -0.52143039005E-02 -0.22302976006E-01  0.23983093705E-01  0.00000000000E+00 0. -1.
     999901    1    3    3    0    0  0.11671432261E+00 -0.30591364190E-01  0.36786001654E-02  0.88824073131E+00  0.88000000000E+00 0. -1.
        -11    1    4    4    0    0 -0.86101639634E-01  0.33708343390E-01  0.10541524520E-01  0.93065190173E-01  0.51100000000E-03 0.  1.
         11    1    4    4    0    0 -0.37724439421E-01  0.20973247009E-02  0.80828513211E-02  0.38640984809E-01  0.51100000000E-03 0. -1.
</event>
<event>
 8    1  0.1074844E+005  0.1043930E+01  0.7957747E-01            NaN
         13   -1    0    0    0    0  0.00000000000E+00  0.00000000000E+00  0.74505805969E-08  0.10566000000E+00  0.10566000000E+00 0. -1.
     999900   -1    0    0    0    0 -0.00000000000E+00 -0.00000000000E+00 -0.74505805969E-08  0.93827000000E+00  0.93827000000E+00 0.  1.
     999902    2    1    2    0    0  0.12448576017E-03  0.14384378124E-01 -0.20987919815E-01  0.10184855780E+01  0.10181676945E+01 0.  0.
     999903    2    3    3    0    0  0.60220212578E-01 -0.92859635030E-01  0.57679330551E-01  0.12646466404E+00  0.20421073828E-01 0.  0.
         14    1    1    2    0    0 -0.12448576017E-03 -0.14384378124E-01  0.20987919815E-01  0.25444421960E-01  0.00000000000E+00 0. -1.
     999901    1    3    3    0    0 -0.60095726818E-01  0.10724401315E+00 -0.78667250366E-01  0.89202091400E+00  0.88000000000E+00 0.  1.
        -11    1    4    4    0    0  0.31905931924E-01 -0.32028117349E-01  0.19246486388E-01  0.49137329518E-01  0.51100000000E-03 0.  1.
         11    1    4    4    0    0  0.28314280654E-01 -0.60831517681E-01  0.38432844163E-01  0.77327334519E-01  0.51100000000E-03 0. -1.
</event>
<event>
 8    1  0.1074844E+005  0.1043930E+01  0.7957747E-01            NaN
         13   -1    0    0    0    0  0.00000000000E+00  0.00000000000E+00  0.74505805969E-08  0.10566000000E+00  0.10566000000E+00 0. -1.
     999900   -1    0    0    0    0 -0.00000000000E+00 -0.00000000000E+00 -0.74505805969E-08  0.93827000000E+00  0.93827000000E+00 0.  1.
     999902    2    1    2    0    0  0.58480027845E-02 -0.35385358091E-02 -0.22878034600E-01  0.10200527129E+01  0.10197732161E+01 0.  0.
     999903    2    3    3    0    0  0.10758965806E+00  0.40969635290E-01  0.55655785021E-01  0.12960344284E+00  0.21105460280E-01 0.  0.
         14    1    1    2    0    0 -0.58480027845E-02  0.35385358091E-02  0.22878034600E-01  0.23877287103E-01  0.00000000000E+00 0. -1.
     999901    1    3    3    0    0 -0.10174165527E+00 -0.44508171099E-01 -0.78533819622E-01  0.89044927005E+00  0.88000000000E+00 0.  1.
        -11    1    4    4    0    0  0.90753313065E-01  0.42010324979E-01  0.49965276604E-01  0.11179365467E+00  0.51100000000E-03 0.  1.
         11    1    4    4    0    0  0.16836344995E-01 -0.10406896892E-02  0.56905084170E-02  0.17809788175E-01  0.51100000000E-03 0. -1.
</event>
<event>
 8    1  0.1074844E+005  0.1043930E+01  0.7957747E-01            NaN
         13   -1    0    0    0    0  0.00000000000E+00  0.00000000000E+00  0.74505805969E-08  0.10566000000E+00  0.10566000000E+00 0. -1.
     999900   -1    0    0    0    0 -0.00000000000E+00 -0.00000000000E+00 -0.74505805969E-08  0.93827000000E+00  0.93827000000E+00 0.  1.
     999902    2    1    2    0    0  0.87518829051E-03  0.47225265435E-02 -0.23169112974E-01  0.10202683008E+01  0.10199938871E+01 0.  0.
     999903    2    3    3    0    0  0.81212176797E-02  0.12822684579E+00  0.14389299748E-01  0.13082102517E+00  0.19975247759E-01 0.  0.
         14    1    1    2    0    0 -0.87518829051E-03 -0.47225265435E-02  0.23169112974E-01  0.23661699168E-01  0.00000000000E+00 0. -1.
     999901    1    3    3    0    0 -0.72460293892E-02 -0.12350431924E+00 -0.37558412723E-01  0.88944727566E+00  0.88000000000E+00 0. -1.
        -11    1    4    4    0    0  0.11948458192E-01  0.78331670161E-01  0.19940300213E-02  0.79264452815E-01  0.51100000000E-03 0. -1.
         11    1    4    4    0    0 -0.38272405121E-02  0.49895175625E-01  0.12395269727E-01  0.51556572357E-01  0.51100000000E-03 0.  1.
</event>
<event>
 8    1  0.1074844E+005  0.1043930E+01  0.7957747E-01            NaN
         13   -1    0    0    0    0  0.00000000000E+00  0.00000000000E+00  0.74505805969E-08  0.10566000000E+00  0.10566000000E+00 0. -1.
     999900   -1    0    0    0    0 -0.00000000000E+00 -0.00000000000E+00 -0.74505805969E-08  0.93827000000E+00  0.93827000000E+00 0. -1.
     999902    2    1    2    0    0  0.17720374966E-01 -0.85736912549E-02  0.14027603137E-01  0.10197578358E+01  0.10194713092E+01 0.  0.
     999903    2    3    3    0    0  0.19656921501E-01 -0.10759041741E+00  0.71956698599E-01  0.13230989800E+00  0.19132437221E-01 0.  0.
         14    1    1    2    0    0 -0.17720374966E-01  0.85736912549E-02 -0.14027603137E-01  0.24172164165E-01  0.00000000000E+00 0. -1.
     999901    1    3    3    0    0 -0.19365465348E-02  0.99016726152E-01 -0.57929095463E-01  0.88744793784E+00  0.88000000000E+00 0. -1.
        -11    1    4    4    0    0  0.22303340804E-01 -0.79014362845E-01  0.56944608414E-01  0.99918257067E-01  0.51100000000E-03 0. -1.
         11    1    4    4    0    0 -0.26464193024E-02 -0.28576054562E-01  0.15012090186E-01  0.32391640931E-01  0.51100000000E-03 0.  1.
</event>
<event>
 8    1  0.1074844E+005  0.1043930E+01  0.7957747E-01            NaN
         13   -1    0    0    0    0  0.00000000000E+00  0.00000000000E+00  0.74505805969E-08  0.10566000000E+00  0.10566000000E+00 0. -1.
     999900   -1    0    0    0    0 -0.00000000000E+00 -0.00000000000E+00 -0.74505805969E-08  0.93827000000E+00  0.93827000000E+00 0. -1.
     999902    2    1    2    0    0  0.17885329830E-01  0.12876785937E-01 -0.64810332457E-02  0.10209582689E+01  0.10206998023E+01 0.  0.
     999903    2    3    3    0    0 -0.60760638801E-01 -0.64170641563E-01 -0.93107730276E-01  0.12987708340E+00  0.19730202440E-01 0.  0.
         14    1    1    2    0    0 -0.17885329830E-01 -0.12876785937E-01  0.64810332457E-02  0.22971731131E-01  0.00000000000E+00 0. -1.
     999901    1    3    3    0    0  0.78645968631E-01  0.77047427500E-01  0.86626697030E-01  0.89108118547E+00  0.88000000000E+00 0.  1.
        -11    1    4    4    0    0 -0.32609166181E-01 -0.36585508685E-01 -0.37480429580E-01  0.61700088227E-01  0.51100000000E-03 0. -1.
         11    1    4    4    0    0 -0.28151472620E-01 -0.27585132878E-01 -0.55627300696E-01  0.68176995169E-01  0.51100000000E-03 0.  1.
</event>
<event>
 8    1  0.1074844E+005  0.1043930E+01  0.7957747E-01            NaN
         13   -1    0    0    0    0  0.00000000000E+00  0.00000000000E+00  0.74505805969E-08  0.10566000000E+00  0.10566000000E+00 0. -1.
     999900   -1    0    0    0    0 -0.00000000000E+00 -0.00000000000E+00 -0.74505805969E-08  0.93827000000E+00  0.93827000000E+00 0.  1.
     999902    2    1    2    0    0 -0.14392980070E-02  0.18431071187E-01 -0.16628427074E-01  0.10190647521E+01  0.10187613501E+01 0.  0.
     999903    2    3    3    0    0 -0.11910371371E+00  0.49415261030E-01  0.11838045529E-02  0.13051412875E+00  0.20123960048E-01 0.  0.
         14    1    1    2    0    0  0.14392980070E-02 -0.18431071187E-01  0.16628427074E-01  0.24865247853E-01  0.00000000000E+00 0.  1.
     999901    1    3    3    0    0  0.11766441570E+00 -0.30984189843E-01 -0.17812231626E-01  0.88855062340E+00  0.88000000000E+00 0.  1.
        -11    1    4    4    0    0 -0.65857462196E-01  0.18263537773E-01  0.61613214223E-02  0.68622045595E-01  0.51100000000E-03 0.  1.
         11    1    4    4    0    0 -0.53246251514E-01  0.31151723257E-01 -0.49775168695E-02  0.61892083156E-01  0.51100000000E-03 0. -1.
</event>
<event>
 8    1  0.1074844E+005  0.1043930E+01  0.7957747E-01            NaN
         13   -1    0    0    0    0  0.00000000000E+00  0.00000000000E+00  0.74505805969E-08  0.10566000000E+00  0.10566000000E+00 0. -1.
     999900   -1    0    0    0    0 -0.00000000000E+00 -0.00000000000E+00 -0.74505805969E-08  0.93827000000E+00  0.93827000000E+00 0. -1.
     999902    2    1    2    0    0  0.35923137782E-02 -0.88750565813E-02 -0.23807892381E-01  0.10182689968E+01  0.10179456089E+01 0.  0.
     999903    2    3    3    0    0 -0.13156194723E-01  0.11971645098E+00  0.34457022103E-01  0.12685938911E+00  0.20022590708E-01 0.  0.
         14    1    1    2    0    0 -0.35923137782E-02  0.88750565813E-02  0.23807892381E-01  0.25661003239E-01  0.00000000000E+00 0. -1.
     999901    1    3    3    0    0  0.16748508501E-01 -0.12859150756E+00 -0.58264914484E-01  0.89140960765E+00  0.88000000000E+00 0. -1.
        -11    1    4    4    0    0  0.33312068886E-02  0.45103294700E-01  0.76045321943E-02  0.45863865548E-01  0.51100000000E-03 0.  1.
         11    1    4    4    0    0 -0.16487401612E-01  0.74613156278E-01  0.26852489909E-01  0.80995523561E-01  0.51100000000E-03 0. -1.
</event>
<event>
 8    1  0.1074844E+005  0.1043930E+01  0.7957747E-01            NaN
         13   -1    0    0    0    0  0.00000000000E+00  0.00000000000E+00  0.74505805969E-08  0.10566000000E+00  0.10566000000E+00 0.  1.
     999900   -1    0    0    0    0 -0.00000000000E+00 -0.00000000000E+00 -0.74505805969E-08  0.93827000000E+00  0.93827000000E+00 0.  1.
     999902    2    1    2    0    0  0.18515487655E-01 -0.11298490458E-01 -0.88142358227E-02  0.10205169711E+01  0.10202483611E+01 0.  0.
     999903    2    3    3    0    0  0.79430471270E-01  0.39969476251E-01 -0.96404618164E-01  0.13259179703E+00  0.19492958712E-01 0.  0.
         14    1    1    2    0    0 -0.18515487655E-01  0.11298490458E-01  0.88142358227E-02  0.23413028913E-01  0.00000000000E+00 0. -1.
     999901    1    3    3    0    0 -0.60914983615E-01 -0.51267966709E-01  0.87590382341E-01  0.88792517405E+00  0.88000000000E+00 0. -1.
        -11    1    4    4    0    0  0.61875323395E-01  0.26227638975E-01 -0.61070318321E-01  0.90809083204E-01  0.51100000000E-03 0. -1.
         11    1    4    4    0    0  0.17555147875E-01  0.13741837276E-01 -0.35334299842E-01  0.41782713830E-01  0.51100000000E-03 0.  1.
</event>
<event>
 8    1  0.1074844E+005  0.1043930E+01  0.7957747E-01            NaN
         13   -1    0    0    0    0  0.00000000000E+00  0.00000000000E+00  0.74505805969E-08  0.10566000000E+00  0.10566000000E+00 0.  1.
     999900   -1    0    0    0    0 -0.00000000000E+00 -0.00000000000E+00 -0.74505805969E-08  0.93827000000E+00  0.93827000000E+00 0.  1.
     999902    2    1    2    0    0  0.19763546031E-01  0.83205558826E-02 -0.19574464466E-02  0.10223972111E+01  0.10221704340E+01 0.  0.
     999903    2    3    3    0    0 -0.29797557337E-01 -0.96043987681E-01  0.81435802085E-01  0.13093622213E+00  0.20004059894E-01 0.  0.
         14    1    1    2    0    0 -0.19763546031E-01 -0.83205558826E-02  0.19574464466E-02  0.21532788916E-01  0.00000000000E+00 0.  1.
     999901    1    3    3    0    0  0.49561103368E-01  0.10436454356E+00 -0.83393248532E-01  0.89146098895E+00  0.88000000000E+00 0.  1.
        -11    1    4    4    0    0 -0.25705242614E-01 -0.63629448994E-01  0.45366739071E-01  0.82267055448E-01  0.51100000000E-03 0.  1.
         11    1    4    4    0    0 -0.40923147230E-02 -0.32414538686E-01  0.36069063015E-01  0.48669166685E-01  0.51100000000E-03 0. -1.
</event>
<event>
 8    1  0.1074844E+005  0.1043930E+01  0.7957747E-01            NaN
         13   -1    0    0    0    0  0.00000000000E+00  0.00000000000E+00  0.74505805969E-08  0.10566000000E+00  0.10566000000E+00 0.  1.
     999900   -1    0    0    0    0 -0.00000000000E+00 -0.00000000000E+00 -0.74505805969E-08  0.93827000000E+00  0.93827000000E+00 0.  1.
     999902    2    1    2    0    0  0.56511943829E-02 -0.16862339366E-01  0.12938503465E-01  0.10219372885E+01  0.10217006128E+01 0.  0.
     999903    2    3    3    0    0 -0.57057196812E-01  0.49426835677E-01 -0.10100080444E+00  0.12991219753E+00  0.31264688942E-01 0.  0.
         14    1    1    2    0    0 -0.56511943829E-02  0.16862339366E-01 -0.12938503465E-01  0.21992711492E-01  0.00000000000E+00 0. -1.
     999901    1    3    3    0    0  0.62708391195E-01 -0.66289175043E-01  0.11393930791E+00  0.89202509098E+00  0.88000000000E+00 0. -1.
        -11    1    4    4    0    0 -0.13140507578E-01  0.28578452756E-01 -0.27480685242E-01  0.41771402702E-01  0.51100000000E-03 0.  1.
         11    1    4    4    0    0 -0.43916689234E-01  0.20848382921E-01 -0.73520119203E-01  0.88140794825E-01  0.51100000000E-03 0. -1.
</event>
<event>
 8    1  0.1074844E+005  0.1043930E+01  0.7957747E-01            NaN
         13   -1    0    0    0    0  0.00000000000E+00  0.00000000000E+00  0.74505805969E-08  0.10566000000E+00  0.10566000000E+00 0. -1.
     999900   -1    0    0    0    0 -0.00000000000E+00 -0.00000000000E+00 -0.74505805969E-08  0.93827000000E+00  0.93827000000E+00 0.  1.
     999902    2    1    2    0    0  0.19398653153E-01 -0.15541571647E-01  0.78240330868E-03  0.10190611370E+01  0.10187576456E+01 0.  0.
     999903    2    3    3    0    0  0.12355665102E-01  0.78916017813E-01 -0.98585064862E-01  0.12841769899E+00  0.19791161479E-01 0.  0.
         14    1    1    2    0    0 -0.19398653153E-01  0.15541571647E-01 -0.78240330868E-03  0.24868863028E-01  0.00000000000E+00 0.  1.
     999901    1    3    3    0    0  0.70429880510E-02 -0.94457589460E-01  0.99367468171E-01  0.89064343798E+00  0.88000000000E+00 0.  1.
        -11    1    4    4    0    0  0.30446593331E-02  0.66868235357E-01 -0.82895477798E-01  0.10654835621E+00  0.51100000000E-03 0.  1.
         11    1    4    4    0    0  0.93110057685E-02  0.12047782456E-01 -0.15689587064E-01  0.21869342783E-01  0.51100000000E-03 0. -1.
</event>
<event>
 8    1  0.1074844E+005  0.1043930E+01  0.7957747E-01            NaN
         13   -1    0    0    0    0  0.00000000000E+00  0.00000000000E+00  0.74505805969E-08  0.10566000000E+00  0.10566000000E+00 0. -1.
     999900   -1    0    0    0    0 -0.00000000000E+00 -0.00000000000E+00 -0.74505805969E-08  0.93827000000E+00  0.93827000000E+00 0.  1.
     999902    2    1    2    0    0  0.20558526103E-01 -0.19535647141E-01 -0.45173979313E-02  0.10152123854E+01  0.10148061323E+01 0.  0.
     999903    2    3    3    0    0  0.61468939232E-01  0.70424705879E-01  0.81249690546E-01  0.12553687124E+00  0.20492050604E-01 0.  0.
         14    1    1    2    0    0 -0.20558526103E-01  0.19535647141E-01  0.45173979313E-02  0.28717614609E-01  0.00000000000E+00 0.  1.
     999901    1    3    3    0    0 -0.40910413129E-01 -0.89960353020E-01 -0.85767088477E-01  0.88967551415E+00  0.88000000000E+00 0.  1.
        -11    1    4    4    0    0  0.59936872657E-02  0.19320272392E-01  0.18570357508E-01  0.27464823162E-01  0.51100000000E-03 0.  1.
         11    1    4    4    0    0  0.55475251966E-01  0.51104433487E-01  0.62679333038E-01  0.98072048076E-01  0.51100000000E-03 0. -1.
</event>
<event>
 8    1  0.1074844E+005  0.1043930E+01  0.7957747E-01            NaN
         13   -1    0    0    0    0  0.00000000000E+00  0.00000000000E+00  0.74505805969E-08  0.10566000000E+00  0.10566000000E+00 0. -1.
     999900   -1    0    0    0    0 -0.00000000000E+00 -0.00000000000E+00 -0.74505805969E-08  0.93827000000E+00  0.93827000000E+00 0.  1.
     999902    2    1    2    0    0 -0.30811624034E-02  0.23479244289E-01 -0.54268628686E-02  0.10196355703E+01  0.10193461026E+01 0.  0.
     999903    2    3    3    0    0 -0.70585572552E-01  0.95940409560E-01 -0.55269528498E-01  0.13267911298E+00  0.19030002641E-01 0.  0.
         14    1    1    2    0    0  0.30811624034E-02 -0.23479244289E-01  0.54268628686E-02  0.24294429706E-01  0.00000000000E+00 0.  1.
     999901    1    3    3    0    0  0.67504410148E-01 -0.72461165270E-01  0.49842665630E-01  0.88695645732E+00  0.88000000000E+00 0.  1.
        -11    1    4    4    0    0 -0.55850553238E-01  0.68729137291E-01 -0.48596006380E-01  0.10101886738E+00  0.51100000000E-03 0. -1.
         11    1    4    4    0    0 -0.14735019314E-01  0.27211272268E-01 -0.66735221183E-02  0.31660245595E-01  0.51100000000E-03 0.  1.
</event>
<event>
 8    1  0.1074844E+005  0.1043930E+01  0.7957747E-01            NaN
         13   -1    0    0    0    0  0.00000000000E+00  0.00000000000E+00  0.74505805969E-08  0.10566000000E+00  0.10566000000E+00 0. -1.
     999900   -1    0    0    0    0 -0.00000000000E+00 -0.00000000000E+00 -0.74505805969E-08  0.93827000000E+00  0.93827000000E+00 0.  1.
     999902    2    1    2    0    0  0.11143169982E-01 -0.12264219648E-01  0.16985742958E-01  0.10202003396E+01  0.10199243286E+01 0.  0.
     999903    2    3    3    0    0 -0.11908002520E+00  0.39622568939E-01 -0.18460000596E-01  0.12840063103E+00  0.19898493821E-01 0.  0.
         14    1    1    2    0    0 -0.11143169982E-01  0.12264219648E-01 -0.16985742958E-01  0.23729660441E-01  0.00000000000E+00 0.  1.
     999901    1    3    3    0    0  0.13022319518E+00 -0.51886788587E-01  0.35445743554E-01  0.89179970853E+00  0.88000000000E+00 0. -1.
        -11    1    4    4    0    0 -0.57252314895E-01  0.22335208107E-01 -0.18563951364E-01  0.64199458668E-01  0.51100000000E-03 0.  1.
         11    1    4    4    0    0 -0.61827710305E-01  0.17287360832E-01  0.10395076768E-03  0.64201172364E-01  0.51100000000E-03 0. -1.
</event>
<event>
 8    1  0.1074844E+005  0.1043930E+01  0.7957747E-01            NaN
         13   -1    0    0    0    0  0.00000000000E+00  0.00000000000E+00  0.74505805969E-08  0.10566000000E+00  0.10566000000E+00 0.  1.
     999900   -1    0    0    0    0 -0.00000000000E+00 -0.00000000000E+00 -0.74505805969E-08  0.93827000000E+00  0.93827000000E+00 0. -1.
     999902    2    1    2    0    0 -0.66749651842E-02  0.19972672897E-01  0.73850516708E-02  0.10216140458E+01  0.10213702839E+01 0.  0.
     999903    2    3    3    0    0  0.73257421546E-01 -0.82060165169E-01  0.66532834984E-01  0.13015549560E+00  0.20330134875E-01 0.  0.
         14    1    1    2    0    0  0.66749651842E-02 -0.19972672897E-01 -0.73850516708E-02  0.22315954182E-01  0.00000000000E+00 0. -1.
     999901    1    3    3    0    0 -0.79932386730E-01  0.10203283807E+00 -0.59147783313E-01  0.89145855022E+00  0.88000000000E+00 0. -1.
        -11    1    4    4    0    0  0.34193277772E-01 -0.27804689563E-01  0.18333897988E-01  0.47735457921E-01  0.51100000000E-03 0. -1.
         11    1    4    4    0    0  0.39064143773E-01 -0.54255475605E-01  0.48198936996E-01  0.82420037676E-01  0.51100000000E-03 0.  1.
</event>
<event>
 8    1  0.1074844E+005  0.1043930E+01  0.7957747E-01            NaN
         13   -1    0    0    0    0  0.00000000000E+00  0.00000000000E+00  0.74505805969E-08  0.10566000000E+00  0.10566000000E+00 0.  1.
     999900   -1    0    0    0    0 -0.00000000000E+00 -0.00000000000E+00 -0.74505805969E-08  0.93827000000E+00  0.93827000000E+00 0.  1.
     999902    2    1    2    0    0 -0.16397399413E-03  0.18806317922E-01  0.13001123602E-01  0.10210666298E+01  0.10208106234E+01 0.  0.
     999903    2    3    3    0    0  0.11559643038E+00  0.59595337592E-01  0.15968899643E-01  0.13254368524E+00  0.19967066908E-01 0.  0.
         14    1    1    2    0    0  0.16397399413E-03 -0.18806317922E-01 -0.13001123602E-01  0.22863370184E-01  0.00000000000E+00 0.  1.
     999901    1    3    3    0    0 -0.11576040438E+00 -0.40789019670E-01 -0.29677760409E-02  0.88852294458E+00  0.88000000000E+00 0.  1.
        -11    1    4    4    0    0  0.53377491763E-01  0.16500476464E-01  0.78806215353E-02  0.56425062403E-01  0.51100000000E-03 0.  1.
         11    1    4    4    0    0  0.62218938619E-01  0.43094861127E-01  0.80882781078E-02  0.76118622835E-01  0.51100000000E-03 0. -1.
</event>
<event>
 8    1  0.1074844E+005  0.1043930E+01  0.7957747E-01            NaN
         13   -1    0    0    0    0  0.00000000000E+00  0.00000000000E+00  0.74505805969E-08  0.10566000000E+00  0.10566000000E+00 0. -1.
     999900   -1    0    0    0    0 -0.00000000000E+00 -0.00000000000E+00 -0.74505805969E-08  0.93827000000E+00  0.93827000000E+00 0.  1.
     999902    2    1    2    0    0  0.42924491926E-02  0.22554795699E-01 -0.79226472714E-02  0.10196418904E+01  0.10193525751E+01 0.  0.
     999903    2    3    3    0    0 -0.41540873541E-01  0.12334859007E+00 -0.16265640738E-01  0.13266405075E+00  0.19866062699E-01 0.  0.
         14    1    1    2    0    0 -0.42924491926E-02 -0.22554795699E-01  0.79226472714E-02  0.24288109619E-01  0.00000000000E+00 0.  1.
     999901    1    3    3    0    0  0.45833322733E-01 -0.10079379437E+00  0.83429934668E-02  0.88697783963E+00  0.88000000000E+00 0.  1.
        -11    1    4    4    0    0 -0.10657454439E-01  0.61750743215E-01 -0.10185509789E-01  0.63488119782E-01  0.51100000000E-03 0.  1.
         11    1    4    4    0    0 -0.30883419102E-01  0.61597846850E-01 -0.60801309488E-02  0.69175930969E-01  0.51100000000E-03 0. -1.
</event>
<event>
 8    1  0.1074844E+005  0.1043930E+01  0.7957747E-01            NaN
         13   -1    0    0    0    0  0.00000000000E+00  0.00000000000E+00  0.74505805969E-08  0.10566000000E+00  0.10566000000E+00 0.  1.
     999900   -1    0    0    0    0 -0.00000000000E+00 -0.00000000000E+00 -0.74505805969E-08  0.93827000000E+00  0.93827000000E+00 0.  1.
     999902    2    1    2    0    0 -0.22317001628E-01 -0.60680470353E-02  0.18722909854E-02  0.10207270857E+01  0.10204633302E+01 0.  0.
     999903    2    3    3    0    0  0.12570116925E+00  0.13693850036E-01  0.89573407174E-02  0.12811848764E+00  0.18595898512E-01 0.  0.
         14    1    1    2    0    0  0.22317001628E-01  0.60680470353E-02 -0.18722909854E-02  0.23202914257E-01  0.00000000000E+00 0.  1.
     999901    1    3    3    0    0 -0.14801817088E+00 -0.19761897072E-01 -0.70850497320E-02  0.89260859811E+00  0.88000000000E+00 0.  1.
        -11    1    4    4    0    0  0.50989350815E-01 -0.27318414933E-02 -0.27312305553E-03  0.51065767121E-01  0.51100000000E-03 0. -1.
         11    1    4    4    0    0  0.74711818436E-01  0.16425691530E-01  0.92304637729E-02  0.77052720515E-01  0.51100000000E-03 0.  1.
</event>
<event>
 8    1  0.1074844E+005  0.1043930E+01  0.7957747E-01            NaN
         13   -1    0    0    0    0  0.00000000000E+00  0.00000000000E+00  0.74505805969E-08  0.10566000000E+00  0.10566000000E+00 0.  1.
     999900   -1    0    0    0    0 -0.00000000000E+00 -0.00000000000E+00 -0.74505805969E-08  0.93827000000E+00  0.93827000000E+00 0.  1.
     999902    2    1    2    0    0  0.20236909950E-01 -0.33359583520E-02  0.11835440118E-01  0.10202500763E+01  0.10199752347E+01 0.  0.
     999903    2    3    3    0    0 -0.15299967216E-01 -0.37025838203E-01  0.12381830919E+00  0.13180309388E+00  0.20882532794E-01 0.  0.
         14    1    1    2    0    0 -0.20236909950E-01  0.33359583520E-02 -0.11835440118E-01  0.23679923675E-01  0.00000000000E+00 0. -1.
     999901    1    3    3    0    0  0.35536877166E-01  0.33689879851E-01 -0.11198286907E+00  0.88844698244E+00  0.88000000000E+00 0.  1.
        -11    1    4    4    0    0 -0.17696668773E-01 -0.17819740046E-01  0.58237301010E-01  0.63423651510E-01  0.51100000000E-03 0. -1.
         11    1    4    4    0    0  0.23967015568E-02 -0.19206098157E-01  0.65581008178E-01  0.68379442374E-01  0.51100000000E-03 0.  1.
</event>
<event>
 8    1  0.1074844E+005  0.1043930E+01  0.7957747E-01            NaN
         13   -1    0    0    0    0  0.00000000000E+00  0.00000000000E+00  0.74505805969E-08  0.10566000000E+00  0.10566000000E+00 0. -1.
     999900   -1    0    0    0    0 -0.00000000000E+00 -0.00000000000E+00 -0.74505805969E-08  0.93827000000E+00  0.93827000000E+00 0.  1.
     999902    2    1    2    0    0  0.11710258270E-01 -0.20818319478E-01  0.36539691457E-02  0.10197663069E+01  0.10194799834E+01 0.  0.
     999903    2    3    3    0    0  0.43750736155E-01 -0.29808329896E-01 -0.11799431169E+00  0.13077490268E+00  0.19410155453E-01 0.  0.
         14    1    1    2    0    0 -0.11710258270E-01  0.20818319478E-01 -0.36539691457E-02  0.24163693119E-01  0.00000000000E+00 0. -1.
     999901    1    3    3    0    0 -0.32040477885E-01  0.89900104184E-02  0.12164828084E+00  0.88899140420E+00  0.88000000000E+00 0. -1.
        -11    1    4    4    0    0  0.13837915949E-01 -0.21041771154E-01 -0.54543612707E-01  0.60079204882E-01  0.51100000000E-03 0. -1.
         11    1    4    4    0    0  0.29912820206E-01 -0.87665587421E-02 -0.63450698983E-01  0.70695697799E-01  0.51100000000E-03 0.  1.
</event>
<event>
 7    1  0.1074844E+005  0.1043930E+01  0.7957747E-01            NaN
         13   -1    0    0    0    0  0.00000000000E+00  0.00000000000E+00  0.74505805969E-08  0.10566000000E+00  0.10566000000E+00 0.  1.
     999900   -1    0    0    0    0 -0.00000000000E+00 -0.00000000000E+00 -0.74505805969E-08  0.93827000000E+00  0.93827000000E+00 0.  1.
     999903    2    1    2    0    0  0.89903258168E-01 -0.16469286768E-01  0.23142499605E-02  0.93627568567E-01  0.20172570658E-01 0.  0.
         14    1    1    2    0    0 -0.46068581768E-01  0.29503926590E-01 -0.40845984384E-01  0.68272910811E-01  0.00000000000E+00 0. -1.
     999901    1    1    2    0    0 -0.43834676400E-01 -0.13034639822E-01  0.38531734423E-01  0.88202952062E+00  0.88000000000E+00 0. -1.
        -11    1    3    3    0    0  0.33582295847E-01  0.36475399392E-02  0.13962406590E-02  0.33812508794E-01  0.51100000000E-03 0.  1.
         11    1    3    3    0    0  0.56320962321E-01 -0.20116826707E-01  0.91800930158E-03  0.59815059773E-01  0.51100000000E-03 0. -1.
</event>
<event>
 8    1  0.1074844E+005  0.1043930E+01  0.7957747E-01            NaN
         13   -1    0    0    0    0  0.00000000000E+00  0.00000000000E+00  0.74505805969E-08  0.10566000000E+00  0.10566000000E+00 0.  1.
     999900   -1    0    0    0    0 -0.00000000000E+00 -0.00000000000E+00 -0.74505805969E-08  0.93827000000E+00  0.93827000000E+00 0.  1.
     999902    2    1    2    0    0 -0.17547458272E-01  0.13309831441E-01  0.72564533436E-02  0.10207411876E+01  0.10204777563E+01 0.  0.
     999903    2    3    3    0    0  0.56957760719E-01 -0.40443232516E-01  0.10834295621E+00  0.13020264235E+00  0.18294544307E-01 0.  0.
         14    1    1    2    0    0  0.17547458272E-01 -0.13309831441E-01 -0.72564533436E-02  0.23188812387E-01  0.00000000000E+00 0. -1.
     999901    1    3    3    0    0 -0.74505218991E-01  0.53753063957E-01 -0.10108650287E+00  0.89053854527E+00  0.88000000000E+00 0.  1.
        -11    1    4    4    0    0  0.52178350978E-02 -0.12162612275E-01  0.19680897457E-01  0.23722432130E-01  0.51100000000E-03 0.  1.
         11    1    4    4    0    0  0.51739925622E-01 -0.28280620241E-01  0.88662058753E-01  0.10648021022E+00  0.51100000000E-03 0. -1.
</event>
<event>
 8    1  0.1074844E+005  0.1043930E+01  0.7957747E-01            NaN
         13   -1    0    0    0    0  0.00000000000E+00  0.00000000000E+00  0.74505805969E-08  0.10566000000E+00  0.10566000000E+00 0. -1.
     999900   -1    0    0    0    0 -0.00000000000E+00 -0.00000000000E+00 -0.74505805969E-08  0.93827000000E+00  0.93827000000E+00 0.  1.
     999902    2    1    2    0    0  0.15000221103E-01  0.17501895124E-01  0.48952892988E-02  0.10203654753E+01  0.10200933371E+01 0.  0.
     999903    2    3    3    0    0  0.29562996377E-01  0.98305305297E-01  0.82518119963E-01  0.13314139463E+00  0.19480427023E-01 0.  0.
         14    1    1    2    0    0 -0.15000221103E-01 -0.17501895124E-01 -0.48952892988E-02  0.23564524680E-01  0.00000000000E+00 0.  1.
     999901    1    3    3    0    0 -0.14562775274E-01 -0.80803410173E-01 -0.77622830664E-01  0.88722408069E+00  0.88000000000E+00 0.  1.
        -11    1    4    4    0    0  0.30017961473E-01  0.70054686920E-01  0.61038221154E-01  0.97645597613E-01  0.51100000000E-03 0.  1.
         11    1    4    4    0    0 -0.45496509664E-03  0.28250618377E-01  0.21479898808E-01  0.35495797015E-01  0.51100000000E-03 0. -1.
</event>
<event>
 8    1  0.1074844E+005  0.1043930E+01  0.7957747E-01            NaN
         13   -1    0    0    0    0  0.00000000000E+00  0.00000000000E+00  0.74505805969E-08  0.10566000000E+00  0.10566000000E+00 0. -1.
     999900   -1    0    0    0    0 -0.00000000000E+00 -0.00000000000E+00 -0.74505805969E-08  0.93827000000E+00  0.93827000000E+00 0. -1.
     999902    2    1    2    0    0 -0.77361641197E-02 -0.20343833161E-01 -0.90919542151E-02  0.10203422190E+01  0.10200695370E+01 0.  0.
     999903    2    3    3    0    0 -0.12650739509E+00 -0.76065737043E-02 -0.30941301594E-01  0.13200318623E+00  0.20136932635E-01 0.  0.
         14    1    1    2    0    0  0.77361641197E-02  0.20343833161E-01  0.90919542151E-02  0.23587781040E-01  0.00000000000E+00 0. -1.
     999901    1    3    3    0    0  0.11877123097E+00 -0.12737259456E-01  0.21849347379E-01  0.88833903273E+00  0.88000000000E+00 0. -1.
        -11    1    4    4    0    0 -0.10561706105E+00 -0.57606521027E-02 -0.33299645604E-01  0.11089308462E+00  0.51100000000E-03 0. -1.
         11    1    4    4    0    0 -0.20890334040E-01 -0.18459216015E-02  0.23583440103E-02  0.21110101618E-01  0.51100000000E-03 0.  1.
</event>
<event>
 8    1  0.1363819E+005  0.1043930E+01  0.7957747E-01            NaN
         13   -1    0    0    0    0  0.00000000000E+00  0.00000000000E+00  0.74505805969E-08  0.10566000000E+00  0.10566000000E+00 0. -1.
     999900   -1    0    0    0    0 -0.00000000000E+00 -0.00000000000E+00 -0.74505805969E-08  0.93827000000E+00  0.93827000000E+00 0.  1.
     999902    2    1    2    0    0 -0.17596931614E-01  0.37213020985E-02  0.14715200783E-01  0.10206912990E+01  0.10204267198E+01 0.  0.
     999903    2    3    3    0    0  0.11333999522E+00 -0.31464602299E-01 -0.47333129682E-01  0.12814857059E+00  0.18591806337E-01 0.  0.
         14    1    1    2    0    0  0.17596931614E-01 -0.37213020985E-02 -0.14715200783E-01  0.23238701031E-01  0.00000000000E+00 0.  1.
     999901    1    3    3    0    0 -0.13093692684E+00  0.35185904397E-01  0.62048330465E-01  0.89254272838E+00  0.88000000000E+00 0. -1.
        -11    1    4    4    0    0  0.52338914893E-01 -0.12205779100E-01 -0.12002940040E-01  0.55069726222E-01  0.51100000000E-03 0.  1.
         11    1    4    4    0    0  0.61001080329E-01 -0.19258823199E-01 -0.35330189642E-01  0.73078844363E-01  0.51100000000E-03 0. -1.
</event>
<event>
 8    1  0.1074844E+005  0.1043930E+01  0.7957747E-01            NaN
         13   -1    0    0    0    0  0.00000000000E+00  0.00000000000E+00  0.74505805969E-08  0.10566000000E+00  0.10566000000E+00 0.  1.
     999900   -1    0    0    0    0 -0.00000000000E+00 -0.00000000000E+00 -0.74505805969E-08  0.93827000000E+00  0.93827000000E+00 0.  1.
     999902    2    1    2    0    0  0.77620423424E-02 -0.15988997210E-02 -0.22011830040E-01  0.10205349911E+01  0.10202667992E+01 0.  0.
     999903    2    3    3    0    0  0.36694574358E-01  0.14199926325E-01 -0.12636676042E+00  0.13375618786E+00  0.19339854090E-01 0.  0.
         14    1    1    2    0    0 -0.77620423424E-02  0.15988997210E-02  0.22011830040E-01  0.23395008941E-01  0.00000000000E+00 0.  1.
     999901    1    3    3    0    0 -0.28932532015E-01 -0.15798826046E-01  0.10435493038E+00  0.88677880320E+00  0.88000000000E+00 0. -1.
        -11    1    4    4    0    0  0.22041400895E-01  0.24498995125E-02 -0.44025722590E-01  0.49298587521E-01  0.51100000000E-03 0. -1.
         11    1    4    4    0    0  0.14653173463E-01  0.11750026812E-01 -0.82341037830E-01  0.84457600336E-01  0.51100000000E-03 0.  1.
</event>
<event>
 8    1  0.1074844E+005  0.1043930E+01  0.7957747E-01            NaN
         13   -1    0    0    0    0  0.00000000000E+00  0.00000000000E+00  0.74505805969E-08  0.10566000000E+00  0.10566000000E+00 0. -1.
     999900   -1    0    0    0    0 -0.00000000000E+00 -0.00000000000E+00 -0.74505805969E-08  0.93827000000E+00  0.93827000000E+00 0. -1.
     999902    2    1    2    0    0  0.21919602281E-01 -0.10143539810E-01  0.33600527643E-02  0.10195445470E+01  0.10192528798E+01 0.  0.
     999903    2    3    3    0    0 -0.16795450823E-01 -0.52121773715E-01  0.11681946100E+00  0.13042472111E+00  0.19106411072E-01 0.  0.
         14    1    1    2    0    0 -0.21919602281E-01  0.10143539810E-01 -0.33600527643E-02  0.24385453012E-01  0.00000000000E+00 0.  1.
     999901    1    3    3    0    0  0.38715053104E-01  0.41978233904E-01 -0.11345940823E+00  0.88911982588E+00  0.88000000000E+00 0. -1.
        -11    1    4    4    0    0 -0.12490685483E-01 -0.44002033886E-01  0.77063925246E-01  0.89617553556E-01  0.51100000000E-03 0. -1.
         11    1    4    4    0    0 -0.43047653395E-02 -0.81197398285E-02  0.39755535753E-01  0.40807167550E-01  0.51100000000E-03 0.  1.
</event>
<event>
 8    1  0.1074844E+005  0.1043930E+01  0.7957747E-01            NaN
         13   -1    0    0    0    0  0.00000000000E+00  0.00000000000E+00  0.74505805969E-08  0.10566000000E+00  0.10566000000E+00 0. -1.
     999900   -1    0    0    0    0 -0.00000000000E+00 -0.00000000000E+00 -0.74505805969E-08  0.93827000000E+00  0.93827000000E+00 0.  1.
     999902    2    1    2    0    0 -0.14049019357E-01 -0.18365717121E-01  0.15568450096E-02  0.10207546192E+01  0.10204914964E+01 0.  0.
     999903    2    3    3    0    0 -0.16454389492E-01  0.11521012153E+00  0.52199062996E-01  0.12923180694E+00  0.20784578676E-01 0.  0.
         14    1    1    2    0    0  0.14049019357E-01  0.18365717121E-01 -0.15568450096E-02  0.23175380830E-01  0.00000000000E+00 0. -1.
     999901    1    3    3    0    0  0.24053701357E-02 -0.13357583865E+00 -0.50642217986E-01  0.89152281223E+00  0.88000000000E+00 0.  1.
        -11    1    4    4    0    0 -0.81422332153E-02  0.16215826426E-01  0.13475585569E-01  0.22607554398E-01  0.51100000000E-03 0. -1.
         11    1    4    4    0    0 -0.83121562770E-02  0.98994295107E-01  0.38723477426E-01  0.10662425254E+00  0.51100000000E-03 0.  1.
</event>
<event>
 8    1  0.1074844E+005  0.1043930E+01  0.7957747E-01            NaN
         13   -1    0    0    0    0  0.00000000000E+00  0.00000000000E+00  0.74505805969E-08  0.10566000000E+00  0.10566000000E+00 0. -1.
     999900   -1    0    0    0    0 -0.00000000000E+00 -0.00000000000E+00 -0.74505805969E-08  0.93827000000E+00  0.93827000000E+00 0. -1.
     999902    2    1    2    0    0 -0.19673542403E-02 -0.56677251272E-02  0.11167715357E-01  0.10312527977E+01  0.10311748743E+01 0.  0.
     999903    2    3    3    0    0 -0.14235600520E-01 -0.10502955104E+00 -0.89281579797E-01  0.13989801809E+00  0.19141474884E-01 0.  0.
         14    1    1    2    0    0  0.19673542403E-02  0.56677251272E-02 -0.11167715357E-01  0.12677202259E-01  0.00000000000E+00 0.  1.
     999901    1    3    3    0    0  0.12268246280E-01  0.99361825909E-01  0.10044929515E+00  0.89135477965E+00  0.88000000000E+00 0.  1.
        -11    1    4    4    0    0 -0.12118809965E-01 -0.82187537292E-01 -0.58961794849E-01  0.10187448755E+00  0.51100000000E-03 0. -1.
         11    1    4    4    0    0 -0.21167905554E-02 -0.22842013745E-01 -0.30319784947E-01  0.38023530536E-01  0.51100000000E-03 0.  1.
</event>
<event>
 8    1  0.1074844E+005  0.1043930E+01  0.7957747E-01            NaN
         13   -1    0    0    0    0  0.00000000000E+00  0.00000000000E+00  0.74505805969E-08  0.10566000000E+00  0.10566000000E+00 0. -1.
     999900   -1    0    0    0    0 -0.00000000000E+00 -0.00000000000E+00 -0.74505805969E-08  0.93827000000E+00  0.93827000000E+00 0. -1.
     999902    2    1    2    0    0  0.13677839654E-01 -0.15127923789E-01 -0.10372535643E-01  0.10210492904E+01  0.10207928911E+01 0.  0.
     999903    2    3    3    0    0 -0.31161415904E-01  0.11981540229E+00  0.28458010104E-01  0.12878919863E+00  0.21214025527E-01 0.  0.
         14    1    1    2    0    0 -0.13677839654E-01  0.15127923789E-01  0.10372535643E-01  0.22880709592E-01  0.00000000000E+00 0. -1.
     999901    1    3    3    0    0  0.44839255558E-01 -0.13494332608E+00 -0.38830545746E-01  0.89226009178E+00  0.88000000000E+00 0. -1.
        -11    1    4    4    0    0 -0.11420478636E-01  0.78223304392E-01  0.23543786458E-01  0.82485657444E-01  0.51100000000E-03 0. -1.
         11    1    4    4    0    0 -0.19740937268E-01  0.41592097896E-01  0.49142236457E-02  0.46303541189E-01  0.51100000000E-03 0.  1.
</event>
<event>
 8    1  0.1074844E+005  0.1043930E+01  0.7957747E-01            NaN
         13   -1    0    0    0    0  0.00000000000E+00  0.00000000000E+00  0.74505805969E-08  0.10566000000E+00  0.10566000000E+00 0. -1.
     999900   -1    0    0    0    0 -0.00000000000E+00 -0.00000000000E+00 -0.74505805969E-08  0.93827000000E+00  0.93827000000E+00 0. -1.
     999902    2    1    2    0    0 -0.21080083806E-01 -0.96900456506E-02  0.71914486924E-02  0.10196404168E+01  0.10193510660E+01 0.  0.
     999903    2    3    3    0    0  0.10675025221E+00  0.15901514626E-01 -0.62576192328E-01  0.12730469158E+00  0.25342259904E-01 0.  0.
         14    1    1    2    0    0  0.21080083806E-01  0.96900456506E-02 -0.71914486924E-02  0.24289583205E-01  0.00000000000E+00 0.  1.
     999901    1    3    3    0    0 -0.12783033602E+00 -0.25591560277E-01  0.69767641020E-01  0.89233572522E+00  0.88000000000E+00 0. -1.
        -11    1    4    4    0    0  0.22576468669E-01  0.13632241085E-01 -0.18863367712E-01  0.32428732584E-01  0.51100000000E-03 0.  1.
         11    1    4    4    0    0  0.84173783543E-01  0.22692735414E-02 -0.43712824616E-01  0.94875958995E-01  0.51100000000E-03 0. -1.
</event>
<event>
 8    1  0.1074844E+005  0.1043930E+01  0.7957747E-01            NaN
         13   -1    0    0    0    0  0.00000000000E+00  0.00000000000E+00  0.74505805969E-08  0.10566000000E+00  0.10566000000E+00 0. -1.
     999900   -1    0    0    0    0 -0.00000000000E+00 -0.00000000000E+00 -0.74505805969E-08  0.93827000000E+00  0.93827000000E+00 0. -1.
     999902    2    1    2    0    0  0.20632937433E-01 -0.81215040774E-02 -0.10155509377E-01  0.10195412463E+01  0.10192494992E+01 0.  0.
     999903    2    3    3    0    0  0.48870716539E-01  0.96284723677E-01 -0.71152661103E-01  0.13082380805E+00  0.19826059149E-01 0.  0.
         14    1    1    2    0    0 -0.20632937433E-01  0.81215040774E-02  0.10155509377E-01  0.24388753685E-01  0.00000000000E+00 0. -1.
     999901    1    3    3    0    0 -0.28237779107E-01 -0.10440622775E+00  0.60997151725E-01  0.88871743827E+00  0.88000000000E+00 0.  1.
        -11    1    4    4    0    0  0.38465597020E-01  0.86190621549E-01 -0.55548105807E-01  0.10951839378E+00  0.51100000000E-03 0. -1.
         11    1    4    4    0    0  0.10405119519E-01  0.10094102128E-01 -0.15604555296E-01  0.21305414264E-01  0.51100000000E-03 0.  1.
</event>
<event>
 8    1  0.1074844E+005  0.1043930E+01  0.7957747E-01            NaN
         13   -1    0    0    0    0  0.00000000000E+00  0.00000000000E+00  0.74505805969E-08  0.10566000000E+00  0.10566000000E+00 0.  1.
     999900   -1    0    0    0    0 -0.00000000000E+00 -0.00000000000E+00 -0.74505805969E-08  0.93827000000E+00  0.93827000000E+00 0. -1.
     999902    2    1    2    0    0 -0.11097836167E-01  0.26151832541E-01  0.10091450571E-01  0.10137817382E+01  0.10133333583E+01 0.  0.
     999903    2    3    3    0    0 -0.11686492852E+00 -0.40149659769E-01  0.12955909100E-01  0.12496748833E+00  0.13401897685E-01 0.  0.
         14    1    1    2    0    0  0.11097836167E-01 -0.26151832541E-01 -0.10091450571E-01  0.30148261765E-01  0.00000000000E+00 0. -1.
     999901    1    3    3    0    0  0.10576709235E+00  0.66301492310E-01 -0.28644585289E-02  0.88881424990E+00  0.88000000000E+00 0.  1.
        -11    1    4    4    0    0 -0.91303241228E-01 -0.37020964464E-01  0.10973057472E-01  0.99133762058E-01  0.51100000000E-03 0.  1.
         11    1    4    4    0    0 -0.25561687293E-01 -0.31286953046E-02  0.19828516279E-02  0.25833726274E-01  0.51100000000E-03 0. -1.
</event>
<event>
 8    1  0.1074844E+005  0.1043930E+01  0.7957747E-01            NaN
         13   -1    0    0    0    0  0.00000000000E+00  0.00000000000E+00  0.74505805969E-08  0.10566000000E+00  0.10566000000E+00 0. -1.
     999900   -1    0    0    0    0 -0.00000000000E+00 -0.00000000000E+00 -0.74505805969E-08  0.93827000000E+00  0.93827000000E+00 0. -1.
     999902    2    1    2    0    0 -0.71861435654E-02  0.10021350566E-02 -0.22488736487E-01  0.10202997608E+01  0.10200260848E+01 0.  0.
     999903    2    3    3    0    0 -0.90473525972E-01 -0.90710431181E-01 -0.22267545079E-01  0.13162207360E+00  0.20363827433E-01 0.  0.
         14    1    1    2    0    0  0.71861435654E-02 -0.10021350566E-02  0.22488736487E-01  0.23630239160E-01  0.00000000000E+00 0. -1.
     999901    1    3    3    0    0  0.83287382407E-01  0.91712566238E-01 -0.22119140763E-03  0.88867768724E+00  0.88000000000E+00 0.  1.
        -11    1    4    4    0    0 -0.60559616274E-01 -0.72887036502E-01 -0.13603867091E-01  0.95735644011E-01  0.51100000000E-03 0.  1.
         11    1    4    4    0    0 -0.29913909698E-01 -0.17823394679E-01 -0.86636779875E-02  0.35886429588E-01  0.51100000000E-03 0. -1.
</event>
<event>
 8    1  0.1074844E+005  0.1043930E+01  0.7957747E-01            NaN
         13   -1    0    0    0    0  0.00000000000E+00  0.00000000000E+00  0.74505805969E-08  0.10566000000E+00  0.10566000000E+00 0. -1.
     999900   -1    0    0    0    0 -0.00000000000E+00 -0.00000000000E+00 -0.74505805969E-08  0.93827000000E+00  0.93827000000E+00 0.  1.
     999902    2    1    2    0    0  0.20972753845E-01  0.81486255655E-02  0.66216690145E-02  0.10204757253E+01  0.10202061570E+01 0.  0.
     999903    2    3    3    0    0 -0.57911729368E-01  0.11149631883E+00  0.30109623055E-01  0.13061326883E+00  0.19184344766E-01 0.  0.
         14    1    1    2    0    0 -0.20972753845E-01 -0.81486255655E-02 -0.66216690145E-02  0.23454274727E-01  0.00000000000E+00 0. -1.
     999901    1    3    3    0    0  0.78884483213E-01 -0.10334769326E+00 -0.23487954041E-01  0.88986245644E+00  0.88000000000E+00 0. -1.
        -11    1    4    4    0    0 -0.16973649186E-01  0.29972666131E-01 -0.30473914079E-03  0.34450246278E-01  0.51100000000E-03 0. -1.
         11    1    4    4    0    0 -0.40938080182E-01  0.81523652698E-01  0.30414362196E-01  0.96163022555E-01  0.51100000000E-03 0.  1.
</event>
<event>
 8    1  0.1074844E+005  0.1043930E+01  0.7957747E-01            NaN
         13   -1    0    0    0    0  0.00000000000E+00  0.00000000000E+00  0.74505805969E-08  0.10566000000E+00  0.10566000000E+00 0.  1.
     999900   -1    0    0    0    0 -0.00000000000E+00 -0.00000000000E+00 -0.74505805969E-08  0.93827000000E+00  0.93827000000E+00 0.  1.
     999902    2    1    2    0    0 -0.85645245115E-02  0.20912532325E-01 -0.12357605056E-01  0.10181735350E+01  0.10178477056E+01 0.  0.
     999903    2    3    3    0    0 -0.42740836614E-01 -0.11311161937E+00 -0.33421984761E-01  0.12712123479E+00  0.20536838096E-01 0.  0.
         14    1    1    2    0    0  0.85645245115E-02 -0.20912532325E-01  0.12357605056E-01  0.25756465034E-01  0.00000000000E+00 0.  1.
     999901    1    3    3    0    0  0.34176312103E-01  0.13402415170E+00  0.21064379706E-01  0.89105230017E+00  0.88000000000E+00 0.  1.
        -11    1    4    4    0    0 -0.31645522215E-01 -0.72436321777E-01 -0.12429964123E-01  0.80020153199E-01  0.51100000000E-03 0. -1.
         11    1    4    4    0    0 -0.11095314399E-01 -0.40675297595E-01 -0.20992020638E-01  0.47101081596E-01  0.51100000000E-03 0.  1.
</event>
<event>
 8    1  0.1074844E+005  0.1043930E+01  0.7957747E-01            NaN
         13   -1    0    0    0    0  0.00000000000E+00  0.00000000000E+00  0.74505805969E-08  0.10566000000E+00  0.10566000000E+00 0. -1.
     999900   -1    0    0    0    0 -0.00000000000E+00 -0.00000000000E+00 -0.74505805969E-08  0.93827000000E+00  0.93827000000E+00 0.  1.
     999902    2    1    2    0    0 -0.15953516561E-01 -0.16196580698E-01  0.55862997412E-02  0.10205195181E+01  0.10202509673E+01 0.  0.
     999903    2    3    3    0    0 -0.39068788456E-01  0.11438505352E+00  0.42395796907E-01  0.12982270210E+00  0.21123912662E-01 0.  0.
         14    1    1    2    0    0  0.15953516561E-01  0.16196580698E-01 -0.55862997412E-02  0.23410481878E-01  0.00000000000E+00 0. -1.
     999901    1    3    3    0    0  0.23115271895E-01 -0.13058163421E+00 -0.36809497166E-01  0.89069681602E+00  0.88000000000E+00 0.  1.
        -11    1    4    4    0    0 -0.33569669042E-01  0.66889308018E-01  0.27618025452E-01  0.79775426401E-01  0.51100000000E-03 0. -1.
         11    1    4    4    0    0 -0.54991194140E-02  0.47495745498E-01  0.14777771455E-01  0.50047275699E-01  0.51100000000E-03 0.  1.
</event>
<event>
 8    1  0.1074844E+005  0.1043930E+01  0.7957747E-01            NaN
         13   -1    0    0    0    0  0.00000000000E+00  0.00000000000E+00  0.74505805969E-08  0.10566000000E+00  0.10566000000E+00 0.  1.
     999900   -1    0    0    0    0 -0.00000000000E+00 -0.00000000000E+00 -0.74505805969E-08  0.93827000000E+00  0.93827000000E+00 0.  1.
     999902    2    1    2    0    0  0.94658182492E-02 -0.16956454697E-01 -0.10177153493E-01  0.10220051847E+01  0.10217699840E+01 0.  0.
     999903    2    3    3    0    0  0.69174734380E-01  0.10468727745E+00 -0.33233613953E-01  0.13133467742E+00  0.19993860568E-01 0.  0.
         14    1    1    2    0    0 -0.94658182492E-02  0.16956454697E-01  0.10177153493E-01  0.21924815261E-01  0.00000000000E+00 0.  1.
     999901    1    3    3    0    0 -0.59708916131E-01 -0.12164373215E+00  0.23056460460E-01  0.89067050732E+00  0.88000000000E+00 0. -1.
        -11    1    4    4    0    0  0.14154027873E-01  0.13213625633E-01 -0.11072431803E-01  0.22311348557E-01  0.51100000000E-03 0. -1.
         11    1    4    4    0    0  0.55020706507E-01  0.91473651817E-01 -0.22161182150E-01  0.10902332886E+00  0.51100000000E-03 0.  1.
</event>
<event>
 8    1  0.1074844E+005  0.1043930E+01  0.7957747E-01            NaN
         13   -1    0    0    0    0  0.00000000000E+00  0.00000000000E+00  0.74505805969E-08  0.10566000000E+00  0.10566000000E+00 0. -1.
     999900   -1    0    0    0    0 -0.00000000000E+00 -0.00000000000E+00 -0.74505805969E-08  0.93827000000E+00  0.93827000000E+00 0. -1.
     999902    2    1    2    0    0  0.94497742624E-02  0.81965689893E-02  0.17614179815E-01  0.10223258035E+01  0.10220975037E+01 0.  0.
     999903    2    3    3    0    0 -0.12713065238E+00 -0.21256556963E-01 -0.10108223089E-01  0.13087180512E+00  0.20278294107E-01 0.  0.
         14    1    1    2    0    0 -0.94497742624E-02 -0.81965689893E-02 -0.17614179815E-01  0.21604196522E-01  0.00000000000E+00 0.  1.
     999901    1    3    3    0    0  0.13658042664E+00  0.29453125952E-01  0.27722402904E-01  0.89145399836E+00  0.88000000000E+00 0.  1.
        -11    1    4    4    0    0 -0.82185394894E-01 -0.90035234371E-02 -0.14996439416E-01  0.84027714977E-01  0.51100000000E-03 0. -1.
         11    1    4    4    0    0 -0.44945257487E-01 -0.12253033525E-01  0.48882163276E-02  0.46844090140E-01  0.51100000000E-03 0.  1.
</event>
<event>
 8    1  0.1074844E+005  0.1043930E+01  0.7957747E-01            NaN
         13   -1    0    0    0    0  0.00000000000E+00  0.00000000000E+00  0.74505805969E-08  0.10566000000E+00  0.10566000000E+00 0.  1.
     999900   -1    0    0    0    0 -0.00000000000E+00 -0.00000000000E+00 -0.74505805969E-08  0.93827000000E+00  0.93827000000E+00 0. -1.
     999902    2    1    2    0    0  0.18738841592E-01 -0.11623984816E-01  0.66701681985E-02  0.10208919369E+01  0.10206319584E+01 0.  0.
     999903    2    3    3    0    0  0.63787227453E-01  0.58207016855E-01 -0.96410108720E-01  0.13098673446E+00  0.20143195937E-01 0.  0.
         14    1    1    2    0    0 -0.18738841592E-01  0.11623984816E-01 -0.66701681985E-02  0.23038063092E-01  0.00000000000E+00 0. -1.
     999901    1    3    3    0    0 -0.45048385861E-01 -0.69831001672E-01  0.10308027692E+00  0.88990520245E+00  0.88000000000E+00 0.  1.
        -11    1    4    4    0    0  0.13737756104E-01  0.12506097661E-01 -0.34513256126E-01  0.39198908032E-01  0.51100000000E-03 0. -1.
         11    1    4    4    0    0  0.50049471349E-01  0.45700919194E-01 -0.61896852595E-01  0.91787826424E-01  0.51100000000E-03 0.  1.
</event>
<event>
 8    1  0.1074844E+005  0.1043930E+01  0.7957747E-01            NaN
         13   -1    0    0    0    0  0.00000000000E+00  0.00000000000E+00  0.74505805969E-08  0.10566000000E+00  0.10566000000E+00 0.  1.
     999900   -1    0    0    0    0 -0.00000000000E+00 -0.00000000000E+00 -0.74505805969E-08  0.93827000000E+00  0.93827000000E+00 0. -1.
     999902    2    1    2    0    0  0.17818873507E-01  0.83362517132E-02 -0.15031657694E-01  0.10191720502E+01  0.10188712931E+01 0.  0.
     999903    2    3    3    0    0  0.53099888390E-01 -0.14686802421E-01 -0.11842441502E+00  0.13211800826E+00  0.19887828497E-01 0.  0.
         14    1    1    2    0    0 -0.17818873507E-01 -0.83362517132E-02  0.15031657694E-01  0.24757949808E-01  0.00000000000E+00 0. -1.
     999901    1    3    3    0    0 -0.35281014883E-01  0.23023054134E-01  0.10339275733E+00  0.88705404193E+00  0.88000000000E+00 0.  1.
        -11    1    4    4    0    0  0.40844142075E-01 -0.16887125696E-01 -0.76185219974E-01  0.88078759186E-01  0.51100000000E-03 0.  1.
         11    1    4    4    0    0  0.12255746315E-01  0.22003232748E-02 -0.42239195046E-01  0.44039249078E-01  0.51100000000E-03 0. -1.
</event>
<event>
 8    1  0.1074844E+005  0.1043930E+01  0.7957747E-01            NaN
         13   -1    0    0    0    0  0.00000000000E+00  0.00000000000E+00  0.74505805969E-08  0.10566000000E+00  0.10566000000E+00 0. -1.
     999900   -1    0    0    0    0 -0.00000000000E+00 -0.00000000000E+00 -0.74505805969E-08  0.93827000000E+00  0.93827000000E+00 0. -1.
     999902    2    1    2    0    0 -0.69222755653E-02 -0.20615117089E-01 -0.10709961889E-01  0.10196894506E+01  0.10194012809E+01 0.  0.
     999903    2    3    3    0    0 -0.82534464980E-01 -0.10209427962E+00  0.27200433687E-02  0.13259508011E+00  0.18408606503E-01 0.  0.
         14    1    1    2    0    0  0.69222755653E-02  0.20615117089E-01  0.10709961889E-01  0.24240549401E-01  0.00000000000E+00 0. -1.
     999901    1    3    3    0    0  0.75612189414E-01  0.81479162527E-01 -0.13430005257E-01  0.88709437049E+00  0.88000000000E+00 0. -1.
        -11    1    4    4    0    0 -0.21775711891E-01 -0.17842527963E-01 -0.42950015167E-02  0.28482373347E-01  0.51100000000E-03 0. -1.
         11    1    4    4    0    0 -0.60758753089E-01 -0.84251751653E-01  0.70150448854E-02  0.10411270676E+00  0.51100000000E-03 0.  1.
</event>
<event>
 8    1  0.1074844E+005  0.1043930E+01  0.7957747E-01            NaN
         13   -1    0    0    0    0  0.00000000000E+00  0.00000000000E+00  0.74505805969E-08  0.10566000000E+00  0.10566000000E+00 0.  1.
     999900   -1    0    0    0    0 -0.00000000000E+00 -0.00000000000E+00 -0.74505805969E-08  0.93827000000E+00  0.93827000000E+00 0.  1.
     999902    2    1    2    0    0  0.18482162390E-01 -0.77300651156E-02 -0.14024997701E-01  0.10194750456E+01  0.10191816932E+01 0.  0.
     999903    2    3    3    0    0 -0.69048577297E-01  0.97088993888E-01  0.40202300625E-01  0.12729274059E+00  0.19830231226E-01 0.  0.
         14    1    1    2    0    0 -0.18482162390E-01  0.77300651156E-02  0.14024997701E-01  0.24454954382E-01  0.00000000000E+00 0. -1.
     999901    1    3    3    0    0  0.87530739688E-01 -0.10481905900E+00 -0.54227298326E-01  0.89218230503E+00  0.88000000000E+00 0. -1.
        -11    1    4    4    0    0 -0.10683164716E-02  0.65985081105E-02 -0.11332370603E-02  0.67990408590E-02  0.51100000000E-03 0. -1.
         11    1    4    4    0    0 -0.67980260826E-01  0.90490485778E-01  0.41335537686E-01  0.12049369973E+00  0.51100000000E-03 0.  1.
</event>
<event>
 8    1  0.1074844E+005  0.1043930E+01  0.7957747E-01            NaN
         13   -1    0    0    0    0  0.00000000000E+00  0.00000000000E+00  0.74505805969E-08  0.10566000000E+00  0.10566000000E+00 0. -1.
     999900   -1    0    0    0    0 -0.00000000000E+00 -0.00000000000E+00 -0.74505805969E-08  0.93827000000E+00  0.93827000000E+00 0. -1.
     999902    2    1    2    0    0  0.12436981638E-01  0.12977512802E-01  0.15146083200E-01  0.10204247200E+01  0.10201539644E+01 0.  0.
     999903    2    3    3    0    0  0.70340542390E-01 -0.75659065757E-01 -0.75416145139E-01  0.12946412459E+00  0.20031936313E-01 0.  0.
         14    1    1    2    0    0 -0.12436981638E-01 -0.12977512802E-01 -0.15146083200E-01  0.23505279983E-01  0.00000000000E+00 0.  1.
     999901    1    3    3    0    0 -0.57903560752E-01  0.88636578559E-01  0.90562228339E-01  0.89096059543E+00  0.88000000000E+00 0.  1.
        -11    1    4    4    0    0  0.35809758777E-01 -0.49948646419E-01 -0.36843296347E-01  0.71658186618E-01  0.51100000000E-03 0.  1.
         11    1    4    4    0    0  0.34530783613E-01 -0.25710419339E-01 -0.38572848792E-01  0.57805937969E-01  0.51100000000E-03 0. -1.
</event>
<event>
 8    1  0.1074844E+005  0.1043930E+01  0.7957747E-01            NaN
         13   -1    0    0    0    0  0.00000000000E+00  0.00000000000E+00  0.74505805969E-08  0.10566000000E+00  0.10566000000E+00 0.  1.
     999900   -1    0    0    0    0 -0.00000000000E+00 -0.00000000000E+00 -0.74505805969E-08  0.93827000000E+00  0.93827000000E+00 0.  1.
     999902    2    1    2    0    0 -0.21170050600E-01  0.94677854350E-02 -0.94286310012E-02  0.10188958416E+01  0.10185882519E+01 0.  0.
     999903    2    3    3    0    0  0.78407460010E-02 -0.95087138690E-01 -0.85133711282E-01  0.12900561375E+00  0.17078007474E-01 0.  0.
         14    1    1    2    0    0  0.21170050600E-01 -0.94677854350E-02  0.94286310012E-02  0.25034158384E-01  0.00000000000E+00 0. -1.
     999901    1    3    3    0    0 -0.29010796601E-01  0.10455492413E+00  0.75705080281E-01  0.88989022787E+00  0.88000000000E+00 0. -1.
        -11    1    4    4    0    0  0.82779803423E-03 -0.44203746448E-01 -0.50147941007E-01  0.66856065977E-01  0.51100000000E-03 0.  1.
         11    1    4    4    0    0  0.70129479667E-02 -0.50883392241E-01 -0.34985770275E-01  0.62149547769E-01  0.51100000000E-03 0. -1.
</event>
<event>
 8    1  0.1074844E+005  0.1043930E+01  0.7957747E-01            NaN
         13   -1    0    0    0    0  0.00000000000E+00  0.00000000000E+00  0.74505805969E-08  0.10566000000E+00  0.10566000000E+00 0. -1.
     999900   -1    0    0    0    0 -0.00000000000E+00 -0.00000000000E+00 -0.74505805969E-08  0.93827000000E+00  0.93827000000E+00 0. -1.
     999902    2    1    2    0    0  0.64273350817E-03  0.99039003157E-02 -0.23321197294E-01  0.10185848113E+01  0.10182694335E+01 0.  0.
     999903    2    3    3    0    0  0.14839262246E-01  0.11689162523E+00  0.49016789117E-01  0.12904521183E+00  0.19135446911E-01 0.  0.
         14    1    1    2    0    0 -0.64273350817E-03 -0.99039003157E-02  0.23321197294E-01  0.25345188716E-01  0.00000000000E+00 0. -1.
     999901    1    3    3    0    0 -0.14196528738E-01 -0.10698772492E+00 -0.72337986411E-01  0.88953959945E+00  0.88000000000E+00 0. -1.
        -11    1    4    4    0    0  0.13660336934E-01  0.61918391847E-01  0.18010616455E-01  0.65917641646E-01  0.51100000000E-03 0.  1.
         11    1    4    4    0    0  0.11789253124E-02  0.54973233385E-01  0.31006172661E-01  0.63127570188E-01  0.51100000000E-03 0. -1.
</event>
<event>
 8    1  0.1074844E+005  0.1043930E+01  0.7957747E-01            NaN
         13   -1    0    0    0    0  0.00000000000E+00  0.00000000000E+00  0.74505805969E-08  0.10566000000E+00  0.10566000000E+00 0.  1.
     999900   -1    0    0    0    0 -0.00000000000E+00 -0.00000000000E+00 -0.74505805969E-08  0.93827000000E+00  0.93827000000E+00 0.  1.
     999902    2    1    2    0    0 -0.21514750231E-01  0.63861276176E-02 -0.70465912122E-02  0.10204072121E+01  0.10201360482E+01 0.  0.
     999903    2    3    3    0    0 -0.15165159473E-01 -0.10675001846E+00 -0.71256047311E-01  0.13082137637E+00  0.20279539793E-01 0.  0.
         14    1    1    2    0    0  0.21514750231E-01 -0.63861276176E-02  0.70465912122E-02  0.23522787912E-01  0.00000000000E+00 0.  1.
     999901    1    3    3    0    0 -0.63495907585E-02  0.11313614608E+00  0.64209456099E-01  0.88958583572E+00  0.88000000000E+00 0. -1.
        -11    1    4    4    0    0  0.13221754917E-02 -0.14316239798E-01 -0.28869183062E-02  0.14673046319E-01  0.51100000000E-03 0. -1.
         11    1    4    4    0    0 -0.16487334964E-01 -0.92433778664E-01 -0.68369129005E-01  0.11614833005E+00  0.51100000000E-03 0.  1.
</event>
<event>
 8    1  0.1074844E+005  0.1043930E+01  0.7957747E-01            NaN
         13   -1    0    0    0    0  0.00000000000E+00  0.00000000000E+00  0.74505805969E-08  0.10566000000E+00  0.10566000000E+00 0.  1.
     999900   -1    0    0    0    0 -0.00000000000E+00 -0.00000000000E+00 -0.74505805969E-08  0.93827000000E+00  0.93827000000E+00 0.  1.
     999902    2    1    2    0    0 -0.41073192901E-02 -0.24264912012E-01 -0.27705054442E-02  0.10191644649E+01  0.10188635212E+01 0.  0.
     999903    2    3    3    0    0  0.11768646948E+00  0.27979867034E-01  0.38010646348E-01  0.12830737973E+00  0.19621325108E-01 0.  0.
         14    1    1    2    0    0  0.41073192901E-02  0.24264912012E-01  0.27705054442E-02  0.24765535066E-01  0.00000000000E+00 0.  1.
     999901    1    3    3    0    0 -0.12179378877E+00 -0.52244779046E-01 -0.40781151793E-01  0.89085708521E+00  0.88000000000E+00 0.  1.
        -11    1    4    4    0    0  0.42500272411E-01  0.16262034380E-01  0.21994954486E-01  0.50544693698E-01  0.51100000000E-03 0. -1.
         11    1    4    4    0    0  0.75186197069E-01  0.11717832654E-01  0.16015691863E-01  0.77762686030E-01  0.51100000000E-03 0.  1.
</event>
<event>
 8    1  0.1074844E+005  0.1043930E+01  0.7957747E-01            NaN
         13   -1    0    0    0    0  0.00000000000E+00  0.00000000000E+00  0.74505805969E-08  0.10566000000E+00  0.10566000000E+00 0. -1.
     999900   -1    0    0    0    0 -0.00000000000E+00 -0.00000000000E+00 -0.74505805969E-08  0.93827000000E+00  0.93827000000E+00 0.  1.
     999902    2    1    2    0    0 -0.19614992153E-03 -0.15500745540E-01 -0.18237138435E-01  0.10199945701E+01  0.10197136942E+01 0.  0.
     999903    2    3    3    0    0 -0.68651767321E-01  0.98318230544E-01 -0.45111057957E-01  0.12962209835E+00  0.19680986172E-01 0.  0.
         14    1    1    2    0    0  0.19614992153E-03  0.15500745540E-01  0.18237138435E-01  0.23935429918E-01  0.00000000000E+00 0. -1.
     999901    1    3    3    0    0  0.68455617399E-01 -0.11381897608E+00  0.26873919521E-01  0.89037247173E+00  0.88000000000E+00 0. -1.
        -11    1    4    4    0    0 -0.48144247721E-01  0.52031205078E-01 -0.26261323201E-01  0.75597837984E-01  0.51100000000E-03 0. -1.
         11    1    4    4    0    0 -0.20507519599E-01  0.46287025466E-01 -0.18849734755E-01  0.54024260364E-01  0.51100000000E-03 0.  1.
</event>
<event>
 8    1  0.1074844E+005  0.1043930E+01  0.7957747E-01            NaN
         13   -1    0    0    0    0  0.00000000000E+00  0.00000000000E+00  0.74505805969E-08  0.10566000000E+00  0.10566000000E+00 0. -1.
     999900   -1    0    0    0    0 -0.00000000000E+00 -0.00000000000E+00 -0.74505805969E-08  0.93827000000E+00  0.93827000000E+00 0.  1.
     999902    2    1    2    0    0  0.27328437446E-02  0.79812183626E-02 -0.21753517611E-01  0.10205979660E+01  0.10203312327E+01 0.  0.
     999903    2    3    3    0    0  0.28885696494E-01  0.10418407729E+00  0.68463116632E-01  0.13038563018E+00  0.24990173991E-01 0.  0.
         14    1    1    2    0    0 -0.27328437446E-02 -0.79812183626E-02  0.21753517611E-01  0.23332033987E-01  0.00000000000E+00 0. -1.
     999901    1    3    3    0    0 -0.26152852749E-01 -0.96202858928E-01 -0.90216634243E-01  0.89021233583E+00  0.88000000000E+00 0.  1.
        -11    1    4    4    0    0 -0.32771422493E-02  0.12883766324E-01  0.14008450853E-01  0.19319133322E-01  0.51100000000E-03 0. -1.
         11    1    4    4    0    0  0.32162838743E-01  0.91300310967E-01  0.54454665779E-01  0.11106649686E+00  0.51100000000E-03 0.  1.
</event>
<event>
 8    1  0.1074844E+005  0.1043930E+01  0.7957747E-01            NaN
         13   -1    0    0    0    0  0.00000000000E+00  0.00000000000E+00  0.74505805969E-08  0.10566000000E+00  0.10566000000E+00 0.  1.
     999900   -1    0    0    0    0 -0.00000000000E+00 -0.00000000000E+00 -0.74505805969E-08  0.93827000000E+00  0.93827000000E+00 0. -1.
     999902    2    1    2    0    0 -0.99613794118E-02  0.97311695377E-03 -0.22116168577E-01  0.10196544784E+01  0.10193654665E+01 0.  0.
     999903    2    3    3    0    0  0.45989712261E-01  0.83917811439E-01 -0.88054249927E-01  0.13153389111E+00  0.19757552199E-01 0.  0.
         14    1    1    2    0    0  0.99613794118E-02 -0.97311695377E-03  0.22116168577E-01  0.24275521599E-01  0.00000000000E+00 0.  1.
     999901    1    3    3    0    0 -0.55951091673E-01 -0.82944694486E-01  0.65938081351E-01  0.88812058729E+00  0.88000000000E+00 0.  1.
        -11    1    4    4    0    0  0.20867318822E-01  0.51573502095E-01 -0.40764851673E-01  0.68973222095E-01  0.51100000000E-03 0. -1.
         11    1    4    4    0    0  0.25122393439E-01  0.32344309344E-01 -0.47289398254E-01  0.62560669012E-01  0.51100000000E-03 0.  1.
</event>
<event>
 8    1  0.1074844E+005  0.1043930E+01  0.7957747E-01            NaN
         13   -1    0    0    0    0  0.00000000000E+00  0.00000000000E+00  0.74505805969E-08  0.10566000000E+00  0.10566000000E+00 0. -1.
     999900   -1    0    0    0    0 -0.00000000000E+00 -0.00000000000E+00 -0.74505805969E-08  0.93827000000E+00  0.93827000000E+00 0.  1.
     999902    2    1    2    0    0  0.84018812112E-02 -0.22068372313E-01  0.43158940826E-02  0.10199251754E+01  0.10196426490E+01 0.  0.
     999903    2    3    3    0    0 -0.34644138341E-01 -0.76191112924E-02 -0.12265289423E+00  0.12965397277E+00  0.22542249554E-01 0.  0.
         14    1    1    2    0    0 -0.84018812112E-02  0.22068372313E-01 -0.43158940826E-02  0.24004824643E-01  0.00000000000E+00 0.  1.
     999901    1    3    3    0    0  0.43046019553E-01 -0.14449261020E-01  0.12696878831E+00  0.89027120258E+00  0.88000000000E+00 0. -1.
        -11    1    4    4    0    0 -0.11335525050E-01 -0.80323839368E-02 -0.19814577957E-01  0.24205204822E-01  0.51100000000E-03 0.  1.
         11    1    4    4    0    0 -0.23308613292E-01  0.41327264439E-03 -0.10283831627E+00  0.10544876795E+00  0.51100000000E-03 0. -1.
</event>
<event>
 8    1  0.1074844E+005  0.1043930E+01  0.7957747E-01            NaN
         13   -1    0    0    0    0  0.00000000000E+00  0.00000000000E+00  0.74505805969E-08  0.10566000000E+00  0.10566000000E+00 0.  1.
     999900   -1    0    0    0    0 -0.00000000000E+00 -0.00000000000E+00 -0.74505805969E-08  0.93827000000E+00  0.93827000000E+00 0.  1.
     999902    2    1    2    0    0  0.84102654898E-04 -0.14255614497E-01 -0.17647481105E-01  0.10212438102E+01  0.10209918005E+01 0.  0.
     999903    2    3    3    0    0  0.62694351724E-01  0.44043339806E-01 -0.10633089596E+00  0.13265866548E+00  0.20534472747E-01 0.  0.
         14    1    1    2    0    0 -0.84102654898E-04  0.14255614497E-01  0.17647481105E-01  0.22686189792E-01  0.00000000000E+00 0.  1.
     999901    1    3    3    0    0 -0.62610249069E-01 -0.58298954302E-01  0.88683414858E-01  0.88858514473E+00  0.88000000000E+00 0. -1.
        -11    1    4    4    0    0  0.58513682974E-02  0.60309945316E-02 -0.33931057084E-02  0.90766565067E-02  0.51100000000E-03 0. -1.
         11    1    4    4    0    0  0.56842983427E-01  0.38012345274E-01 -0.10293779025E+00  0.12358200897E+00  0.51100000000E-03 0.  1.
</event>
<event>
 8    1  0.1074844E+005  0.1043930E+01  0.7957747E-01            NaN
         13   -1    0    0    0    0  0.00000000000E+00  0.00000000000E+00  0.74505805969E-08  0.10566000000E+00  0.10566000000E+00 0. -1.
     999900   -1    0    0    0    0 -0.00000000000E+00 -0.00000000000E+00 -0.74505805969E-08  0.93827000000E+00  0.93827000000E+00 0.  1.
     999902    2    1    2    0    0  0.78998808250E-02  0.10616394879E-01 -0.19575500576E-01  0.10203012848E+01  0.10200276446E+01 0.  0.
     999903    2    3    3    0    0 -0.11356627759E+00 -0.14542181217E-01  0.54104048365E-01  0.12855263330E+00  0.22130455030E-01 0.  0.
         14    1    1    2    0    0 -0.78998808250E-02 -0.10616394879E-01  0.19575500576E-01  0.23628715159E-01  0.00000000000E+00 0. -1.
     999901    1    3    3    0    0  0.12146615841E+00  0.25158576096E-01 -0.73679548941E-01  0.89174865154E+00  0.88000000000E+00 0.  1.
        -11    1    4    4    0    0 -0.99017333912E-01 -0.13751110710E-01  0.38309806437E-01  0.10705805832E+00  0.51100000000E-03 0. -1.
         11    1    4    4    0    0 -0.14548943674E-01 -0.79107050767E-03  0.15794241928E-01  0.21494574982E-01  0.51100000000E-03 0.  1.
</event>
<event>
 8    1  0.1074844E+005  0.1043930E+01  0.7957747E-01            NaN
         13   -1    0    0    0    0  0.00000000000E+00  0.00000000000E+00  0.74505805969E-08  0.10566000000E+00  0.10566000000E+00 0. -1.
     999900   -1    0    0    0    0 -0.00000000000E+00 -0.00000000000E+00 -0.74505805969E-08  0.93827000000E+00  0.93827000000E+00 0.  1.
     999902    2    1    2    0    0  0.20350375327E-01  0.28034337997E-02  0.93662486648E-02  0.10213529402E+01  0.10211033761E+01 0.  0.
     999903    2    3    3    0    0 -0.68505043011E-01 -0.10548613182E+00 -0.23883518867E-01  0.12965374064E+00  0.20479381410E-01 0.  0.
         14    1    1    2    0    0 -0.20350375327E-01 -0.28034337997E-02 -0.93662486648E-02  0.22577059841E-01  0.00000000000E+00 0.  1.
     999901    1    3    3    0    0  0.88855418338E-01  0.10828956562E+00  0.33249767532E-01  0.89169919952E+00  0.88000000000E+00 0. -1.
        -11    1    4    4    0    0 -0.38971345221E-01 -0.75432739154E-01 -0.11167761822E-01  0.85637864930E-01  0.51100000000E-03 0.  1.
         11    1    4    4    0    0 -0.29533697790E-01 -0.30053392666E-01 -0.12715757045E-01  0.44015875705E-01  0.51100000000E-03 0. -1.
</event>
<event>
 8    1  0.1074844E+005  0.1043930E+01  0.7957747E-01            NaN
         13   -1    0    0    0    0  0.00000000000E+00  0.00000000000E+00  0.74505805969E-08  0.10566000000E+00  0.10566000000E+00 0. -1.
     999900   -1    0    0    0    0 -0.00000000000E+00 -0.00000000000E+00 -0.74505805969E-08  0.93827000000E+00  0.93827000000E+00 0.  1.
     999902    2    1    2    0    0  0.88214393638E-02  0.17206397114E-01 -0.14556145103E-01  0.10197275362E+01  0.10194402821E+01 0.  0.
     999903    2    3    3    0    0  0.78030878018E-01  0.27113697884E-01 -0.10189149532E+00  0.13264492200E+00  0.19718721441E-01 0.  0.
         14    1    1    2    0    0 -0.88214393638E-02 -0.17206397114E-01  0.14556145103E-01  0.24202463808E-01  0.00000000000E+00 0. -1.
     999901    1    3    3    0    0 -0.69209438654E-01 -0.99073007693E-02  0.87335350222E-01  0.88708261419E+00  0.88000000000E+00 0. -1.
        -11    1    4    4    0    0  0.46400890665E-01  0.15617152556E-01 -0.74983124965E-01  0.89552600516E-01  0.51100000000E-03 0.  1.
         11    1    4    4    0    0  0.31629987353E-01  0.11496545327E-01 -0.26908370359E-01  0.43092321483E-01  0.51100000000E-03 0. -1.
</event>
<event>
 8    1  0.1074844E+005  0.1043930E+01  0.7957747E-01            NaN
         13   -1    0    0    0    0  0.00000000000E+00  0.00000000000E+00  0.74505805969E-08  0.10566000000E+00  0.10566000000E+00 0.  1.
     999900   -1    0    0    0    0 -0.00000000000E+00 -0.00000000000E+00 -0.74505805969E-08  0.93827000000E+00  0.93827000000E+00 0.  1.
     999902    2    1    2    0    0 -0.22912914388E-01  0.12482348651E-02 -0.32434244294E-02  0.10207550235E+01  0.10204919100E+01 0.  0.
     999903    2    3    3    0    0  0.82067845900E-01 -0.36503768252E-01 -0.90875795438E-01  0.12939336497E+00  0.20410200231E-01 0.  0.
         14    1    1    2    0    0  0.22912914388E-01 -0.12482348651E-02  0.32434244294E-02  0.23174976549E-01  0.00000000000E+00 0.  1.
     999901    1    3    3    0    0 -0.10498076029E+00  0.37752003117E-01  0.87632371008E-01  0.89136165849E+00  0.88000000000E+00 0. -1.
        -11    1    4    4    0    0  0.34692868477E-01 -0.19134645674E-01 -0.26809556323E-01  0.47840811233E-01  0.51100000000E-03 0.  1.
         11    1    4    4    0    0  0.47374977422E-01 -0.17369122578E-01 -0.64066239115E-01  0.81552553732E-01  0.51100000000E-03 0. -1.
</event>
<event>
 8    1  0.1074844E+005  0.1043930E+01  0.7957747E-01            NaN
         13   -1    0    0    0    0  0.00000000000E+00  0.00000000000E+00  0.74505805969E-08  0.10566000000E+00  0.10566000000E+00 0. -1.
     999900   -1    0    0    0    0 -0.00000000000E+00 -0.00000000000E+00 -0.74505805969E-08  0.93827000000E+00  0.93827000000E+00 0.  1.
     999902    2    1    2    0    0 -0.59224501171E-02  0.13979061663E-02  0.22770609768E-01  0.10203603113E+01  0.10200880524E+01 0.  0.
     999903    2    3    3    0    0  0.79508387264E-01 -0.86921357782E-01  0.54020423614E-01  0.13127354880E+00  0.20919664494E-01 0.  0.
         14    1    1    2    0    0  0.59224501171E-02 -0.13979061663E-02 -0.22770609768E-01  0.23569688718E-01  0.00000000000E+00 0.  1.
     999901    1    3    3    0    0 -0.85430837381E-01  0.88319263948E-01 -0.31249813846E-01  0.88908676248E+00  0.88000000000E+00 0.  1.
        -11    1    4    4    0    0  0.16953271861E-01 -0.30441100075E-01  0.10362082075E-01  0.36355300390E-01  0.51100000000E-03 0.  1.
         11    1    4    4    0    0  0.62555115403E-01 -0.56480257707E-01  0.43658341539E-01  0.94918248407E-01  0.51100000000E-03 0. -1.
</event>
<event>
 8    1  0.1074844E+005  0.1043930E+01  0.7957747E-01            NaN
         13   -1    0    0    0    0  0.00000000000E+00  0.00000000000E+00  0.74505805969E-08  0.10566000000E+00  0.10566000000E+00 0. -1.
     999900   -1    0    0    0    0 -0.00000000000E+00 -0.00000000000E+00 -0.74505805969E-08  0.93827000000E+00  0.93827000000E+00 0.  1.
     999902    2    1    2    0    0 -0.92338893949E-02 -0.18354831222E-01  0.22178615010E-01  0.10136966491E+01  0.10132456962E+01 0.  0.
     999903    2    3    3    0    0  0.72208663914E-01  0.94586091043E-01  0.22498617777E-01  0.12274847788E+00  0.20009529143E-01 0.  0.
         14    1    1    2    0    0  0.92338893949E-02  0.18354831222E-01 -0.22178615010E-01  0.30233350895E-01  0.00000000000E+00 0.  1.
     999901    1    3    3    0    0 -0.81442553309E-01 -0.11294092226E+00 -0.32000276704E-03  0.89094817123E+00  0.88000000000E+00 0. -1.
        -11    1    4    4    0    0  0.51962755825E-01  0.59394718434E-01  0.67797019026E-02  0.79209128575E-01  0.51100000000E-03 0.  1.
         11    1    4    4    0    0  0.20245908090E-01  0.35191372609E-01  0.15718915875E-01  0.43539349303E-01  0.51100000000E-03 0. -1.
</event>
<event>
 8    1  0.1074844E+005  0.1043930E+01  0.7957747E-01            NaN
         13   -1    0    0    0    0  0.00000000000E+00  0.00000000000E+00  0.74505805969E-08  0.10566000000E+00  0.10566000000E+00 0.  1.
     999900   -1    0    0    0    0 -0.00000000000E+00 -0.00000000000E+00 -0.74505805969E-08  0.93827000000E+00  0.93827000000E+00 0.  1.
     999902    2    1    2    0    0 -0.13930913387E-01  0.19798923591E-02 -0.22842289809E-01  0.10171016470E+01  0.10167477562E+01 0.  0.
     999903    2    3    3    0    0  0.65745613509E-01 -0.88010833062E-02 -0.10913379282E+00  0.12923296195E+00  0.19774452108E-01 0.  0.
         14    1    1    2    0    0  0.13930913387E-01 -0.19798923591E-02  0.22842289809E-01  0.26828353010E-01  0.00000000000E+00 0.  1.
     999901    1    3    3    0    0 -0.79676526895E-01  0.10780975665E-01  0.86291503016E-01  0.88786868504E+00  0.88000000000E+00 0. -1.
        -11    1    4    4    0    0  0.34844393775E-01 -0.10093307905E-01 -0.74050760142E-01  0.82460795780E-01  0.51100000000E-03 0.  1.
         11    1    4    4    0    0  0.30901219733E-01  0.12922245988E-02 -0.35083032682E-01  0.46772166174E-01  0.51100000000E-03 0. -1.
</event>
<event>
 8    1  0.1074844E+005  0.1043930E+01  0.7957747E-01            NaN
         13   -1    0    0    0    0  0.00000000000E+00  0.00000000000E+00  0.74505805969E-08  0.10566000000E+00  0.10566000000E+00 0. -1.
     999900   -1    0    0    0    0 -0.00000000000E+00 -0.00000000000E+00 -0.74505805969E-08  0.93827000000E+00  0.93827000000E+00 0. -1.
     999902    2    1    2    0    0 -0.20128894284E-02 -0.13809925926E-01  0.17699402016E-01  0.10213903769E+01  0.10211416490E+01 0.  0.
     999903    2    3    3    0    0 -0.11904633610E+00 -0.14135687445E-01  0.54862891139E-01  0.13286459861E+00  0.16468665396E-01 0.  0.
         14    1    1    2    0    0  0.20128894284E-02  0.13809925926E-01 -0.17699402016E-01  0.22539623103E-01  0.00000000000E+00 0.  1.
     999901    1    3    3    0    0  0.11703344667E+00  0.32576151969E-03 -0.37163489123E-01  0.88852577829E+00  0.88000000000E+00 0. -1.
        -11    1    4    4    0    0 -0.82215508030E-01 -0.16900113731E-01  0.35188183833E-01  0.91013586937E-01  0.51100000000E-03 0.  1.
         11    1    4    4    0    0 -0.36830828073E-01  0.27644262859E-02  0.19674707306E-01  0.41851011670E-01  0.51100000000E-03 0. -1.
</event>
<event>
 8    1  0.1074844E+005  0.1043930E+01  0.7957747E-01            NaN
         13   -1    0    0    0    0  0.00000000000E+00  0.00000000000E+00  0.74505805969E-08  0.10566000000E+00  0.10566000000E+00 0. -1.
     999900   -1    0    0    0    0 -0.00000000000E+00 -0.00000000000E+00 -0.74505805969E-08  0.93827000000E+00  0.93827000000E+00 0.  1.
     999902    2    1    2    0    0 -0.83372571306E-02  0.11996781609E-01  0.17838823353E-01  0.10208723279E+01  0.10206119015E+01 0.  0.
     999903    2    3    3    0    0 -0.41108284272E-01  0.11562131391E+00 -0.44614826133E-01  0.13198963468E+00  0.19302893225E-01 0.  0.
         14    1    1    2    0    0  0.83372571306E-02 -0.11996781609E-01 -0.17838823353E-01  0.23057672130E-01  0.00000000000E+00 0. -1.
     999901    1    3    3    0    0  0.32771027142E-01 -0.10362453230E+00  0.62453649486E-01  0.88888269319E+00  0.88000000000E+00 0. -1.
        -11    1    4    4    0    0 -0.25927014251E-01  0.56437531784E-01 -0.14094516025E-01  0.63689257845E-01  0.51100000000E-03 0.  1.
         11    1    4    4    0    0 -0.15181270022E-01  0.59183782125E-01 -0.30520310108E-01  0.68300376838E-01  0.51100000000E-03 0. -1.
</event>
<event>
 8    1  0.1074844E+005  0.1043930E+01  0.7957747E-01            NaN
         13   -1    0    0    0    0  0.00000000000E+00  0.00000000000E+00  0.74505805969E-08  0.10566000000E+00  0.10566000000E+00 0. -1.
     999900   -1    0    0    0    0 -0.00000000000E+00 -0.00000000000E+00 -0.74505805969E-08  0.93827000000E+00  0.93827000000E+00 0. -1.
     999902    2    1    2    0    0 -0.16085856968E-01  0.35413243434E-03 -0.16068475993E-01  0.10211906921E+01  0.10209374875E+01 0.  0.
     999903    2    3    3    0    0 -0.13881493440E-01 -0.39143856266E-01  0.12127947781E+00  0.12965863391E+00  0.19434820964E-01 0.  0.
         14    1    1    2    0    0  0.16085856968E-01 -0.35413243434E-03  0.16068475993E-01  0.22739307925E-01  0.00000000000E+00 0. -1.
     999901    1    3    3    0    0 -0.22043635282E-02  0.39497988701E-01 -0.13734795380E+00  0.89153205817E+00  0.88000000000E+00 0. -1.
        -11    1    4    4    0    0 -0.31296715820E-02 -0.30782973256E-01  0.96980207248E-01  0.10179787820E+00  0.51100000000E-03 0. -1.
         11    1    4    4    0    0 -0.10751821858E-01 -0.83608830103E-02  0.24299270558E-01  0.27860755708E-01  0.51100000000E-03 0.  1.
</event>
<event>
 8    1  0.1074844E+005  0.1043930E+01  0.7957747E-01            NaN
         13   -1    0    0    0    0  0.00000000000E+00  0.00000000000E+00  0.74505805969E-08  0.10566000000E+00  0.10566000000E+00 0. -1.
     999900   -1    0    0    0    0 -0.00000000000E+00 -0.00000000000E+00 -0.74505805969E-08  0.93827000000E+00  0.93827000000E+00 0.  1.
     999902    2    1    2    0    0  0.14908200549E-01 -0.12677414705E-01 -0.13443933622E-01  0.10201874088E+01  0.10199110934E+01 0.  0.
     999903    2    3    3    0    0  0.10382864233E+00 -0.30433061725E-01 -0.75334570146E-01  0.13336580390E+00  0.20114223256E-01 0.  0.
         14    1    1    2    0    0 -0.14908200549E-01  0.12677414705E-01  0.13443933622E-01  0.23742591233E-01  0.00000000000E+00 0. -1.
     999901    1    3    3    0    0 -0.88920441781E-01  0.17755647020E-01  0.61890636525E-01  0.88682160487E+00  0.88000000000E+00 0. -1.
        -11    1    4    4    0    0  0.89734786747E-01 -0.18610482241E-01 -0.62446915512E-01  0.11089887456E+00  0.51100000000E-03 0.  1.
         11    1    4    4    0    0  0.14093855583E-01 -0.11822579485E-01 -0.12887654634E-01  0.22466929337E-01  0.51100000000E-03 0. -1.
</event>
<event>
 7    1  0.1074844E+005  0.1043930E+01  0.7957747E-01            NaN
         13   -1    0    0    0    0  0.00000000000E+00  0.00000000000E+00  0.74505805969E-08  0.10566000000E+00  0.10566000000E+00 0. -1.
     999900   -1    0    0    0    0 -0.00000000000E+00 -0.00000000000E+00 -0.74505805969E-08  0.93827000000E+00  0.93827000000E+00 0. -1.
     999903    2    1    2    0    0  0.32013777539E-01  0.10554890514E+00 -0.92216831728E-01  0.14516429726E+00  0.20081728457E-01 0.  0.
         14    1    1    2    0    0  0.37350887477E-02 -0.51837510534E-02 -0.33302591155E-02  0.72050529986E-02  0.00000000000E+00 0. -1.
     999901    1    1    2    0    0 -0.35748866287E-01 -0.10036515408E+00  0.95547090843E-01  0.89156064974E+00  0.88000000000E+00 0.  1.
        -11    1    3    3    0    0  0.24438012903E-01  0.46122254998E-01 -0.42558256072E-01  0.67349425844E-01  0.51100000000E-03 0. -1.
         11    1    3    3    0    0  0.75757646363E-02  0.59426650139E-01 -0.49658575656E-01  0.77814871418E-01  0.51100000000E-03 0.  1.
</event>
<event>
 8    1  0.1074844E+005  0.1043930E+01  0.7957747E-01            NaN
         13   -1    0    0    0    0  0.00000000000E+00  0.00000000000E+00  0.74505805969E-08  0.10566000000E+00  0.10566000000E+00 0. -1.
     999900   -1    0    0    0    0 -0.00000000000E+00 -0.00000000000E+00 -0.74505805969E-08  0.93827000000E+00  0.93827000000E+00 0. -1.
     999902    2    1    2    0    0 -0.22856495601E-01  0.89757326553E-02  0.58716277811E-02  0.10186820460E+01  0.10183691137E+01 0.  0.
     999903    2    3    3    0    0 -0.16221736179E-01 -0.11001162040E+00  0.61927717685E-01  0.12888190248E+00  0.20243547646E-01 0.  0.
         14    1    1    2    0    0  0.22856495601E-01 -0.89757326553E-02 -0.58716277811E-02  0.25247953989E-01  0.00000000000E+00 0.  1.
     999901    1    3    3    0    0 -0.66347594222E-02  0.11898735305E+00 -0.56056089904E-01  0.88980014353E+00  0.88000000000E+00 0. -1.
        -11    1    4    4    0    0 -0.15802984965E-01 -0.59125490023E-01  0.42003792235E-01  0.74230301005E-01  0.51100000000E-03 0.  1.
         11    1    4    4    0    0 -0.41875121416E-03 -0.50886130373E-01  0.19923925450E-01  0.54651601471E-01  0.51100000000E-03 0. -1.
</event>
<event>
 8    1  0.1074844E+005  0.1043930E+01  0.7957747E-01            NaN
         13   -1    0    0    0    0  0.00000000000E+00  0.00000000000E+00  0.74505805969E-08  0.10566000000E+00  0.10566000000E+00 0.  1.
     999900   -1    0    0    0    0 -0.00000000000E+00 -0.00000000000E+00 -0.74505805969E-08  0.93827000000E+00  0.93827000000E+00 0.  1.
     999902    2    1    2    0    0 -0.18910556215E-01  0.13111763082E-01  0.32121010440E-02  0.10206954339E+01  0.10204309500E+01 0.  0.
     999903    2    3    3    0    0  0.10563926397E+00 -0.64140932983E-01  0.27294675995E-01  0.12824901695E+00  0.20714671996E-01 0.  0.
         14    1    1    2    0    0  0.18910556215E-01 -0.13111763082E-01 -0.32121010440E-02  0.23234566073E-01  0.00000000000E+00 0. -1.
     999901    1    3    3    0    0 -0.12454982018E+00  0.77252696065E-01 -0.24082574951E-01  0.89244641698E+00  0.88000000000E+00 0.  1.
        -11    1    4    4    0    0  0.87287577184E-01 -0.61189999343E-01  0.25188626529E-01  0.10953567993E+00  0.51100000000E-03 0. -1.
         11    1    4    4    0    0  0.18351686783E-01 -0.29509336399E-02  0.21060494660E-02  0.18713337022E-01  0.51100000000E-03 0.  1.
</event>
<event>
 8    1  0.1074844E+005  0.1043930E+01  0.7957747E-01            NaN
         13   -1    0    0    0    0  0.00000000000E+00  0.00000000000E+00  0.74505805969E-08  0.10566000000E+00  0.10566000000E+00 0.  1.
     999900   -1    0    0    0    0 -0.00000000000E+00 -0.00000000000E+00 -0.74505805969E-08  0.93827000000E+00  0.93827000000E+00 0.  1.
     999902    2    1    2    0    0  0.66111246247E-02 -0.10957415184E-01  0.20991264900E-01  0.10193453479E+01  0.10190488375E+01 0.  0.
     999903    2    3    3    0    0 -0.99418956186E-01 -0.67077527460E-01  0.48479516843E-01  0.13078052246E+00  0.19229091531E-01 0.  0.
         14    1    1    2    0    0 -0.66111246247E-02  0.10957415184E-01 -0.20991264900E-01  0.24584652091E-01  0.00000000000E+00 0. -1.
     999901    1    3    3    0    0  0.10603008081E+00  0.56120112276E-01 -0.27488251943E-01  0.88856482545E+00  0.88000000000E+00 0.  1.
        -11    1    4    4    0    0 -0.49947930012E-01 -0.30296913873E-01  0.13725708076E-01  0.60011289654E-01  0.51100000000E-03 0.  1.
         11    1    4    4    0    0 -0.49471026174E-01 -0.36780613587E-01  0.34753808766E-01  0.70769232802E-01  0.51100000000E-03 0. -1.
</event>
<event>
 8    1  0.1074844E+005  0.1043930E+01  0.7957747E-01            NaN
         13   -1    0    0    0    0  0.00000000000E+00  0.00000000000E+00  0.74505805969E-08  0.10566000000E+00  0.10566000000E+00 0.  1.
     999900   -1    0    0    0    0 -0.00000000000E+00 -0.00000000000E+00 -0.74505805969E-08  0.93827000000E+00  0.93827000000E+00 0.  1.
     999902    2    1    2    0    0 -0.61725117143E-02 -0.19321217744E-01 -0.12697116593E-01  0.10200003923E+01  0.10197196547E+01 0.  0.
     999903    2    3    3    0    0  0.87193312078E-01  0.80015161222E-01  0.43789488588E-01  0.12771365036E+00  0.19701712633E-01 0.  0.
         14    1    1    2    0    0  0.61725117143E-02  0.19321217744E-01  0.12697116593E-01  0.23929607723E-01  0.00000000000E+00 0. -1.
     999901    1    3    3    0    0 -0.93365823792E-01 -0.99336378966E-01 -0.56486605181E-01  0.89228674192E+00  0.88000000000E+00 0.  1.
        -11    1    4    4    0    0  0.57916266014E-02  0.11920565224E-01  0.89992232994E-02  0.16027786963E-01  0.51100000000E-03 0.  1.
         11    1    4    4    0    0  0.81401685477E-01  0.68094595998E-01  0.34790265288E-01  0.11168586340E+00  0.51100000000E-03 0. -1.
</event>
<event>
 8    1  0.1074844E+005  0.1043930E+01  0.7957747E-01            NaN
         13   -1    0    0    0    0  0.00000000000E+00  0.00000000000E+00  0.74505805969E-08  0.10566000000E+00  0.10566000000E+00 0. -1.
     999900   -1    0    0    0    0 -0.00000000000E+00 -0.00000000000E+00 -0.74505805969E-08  0.93827000000E+00  0.93827000000E+00 0.  1.
     999902    2    1    2    0    0 -0.75216798025E-02 -0.12183014603E-01  0.17972176186E-01  0.10209517357E+01  0.10206931204E+01 0.  0.
     999903    2    3    3    0    0 -0.11445057905E-02 -0.10996401881E+00 -0.68903243860E-01  0.13126126611E+00  0.19709582460E-01 0.  0.
         14    1    1    2    0    0  0.75216798025E-02  0.12183014603E-01 -0.17972176186E-01  0.22978264267E-01  0.00000000000E+00 0.  1.
     999901    1    3    3    0    0 -0.63771740120E-02  0.97781004202E-01  0.86875420046E-01  0.88969046962E+00  0.88000000000E+00 0. -1.
        -11    1    4    4    0    0  0.55097325142E-02 -0.67676429684E-01 -0.33543224426E-01  0.75735495728E-01  0.51100000000E-03 0. -1.
         11    1    4    4    0    0 -0.66542383047E-02 -0.42287589121E-01 -0.35360019433E-01  0.55525770381E-01  0.51100000000E-03 0.  1.
</event>
<event>
 8    1  0.1074844E+005  0.1043930E+01  0.7957747E-01            NaN
         13   -1    0    0    0    0  0.00000000000E+00  0.00000000000E+00  0.74505805969E-08  0.10566000000E+00  0.10566000000E+00 0.  1.
     999900   -1    0    0    0    0 -0.00000000000E+00 -0.00000000000E+00 -0.74505805969E-08  0.93827000000E+00  0.93827000000E+00 0. -1.
     999902    2    1    2    0    0 -0.18376368406E-01 -0.55299465154E-02 -0.13740456983E-01  0.10203276403E+01  0.10200546173E+01 0.  0.
     999903    2    3    3    0    0 -0.11994051067E+00  0.47230583455E-01  0.21292440680E-01  0.13222502664E+00  0.20338031522E-01 0.  0.
         14    1    1    2    0    0  0.18376368406E-01  0.55299465154E-02  0.13740456983E-01  0.23602359677E-01  0.00000000000E+00 0.  1.
     999901    1    3    3    0    0  0.10156414226E+00 -0.52760529970E-01 -0.35032897664E-01  0.88810261369E+00  0.88000000000E+00 0. -1.
        -11    1    4    4    0    0 -0.75273909642E-01  0.38143864021E-01  0.81332781441E-02  0.84779285027E-01  0.51100000000E-03 0. -1.
         11    1    4    4    0    0 -0.44666601026E-01  0.90867194335E-02  0.13159162536E-01  0.47445741610E-01  0.51100000000E-03 0.  1.
</event>
<event>
 8    1  0.1074844E+005  0.1043930E+01  0.7957747E-01            NaN
         13   -1    0    0    0    0  0.00000000000E+00  0.00000000000E+00  0.74505805969E-08  0.10566000000E+00  0.10566000000E+00 0.  1.
     999900   -1    0    0    0    0 -0.00000000000E+00 -0.00000000000E+00 -0.74505805969E-08  0.93827000000E+00  0.93827000000E+00 0. -1.
     999902    2    1    2    0    0  0.18097172084E-01  0.66143266616E-02 -0.59163641059E-02  0.10237740997E+01  0.10235756674E+01 0.  0.
     999903    2    3    3    0    0 -0.63609613474E-02  0.10814693123E+00 -0.77542786772E-01  0.13470862709E+00  0.19932633258E-01 0.  0.
         14    1    1    2    0    0 -0.18097172084E-01 -0.66143266616E-02  0.59163641059E-02  0.20155900349E-01  0.00000000000E+00 0.  1.
     999901    1    3    3    0    0  0.24458133432E-01 -0.10153260456E+00  0.71626422666E-01  0.88906547256E+00  0.88000000000E+00 0. -1.
        -11    1    4    4    0    0 -0.63292405669E-02  0.55661603193E-01 -0.51576878761E-01  0.76149254100E-01  0.51100000000E-03 0.  1.
         11    1    4    4    0    0 -0.31720780553E-04  0.52485328033E-01 -0.25965908011E-01  0.58559372988E-01  0.51100000000E-03 0. -1.
</event>
<event>
 8    1  0.1074844E+005  0.1043930E+01  0.7957747E-01            NaN
         13   -1    0    0    0    0  0.00000000000E+00  0.00000000000E+00  0.74505805969E-08  0.10566000000E+00  0.10566000000E+00 0. -1.
     999900   -1    0    0    0    0 -0.00000000000E+00 -0.00000000000E+00 -0.74505805969E-08  0.93827000000E+00  0.93827000000E+00 0. -1.
     999902    2    1    2    0    0  0.37579111395E-02  0.83794178183E-02  0.21563152402E-01  0.10204927203E+01  0.10202235471E+01 0.  0.
     999903    2    3    3    0    0  0.68551889559E-01  0.70985083178E-01  0.87723794441E-01  0.13342172001E+00  0.19174140457E-01 0.  0.
         14    1    1    2    0    0 -0.37579111395E-02 -0.83794178183E-02 -0.21563152402E-01  0.23437279719E-01  0.00000000000E+00 0.  1.
     999901    1    3    3    0    0 -0.64793978419E-01 -0.62605665360E-01 -0.66160642038E-01  0.88707100028E+00  0.88000000000E+00 0.  1.
        -11    1    4    4    0    0  0.29701454215E-01  0.18045917234E-01  0.33266472749E-01  0.48111857598E-01  0.51100000000E-03 0. -1.
         11    1    4    4    0    0  0.38850435344E-01  0.52939165945E-01  0.54457321691E-01  0.85309862408E-01  0.51100000000E-03 0.  1.
</event>
<event>
 8    1  0.1074844E+005  0.1043930E+01  0.7957747E-01            NaN
         13   -1    0    0    0    0  0.00000000000E+00  0.00000000000E+00  0.74505805969E-08  0.10566000000E+00  0.10566000000E+00 0. -1.
     999900   -1    0    0    0    0 -0.00000000000E+00 -0.00000000000E+00 -0.74505805969E-08  0.93827000000E+00  0.93827000000E+00 0. -1.
     999902    2    1    2    0    0 -0.50141187525E-02  0.38704331967E-02 -0.22719291361E-01  0.10203442450E+01  0.10200716104E+01 0.  0.
     999903    2    3    3    0    0  0.22082223076E-03  0.12956122090E+00 -0.43140992665E-02  0.13120739960E+00  0.20263551817E-01 0.  0.
         14    1    1    2    0    0  0.50141187525E-02 -0.38704331967E-02  0.22719291361E-01  0.23585755022E-01  0.00000000000E+00 0. -1.
     999901    1    3    3    0    0 -0.52349409832E-02 -0.12569078770E+00 -0.18405192094E-01  0.88913684538E+00  0.88000000000E+00 0. -1.
        -11    1    4    4    0    0  0.96520738757E-02  0.86111518054E-01 -0.17731337005E-02  0.86670417074E-01  0.51100000000E-03 0.  1.
         11    1    4    4    0    0 -0.94312516449E-02  0.43449702847E-01 -0.25409655661E-02  0.44536982521E-01  0.51100000000E-03 0. -1.
</event>
<event>
 7    1  0.1074844E+005  0.1043930E+01  0.7957747E-01            NaN
         13   -1    0    0    0    0  0.00000000000E+00  0.00000000000E+00  0.74505805969E-08  0.10566000000E+00  0.10566000000E+00 0. -1.
     999900   -1    0    0    0    0 -0.00000000000E+00 -0.00000000000E+00 -0.74505805969E-08  0.93827000000E+00  0.93827000000E+00 0. -1.
     999903    2    1    2    0    0 -0.86807474798E-01 -0.61203871477E-02 -0.60252124073E-01  0.10773868879E+00  0.20107456013E-01 0.  0.
         14    1    1    2    0    0  0.19012802237E-01 -0.10394021386E-02 -0.43493015306E-01  0.47478514995E-01  0.00000000000E+00 0.  1.
     999901    1    1    2    0    0  0.67794672561E-01  0.71597892864E-02  0.10374513938E+00  0.88871279621E+00  0.88000000000E+00 0.  1.
        -11    1    3    3    0    0 -0.60638076553E-01 -0.57850886497E-02 -0.30546720311E-01  0.68145482766E-01  0.51100000000E-03 0.  1.
         11    1    3    3    0    0 -0.26169398246E-01 -0.33529849806E-03 -0.29705403762E-01  0.39593206024E-01  0.51100000000E-03 0. -1.
</event>
<event>
 8    1  0.1074844E+005  0.1043930E+01  0.7957747E-01            NaN
         13   -1    0    0    0    0  0.00000000000E+00  0.00000000000E+00  0.74505805969E-08  0.10566000000E+00  0.10566000000E+00 0.  1.
     999900   -1    0    0    0    0 -0.00000000000E+00 -0.00000000000E+00 -0.74505805969E-08  0.93827000000E+00  0.93827000000E+00 0. -1.
     999902    2    1    2    0    0  0.33977026078E-02  0.20223708438E-01  0.12675176540E-01  0.10198218506E+01  0.10195368577E+01 0.  0.
     999903    2    3    3    0    0 -0.91811447676E-01  0.33290561534E-02 -0.88018009214E-01  0.12881717655E+00  0.20156152612E-01 0.  0.
         14    1    1    2    0    0 -0.33977026078E-02 -0.20223708438E-01 -0.12675176540E-01  0.24108149375E-01  0.00000000000E+00 0. -1.
     999901    1    3    3    0    0  0.95209150284E-01  0.16894652284E-01  0.10069318575E+00  0.89100467408E+00  0.88000000000E+00 0.  1.
        -11    1    4    4    0    0 -0.52046761350E-02 -0.41322089027E-02 -0.99645612272E-02  0.11988219448E-01  0.51100000000E-03 0. -1.
         11    1    4    4    0    0 -0.86606771541E-01  0.74612650561E-02 -0.78053447986E-01  0.11682895710E+00  0.51100000000E-03 0.  1.
</event>
<event>
 8    1  0.1074844E+005  0.1043930E+01  0.7957747E-01            NaN
         13   -1    0    0    0    0  0.00000000000E+00  0.00000000000E+00  0.74505805969E-08  0.10566000000E+00  0.10566000000E+00 0.  1.
     999900   -1    0    0    0    0 -0.00000000000E+00 -0.00000000000E+00 -0.74505805969E-08  0.93827000000E+00  0.93827000000E+00 0. -1.
     999902    2    1    2    0    0  0.20781037688E-01 -0.57745164948E-02  0.85852466157E-02  0.10207157150E+01  0.10204516979E+01 0.  0.
     999903    2    3    3    0    0 -0.49794436121E-01 -0.11186882434E+00  0.41045799513E-01  0.13094575196E+00  0.21631286844E-01 0.  0.
         14    1    1    2    0    0 -0.20781037688E-01  0.57745164948E-02 -0.85852466157E-02  0.23214284990E-01  0.00000000000E+00 0.  1.
     999901    1    3    3    0    0  0.70575473810E-01  0.10609430784E+00 -0.32460552897E-01  0.88976996305E+00  0.88000000000E+00 0.  1.
        -11    1    4    4    0    0 -0.22131136046E-01 -0.30461455986E-01  0.61548172911E-02  0.38155345371E-01  0.51100000000E-03 0. -1.
         11    1    4    4    0    0 -0.27663300075E-01 -0.81407368350E-01  0.34890982222E-01  0.92790406584E-01  0.51100000000E-03 0.  1.
</event>
<event>
 7    1  0.1074844E+005  0.1043930E+01  0.7957747E-01            NaN
         13   -1    0    0    0    0  0.00000000000E+00  0.00000000000E+00  0.74505805969E-08  0.10566000000E+00  0.10566000000E+00 0.  1.
     999900   -1    0    0    0    0 -0.00000000000E+00 -0.00000000000E+00 -0.74505805969E-08  0.93827000000E+00  0.93827000000E+00 0. -1.
     999903    2    1    2    0    0  0.91692548431E-01  0.65006280269E-01  0.92462014827E-01  0.14696445299E+00  0.20395743297E-01 0.  0.
         14    1    1    2    0    0  0.92249884605E-03 -0.49309499052E-02 -0.22310209979E-02  0.54902391370E-02  0.00000000000E+00 0. -1.
     999901    1    1    2    0    0 -0.92615047277E-01 -0.60075330364E-01 -0.90230993829E-01  0.89147530787E+00  0.88000000000E+00 0. -1.
        -11    1    3    3    0    0  0.23067647693E-01  0.75765944337E-02  0.14530256071E-01  0.28300364234E-01  0.51100000000E-03 0.  1.
         11    1    3    3    0    0  0.68624900737E-01  0.57429685835E-01  0.77931758756E-01  0.11866408876E+00  0.51100000000E-03 0. -1.
</event>
<event>
 8    1  0.1074844E+005  0.1043930E+01  0.7957747E-01            NaN
         13   -1    0    0    0    0  0.00000000000E+00  0.00000000000E+00  0.74505805969E-08  0.10566000000E+00  0.10566000000E+00 0.  1.
     999900   -1    0    0    0    0 -0.00000000000E+00 -0.00000000000E+00 -0.74505805969E-08  0.93827000000E+00  0.93827000000E+00 0.  1.
     999902    2    1    2    0    0 -0.11295322852E-01  0.20788053274E-01 -0.16483562362E-01  0.10150953801E+01  0.10146857619E+01 0.  0.
     999903    2    3    3    0    0  0.57617635183E-01  0.72352025260E-01 -0.86379403738E-01  0.12813807129E+00  0.20083736712E-01 0.  0.
         14    1    1    2    0    0  0.11295322852E-01 -0.20788053274E-01  0.16483562362E-01  0.28834619911E-01  0.00000000000E+00 0.  1.
     999901    1    3    3    0    0 -0.68912958035E-01 -0.51563971986E-01  0.69895841376E-01  0.88695730880E+00  0.88000000000E+00 0. -1.
        -11    1    4    4    0    0  0.18794880050E-01  0.39480437419E-01 -0.37957660457E-01  0.57905073726E-01  0.51100000000E-03 0. -1.
         11    1    4    4    0    0  0.38822755133E-01  0.32871587841E-01 -0.48421743281E-01  0.70232997563E-01  0.51100000000E-03 0.  1.
</event>
<event>
 8    1  0.1074844E+005  0.1043930E+01  0.7957747E-01            NaN
         13   -1    0    0    0    0  0.00000000000E+00  0.00000000000E+00  0.74505805969E-08  0.10566000000E+00  0.10566000000E+00 0.  1.
     999900   -1    0    0    0    0 -0.00000000000E+00 -0.00000000000E+00 -0.74505805969E-08  0.93827000000E+00  0.93827000000E+00 0.  1.
     999902    2    1    2    0    0 -0.10207695203E-01  0.21381882563E-01 -0.39881326148E-02  0.10199031994E+01  0.10196201494E+01 0.  0.
     999903    2    3    3    0    0  0.24164318794E-01  0.70729464237E-01 -0.10644793064E+00  0.13191973711E+00  0.22024615517E-01 0.  0.
         14    1    1    2    0    0  0.10207695203E-01 -0.21381882563E-01  0.39881326148E-02  0.24026800558E-01  0.00000000000E+00 0.  1.
     999901    1    3    3    0    0 -0.34372013997E-01 -0.49347581674E-01  0.10245979802E+00  0.88798346233E+00  0.88000000000E+00 0. -1.
        -11    1    4    4    0    0  0.24733419620E-02  0.16169669083E-01 -0.10540534080E-01  0.19466370961E-01  0.51100000000E-03 0. -1.
         11    1    4    4    0    0  0.21690976832E-01  0.54559795154E-01 -0.95907396556E-01  0.11245336615E+00  0.51100000000E-03 0.  1.
</event>
<event>
 8    1  0.1074844E+005  0.1043930E+01  0.7957747E-01            NaN
         13   -1    0    0    0    0  0.00000000000E+00  0.00000000000E+00  0.74505805969E-08  0.10566000000E+00  0.10566000000E+00 0. -1.
     999900   -1    0    0    0    0 -0.00000000000E+00 -0.00000000000E+00 -0.74505805969E-08  0.93827000000E+00  0.93827000000E+00 0.  1.
     999902    2    1    2    0    0 -0.19656920814E-01 -0.17423712643E-01 -0.19945629935E-02  0.10175869064E+01  0.10172458668E+01 0.  0.
     999903    2    3    3    0    0  0.12202288093E+00  0.15963324073E-01 -0.15161540197E-01  0.12553240711E+00  0.19598513877E-01 0.  0.
         14    1    1    2    0    0  0.19656920814E-01  0.17423712643E-01  0.19945629935E-02  0.26343093586E-01  0.00000000000E+00 0. -1.
     999901    1    3    3    0    0 -0.14167980175E+00 -0.33387036716E-01  0.13166977203E-01  0.89205449931E+00  0.88000000000E+00 0. -1.
        -11    1    4    4    0    0  0.36736508429E-01 -0.49726197295E-03  0.27386571724E-02  0.36845348216E-01  0.51100000000E-03 0.  1.
         11    1    4    4    0    0  0.85286372505E-01  0.16460586046E-01 -0.17900197369E-01  0.88687058892E-01  0.51100000000E-03 0. -1.
</event>
<event>
 8    1  0.1074844E+005  0.1043930E+01  0.7957747E-01            NaN
         13   -1    0    0    0    0  0.00000000000E+00  0.00000000000E+00  0.74505805969E-08  0.10566000000E+00  0.10566000000E+00 0. -1.
     999900   -1    0    0    0    0 -0.00000000000E+00 -0.00000000000E+00 -0.74505805969E-08  0.93827000000E+00  0.93827000000E+00 0.  1.
     999902    2    1    2    0    0  0.18420587550E-01  0.14588307211E-01 -0.25182296179E-02  0.10202978559E+01  0.10200241353E+01 0.  0.
     999903    2    3    3    0    0  0.11404843578E+00 -0.62048687958E-01 -0.10275061440E-01  0.13177206406E+00  0.20030341911E-01 0.  0.
         14    1    1    2    0    0 -0.18420587550E-01 -0.14588307211E-01  0.25182296179E-02  0.23632144071E-01  0.00000000000E+00 0.  1.
     999901    1    3    3    0    0 -0.95627848227E-01  0.76636995169E-01  0.77568318226E-02  0.88852579187E+00  0.88000000000E+00 0. -1.
        -11    1    4    4    0    0  0.30146945091E-01 -0.23212143850E-01  0.38432979862E-02  0.38244920981E-01  0.51100000000E-03 0. -1.
         11    1    4    4    0    0  0.83901490687E-01 -0.38836544109E-01 -0.14118359427E-01  0.93527143075E-01  0.51100000000E-03 0.  1.
</event>
<event>
 8    1  0.1074844E+005  0.1043930E+01  0.7957747E-01            NaN
         13   -1    0    0    0    0  0.00000000000E+00  0.00000000000E+00  0.74505805969E-08  0.10566000000E+00  0.10566000000E+00 0. -1.
     999900   -1    0    0    0    0 -0.00000000000E+00 -0.00000000000E+00 -0.74505805969E-08  0.93827000000E+00  0.93827000000E+00 0. -1.
     999902    2    1    2    0    0 -0.77364349272E-02  0.20123664597E-02 -0.27983590170E-01  0.10148270214E+01  0.10144096313E+01 0.  0.
     999903    2    3    3    0    0  0.89832836841E-01  0.55694229152E-01  0.59749982059E-01  0.12348046430E+00  0.22485083310E-01 0.  0.
         14    1    1    2    0    0  0.77364349272E-02 -0.20123664597E-02  0.27983590170E-01  0.29102978592E-01  0.00000000000E+00 0. -1.
     999901    1    3    3    0    0 -0.97569271768E-01 -0.53681862692E-01 -0.87733572229E-01  0.89134655711E+00  0.88000000000E+00 0. -1.
        -11    1    4    4    0    0  0.67595873563E-01  0.52486666121E-01  0.47880710934E-01  0.98065671077E-01  0.51100000000E-03 0. -1.
         11    1    4    4    0    0  0.22236963278E-01  0.32075630311E-02  0.11869271126E-01  0.25414793221E-01  0.51100000000E-03 0.  1.
</event>
<event>
 8    1  0.1074844E+005  0.1043930E+01  0.7957747E-01            NaN
         13   -1    0    0    0    0  0.00000000000E+00  0.00000000000E+00  0.74505805969E-08  0.10566000000E+00  0.10566000000E+00 0.  1.
     999900   -1    0    0    0    0 -0.00000000000E+00 -0.00000000000E+00 -0.74505805969E-08  0.93827000000E+00  0.93827000000E+00 0. -1.
     999902    2    1    2    0    0 -0.58137109635E-02  0.17993432472E-01  0.14372740999E-01  0.10201783994E+01  0.10199018718E+01 0.  0.
     999903    2    3    3    0    0  0.33620232252E-02  0.11623509627E+00 -0.58281638765E-01  0.13168851341E+00  0.20572174002E-01 0.  0.
         14    1    1    2    0    0  0.58137109635E-02 -0.17993432472E-01 -0.14372740999E-01  0.23751600601E-01  0.00000000000E+00 0. -1.
     999901    1    3    3    0    0 -0.91757341887E-02 -0.98241663794E-01  0.72654379764E-01  0.88848988599E+00  0.88000000000E+00 0.  1.
        -11    1    4    4    0    0  0.89759284248E-02  0.10513877415E+00 -0.53918690249E-01  0.11849985401E+00  0.51100000000E-03 0.  1.
         11    1    4    4    0    0 -0.56139051996E-02  0.11096322120E-01 -0.43629485157E-02  0.13188659406E-01  0.51100000000E-03 0. -1.
</event>
<event>
 8    1  0.1074844E+005  0.1043930E+01  0.7957747E-01            NaN
         13   -1    0    0    0    0  0.00000000000E+00  0.00000000000E+00  0.74505805969E-08  0.10566000000E+00  0.10566000000E+00 0. -1.
     999900   -1    0    0    0    0 -0.00000000000E+00 -0.00000000000E+00 -0.74505805969E-08  0.93827000000E+00  0.93827000000E+00 0.  1.
     999902    2    1    2    0    0  0.18649924763E-01 -0.25675216215E-03  0.78493868467E-02  0.10236939310E+01  0.10234939012E+01 0.  0.
     999903    2    3    3    0    0  0.30817369521E-01  0.75436691127E-01  0.10563297780E+00  0.13496496514E+00  0.20415954170E-01 0.  0.
         14    1    1    2    0    0 -0.18649924763E-01  0.25675216215E-03 -0.78493868467E-02  0.20236069016E-01  0.00000000000E+00 0. -1.
     999901    1    3    3    0    0 -0.12167444758E-01 -0.75693443289E-01 -0.97783590952E-01  0.88872896584E+00  0.88000000000E+00 0. -1.
        -11    1    4    4    0    0  0.33149491911E-01  0.72689913590E-01  0.10349275475E+00  0.13074296830E+00  0.51100000000E-03 0. -1.
         11    1    4    4    0    0 -0.23321223895E-02  0.27467775366E-02  0.21402230469E-02  0.42219968457E-02  0.51100000000E-03 0.  1.
</event>
<event>
 8    1  0.1074844E+005  0.1043930E+01  0.7957747E-01            NaN
         13   -1    0    0    0    0  0.00000000000E+00  0.00000000000E+00  0.74505805969E-08  0.10566000000E+00  0.10566000000E+00 0. -1.
     999900   -1    0    0    0    0 -0.00000000000E+00 -0.00000000000E+00 -0.74505805969E-08  0.93827000000E+00  0.93827000000E+00 0. -1.
     999902    2    1    2    0    0  0.20902882490E-01  0.65697288395E-02  0.88219895662E-02  0.10203096839E+01  0.10200362404E+01 0.  0.
     999903    2    3    3    0    0  0.90736043829E-01 -0.85009741949E-01 -0.38176782989E-01  0.13156205125E+00  0.19784354779E-01 0.  0.
         14    1    1    2    0    0 -0.20902882490E-01 -0.65697288395E-02 -0.88219895662E-02  0.23620316114E-01  0.00000000000E+00 0.  1.
     999901    1    3    3    0    0 -0.69833161339E-01  0.91579470789E-01  0.46998772555E-01  0.88874763263E+00  0.88000000000E+00 0.  1.
        -11    1    4    4    0    0  0.30458751055E-01 -0.41850689218E-01 -0.15540423679E-01  0.54046106177E-01  0.51100000000E-03 0. -1.
         11    1    4    4    0    0  0.60277292774E-01 -0.43159052732E-01 -0.22636359309E-01  0.77515945074E-01  0.51100000000E-03 0.  1.
</event>
<event>
 8    1  0.1074844E+005  0.1043930E+01  0.7957747E-01            NaN
         13   -1    0    0    0    0  0.00000000000E+00  0.00000000000E+00  0.74505805969E-08  0.10566000000E+00  0.10566000000E+00 0. -1.
     999900   -1    0    0    0    0 -0.00000000000E+00 -0.00000000000E+00 -0.74505805969E-08  0.93827000000E+00  0.93827000000E+00 0. -1.
     999902    2    1    2    0    0 -0.60756873935E-02  0.21162505669E-01 -0.85148204456E-02  0.10203234799E+01  0.10200503595E+01 0.  0.
     999903    2    3    3    0    0 -0.62919900385E-01 -0.74488340931E-01  0.81662154883E-01  0.12874497193E+00  0.19978324730E-01 0.  0.
         14    1    1    2    0    0  0.60756873935E-02 -0.21162505669E-01  0.85148204456E-02  0.23606520089E-01  0.00000000000E+00 0.  1.
     999901    1    3    3    0    0  0.56844212991E-01  0.95650846601E-01 -0.90176975329E-01  0.89157850798E+00  0.88000000000E+00 0. -1.
        -11    1    4    4    0    0 -0.44200005551E-01 -0.37742945835E-01  0.44091319044E-01  0.72955301295E-01  0.51100000000E-03 0. -1.
         11    1    4    4    0    0 -0.18719894834E-01 -0.36745395096E-01  0.37570835839E-01  0.55789670639E-01  0.51100000000E-03 0.  1.
</event>
<event>
 8    1  0.1074844E+005  0.1043930E+01  0.7957747E-01            NaN
         13   -1    0    0    0    0  0.00000000000E+00  0.00000000000E+00  0.74505805969E-08  0.10566000000E+00  0.10566000000E+00 0.  1.
     999900   -1    0    0    0    0 -0.00000000000E+00 -0.00000000000E+00 -0.74505805969E-08  0.93827000000E+00  0.93827000000E+00 0.  1.
     999902    2    1    2    0    0  0.23491798813E-02  0.61311397099E-02  0.22543887681E-01  0.10204494465E+01  0.10201792668E+01 0.  0.
     999903    2    3    3    0    0 -0.57917656043E-02  0.12092614554E+00  0.49917234490E-01  0.13253420930E+00  0.20418352327E-01 0.  0.
         14    1    1    2    0    0 -0.23491798813E-02 -0.61311397099E-02 -0.22543887681E-01  0.23480553487E-01  0.00000000000E+00 0. -1.
     999901    1    3    3    0    0  0.81409454856E-02 -0.11479500583E+00 -0.27373346809E-01  0.88791523721E+00  0.88000000000E+00 0. -1.
        -11    1    4    4    0    0 -0.97204605133E-03  0.10450057202E+00  0.36221065399E-01  0.11060533950E+00  0.51100000000E-03 0. -1.
         11    1    4    4    0    0 -0.48197195529E-02  0.16425573524E-01  0.13696169091E-01  0.21928869805E-01  0.51100000000E-03 0.  1.
</event>
<event>
 8    1  0.1074844E+005  0.1043930E+01  0.7957747E-01            NaN
         13   -1    0    0    0    0  0.00000000000E+00  0.00000000000E+00  0.74505805969E-08  0.10566000000E+00  0.10566000000E+00 0. -1.
     999900   -1    0    0    0    0 -0.00000000000E+00 -0.00000000000E+00 -0.74505805969E-08  0.93827000000E+00  0.93827000000E+00 0.  1.
     999902    2    1    2    0    0 -0.19283242290E-01  0.14082456224E-01  0.32832110858E-02  0.10198273346E+01  0.10195424728E+01 0.  0.
     999903    2    3    3    0    0 -0.48701925736E-02  0.12258338714E+00  0.44761285748E-01  0.13207702130E+00  0.19757562475E-01 0.  0.
         14    1    1    2    0    0  0.19283242290E-01 -0.14082456224E-01 -0.32832110858E-02  0.24102665445E-01  0.00000000000E+00 0.  1.
     999901    1    3    3    0    0 -0.14413049717E-01 -0.10850093091E+00 -0.41478074662E-01  0.88775031326E+00  0.88000000000E+00 0.  1.
        -11    1    4    4    0    0  0.77001711046E-02  0.45333757483E-01  0.15860855146E-01  0.48644321863E-01  0.51100000000E-03 0.  1.
         11    1    4    4    0    0 -0.12570363678E-01  0.77249629655E-01  0.28900430602E-01  0.83432699434E-01  0.51100000000E-03 0. -1.
</event>
<event>
 8    1  0.1074844E+005  0.1043930E+01  0.7957747E-01            NaN
         13   -1    0    0    0    0  0.00000000000E+00  0.00000000000E+00  0.74505805969E-08  0.10566000000E+00  0.10566000000E+00 0.  1.
     999900   -1    0    0    0    0 -0.00000000000E+00 -0.00000000000E+00 -0.74505805969E-08  0.93827000000E+00  0.93827000000E+00 0. -1.
     999902    2    1    2    0    0  0.20868051655E-01 -0.13548925090E-01 -0.44965293145E-02  0.10186462557E+01  0.10183324244E+01 0.  0.
     999903    2    3    3    0    0 -0.11439434269E+00 -0.40098007659E-01  0.32491720720E-01  0.12714813468E+00  0.20421076850E-01 0.  0.
         14    1    1    2    0    0 -0.20868051655E-01  0.13548925090E-01  0.44965293145E-02  0.25283744320E-01  0.00000000000E+00 0.  1.
     999901    1    3    3    0    0  0.13526239434E+00  0.26549082570E-01 -0.36988250034E-01  0.89149812100E+00  0.88000000000E+00 0. -1.
        -11    1    4    4    0    0 -0.35404835289E-01 -0.41395102043E-02  0.43770366625E-02  0.35917370136E-01  0.51100000000E-03 0.  1.
         11    1    4    4    0    0 -0.78989507399E-01 -0.35958497455E-01  0.28114684057E-01  0.91230764543E-01  0.51100000000E-03 0. -1.
</event>
<event>
 8    1  0.1074844E+005  0.1043930E+01  0.7957747E-01            NaN
         13   -1    0    0    0    0  0.00000000000E+00  0.00000000000E+00  0.74505805969E-08  0.10566000000E+00  0.10566000000E+00 0. -1.
     999900   -1    0    0    0    0 -0.00000000000E+00 -0.00000000000E+00 -0.74505805969E-08  0.93827000000E+00  0.93827000000E+00 0.  1.
     999902    2    1    2    0    0  0.11887853687E-01 -0.11929840067E-01 -0.11052960415E-01  0.10237852716E+01  0.10235870614E+01 0.  0.
     999903    2    3    3    0    0  0.71328659821E-01  0.79880317154E-02  0.11068229512E+00  0.13319591419E+00  0.18411809811E-01 0.  0.
         14    1    1    2    0    0 -0.11887853687E-01  0.11929840067E-01  0.11052960415E-01  0.20144728423E-01  0.00000000000E+00 0. -1.
     999901    1    3    3    0    0 -0.59440806134E-01 -0.19917871782E-01 -0.12173525554E+00  0.89058935739E+00  0.88000000000E+00 0.  1.
        -11    1    4    4    0    0  0.50366080689E-01 -0.28973982866E-02  0.76834993280E-01  0.91918519973E-01  0.51100000000E-03 0. -1.
         11    1    4    4    0    0  0.20962579132E-01  0.10885430002E-01  0.33847301844E-01  0.41277394216E-01  0.51100000000E-03 0.  1.
</event>
<event>
 8    1  0.1074844E+005  0.1043930E+01  0.7957747E-01            NaN
         13   -1    0    0    0    0  0.00000000000E+00  0.00000000000E+00  0.74505805969E-08  0.10566000000E+00  0.10566000000E+00 0.  1.
     999900   -1    0    0    0    0 -0.00000000000E+00 -0.00000000000E+00 -0.74505805969E-08  0.93827000000E+00  0.93827000000E+00 0.  1.
     999902    2    1    2    0    0  0.57874283809E-02  0.22939797815E-01 -0.37029784589E-02  0.10199833781E+01  0.10197022364E+01 0.  0.
     999903    2    3    3    0    0 -0.53769585845E-01 -0.54169530176E-01 -0.10223359121E+00  0.12914042446E+00  0.20000892374E-01 0.  0.
         14    1    1    2    0    0 -0.57874283809E-02 -0.22939797815E-01  0.37029784589E-02  0.23946621902E-01  0.00000000000E+00 0.  1.
     999901    1    3    3    0    0  0.59557014226E-01  0.77109327990E-01  0.98530612749E-01  0.89084295364E+00  0.88000000000E+00 0. -1.
        -11    1    4    4    0    0 -0.17013498693E-01 -0.68983336030E-02 -0.17386906898E-01  0.25290547577E-01  0.51100000000E-03 0. -1.
         11    1    4    4    0    0 -0.36756087152E-01 -0.47271196573E-01 -0.84846684310E-01  0.10384987688E+00  0.51100000000E-03 0.  1.
</event>
<event>
 8    1  0.1074844E+005  0.1043930E+01  0.7957747E-01            NaN
         13   -1    0    0    0    0  0.00000000000E+00  0.00000000000E+00  0.74505805969E-08  0.10566000000E+00  0.10566000000E+00 0.  1.
     999900   -1    0    0    0    0 -0.00000000000E+00 -0.00000000000E+00 -0.74505805969E-08  0.93827000000E+00  0.93827000000E+00 0.  1.
     999902    2    1    2    0    0  0.19470317516E-01  0.11547925109E-01  0.72191006918E-02  0.10201694602E+01  0.10198927219E+01 0.  0.
     999903    2    3    3    0    0  0.96986528351E-01  0.57536686236E-02 -0.86704870726E-01  0.13176411982E+00  0.20113609306E-01 0.  0.
         14    1    1    2    0    0 -0.19470317516E-01 -0.11547925109E-01 -0.72191006918E-02  0.23760539836E-01  0.00000000000E+00 0. -1.
     999901    1    3    3    0    0 -0.77516210834E-01  0.57942564853E-02  0.93923971418E-01  0.88840534035E+00  0.88000000000E+00 0.  1.
        -11    1    4    4    0    0  0.17805828805E-01  0.24601200166E-02 -0.68053384478E-02  0.19226894765E-01  0.51100000000E-03 0.  1.
         11    1    4    4    0    0  0.79180699545E-01  0.32935486070E-02 -0.79899532279E-01  0.11253722505E+00  0.51100000000E-03 0. -1.
</event>
<event>
 8    1  0.1074844E+005  0.1043930E+01  0.7957747E-01            NaN
         13   -1    0    0    0    0  0.00000000000E+00  0.00000000000E+00  0.74505805969E-08  0.10566000000E+00  0.10566000000E+00 0.  1.
     999900   -1    0    0    0    0 -0.00000000000E+00 -0.00000000000E+00 -0.74505805969E-08  0.93827000000E+00  0.93827000000E+00 0.  1.
     999902    2    1    2    0    0 -0.45672119094E-02  0.13874558783E-02  0.22971827298E-01  0.10204674914E+01  0.10201977317E+01 0.  0.
     999903    2    3    3    0    0  0.11760713653E+00  0.31748792319E-01  0.43339024032E-01  0.13127504609E+00  0.22703355387E-01 0.  0.
         14    1    1    2    0    0  0.45672119094E-02 -0.13874558783E-02 -0.22971827298E-01  0.23462508558E-01  0.00000000000E+00 0. -1.
     999901    1    3    3    0    0 -0.12217434844E+00 -0.30361336441E-01 -0.20367196735E-01  0.88919244535E+00  0.88000000000E+00 0. -1.
        -11    1    4    4    0    0  0.92460164723E-01  0.31043458422E-01  0.26746290507E-01  0.10113458137E+00  0.51100000000E-03 0. -1.
         11    1    4    4    0    0  0.25146971806E-01  0.70533389693E-03  0.16592733526E-01  0.30140464724E-01  0.51100000000E-03 0.  1.
</event>
<event>
 8    1  0.1074844E+005  0.1043930E+01  0.7957747E-01            NaN
         13   -1    0    0    0    0  0.00000000000E+00  0.00000000000E+00  0.74505805969E-08  0.10566000000E+00  0.10566000000E+00 0.  1.
     999900   -1    0    0    0    0 -0.00000000000E+00 -0.00000000000E+00 -0.74505805969E-08  0.93827000000E+00  0.93827000000E+00 0. -1.
     999902    2    1    2    0    0  0.13451585842E-01 -0.21334935921E-01  0.17444855261E-02  0.10186482302E+01  0.10183344485E+01 0.  0.
     999903    2    3    3    0    0 -0.21010840861E-01 -0.88930520473E-02 -0.12509330863E+00  0.12879976822E+00  0.20506160593E-01 0.  0.
         14    1    1    2    0    0 -0.13451585842E-01  0.21334935921E-01 -0.17444855261E-02  0.25281769760E-01  0.00000000000E+00 0. -1.
     999901    1    3    3    0    0  0.34462426703E-01 -0.12441883874E-01  0.12683779415E+00  0.88984846202E+00  0.88000000000E+00 0.  1.
        -11    1    4    4    0    0 -0.11942717757E-01  0.16615785121E-04 -0.99530612969E-01  0.10024586187E+00  0.51100000000E-03 0. -1.
         11    1    4    4    0    0 -0.90681231037E-02 -0.89096678324E-02 -0.25562695659E-01  0.28553906351E-01  0.51100000000E-03 0.  1.
</event>
<event>
 8    1  0.1074844E+005  0.1043930E+01  0.7957747E-01            NaN
         13   -1    0    0    0    0  0.00000000000E+00  0.00000000000E+00  0.74505805969E-08  0.10566000000E+00  0.10566000000E+00 0. -1.
     999900   -1    0    0    0    0 -0.00000000000E+00 -0.00000000000E+00 -0.74505805969E-08  0.93827000000E+00  0.93827000000E+00 0. -1.
     999902    2    1    2    0    0 -0.15782331161E-01 -0.11661356511E-01 -0.12253348357E-01  0.10207953127E+01  0.10205331237E+01 0.  0.
     999903    2    3    3    0    0 -0.44933011815E-01  0.32997963211E-01  0.11554498620E+00  0.12996613075E+00  0.20801686922E-01 0.  0.
         14    1    1    2    0    0  0.15782331161E-01  0.11661356511E-01  0.12253348357E-01  0.23134687344E-01  0.00000000000E+00 0. -1.
     999901    1    3    3    0    0  0.29150680654E-01 -0.44659319722E-01 -0.12779833456E+00  0.89082918191E+00  0.88000000000E+00 0. -1.
        -11    1    4    4    0    0 -0.43242416196E-01  0.23023370768E-01  0.10081995984E+00  0.11209329856E+00  0.51100000000E-03 0. -1.
         11    1    4    4    0    0 -0.16905956191E-02  0.99745924435E-02  0.14725026364E-01  0.17872832187E-01  0.51100000000E-03 0.  1.
</event>
<event>
 8    1  0.1074844E+005  0.1043930E+01  0.7957747E-01            NaN
         13   -1    0    0    0    0  0.00000000000E+00  0.00000000000E+00  0.74505805969E-08  0.10566000000E+00  0.10566000000E+00 0.  1.
     999900   -1    0    0    0    0 -0.00000000000E+00 -0.00000000000E+00 -0.74505805969E-08  0.93827000000E+00  0.93827000000E+00 0.  1.
     999902    2    1    2    0    0 -0.15018215449E-02 -0.22778015197E-01  0.51961997297E-02  0.10205185939E+01  0.10202500216E+01 0.  0.
     999903    2    3    3    0    0  0.12792333865E+00 -0.18683626497E-01  0.64570167131E-02  0.13104165447E+00  0.20414790498E-01 0.  0.
         14    1    1    2    0    0  0.15018215449E-02  0.22778015197E-01 -0.51961997297E-02  0.23411406107E-01  0.00000000000E+00 0. -1.
     999901    1    3    3    0    0 -0.12942516019E+00 -0.40943886999E-02 -0.12608169834E-02  0.88947693943E+00  0.88000000000E+00 0.  1.
        -11    1    4    4    0    0  0.70758115579E-01 -0.24641488918E-02  0.10033589397E-01  0.71510257917E-01  0.51100000000E-03 0.  1.
         11    1    4    4    0    0  0.57165223068E-01 -0.16219477605E-01 -0.35765726837E-02  0.59531396552E-01  0.51100000000E-03 0. -1.
</event>
<event>
 8    1  0.1074844E+005  0.1043930E+01  0.7957747E-01            NaN
         13   -1    0    0    0    0  0.00000000000E+00  0.00000000000E+00  0.74505805969E-08  0.10566000000E+00  0.10566000000E+00 0.  1.
     999900   -1    0    0    0    0 -0.00000000000E+00 -0.00000000000E+00 -0.74505805969E-08  0.93827000000E+00  0.93827000000E+00 0.  1.
     999902    2    1    2    0    0 -0.73512356896E-02 -0.76542346249E-02  0.21124897376E-01  0.10202891611E+01  0.10200152367E+01 0.  0.
     999903    2    3    3    0    0 -0.14860717907E-01 -0.11593079366E+00  0.59959031282E-01  0.13277110749E+00  0.19294861912E-01 0.  0.
         14    1    1    2    0    0  0.73512356896E-02  0.76542346249E-02 -0.21124897376E-01  0.23640838881E-01  0.00000000000E+00 0. -1.
     999901    1    3    3    0    0  0.75094822176E-02  0.10827655904E+00 -0.38834133906E-01  0.88751805363E+00  0.88000000000E+00 0.  1.
        -11    1    4    4    0    0 -0.25406962350E-02 -0.78947092724E-01  0.34404327783E-01  0.86156935172E-01  0.51100000000E-03 0. -1.
         11    1    4    4    0    0 -0.12320021672E-01 -0.36983700937E-01  0.25554703499E-01  0.46614172318E-01  0.51100000000E-03 0.  1.
</event>
<event>
 8    1  0.1074844E+005  0.1043930E+01  0.7957747E-01            NaN
         13   -1    0    0    0    0  0.00000000000E+00  0.00000000000E+00  0.74505805969E-08  0.10566000000E+00  0.10566000000E+00 0.  1.
     999900   -1    0    0    0    0 -0.00000000000E+00 -0.00000000000E+00 -0.74505805969E-08  0.93827000000E+00  0.93827000000E+00 0.  1.
     999902    2    1    2    0    0  0.12407490755E-01 -0.11876861837E-01  0.16156112597E-01  0.10203498039E+01  0.10200772994E+01 0.  0.
     999903    2    3    3    0    0  0.39554678278E-01 -0.11300432710E+00  0.56950812424E-01  0.13320385111E+00  0.12857697943E-01 0.  0.
         14    1    1    2    0    0 -0.12407490755E-01  0.11876861837E-01 -0.16156112597E-01  0.23580196101E-01  0.00000000000E+00 0. -1.
     999901    1    3    3    0    0 -0.27147187524E-01  0.10112746527E+00 -0.40794699828E-01  0.88714595279E+00  0.88000000000E+00 0. -1.
        -11    1    4    4    0    0  0.34531304463E-01 -0.10550570698E+00  0.49776214234E-01  0.12166263937E+00  0.51100000000E-03 0. -1.
         11    1    4    4    0    0  0.50233738151E-02 -0.74986201205E-02  0.71745981905E-02  0.11541211738E-01  0.51100000000E-03 0.  1.
</event>
<event>
 8    1  0.1074844E+005  0.1043930E+01  0.7957747E-01            NaN
         13   -1    0    0    0    0  0.00000000000E+00  0.00000000000E+00  0.74505805969E-08  0.10566000000E+00  0.10566000000E+00 0. -1.
     999900   -1    0    0    0    0 -0.00000000000E+00 -0.00000000000E+00 -0.74505805969E-08  0.93827000000E+00  0.93827000000E+00 0.  1.
     999902    2    1    2    0    0 -0.28408940440E-03 -0.15551719426E-01  0.18005768388E-01  0.10201362113E+01  0.10198586889E+01 0.  0.
     999903    2    3    3    0    0  0.15429466158E-01 -0.88437087929E-01 -0.92085449895E-01  0.13014785797E+00  0.19988694452E-01 0.  0.
         14    1    1    2    0    0  0.28408940440E-03  0.15551719426E-01 -0.18005768388E-01  0.23793788667E-01  0.00000000000E+00 0. -1.
     999901    1    3    3    0    0 -0.15713555562E-01  0.72885368503E-01  0.11009121828E+00  0.88998835336E+00  0.88000000000E+00 0. -1.
        -11    1    4    4    0    0 -0.18489426871E-02 -0.32348463875E-02 -0.37543840655E-03  0.37795363748E-02  0.51100000000E-03 0.  1.
         11    1    4    4    0    0  0.17278408845E-01 -0.85202241541E-01 -0.91710011488E-01  0.12636832160E+00  0.51100000000E-03 0. -1.
</event>
<event>
 8    1  0.1074844E+005  0.1043930E+01  0.7957747E-01            NaN
         13   -1    0    0    0    0  0.00000000000E+00  0.00000000000E+00  0.74505805969E-08  0.10566000000E+00  0.10566000000E+00 0.  1.
     999900   -1    0    0    0    0 -0.00000000000E+00 -0.00000000000E+00 -0.74505805969E-08  0.93827000000E+00  0.93827000000E+00 0.  1.
     999902    2    1    2    0    0 -0.18524469486E-01  0.14700222839E-01 -0.14989854470E-02  0.10202340198E+01  0.10199588010E+01 0.  0.
     999903    2    3    3    0    0  0.59604888000E-01  0.70150941647E-01  0.90009822979E-01  0.13031669736E+00  0.20168690870E-01 0.  0.
         14    1    1    2    0    0  0.18524469486E-01 -0.14700222839E-01  0.14989854470E-02  0.23695980220E-01  0.00000000000E+00 0. -1.
     999901    1    3    3    0    0 -0.78129357485E-01 -0.55450718808E-01 -0.91508808426E-01  0.88991732242E+00  0.88000000000E+00 0.  1.
        -11    1    4    4    0    0  0.40112101497E-01  0.51595641327E-01  0.50894792391E-01  0.82834967882E-01  0.51100000000E-03 0. -1.
         11    1    4    4    0    0  0.19492786502E-01  0.18555300320E-01  0.39115030588E-01  0.47481729481E-01  0.51100000000E-03 0.  1.
</event>
<event>
 8    1  0.1074844E+005  0.1043930E+01  0.7957747E-01            NaN
         13   -1    0    0    0    0  0.00000000000E+00  0.00000000000E+00  0.74505805969E-08  0.10566000000E+00  0.10566000000E+00 0. -1.
     999900   -1    0    0    0    0 -0.00000000000E+00 -0.00000000000E+00 -0.74505805969E-08  0.93827000000E+00  0.93827000000E+00 0.  1.
     999902    2    1    2    0    0 -0.90835731224E-02 -0.20580530168E-01 -0.12613716276E-01  0.10181390062E+01  0.10178122914E+01 0.  0.
     999903    2    3    3    0    0  0.65862018119E-02  0.17255611086E-01  0.12362396737E+00  0.12671440374E+00  0.20797130561E-01 0.  0.
         14    1    1    2    0    0  0.90835731224E-02  0.20580530168E-01  0.12613716276E-01  0.25790993796E-01  0.00000000000E+00 0. -1.
     999901    1    3    3    0    0 -0.15669774934E-01 -0.37836141254E-01 -0.13623768364E+00  0.89142460246E+00  0.88000000000E+00 0.  1.
        -11    1    4    4    0    0  0.97940002504E-02 -0.44573274831E-03  0.43354718983E-01  0.44452377863E-01  0.51100000000E-03 0.  1.
         11    1    4    4    0    0 -0.32077984385E-02  0.17701343834E-01  0.80269248385E-01  0.82262025879E-01  0.51100000000E-03 0. -1.
</event>
<event>
 8    1  0.1074844E+005  0.1043930E+01  0.7957747E-01            NaN
         13   -1    0    0    0    0  0.00000000000E+00  0.00000000000E+00  0.74505805969E-08  0.10566000000E+00  0.10566000000E+00 0. -1.
     999900   -1    0    0    0    0 -0.00000000000E+00 -0.00000000000E+00 -0.74505805969E-08  0.93827000000E+00  0.93827000000E+00 0.  1.
     999902    2    1    2    0    0 -0.23668534617E-01  0.70781199709E-03  0.27569847461E-02  0.10200909251E+01  0.10198123327E+01 0.  0.
     999903    2    3    3    0    0  0.66692084769E-01  0.82886092997E-01 -0.69482479842E-01  0.12872295860E+00  0.20587532204E-01 0.  0.
         14    1    1    2    0    0  0.23668534617E-01 -0.70781199709E-03 -0.27569847461E-02  0.23839074932E-01  0.00000000000E+00 0. -1.
     999901    1    3    3    0    0 -0.90360619386E-01 -0.82178281000E-01  0.72239464588E-01  0.89136796647E+00  0.88000000000E+00 0. -1.
        -11    1    4    4    0    0  0.21909983412E-01  0.13636552056E-01 -0.18671437766E-01  0.31857285420E-01  0.51100000000E-03 0. -1.
         11    1    4    4    0    0  0.44782101357E-01  0.69249540941E-01 -0.50811042076E-01  0.96865673179E-01  0.51100000000E-03 0.  1.
</event>
<event>
 8    1  0.1074844E+005  0.1043930E+01  0.7957747E-01            NaN
         13   -1    0    0    0    0  0.00000000000E+00  0.00000000000E+00  0.74505805969E-08  0.10566000000E+00  0.10566000000E+00 0. -1.
     999900   -1    0    0    0    0 -0.00000000000E+00 -0.00000000000E+00 -0.74505805969E-08  0.93827000000E+00  0.93827000000E+00 0. -1.
     999902    2    1    2    0    0  0.20495126617E-01  0.13207226796E-01 -0.16697131108E-02  0.10194909125E+01  0.10191979453E+01 0.  0.
     999903    2    3    3    0    0  0.74792398551E-01  0.87798100344E-01 -0.62344490083E-01  0.13258989171E+00  0.19769538080E-01 0.  0.
         14    1    1    2    0    0 -0.20495126617E-01 -0.13207226796E-01  0.16697131108E-02  0.24439087474E-01  0.00000000000E+00 0. -1.
     999901    1    3    3    0    0 -0.54297271934E-01 -0.74590873549E-01  0.60674776972E-01  0.88690102081E+00  0.88000000000E+00 0.  1.
        -11    1    4    4    0    0  0.10269294019E-01  0.23643902898E-01 -0.10278392644E-01  0.27756062766E-01  0.51100000000E-03 0.  1.
         11    1    4    4    0    0  0.64523104532E-01  0.64154197446E-01 -0.52066097438E-01  0.10483382895E+00  0.51100000000E-03 0. -1.
</event>
<event>
 8    1  0.1074844E+005  0.1043930E+01  0.7957747E-01            NaN
         13   -1    0    0    0    0  0.00000000000E+00  0.00000000000E+00  0.74505805969E-08  0.10566000000E+00  0.10566000000E+00 0.  1.
     999900   -1    0    0    0    0 -0.00000000000E+00 -0.00000000000E+00 -0.74505805969E-08  0.93827000000E+00  0.93827000000E+00 0. -1.
     999902    2    1    2    0    0 -0.18701120010E-01  0.56448697320E-02 -0.13418582208E-01  0.10202307428E+01  0.10199554469E+01 0.  0.
     999903    2    3    3    0    0  0.37935798033E-01 -0.28658040709E-01 -0.12081894367E+00  0.13123171703E+00  0.19082409074E-01 0.  0.
         14    1    1    2    0    0  0.18701120010E-01 -0.56448697320E-02  0.13418582208E-01  0.23699257212E-01  0.00000000000E+00 0. -1.
     999901    1    3    3    0    0 -0.56636918044E-01  0.34302910441E-01  0.10740036146E+00  0.88899902575E+00  0.88000000000E+00 0.  1.
        -11    1    4    4    0    0  0.10988421466E-01 -0.48985028315E-02 -0.54406064099E-01  0.55722721291E-01  0.51100000000E-03 0. -1.
         11    1    4    4    0    0  0.26947376567E-01 -0.23759537878E-01 -0.66412879572E-01  0.75508995743E-01  0.51100000000E-03 0.  1.
</event>
<event>
 8    1  0.1074844E+005  0.1043930E+01  0.7957747E-01            NaN
         13   -1    0    0    0    0  0.00000000000E+00  0.00000000000E+00  0.74505805969E-08  0.10566000000E+00  0.10566000000E+00 0. -1.
     999900   -1    0    0    0    0 -0.00000000000E+00 -0.00000000000E+00 -0.74505805969E-08  0.93827000000E+00  0.93827000000E+00 0. -1.
     999902    2    1    2    0    0  0.18871594518E-01  0.12681421119E-01  0.64909061704E-02  0.10202849713E+01  0.10200109486E+01 0.  0.
     999903    2    3    3    0    0 -0.39211413027E-01  0.11311155729E+00  0.50859769963E-01  0.13156204251E+00  0.19750836001E-01 0.  0.
         14    1    1    2    0    0 -0.18871594518E-01 -0.12681421119E-01 -0.64909061704E-02  0.23645028741E-01  0.00000000000E+00 0.  1.
     999901    1    3    3    0    0  0.58083007545E-01 -0.10043013617E+00 -0.44368863792E-01  0.88872292875E+00  0.88000000000E+00 0. -1.
        -11    1    4    4    0    0 -0.23346960253E-01  0.38369568127E-01  0.18122900436E-01  0.48435575278E-01  0.51100000000E-03 0.  1.
         11    1    4    4    0    0 -0.15864452775E-01  0.74741989166E-01  0.32736869527E-01  0.83126467228E-01  0.51100000000E-03 0. -1.
</event>
<event>
 8    1  0.1074844E+005  0.1043930E+01  0.7957747E-01            NaN
         13   -1    0    0    0    0  0.00000000000E+00  0.00000000000E+00  0.74505805969E-08  0.10566000000E+00  0.10566000000E+00 0. -1.
     999900   -1    0    0    0    0 -0.00000000000E+00 -0.00000000000E+00 -0.74505805969E-08  0.93827000000E+00  0.93827000000E+00 0.  1.
     999902    2    1    2    0    0 -0.59721755319E-02 -0.58094595758E-02 -0.22328738261E-01  0.10200974749E+01  0.10198190374E+01 0.  0.
     999903    2    3    3    0    0  0.55949045267E-01 -0.11017144906E+00 -0.40657307786E-01  0.13158095906E+00  0.19811316378E-01 0.  0.
         14    1    1    2    0    0  0.59721755319E-02  0.58094595758E-02  0.22328738261E-01  0.23832525117E-01  0.00000000000E+00 0. -1.
     999901    1    3    3    0    0 -0.61921220799E-01  0.10436198948E+00  0.18328569525E-01  0.88851651583E+00  0.88000000000E+00 0.  1.
        -11    1    4    4    0    0  0.46693055439E-01 -0.87790773941E-01 -0.24337755674E-01  0.10237210991E+00  0.51100000000E-03 0.  1.
         11    1    4    4    0    0  0.92559898274E-02 -0.22380675116E-01 -0.16319552112E-01  0.29208849147E-01  0.51100000000E-03 0. -1.
</event>
<event>
 8    1  0.1074844E+005  0.1043930E+01  0.7957747E-01            NaN
         13   -1    0    0    0    0  0.00000000000E+00  0.00000000000E+00  0.74505805969E-08  0.10566000000E+00  0.10566000000E+00 0.  1.
     999900   -1    0    0    0    0 -0.00000000000E+00 -0.00000000000E+00 -0.74505805969E-08  0.93827000000E+00  0.93827000000E+00 0. -1.
     999902    2    1    2    0    0  0.20634169277E-03  0.16227989477E-01  0.15276650893E-01  0.10216417457E+01  0.10213985952E+01 0.  0.
     999903    2    3    3    0    0  0.10766136994E+00  0.17995354755E-01  0.73574465646E-01  0.13318896588E+00  0.20280415841E-01 0.  0.
         14    1    1    2    0    0 -0.20634169277E-03 -0.16227989477E-01 -0.15276650893E-01  0.22288254347E-01  0.00000000000E+00 0. -1.
     999901    1    3    3    0    0 -0.10745502825E+00 -0.17673652781E-02 -0.58297814753E-01  0.88845277977E+00  0.88000000000E+00 0.  1.
        -11    1    4    4    0    0  0.46262358441E-01  0.16542510370E-01  0.38823617235E-01  0.62621041464E-01  0.51100000000E-03 0. -1.
         11    1    4    4    0    0  0.61399011504E-01  0.14528443847E-02  0.34750848411E-01  0.70567924418E-01  0.51100000000E-03 0.  1.
</event>
<event>
 8    1  0.1074844E+005  0.1043930E+01  0.7957747E-01            NaN
         13   -1    0    0    0    0  0.00000000000E+00  0.00000000000E+00  0.74505805969E-08  0.10566000000E+00  0.10566000000E+00 0. -1.
     999900   -1    0    0    0    0 -0.00000000000E+00 -0.00000000000E+00 -0.74505805969E-08  0.93827000000E+00  0.93827000000E+00 0.  1.
     999902    2    1    2    0    0  0.13882705078E-01  0.17269585357E-01 -0.10174984301E-01  0.10195476625E+01  0.10192560707E+01 0.  0.
     999903    2    3    3    0    0 -0.88503633213E-02 -0.11369365044E+00  0.52479269317E-01  0.12736286264E+00  0.21509300093E-01 0.  0.
         14    1    1    2    0    0 -0.13882705078E-01 -0.17269585357E-01  0.10174984301E-01  0.24382337546E-01  0.00000000000E+00 0.  1.
     999901    1    3    3    0    0  0.22733068400E-01  0.13096323579E+00 -0.62654253617E-01  0.89218479982E+00  0.88000000000E+00 0.  1.
        -11    1    4    4    0    0 -0.10937443653E-01 -0.85491624996E-01  0.30094682357E-01  0.91292916731E-01  0.51100000000E-03 0.  1.
         11    1    4    4    0    0  0.20870803319E-02 -0.28202025440E-01  0.22384586960E-01  0.36069945905E-01  0.51100000000E-03 0. -1.
</event>
<event>
 8    1  0.1074844E+005  0.1043930E+01  0.7957747E-01            NaN
         13   -1    0    0    0    0  0.00000000000E+00  0.00000000000E+00  0.74505805969E-08  0.10566000000E+00  0.10566000000E+00 0. -1.
     999900   -1    0    0    0    0 -0.00000000000E+00 -0.00000000000E+00 -0.74505805969E-08  0.93827000000E+00  0.93827000000E+00 0. -1.
     999902    2    1    2    0    0  0.20874688630E-01  0.43572122439E-02  0.93547146671E-02  0.10206437678E+01  0.10203780927E+01 0.  0.
     999903    2    3    3    0    0 -0.79257896275E-01  0.99574652191E-01  0.15943533223E-01  0.12983721867E+00  0.20163869153E-01 0.  0.
         14    1    1    2    0    0 -0.20874688630E-01 -0.43572122439E-02 -0.93547146671E-02  0.23286232208E-01  0.00000000000E+00 0.  1.
     999901    1    3    3    0    0  0.10013258491E+00 -0.95217439947E-01 -0.65888185560E-02  0.89080654912E+00  0.88000000000E+00 0.  1.
        -11    1    4    4    0    0 -0.43267590520E-01  0.56108570300E-01 -0.11687436769E-02  0.70865246301E-01  0.51100000000E-03 0.  1.
         11    1    4    4    0    0 -0.35990305756E-01  0.43466081891E-01  0.17112276900E-01  0.58971972369E-01  0.51100000000E-03 0. -1.
</event>
<event>
 8    1  0.1074844E+005  0.1043930E+01  0.7957747E-01            NaN
         13   -1    0    0    0    0  0.00000000000E+00  0.00000000000E+00  0.74505805969E-08  0.10566000000E+00  0.10566000000E+00 0. -1.
     999900   -1    0    0    0    0 -0.00000000000E+00 -0.00000000000E+00 -0.74505805969E-08  0.93827000000E+00  0.93827000000E+00 0. -1.
     999902    2    1    2    0    0 -0.19774526635E-02 -0.18312578742E-01 -0.17184374049E-01  0.10187394547E+01  0.10184279616E+01 0.  0.
     999903    2    3    3    0    0 -0.10612388897E+00 -0.65122048069E-01 -0.35892710601E-01  0.13116545305E+00  0.20320640829E-01 0.  0.
         14    1    1    2    0    0  0.19774526635E-02  0.18312578742E-01  0.17184374049E-01  0.25190545264E-01  0.00000000000E+00 0. -1.
     999901    1    3    3    0    0  0.10414643631E+00  0.46809469327E-01  0.18708336552E-01  0.88757400169E+00  0.88000000000E+00 0. -1.
        -11    1    4    4    0    0 -0.80139717365E-01 -0.47732001859E-01 -0.35748153068E-01  0.99894493690E-01  0.51100000000E-03 0. -1.
         11    1    4    4    0    0 -0.25984171608E-01 -0.17390046210E-01 -0.14455753351E-03  0.31270959359E-01  0.51100000000E-03 0.  1.
</event>
<event>
 8    1  0.1074844E+005  0.1043930E+01  0.7957747E-01            NaN
         13   -1    0    0    0    0  0.00000000000E+00  0.00000000000E+00  0.74505805969E-08  0.10566000000E+00  0.10566000000E+00 0.  1.
     999900   -1    0    0    0    0 -0.00000000000E+00 -0.00000000000E+00 -0.74505805969E-08  0.93827000000E+00  0.93827000000E+00 0. -1.
     999902    2    1    2    0    0 -0.50419741420E-02  0.22757394605E-01  0.94892523967E-05  0.10206207614E+01  0.10203545551E+01 0.  0.
     999903    2    3    3    0    0  0.23561130984E-01  0.90806663974E-01 -0.91807785600E-01  0.13276984341E+00  0.19954566040E-01 0.  0.
         14    1    1    2    0    0  0.50419741420E-02 -0.22757394605E-01 -0.94892523967E-05  0.23309238565E-01  0.00000000000E+00 0.  1.
     999901    1    3    3    0    0 -0.28603105126E-01 -0.68049269369E-01  0.91817274852E-01  0.88785091803E+00  0.88000000000E+00 0.  1.
        -11    1    4    4    0    0  0.14021032369E-01  0.47649452463E-01 -0.62056689354E-01  0.79488071327E-01  0.51100000000E-03 0. -1.
         11    1    4    4    0    0  0.95400986147E-02  0.43157211511E-01 -0.29751096246E-01  0.53281772079E-01  0.51100000000E-03 0.  1.
</event>
<event>
 8    1  0.1074844E+005  0.1043930E+01  0.7957747E-01            NaN
         13   -1    0    0    0    0  0.00000000000E+00  0.00000000000E+00  0.74505805969E-08  0.10566000000E+00  0.10566000000E+00 0. -1.
     999900   -1    0    0    0    0 -0.00000000000E+00 -0.00000000000E+00 -0.74505805969E-08  0.93827000000E+00  0.93827000000E+00 0. -1.
     999902    2    1    2    0    0 -0.23625700183E-01  0.88645727586E-03 -0.57939431413E-02  0.10195880754E+01  0.10192974611E+01 0.  0.
     999903    2    3    3    0    0  0.16901033725E-01  0.12266186157E+00  0.31664824574E-01  0.12948986480E+00  0.20817942899E-01 0.  0.
         14    1    1    2    0    0  0.23625700183E-01 -0.88645727586E-03  0.57939431413E-02  0.24341924590E-01  0.00000000000E+00 0.  1.
     999901    1    3    3    0    0 -0.40526733908E-01 -0.12177540429E+00 -0.37458767715E-01  0.89009821061E+00  0.88000000000E+00 0. -1.
        -11    1    4    4    0    0  0.66270930314E-02  0.79388016269E-01  0.10920902761E-01  0.80410837126E-01  0.51100000000E-03 0. -1.
         11    1    4    4    0    0  0.10273940694E-01  0.43273845299E-01  0.20743921813E-01  0.49079027674E-01  0.51100000000E-03 0.  1.
</event>
<event>
 8    1  0.1074844E+005  0.1043930E+01  0.7957747E-01            NaN
         13   -1    0    0    0    0  0.00000000000E+00  0.00000000000E+00  0.74505805969E-08  0.10566000000E+00  0.10566000000E+00 0. -1.
     999900   -1    0    0    0    0 -0.00000000000E+00 -0.00000000000E+00 -0.74505805969E-08  0.93827000000E+00  0.93827000000E+00 0. -1.
     999902    2    1    2    0    0 -0.68961991629E-02  0.49889546491E-02  0.21922569668E-01  0.10204130637E+01  0.10201420363E+01 0.  0.
     999903    2    3    3    0    0 -0.36149491351E-01 -0.81350232041E-01  0.96190798133E-01  0.13259214708E+00  0.20083870212E-01 0.  0.
         14    1    1    2    0    0  0.68961991629E-02 -0.49889546491E-02 -0.21922569668E-01  0.23516936285E-01  0.00000000000E+00 0.  1.
     999901    1    3    3    0    0  0.29253292188E-01  0.86339186690E-01 -0.74268228465E-01  0.88782091664E+00  0.88000000000E+00 0. -1.
        -11    1    4    4    0    0 -0.21796509912E-01 -0.25727394519E-01  0.32798116105E-01  0.47042153587E-01  0.51100000000E-03 0. -1.
         11    1    4    4    0    0 -0.14352981438E-01 -0.55622837522E-01  0.63392682028E-01  0.85549993489E-01  0.51100000000E-03 0.  1.
</event>
<event>
 8    1  0.1074844E+005  0.1043930E+01  0.7957747E-01            NaN
         13   -1    0    0    0    0  0.00000000000E+00  0.00000000000E+00  0.74505805969E-08  0.10566000000E+00  0.10566000000E+00 0.  1.
     999900   -1    0    0    0    0 -0.00000000000E+00 -0.00000000000E+00 -0.74505805969E-08  0.93827000000E+00  0.93827000000E+00 0. -1.
     999902    2    1    2    0    0  0.20887921214E-01 -0.11880233844E-01  0.90944202543E-02  0.10182365439E+01  0.10179123270E+01 0.  0.
     999903    2    3    3    0    0  0.10666741748E+00 -0.69961993825E-01  0.27998531326E-01  0.13195838310E+00  0.18880640392E-01 0.  0.
         14    1    1    2    0    0 -0.20887921214E-01  0.11880233844E-01 -0.90944202543E-02  0.25693456144E-01  0.00000000000E+00 0. -1.
     999901    1    3    3    0    0 -0.85779496265E-01  0.58081759982E-01 -0.18904111072E-01  0.88627816076E+00  0.88000000000E+00 0. -1.
        -11    1    4    4    0    0  0.52446179287E-01 -0.45595202908E-01  0.14262366808E-01  0.70945052527E-01  0.51100000000E-03 0.  1.
         11    1    4    4    0    0  0.54221238192E-01 -0.24366790917E-01  0.13736164518E-01  0.61013330571E-01  0.51100000000E-03 0. -1.
</event>
<event>
 8    1  0.1074844E+005  0.1043930E+01  0.7957747E-01            NaN
         13   -1    0    0    0    0  0.00000000000E+00  0.00000000000E+00  0.74505805969E-08  0.10566000000E+00  0.10566000000E+00 0. -1.
     999900   -1    0    0    0    0 -0.00000000000E+00 -0.00000000000E+00 -0.74505805969E-08  0.93827000000E+00  0.93827000000E+00 0.  1.
     999902    2    1    2    0    0  0.21556594078E-01 -0.98493768486E-02  0.91192525206E-03  0.10202123150E+01  0.10199365859E+01 0.  0.
     999903    2    3    3    0    0 -0.45915855915E-01 -0.95298245332E-01 -0.69556228384E-01  0.13070694613E+00  0.32499468786E-01 0.  0.
         14    1    1    2    0    0 -0.21556594078E-01  0.98493768486E-02 -0.91192525206E-03  0.23717684967E-01  0.00000000000E+00 0.  1.
     999901    1    3    3    0    0  0.67472449993E-01  0.85448868484E-01  0.70468153636E-01  0.88950536890E+00  0.88000000000E+00 0. -1.
        -11    1    4    4    0    0 -0.24105219565E-01 -0.57895513189E-01 -0.22174583072E-01  0.66520112095E-01  0.51100000000E-03 0.  1.
         11    1    4    4    0    0 -0.21810636349E-01 -0.37402732144E-01 -0.47381645312E-01  0.64186834033E-01  0.51100000000E-03 0. -1.
</event>
<event>
 8    1  0.1074844E+005  0.1043930E+01  0.7957747E-01            NaN
         13   -1    0    0    0    0  0.00000000000E+00  0.00000000000E+00  0.74505805969E-08  0.10566000000E+00  0.10566000000E+00 0.  1.
     999900   -1    0    0    0    0 -0.00000000000E+00 -0.00000000000E+00 -0.74505805969E-08  0.93827000000E+00  0.93827000000E+00 0.  1.
     999902    2    1    2    0    0 -0.22388143542E-02 -0.15556167302E-01 -0.17784052174E-01  0.10201964975E+01  0.10199203961E+01 0.  0.
     999903    2    3    3    0    0  0.11934870777E+00  0.19135073371E-01 -0.41491823818E-01  0.13084332456E+00  0.28073814482E-01 0.  0.
         14    1    1    2    0    0  0.22388143542E-02  0.15556167302E-01  0.17784052174E-01  0.23733502535E-01  0.00000000000E+00 0.  1.
     999901    1    3    3    0    0 -0.12158752212E+00 -0.34691240674E-01  0.23707771644E-01  0.88935317290E+00  0.88000000000E+00 0.  1.
        -11    1    4    4    0    0  0.53266450683E-01  0.22126344016E-01 -0.23530804534E-01  0.62296466601E-01  0.51100000000E-03 0.  1.
         11    1    4    4    0    0  0.66082257086E-01 -0.29912706449E-02 -0.17961019284E-01  0.68546857962E-01  0.51100000000E-03 0. -1.
</event>
<event>
 8    1  0.1074844E+005  0.1043930E+01  0.7957747E-01            NaN
         13   -1    0    0    0    0  0.00000000000E+00  0.00000000000E+00  0.74505805969E-08  0.10566000000E+00  0.10566000000E+00 0. -1.
     999900   -1    0    0    0    0 -0.00000000000E+00 -0.00000000000E+00 -0.74505805969E-08  0.93827000000E+00  0.93827000000E+00 0. -1.
     999902    2    1    2    0    0 -0.14302051327E-01  0.42759690799E-03  0.19269494692E-01  0.10199290638E+01  0.10196466301E+01 0.  0.
     999903    2    3    3    0    0 -0.12441864907E+00 -0.17322053059E-01  0.37935354902E-01  0.13269226933E+00  0.19700087075E-01 0.  0.
         14    1    1    2    0    0  0.14302051327E-01 -0.42759690799E-03 -0.19269494692E-01  0.24000936168E-01  0.00000000000E+00 0.  1.
     999901    1    3    3    0    0  0.11011659774E+00  0.17749649967E-01 -0.18665860209E-01  0.88723679450E+00  0.88000000000E+00 0.  1.
        -11    1    4    4    0    0 -0.52548997152E-01  0.15755318334E-03  0.22321012209E-01  0.57095627080E-01  0.51100000000E-03 0.  1.
         11    1    4    4    0    0 -0.71869651919E-01 -0.17479606242E-01  0.15614342693E-01  0.75596642254E-01  0.51100000000E-03 0. -1.
</event>
<event>
 8    1  0.1074844E+005  0.1043930E+01  0.7957747E-01            NaN
         13   -1    0    0    0    0  0.00000000000E+00  0.00000000000E+00  0.74505805969E-08  0.10566000000E+00  0.10566000000E+00 0.  1.
     999900   -1    0    0    0    0 -0.00000000000E+00 -0.00000000000E+00 -0.74505805969E-08  0.93827000000E+00  0.93827000000E+00 0.  1.
     999902    2    1    2    0    0  0.21519117222E-01  0.27009809465E-02  0.96110218672E-02  0.10202078701E+01  0.10199320364E+01 0.  0.
     999903    2    3    3    0    0  0.39394117697E-02 -0.11137682772E+00 -0.63165635476E-01  0.12969159609E+00  0.20240945481E-01 0.  0.
         14    1    1    2    0    0 -0.21519117222E-01 -0.27009809465E-02 -0.96110218672E-02  0.23722129867E-01  0.00000000000E+00 0. -1.
     999901    1    3    3    0    0  0.17579705453E-01  0.11407780867E+00  0.72776657343E-01  0.89051627404E+00  0.88000000000E+00 0. -1.
        -11    1    4    4    0    0  0.18176286572E-02 -0.67756768714E-01 -0.49485042865E-01  0.83924454534E-01  0.51100000000E-03 0.  1.
         11    1    4    4    0    0  0.21217831125E-02 -0.43620059007E-01 -0.13680592611E-01  0.45767141560E-01  0.51100000000E-03 0. -1.
</event>
<event>
 8    1  0.1074844E+005  0.1043930E+01  0.7957747E-01            NaN
         13   -1    0    0    0    0  0.00000000000E+00  0.00000000000E+00  0.74505805969E-08  0.10566000000E+00  0.10566000000E+00 0.  1.
     999900   -1    0    0    0    0 -0.00000000000E+00 -0.00000000000E+00 -0.74505805969E-08  0.93827000000E+00  0.93827000000E+00 0. -1.
     999902    2    1    2    0    0  0.10295114870E-01  0.93515469507E-02  0.17292265434E-01  0.10217384867E+01  0.10214974654E+01 0.  0.
     999903    2    3    3    0    0 -0.40308428905E-01 -0.11343533169E+00 -0.43687913530E-01  0.12968696436E+00  0.20438469087E-01 0.  0.
         14    1    1    2    0    0 -0.10295114870E-01 -0.93515469507E-02 -0.17292265434E-01  0.22191513342E-01  0.00000000000E+00 0. -1.
     999901    1    3    3    0    0  0.50603543775E-01  0.12278687864E+00  0.60980178964E-01  0.89205152230E+00  0.88000000000E+00 0.  1.
        -11    1    4    4    0    0 -0.24595667217E-01 -0.64992705000E-01 -0.35726774996E-01  0.78138736371E-01  0.51100000000E-03 0. -1.
         11    1    4    4    0    0 -0.15712761688E-01 -0.48442626694E-01 -0.79611385339E-02  0.51548227988E-01  0.51100000000E-03 0.  1.
</event>
<event>
 8    1  0.1074844E+005  0.1043930E+01  0.7957747E-01            NaN
         13   -1    0    0    0    0  0.00000000000E+00  0.00000000000E+00  0.74505805969E-08  0.10566000000E+00  0.10566000000E+00 0. -1.
     999900   -1    0    0    0    0 -0.00000000000E+00 -0.00000000000E+00 -0.74505805969E-08  0.93827000000E+00  0.93827000000E+00 0.  1.
     999902    2    1    2    0    0  0.14375969118E-01  0.13725680391E-01  0.12446095167E-01  0.10204786018E+01  0.10202091005E+01 0.  0.
     999903    2    3    3    0    0  0.25945159362E-01  0.32881128800E-01 -0.12181185774E+00  0.13001469170E+00  0.17645720303E-01 0.  0.
         14    1    1    2    0    0 -0.14375969118E-01 -0.13725680391E-01 -0.12446095167E-01  0.23451398150E-01  0.00000000000E+00 0.  1.
     999901    1    3    3    0    0 -0.11569190244E-01 -0.19155448409E-01  0.13425795291E+00  0.89046391015E+00  0.88000000000E+00 0. -1.
        -11    1    4    4    0    0  0.61036377446E-02  0.15461227051E-01 -0.68901454979E-01  0.70880008147E-01  0.51100000000E-03 0. -1.
         11    1    4    4    0    0  0.19841521618E-01  0.17419901749E-01 -0.52910402762E-01  0.59134683549E-01  0.51100000000E-03 0.  1.
</event>
<event>
 8    1  0.1074844E+005  0.1043930E+01  0.7957747E-01            NaN
         13   -1    0    0    0    0  0.00000000000E+00  0.00000000000E+00  0.74505805969E-08  0.10566000000E+00  0.10566000000E+00 0. -1.
     999900   -1    0    0    0    0 -0.00000000000E+00 -0.00000000000E+00 -0.74505805969E-08  0.93827000000E+00  0.93827000000E+00 0. -1.
     999902    2    1    2    0    0 -0.11852974595E-01 -0.18920247783E-01  0.19186570396E-01  0.10144920438E+01  0.10140648469E+01 0.  0.
     999903    2    3    3    0    0 -0.88442676534E-01  0.63803825970E-01 -0.55772408861E-01  0.12413924663E+00  0.20173143596E-01 0.  0.
         14    1    1    2    0    0  0.11852974595E-01  0.18920247783E-01 -0.19186570396E-01  0.29437956221E-01  0.00000000000E+00 0.  1.
     999901    1    3    3    0    0  0.76589701940E-01 -0.82724073753E-01  0.74958979257E-01  0.89035279715E+00  0.88000000000E+00 0.  1.
        -11    1    4    4    0    0 -0.38346061406E-01  0.34163537890E-01 -0.35767297550E-01  0.62586967026E-01  0.51100000000E-03 0.  1.
         11    1    4    4    0    0 -0.50096615128E-01  0.29640288080E-01 -0.20005111312E-01  0.61552279603E-01  0.51100000000E-03 0. -1.
</event>
<event>
 8    1  0.1074844E+005  0.1043930E+01  0.7957747E-01            NaN
         13   -1    0    0    0    0  0.00000000000E+00  0.00000000000E+00  0.74505805969E-08  0.10566000000E+00  0.10566000000E+00 0.  1.
     999900   -1    0    0    0    0 -0.00000000000E+00 -0.00000000000E+00 -0.74505805969E-08  0.93827000000E+00  0.93827000000E+00 0. -1.
     999902    2    1    2    0    0  0.80216638220E-02  0.29112232922E-01  0.67508000316E-02  0.10129874323E+01  0.10125147384E+01 0.  0.
     999903    2    3    3    0    0 -0.19651039733E-01  0.11550763776E+00  0.45571471676E-01  0.12747233413E+00  0.21077457050E-01 0.  0.
         14    1    1    2    0    0 -0.80216638220E-02 -0.29112232922E-01 -0.67508000316E-02  0.30942567722E-01  0.00000000000E+00 0. -1.
     999901    1    3    3    0    0  0.27672703555E-01 -0.86395404834E-01 -0.38820671644E-01  0.88551509815E+00  0.88000000000E+00 0. -1.
        -11    1    4    4    0    0 -0.74146645621E-02  0.38434788578E-01  0.48471958409E-02  0.39445743143E-01  0.51100000000E-03 0.  1.
         11    1    4    4    0    0 -0.12236375171E-01  0.77072849178E-01  0.40724275835E-01  0.88026590988E-01  0.51100000000E-03 0. -1.
</event>
<event>
 8    1  0.1074844E+005  0.1043930E+01  0.7957747E-01            NaN
         13   -1    0    0    0    0  0.00000000000E+00  0.00000000000E+00  0.74505805969E-08  0.10566000000E+00  0.10566000000E+00 0. -1.
     999900   -1    0    0    0    0 -0.00000000000E+00 -0.00000000000E+00 -0.74505805969E-08  0.93827000000E+00  0.93827000000E+00 0. -1.
     999902    2    1    2    0    0 -0.19460572204E-01 -0.52146806421E-02 -0.12221071581E-01  0.10203660157E+01  0.10200938901E+01 0.  0.
     999903    2    3    3    0    0  0.27830776802E-01  0.61715215979E-01  0.10741131487E+00  0.12849831777E+00  0.19781483433E-01 0.  0.
         14    1    1    2    0    0  0.19460572204E-01  0.52146806421E-02  0.12221071581E-01  0.23563984283E-01  0.00000000000E+00 0. -1.
     999901    1    3    3    0    0 -0.47291349005E-01 -0.66929896621E-01 -0.11963238645E+00  0.89186769795E+00  0.88000000000E+00 0. -1.
        -11    1    4    4    0    0  0.18052220350E-01  0.32382414432E-01  0.41237217893E-01  0.55455141192E-01  0.51100000000E-03 0. -1.
         11    1    4    4    0    0  0.97785564512E-02  0.29332801547E-01  0.66174096978E-01  0.73043176579E-01  0.51100000000E-03 0.  1.
</event>
<event>
 8    1  0.1074844E+005  0.1043930E+01  0.7957747E-01            NaN
         13   -1    0    0    0    0  0.00000000000E+00  0.00000000000E+00  0.74505805969E-08  0.10566000000E+00  0.10566000000E+00 0.  1.
     999900   -1    0    0    0    0 -0.00000000000E+00 -0.00000000000E+00 -0.74505805969E-08  0.93827000000E+00  0.93827000000E+00 0. -1.
     999902    2    1    2    0    0 -0.15045727606E-01 -0.92417761134E-02 -0.14333905040E-01  0.10211869752E+01  0.10209336869E+01 0.  0.
     999903    2    3    3    0    0  0.41122084078E-01  0.10301978953E+00  0.62856457196E-01  0.12893374081E+00  0.19206053111E-01 0.  0.
         14    1    1    2    0    0  0.15045727606E-01  0.92417761134E-02  0.14333905040E-01  0.22743024835E-01  0.00000000000E+00 0. -1.
     999901    1    3    3    0    0 -0.56167811684E-01 -0.11226156564E+00 -0.77190362236E-01  0.89225323435E+00  0.88000000000E+00 0. -1.
        -11    1    4    4    0    0  0.26188222767E-01  0.40645318352E-01  0.24606735158E-01  0.54255114522E-01  0.51100000000E-03 0. -1.
         11    1    4    4    0    0  0.14933861311E-01  0.62374471173E-01  0.38249722038E-01  0.74678626292E-01  0.51100000000E-03 0.  1.
</event>
<event>
 8    1  0.1074844E+005  0.1043930E+01  0.7957747E-01            NaN
         13   -1    0    0    0    0  0.00000000000E+00  0.00000000000E+00  0.74505805969E-08  0.10566000000E+00  0.10566000000E+00 0.  1.
     999900   -1    0    0    0    0 -0.00000000000E+00 -0.00000000000E+00 -0.74505805969E-08  0.93827000000E+00  0.93827000000E+00 0. -1.
     999902    2    1    2    0    0 -0.19935497804E-01 -0.13660507551E-01  0.30934866185E-02  0.10195660266E+01  0.10192748792E+01 0.  0.
     999903    2    3    3    0    0 -0.18242730282E-01  0.10792427285E+00  0.65346071899E-01  0.12902624163E+00  0.19930279388E-01 0.  0.
         14    1    1    2    0    0  0.19935497804E-01  0.13660507551E-01 -0.30934866185E-02  0.24363973376E-01  0.00000000000E+00 0.  1.
     999901    1    3    3    0    0 -0.16927675213E-02 -0.12158478040E+00 -0.62252585280E-01  0.89053978500E+00  0.88000000000E+00 0. -1.
        -11    1    4    4    0    0 -0.91410652627E-02  0.49356902753E-01  0.18584117561E-01  0.53528436088E-01  0.51100000000E-03 0.  1.
         11    1    4    4    0    0 -0.91016650195E-02  0.58567370101E-01  0.46761954338E-01  0.75497805539E-01  0.51100000000E-03 0. -1.
</event>
<event>
 8    1  0.1074844E+005  0.1043930E+01  0.7957747E-01            NaN
         13   -1    0    0    0    0  0.00000000000E+00  0.00000000000E+00  0.74505805969E-08  0.10566000000E+00  0.10566000000E+00 0.  1.
     999900   -1    0    0    0    0 -0.00000000000E+00 -0.00000000000E+00 -0.74505805969E-08  0.93827000000E+00  0.93827000000E+00 0.  1.
     999902    2    1    2    0    0 -0.60192204625E-02 -0.63833178608E-03  0.28064015594E-01  0.10152206382E+01  0.10148146219E+01 0.  0.
     999903    2    3    3    0    0  0.43550497859E-01  0.11318775724E+00 -0.23032219173E-01  0.12503843175E+00  0.19900051282E-01 0.  0.
         14    1    1    2    0    0  0.60192204625E-02  0.63833178608E-03 -0.28064015594E-01  0.28709361778E-01  0.00000000000E+00 0. -1.
     999901    1    3    3    0    0 -0.49569718321E-01 -0.11382608903E+00  0.51096234767E-01  0.89018220647E+00  0.88000000000E+00 0. -1.
        -11    1    4    4    0    0  0.22562816151E-01  0.78444728636E-01 -0.21525046344E-01  0.84417088700E-01  0.51100000000E-03 0. -1.
         11    1    4    4    0    0  0.20987681708E-01  0.34743028603E-01 -0.15071728292E-02  0.40621343046E-01  0.51100000000E-03 0.  1.
</event>
<event>
 8    1  0.1074844E+005  0.1043930E+01  0.7957747E-01            NaN
         13   -1    0    0    0    0  0.00000000000E+00  0.00000000000E+00  0.74505805969E-08  0.10566000000E+00  0.10566000000E+00 0. -1.
     999900   -1    0    0    0    0 -0.00000000000E+00 -0.00000000000E+00 -0.74505805969E-08  0.93827000000E+00  0.93827000000E+00 0. -1.
     999902    2    1    2    0    0 -0.20158790581E-01  0.11427212133E-01 -0.28494896525E-02  0.10205831029E+01  0.10203160257E+01 0.  0.
     999903    2    3    3    0    0  0.33597985136E-01  0.74712134818E-01 -0.10062598078E+00  0.13128280791E+00  0.19971478471E-01 0.  0.
         14    1    1    2    0    0  0.20158790581E-01 -0.11427212133E-01  0.28494896525E-02  0.23346897141E-01  0.00000000000E+00 0.  1.
     999901    1    3    3    0    0 -0.53756775717E-01 -0.63284922684E-01  0.97776491124E-01  0.88930029495E+00  0.88000000000E+00 0.  1.
        -11    1    4    4    0    0  0.22878295496E-01  0.44356945675E-01 -0.75203300896E-01  0.90259363066E-01  0.51100000000E-03 0.  1.
         11    1    4    4    0    0  0.10719689640E-01  0.30355189143E-01 -0.25422679880E-01  0.41023444847E-01  0.51100000000E-03 0. -1.
</event>
<event>
 7    1  0.1074844E+005  0.1043930E+01  0.7957747E-01            NaN
         13   -1    0    0    0    0  0.00000000000E+00  0.00000000000E+00  0.74505805969E-08  0.10566000000E+00  0.10566000000E+00 0. -1.
     999900   -1    0    0    0    0 -0.00000000000E+00 -0.00000000000E+00 -0.74505805969E-08  0.93827000000E+00  0.93827000000E+00 0. -1.
     999903    2    1    2    0    0 -0.16221036278E-01  0.21855889401E-01  0.32913918666E-01  0.47376322380E-01  0.20503364623E-01 0.  0.
         14    1    1    2    0    0 -0.10649278381E+00  0.78116142834E-02  0.29630878352E-02  0.10682000847E+00  0.00000000000E+00 0. -1.
     999901    1    1    2    0    0  0.12271382009E+00 -0.29667503684E-01 -0.35877006502E-01  0.88973366915E+00  0.88000000000E+00 0. -1.
        -11    1    3    3    0    0 -0.18120551178E-02 -0.32706199280E-02  0.91822763428E-02  0.99275283077E-02  0.51100000000E-03 0.  1.
         11    1    3    3    0    0 -0.14408981160E-01  0.25126509329E-01  0.23731642324E-01  0.37448794073E-01  0.51100000000E-03 0. -1.
</event>
<event>
 8    1  0.1074844E+005  0.1043930E+01  0.7957747E-01            NaN
         13   -1    0    0    0    0  0.00000000000E+00  0.00000000000E+00  0.74505805969E-08  0.10566000000E+00  0.10566000000E+00 0.  1.
     999900   -1    0    0    0    0 -0.00000000000E+00 -0.00000000000E+00 -0.74505805969E-08  0.93827000000E+00  0.93827000000E+00 0.  1.
     999902    2    1    2    0    0  0.23547637353E-01 -0.58495045131E-02 -0.81668160919E-02  0.10183291248E+01  0.10180072699E+01 0.  0.
     999903    2    3    3    0    0  0.11068100171E-01  0.98625349990E-01 -0.79861882141E-01  0.12916608202E+00  0.21365720773E-01 0.  0.
         14    1    1    2    0    0 -0.23547637353E-01  0.58495045131E-02  0.81668160919E-02  0.25600875240E-01  0.00000000000E+00 0.  1.
     999901    1    3    3    0    0  0.12479537182E-01 -0.10447485450E+00  0.71695066050E-01  0.88916304274E+00  0.88000000000E+00 0.  1.
        -11    1    4    4    0    0  0.10592742554E-01  0.57462223840E-01 -0.34285051794E-01  0.67748352459E-01  0.51100000000E-03 0. -1.
         11    1    4    4    0    0  0.47535761719E-03  0.41163126150E-01 -0.45576830348E-01  0.61417729564E-01  0.51100000000E-03 0.  1.
</event>
<event>
 8    1  0.1074844E+005  0.1043930E+01  0.7957747E-01            NaN
         13   -1    0    0    0    0  0.00000000000E+00  0.00000000000E+00  0.74505805969E-08  0.10566000000E+00  0.10566000000E+00 0.  1.
     999900   -1    0    0    0    0 -0.00000000000E+00 -0.00000000000E+00 -0.74505805969E-08  0.93827000000E+00  0.93827000000E+00 0.  1.
     999902    2    1    2    0    0  0.16888783683E-01 -0.11375176171E-02 -0.16759103796E-01  0.10201099975E+01  0.10198318560E+01 0.  0.
     999903    2    3    3    0    0 -0.10219081789E+00  0.54070204495E-01 -0.54990625871E-01  0.12955427581E+00  0.19844172242E-01 0.  0.
         14    1    1    2    0    0 -0.16888783683E-01  0.11375176171E-02  0.16759103796E-01  0.23820002533E-01  0.00000000000E+00 0.  1.
     999901    1    3    3    0    0  0.11907960158E+00 -0.55207722112E-01  0.38231522075E-01  0.89055572165E+00  0.88000000000E+00 0. -1.
        -11    1    4    4    0    0 -0.69368640941E-01  0.28798927424E-01 -0.42421202831E-01  0.86262425989E-01  0.51100000000E-03 0.  1.
         11    1    4    4    0    0 -0.32822176951E-01  0.25271277071E-01 -0.12569423040E-01  0.43291849824E-01  0.51100000000E-03 0. -1.
</event>
<event>
 8    1  0.1074844E+005  0.1043930E+01  0.7957747E-01            NaN
         13   -1    0    0    0    0  0.00000000000E+00  0.00000000000E+00  0.74505805969E-08  0.10566000000E+00  0.10566000000E+00 0. -1.
     999900   -1    0    0    0    0 -0.00000000000E+00 -0.00000000000E+00 -0.74505805969E-08  0.93827000000E+00  0.93827000000E+00 0.  1.
     999902    2    1    2    0    0 -0.23299571846E-01  0.43436050762E-03 -0.38857749618E-02  0.10203046330E+01  0.10200310712E+01 0.  0.
     999903    2    3    3    0    0 -0.69890269098E-01  0.87655063831E-01  0.66594921088E-01  0.13196591797E+00  0.20299262594E-01 0.  0.
         14    1    1    2    0    0  0.23299571846E-01 -0.43436050762E-03  0.38857749618E-02  0.23625366967E-01  0.00000000000E+00 0.  1.
     999901    1    3    3    0    0  0.46590697252E-01 -0.87220703323E-01 -0.70480696050E-01  0.88833871506E+00  0.88000000000E+00 0.  1.
        -11    1    4    4    0    0 -0.10809240119E-01  0.12443983597E-01  0.21342948225E-02  0.16628551804E-01  0.51100000000E-03 0.  1.
         11    1    4    4    0    0 -0.59081028979E-01  0.75211080234E-01  0.64460626266E-01  0.11533736617E+00  0.51100000000E-03 0. -1.
</event>
<event>
 8    1  0.1074844E+005  0.1043930E+01  0.7957747E-01            NaN
         13   -1    0    0    0    0  0.00000000000E+00  0.00000000000E+00  0.74505805969E-08  0.10566000000E+00  0.10566000000E+00 0. -1.
     999900   -1    0    0    0    0 -0.00000000000E+00 -0.00000000000E+00 -0.74505805969E-08  0.93827000000E+00  0.93827000000E+00 0.  1.
     999902    2    1    2    0    0  0.18749037635E-01 -0.73691866796E-02 -0.12384191987E-01  0.10202825998E+01  0.10200085215E+01 0.  0.
     999903    2    3    3    0    0 -0.11092233899E+00 -0.50789667200E-01  0.34923641610E-01  0.12846533424E+00  0.20008142807E-01 0.  0.
         14    1    1    2    0    0 -0.18749037635E-01  0.73691866796E-02  0.12384191987E-01  0.23647400190E-01  0.00000000000E+00 0. -1.
     999901    1    3    3    0    0  0.12967137662E+00  0.43420480521E-01 -0.47307833596E-01  0.89181726557E+00  0.88000000000E+00 0. -1.
        -11    1    4    4    0    0 -0.45431627771E-01 -0.17483506488E-01  0.23676046507E-01  0.54134296894E-01  0.51100000000E-03 0.  1.
         11    1    4    4    0    0 -0.65490711215E-01 -0.33306160712E-01  0.11247595103E-01  0.74331037349E-01  0.51100000000E-03 0. -1.
</event>
<event>
 8    1  0.1074844E+005  0.1043930E+01  0.7957747E-01            NaN
         13   -1    0    0    0    0  0.00000000000E+00  0.00000000000E+00  0.74505805969E-08  0.10566000000E+00  0.10566000000E+00 0.  1.
     999900   -1    0    0    0    0 -0.00000000000E+00 -0.00000000000E+00 -0.74505805969E-08  0.93827000000E+00  0.93827000000E+00 0. -1.
     999902    2    1    2    0    0 -0.87974955183E-02  0.22146518072E-01  0.23537732085E-02  0.10199841353E+01  0.10197030115E+01 0.  0.
     999903    2    3    3    0    0 -0.72930274131E-01  0.67917479301E-01 -0.80520550924E-01  0.13258560709E+00  0.34114149667E-01 0.  0.
         14    1    1    2    0    0  0.87974955183E-02 -0.22146518072E-01 -0.23537732085E-02  0.23945864746E-01  0.00000000000E+00 0.  1.
     999901    1    3    3    0    0  0.64132778613E-01 -0.45770961229E-01  0.82874324132E-01  0.88739852816E+00  0.88000000000E+00 0.  1.
        -11    1    4    4    0    0 -0.60764793267E-01  0.56336686283E-01 -0.47443133614E-01  0.95484524245E-01  0.51100000000E-03 0. -1.
         11    1    4    4    0    0 -0.12165480864E-01  0.11580793018E-01 -0.33077417310E-01  0.37101082847E-01  0.51100000000E-03 0.  1.
</event>
<event>
 8    1  0.1074844E+005  0.1043930E+01  0.7957747E-01            NaN
         13   -1    0    0    0    0  0.00000000000E+00  0.00000000000E+00  0.74505805969E-08  0.10566000000E+00  0.10566000000E+00 0.  1.
     999900   -1    0    0    0    0 -0.00000000000E+00 -0.00000000000E+00 -0.74505805969E-08  0.93827000000E+00  0.93827000000E+00 0. -1.
     999902    2    1    2    0    0 -0.20188030056E-01  0.12008846756E-01 -0.56898313301E-03  0.10204333471E+01  0.10201627924E+01 0.  0.
     999903    2    3    3    0    0  0.11968215217E-01 -0.37410337852E-01  0.12236896379E+00  0.12993347692E+00  0.19125207709E-01 0.  0.
         14    1    1    2    0    0  0.20188030056E-01 -0.12008846756E-01  0.56898313301E-03  0.23496652948E-01  0.00000000000E+00 0. -1.
     999901    1    3    3    0    0 -0.32156245273E-01  0.49419184609E-01 -0.12293794693E+00  0.89049987014E+00  0.88000000000E+00 0. -1.
        -11    1    4    4    0    0  0.63317230907E-02 -0.37477565697E-01  0.10761494386E+00  0.11413104709E+00  0.51100000000E-03 0. -1.
         11    1    4    4    0    0  0.56364921266E-02  0.67227844401E-04  0.14754019935E-01  0.15802429823E-01  0.51100000000E-03 0.  1.
</event>
<event>
 8    1  0.1074844E+005  0.1043930E+01  0.7957747E-01            NaN
         13   -1    0    0    0    0  0.00000000000E+00  0.00000000000E+00  0.74505805969E-08  0.10566000000E+00  0.10566000000E+00 0. -1.
     999900   -1    0    0    0    0 -0.00000000000E+00 -0.00000000000E+00 -0.74505805969E-08  0.93827000000E+00  0.93827000000E+00 0.  1.
     999902    2    1    2    0    0  0.93789283002E-02  0.19878040135E-01 -0.92924684006E-02  0.10200668329E+01  0.10197876705E+01 0.  0.
     999903    2    3    3    0    0 -0.65151640016E-01 -0.25876500194E-01 -0.10786002206E+00  0.13025570337E+00  0.20455670191E-01 0.  0.
         14    1    1    2    0    0 -0.93789283002E-02 -0.19878040135E-01  0.92924684006E-02  0.23863167112E-01  0.00000000000E+00 0. -1.
     999901    1    3    3    0    0  0.74530568316E-01  0.45754540328E-01  0.98567553661E-01  0.88981112952E+00  0.88000000000E+00 0. -1.
        -11    1    4    4    0    0 -0.45684148873E-01 -0.23324491244E-01 -0.90575466925E-01  0.10409250540E+00  0.51100000000E-03 0.  1.
         11    1    4    4    0    0 -0.19467491142E-01 -0.25520089498E-02 -0.17284555136E-01  0.26163197976E-01  0.51100000000E-03 0. -1.
</event>
<event>
 8    1  0.1074844E+005  0.1043930E+01  0.7957747E-01            NaN
         13   -1    0    0    0    0  0.00000000000E+00  0.00000000000E+00  0.74505805969E-08  0.10566000000E+00  0.10566000000E+00 0. -1.
     999900   -1    0    0    0    0 -0.00000000000E+00 -0.00000000000E+00 -0.74505805969E-08  0.93827000000E+00  0.93827000000E+00 0. -1.
     999902    2    1    2    0    0  0.15733798605E-01 -0.12456055879E-01 -0.15802367488E-01  0.10183874754E+01  0.10180671046E+01 0.  0.
     999903    2    3    3    0    0 -0.69505255031E-01  0.36977580898E-01  0.96038038986E-01  0.12585307422E+00  0.20429620440E-01 0.  0.
         14    1    1    2    0    0 -0.15733798605E-01  0.12456055879E-01  0.15802367488E-01  0.25542524637E-01  0.00000000000E+00 0.  1.
     999901    1    3    3    0    0  0.85239053636E-01 -0.49433636777E-01 -0.11184040647E+00  0.89253440115E+00  0.88000000000E+00 0. -1.
        -11    1    4    4    0    0 -0.53327655649E-01  0.19145470312E-01  0.74057023017E-01  0.93247475406E-01  0.51100000000E-03 0.  1.
         11    1    4    4    0    0 -0.16177599382E-01  0.17832110586E-01  0.21981015969E-01  0.32605598810E-01  0.51100000000E-03 0. -1.
</event>
<event>
 8    1  0.1074844E+005  0.1043930E+01  0.7957747E-01            NaN
         13   -1    0    0    0    0  0.00000000000E+00  0.00000000000E+00  0.74505805969E-08  0.10566000000E+00  0.10566000000E+00 0.  1.
     999900   -1    0    0    0    0 -0.00000000000E+00 -0.00000000000E+00 -0.74505805969E-08  0.93827000000E+00  0.93827000000E+00 0.  1.
     999902    2    1    2    0    0  0.18083337143E-01 -0.15228910357E-01  0.89022087423E-03  0.10202716128E+01  0.10199972767E+01 0.  0.
     999903    2    3    3    0    0  0.73465441211E-01  0.83838991495E-01  0.65164014447E-01  0.13065779366E+00  0.19974051086E-01 0.  0.
         14    1    1    2    0    0 -0.18083337143E-01  0.15228910357E-01 -0.89022087423E-03  0.23658387225E-01  0.00000000000E+00 0.  1.
     999901    1    3    3    0    0 -0.55382104067E-01 -0.99067901852E-01 -0.64273793573E-01  0.88961381912E+00  0.88000000000E+00 0. -1.
        -11    1    4    4    0    0  0.10890546863E-01  0.21313271281E-01  0.76033599777E-02  0.25118354795E-01  0.51100000000E-03 0.  1.
         11    1    4    4    0    0  0.62574894348E-01  0.62525720214E-01  0.57560654469E-01  0.10553943886E+00  0.51100000000E-03 0. -1.
</event>
<event>
 8    1  0.1074844E+005  0.1043930E+01  0.7957747E-01            NaN
         13   -1    0    0    0    0  0.00000000000E+00  0.00000000000E+00  0.74505805969E-08  0.10566000000E+00  0.10566000000E+00 0. -1.
     999900   -1    0    0    0    0 -0.00000000000E+00 -0.00000000000E+00 -0.74505805969E-08  0.93827000000E+00  0.93827000000E+00 0.  1.
     999902    2    1    2    0    0 -0.23039174563E-01  0.39902979272E-02 -0.68948813004E-02  0.10195524400E+01  0.10192609639E+01 0.  0.
     999903    2    3    3    0    0  0.57450741922E-01  0.74935172551E-01  0.84618126404E-01  0.12832495365E+00  0.19778740631E-01 0.  0.
         14    1    1    2    0    0  0.23039174563E-01 -0.39902979272E-02  0.68948813004E-02  0.24377559973E-01  0.00000000000E+00 0.  1.
     999901    1    3    3    0    0 -0.80489916485E-01 -0.70944874624E-01 -0.91513007704E-01  0.89122748638E+00  0.88000000000E+00 0.  1.
        -11    1    4    4    0    0  0.23086344716E-01  0.45071804008E-01  0.39494918921E-01  0.64222710707E-01  0.51100000000E-03 0. -1.
         11    1    4    4    0    0  0.34364397206E-01  0.29863368543E-01  0.45123207483E-01  0.64102242945E-01  0.51100000000E-03 0.  1.
</event>
<event>
 8    1  0.1074844E+005  0.1043930E+01  0.7957747E-01            NaN
         13   -1    0    0    0    0  0.00000000000E+00  0.00000000000E+00  0.74505805969E-08  0.10566000000E+00  0.10566000000E+00 0.  1.
     999900   -1    0    0    0    0 -0.00000000000E+00 -0.00000000000E+00 -0.74505805969E-08  0.93827000000E+00  0.93827000000E+00 0. -1.
     999902    2    1    2    0    0  0.16351917253E-02  0.12673508612E-01 -0.11101348019E-01  0.10270027557E+01  0.10268632473E+01 0.  0.
     999903    2    3    3    0    0 -0.11734390849E+00 -0.36103230753E-01 -0.56760303253E-01  0.13648608723E+00  0.18267015398E-01 0.  0.
         14    1    1    2    0    0 -0.16351917253E-02 -0.12673508612E-01  0.11101348019E-01  0.16927244323E-01  0.00000000000E+00 0. -1.
     999901    1    3    3    0    0  0.11897910021E+00  0.48776739365E-01  0.45658955233E-01  0.89051666845E+00  0.88000000000E+00 0. -1.
        -11    1    4    4    0    0 -0.96410752944E-01 -0.22668408631E-01 -0.48444362169E-01  0.11025428509E+00  0.51100000000E-03 0.  1.
         11    1    4    4    0    0 -0.20933155544E-01 -0.13434822122E-01 -0.83159410835E-02  0.26231802141E-01  0.51100000000E-03 0. -1.
</event>
<event>
 8    1  0.1074844E+005  0.1043930E+01  0.7957747E-01            NaN
         13   -1    0    0    0    0  0.00000000000E+00  0.00000000000E+00  0.74505805969E-08  0.10566000000E+00  0.10566000000E+00 0. -1.
     999900   -1    0    0    0    0 -0.00000000000E+00 -0.00000000000E+00 -0.74505805969E-08  0.93827000000E+00  0.93827000000E+00 0.  1.
     999902    2    1    2    0    0 -0.25354870989E-01 -0.51870104442E-03 -0.64179206243E-02  0.10177703318E+01  0.10174340864E+01 0.  0.
     999903    2    3    3    0    0 -0.58064045539E-01  0.10934073875E+00  0.32336301201E-01  0.12949060319E+00  0.19883395182E-01 0.  0.
         14    1    1    2    0    0  0.25354870989E-01  0.51870104442E-03  0.64179206243E-02  0.26159668170E-01  0.00000000000E+00 0. -1.
     999901    1    3    3    0    0  0.32709174550E-01 -0.10985943979E+00 -0.38754221825E-01  0.88827972864E+00  0.88000000000E+00 0.  1.
        -11    1    4    4    0    0 -0.30745955146E-01  0.62038959291E-01  0.28013674771E-01  0.74693864024E-01  0.51100000000E-03 0. -1.
         11    1    4    4    0    0 -0.27318090393E-01  0.47301779456E-01  0.43226264293E-02  0.54796739161E-01  0.51100000000E-03 0.  1.
</event>
<event>
 7    1  0.1074844E+005  0.1043930E+01  0.7957747E-01            NaN
         13   -1    0    0    0    0  0.00000000000E+00  0.00000000000E+00  0.74505805969E-08  0.10566000000E+00  0.10566000000E+00 0.  1.
     999900   -1    0    0    0    0 -0.00000000000E+00 -0.00000000000E+00 -0.74505805969E-08  0.93827000000E+00  0.93827000000E+00 0. -1.
     999903    2    1    2    0    0 -0.21771590438E-01  0.10569143750E+00 -0.19302996590E-01  0.11192668099E+00  0.22589690760E-01 0.  0.
         14    1    1    2    0    0  0.19323903452E-01  0.33036805855E-01 -0.13347651140E-01  0.40533980519E-01  0.00000000000E+00 0. -1.
     999901    1    1    2    0    0  0.24476869862E-02 -0.13872824336E+00  0.32650647730E-01  0.89146933849E+00  0.88000000000E+00 0.  1.
        -11    1    3    3    0    0 -0.51626172244E-02  0.65680185608E-01 -0.41004416850E-02  0.66012227209E-01  0.51100000000E-03 0.  1.
         11    1    3    3    0    0 -0.16608973214E-01  0.40011251892E-01 -0.15202554905E-01  0.45914453779E-01  0.51100000000E-03 0. -1.
</event>
<event>
 8    1  0.1074844E+005  0.1043930E+01  0.7957747E-01            NaN
         13   -1    0    0    0    0  0.00000000000E+00  0.00000000000E+00  0.74505805969E-08  0.10566000000E+00  0.10566000000E+00 0. -1.
     999900   -1    0    0    0    0 -0.00000000000E+00 -0.00000000000E+00 -0.74505805969E-08  0.93827000000E+00  0.93827000000E+00 0. -1.
     999902    2    1    2    0    0 -0.13111595155E-01  0.55129027179E-02 -0.19932277112E-01  0.10194432343E+01  0.10191491089E+01 0.  0.
     999903    2    3    3    0    0 -0.52398191916E-01  0.71836847505E-01  0.91017871820E-01  0.12913304235E+00  0.22022408123E-01 0.  0.
         14    1    1    2    0    0  0.13111595155E-01 -0.55129027179E-02  0.19932277112E-01  0.24486765707E-01  0.00000000000E+00 0. -1.
     999901    1    3    3    0    0  0.39286596760E-01 -0.66323944787E-01 -0.11095014893E+00  0.89031019195E+00  0.88000000000E+00 0. -1.
        -11    1    4    4    0    0 -0.13219942535E-01  0.21431215953E-01  0.13064368222E-01  0.28372570132E-01  0.51100000000E-03 0.  1.
         11    1    4    4    0    0 -0.39178249381E-01  0.50405631551E-01  0.77953503598E-01  0.10076047221E+00  0.51100000000E-03 0. -1.
</event>
<event>
 8    1  0.1074844E+005  0.1043930E+01  0.7957747E-01            NaN
         13   -1    0    0    0    0  0.00000000000E+00  0.00000000000E+00  0.74505805969E-08  0.10566000000E+00  0.10566000000E+00 0.  1.
     999900   -1    0    0    0    0 -0.00000000000E+00 -0.00000000000E+00 -0.74505805969E-08  0.93827000000E+00  0.93827000000E+00 0.  1.
     999902    2    1    2    0    0 -0.11595105962E-01  0.21196426911E-01  0.46749427138E-03  0.10197648692E+01  0.10194785112E+01 0.  0.
     999903    2    3    3    0    0 -0.29740525858E-01 -0.94769423154E-01 -0.78159734432E-01  0.12849634863E+00  0.23165169601E-01 0.  0.
         14    1    1    2    0    0  0.11595105962E-01 -0.21196426911E-01 -0.46749427138E-03  0.24165130808E-01  0.00000000000E+00 0.  1.
     999901    1    3    3    0    0  0.18145419896E-01  0.11596585006E+00  0.78627228703E-01  0.89126852056E+00  0.88000000000E+00 0. -1.
        -11    1    4    4    0    0 -0.84441093699E-02 -0.30480429559E-01 -0.39172514920E-01  0.50349842257E-01  0.51100000000E-03 0.  1.
         11    1    4    4    0    0 -0.21296416488E-01 -0.64288993595E-01 -0.38987219511E-01  0.78146506376E-01  0.51100000000E-03 0. -1.
</event>
<event>
 8    1  0.1074844E+005  0.1043930E+01  0.7957747E-01            NaN
         13   -1    0    0    0    0  0.00000000000E+00  0.00000000000E+00  0.74505805969E-08  0.10566000000E+00  0.10566000000E+00 0.  1.
     999900   -1    0    0    0    0 -0.00000000000E+00 -0.00000000000E+00 -0.74505805969E-08  0.93827000000E+00  0.93827000000E+00 0. -1.
     999902    2    1    2    0    0  0.80365903119E-02  0.18416795084E-01 -0.12243789184E-01  0.10203996898E+01  0.10201283505E+01 0.  0.
     999903    2    3    3    0    0  0.86012893046E-01  0.74506672790E-01  0.63556396614E-01  0.13193356982E+00  0.20435000224E-01 0.  0.
         14    1    1    2    0    0 -0.80365903119E-02 -0.18416795084E-01  0.12243789184E-01  0.23530310210E-01  0.00000000000E+00 0.  1.
     999901    1    3    3    0    0 -0.77976302734E-01 -0.56089877706E-01 -0.75800185798E-01  0.88846611997E+00  0.88000000000E+00 0. -1.
        -11    1    4    4    0    0  0.29673219865E-01  0.25632427938E-01  0.33293509412E-01  0.51441619620E-01  0.51100000000E-03 0. -1.
         11    1    4    4    0    0  0.56339673181E-01  0.48874244852E-01  0.30262887202E-01  0.80491950199E-01  0.51100000000E-03 0.  1.
</event>
<event>
 8    1  0.1074844E+005  0.1043930E+01  0.7957747E-01            NaN
         13   -1    0    0    0    0  0.00000000000E+00  0.00000000000E+00  0.74505805969E-08  0.10566000000E+00  0.10566000000E+00 0. -1.
     999900   -1    0    0    0    0 -0.00000000000E+00 -0.00000000000E+00 -0.74505805969E-08  0.93827000000E+00  0.93827000000E+00 0. -1.
     999902    2    1    2    0    0  0.86764611087E-02 -0.29767182702E-02  0.21007457160E-01  0.10210071929E+01  0.10207498385E+01 0.  0.
     999903    2    3    3    0    0 -0.53690042476E-01  0.11173023108E+00  0.38282605479E-01  0.13120626250E+00  0.19577033429E-01 0.  0.
         14    1    1    2    0    0 -0.86764611087E-02  0.29767182702E-02 -0.21007457160E-01  0.22922807100E-01  0.00000000000E+00 0.  1.
     999901    1    3    3    0    0  0.62366503585E-01 -0.11470694935E+00 -0.17275148319E-01  0.88980093040E+00  0.88000000000E+00 0. -1.
        -11    1    4    4    0    0 -0.35252083116E-01  0.64069694275E-01  0.31604886509E-01  0.79666586852E-01  0.51100000000E-03 0. -1.
         11    1    4    4    0    0 -0.18437959360E-01  0.47660536804E-01  0.66777189708E-02  0.51539675643E-01  0.51100000000E-03 0.  1.
</event>
<event>
 8    1  0.1074844E+005  0.1043930E+01  0.7957747E-01            NaN
         13   -1    0    0    0    0  0.00000000000E+00  0.00000000000E+00  0.74505805969E-08  0.10566000000E+00  0.10566000000E+00 0. -1.
     999900   -1    0    0    0    0 -0.00000000000E+00 -0.00000000000E+00 -0.74505805969E-08  0.93827000000E+00  0.93827000000E+00 0.  1.
     999902    2    1    2    0    0 -0.11857288408E-02 -0.60075934930E-02  0.23352116765E-01  0.10197883660E+01  0.10195025714E+01 0.  0.
     999903    2    3    3    0    0 -0.59855601513E-01 -0.77805152963E-01  0.86673908736E-01  0.13265438922E+00  0.21177480100E-01 0.  0.
         14    1    1    2    0    0  0.11857288408E-02  0.60075934930E-02 -0.23352116765E-01  0.24141633952E-01  0.00000000000E+00 0.  1.
     999901    1    3    3    0    0  0.58669872672E-01  0.71797559470E-01 -0.63321791970E-01  0.88713397683E+00  0.88000000000E+00 0.  1.
        -11    1    4    4    0    0 -0.39525000075E-01 -0.62251900281E-01  0.72398411344E-01  0.10334077514E+00  0.51100000000E-03 0.  1.
         11    1    4    4    0    0 -0.20330601438E-01 -0.15553252682E-01  0.14275497391E-01  0.29313614083E-01  0.51100000000E-03 0. -1.
</event>
<event>
 8    1  0.1074844E+005  0.1043930E+01  0.7957747E-01            NaN
         13   -1    0    0    0    0  0.00000000000E+00  0.00000000000E+00  0.74505805969E-08  0.10566000000E+00  0.10566000000E+00 0. -1.
     999900   -1    0    0    0    0 -0.00000000000E+00 -0.00000000000E+00 -0.74505805969E-08  0.93827000000E+00  0.93827000000E+00 0.  1.
     999902    2    1    2    0    0  0.19811665192E-01  0.93938035054E-02  0.10181824223E-01  0.10197553197E+01  0.10194687327E+01 0.  0.
     999903    2    3    3    0    0  0.88785501922E-01  0.53473985153E-01 -0.78346323900E-01  0.13153367758E+00  0.20509252266E-01 0.  0.
         14    1    1    2    0    0 -0.19811665192E-01 -0.93938035054E-02 -0.10181824223E-01  0.24174680277E-01  0.00000000000E+00 0. -1.
     999901    1    3    3    0    0 -0.68973836729E-01 -0.44080181647E-01  0.88528148123E-01  0.88822164215E+00  0.88000000000E+00 0. -1.
        -11    1    4    4    0    0  0.42384139831E-01  0.22184406049E-01 -0.48415354127E-01  0.68065195344E-01  0.51100000000E-03 0.  1.
         11    1    4    4    0    0  0.46401362091E-01  0.31289579103E-01 -0.29930969773E-01  0.63468482233E-01  0.51100000000E-03 0. -1.
</event>
<event>
 8    1  0.1074844E+005  0.1043930E+01  0.7957747E-01            NaN
         13   -1    0    0    0    0  0.00000000000E+00  0.00000000000E+00  0.74505805969E-08  0.10566000000E+00  0.10566000000E+00 0. -1.
     999900   -1    0    0    0    0 -0.00000000000E+00 -0.00000000000E+00 -0.74505805969E-08  0.93827000000E+00  0.93827000000E+00 0.  1.
     999902    2    1    2    0    0  0.16889558188E-01  0.16073601452E-01 -0.76247089428E-02  0.10193993248E+01  0.10191041308E+01 0.  0.
     999903    2    3    3    0    0  0.32776159130E-01  0.20592493262E-01 -0.12417784817E+00  0.13156069152E+00  0.19742091847E-01 0.  0.
         14    1    1    2    0    0 -0.16889558188E-01 -0.16073601452E-01  0.76247089428E-02  0.24530675202E-01  0.00000000000E+00 0. -1.
     999901    1    3    3    0    0 -0.15886600942E-01 -0.45188918101E-02  0.11655313923E+00  0.88783863328E+00  0.88000000000E+00 0. -1.
        -11    1    4    4    0    0  0.72808185404E-02  0.15048729420E-01 -0.37989825189E-01  0.41508583627E-01  0.51100000000E-03 0. -1.
         11    1    4    4    0    0  0.25495340590E-01  0.55437638417E-02 -0.86188022985E-01  0.90052107895E-01  0.51100000000E-03 0.  1.
</event>
<event>
 8    1  0.1074844E+005  0.1043930E+01  0.7957747E-01            NaN
         13   -1    0    0    0    0  0.00000000000E+00  0.00000000000E+00  0.74505805969E-08  0.10566000000E+00  0.10566000000E+00 0.  1.
     999900   -1    0    0    0    0 -0.00000000000E+00 -0.00000000000E+00 -0.74505805969E-08  0.93827000000E+00  0.93827000000E+00 0.  1.
     999902    2    1    2    0    0 -0.15563806684E-01  0.14442329805E-01  0.11905321652E-01  0.10195876572E+01  0.10192970328E+01 0.  0.
     999903    2    3    3    0    0 -0.82257347806E-01  0.10193823873E+00 -0.15185658650E-02  0.13263570628E+00  0.20790592981E-01 0.  0.
         14    1    1    2    0    0  0.15563806684E-01 -0.14442329805E-01 -0.11905321652E-01  0.24342342786E-01  0.00000000000E+00 0. -1.
     999901    1    3    3    0    0  0.66693541122E-01 -0.87495908921E-01  0.13423887517E-01  0.88695195093E+00  0.88000000000E+00 0. -1.
        -11    1    4    4    0    0 -0.36165973683E-01  0.45210563704E-01 -0.10985294907E-01  0.58931405448E-01  0.51100000000E-03 0.  1.
         11    1    4    4    0    0 -0.46091374123E-01  0.56727675021E-01  0.94667290422E-02  0.73704300835E-01  0.51100000000E-03 0. -1.
</event>
<event>
 8    1  0.1074844E+005  0.1043930E+01  0.7957747E-01            NaN
         13   -1    0    0    0    0  0.00000000000E+00  0.00000000000E+00  0.74505805969E-08  0.10566000000E+00  0.10566000000E+00 0.  1.
     999900   -1    0    0    0    0 -0.00000000000E+00 -0.00000000000E+00 -0.74505805969E-08  0.93827000000E+00  0.93827000000E+00 0.  1.
     999902    2    1    2    0    0  0.21358421770E-01 -0.36108080265E-03 -0.87882940698E-02  0.10208313708E+01  0.10205700078E+01 0.  0.
     999903    2    3    3    0    0  0.61605243644E-01  0.11077473254E+00  0.30675001081E-01  0.13205224897E+00  0.20750743440E-01 0.  0.
         14    1    1    2    0    0 -0.21358421770E-01  0.36108080265E-03  0.87882940698E-02  0.23098629234E-01  0.00000000000E+00 0.  1.
     999901    1    3    3    0    0 -0.40246821874E-01 -0.11113581334E+00 -0.39463295150E-01  0.88877912180E+00  0.88000000000E+00 0.  1.
        -11    1    4    4    0    0  0.57674233117E-01  0.10068753404E+00  0.21851218869E-01  0.11807638868E+00  0.51100000000E-03 0.  1.
         11    1    4    4    0    0  0.39310105268E-02  0.10087198496E-01  0.88237822115E-02  0.13975860287E-01  0.51100000000E-03 0. -1.
</event>
<event>
 8    1  0.1074844E+005  0.1043930E+01  0.7957747E-01            NaN
         13   -1    0    0    0    0  0.00000000000E+00  0.00000000000E+00  0.74505805969E-08  0.10566000000E+00  0.10566000000E+00 0. -1.
     999900   -1    0    0    0    0 -0.00000000000E+00 -0.00000000000E+00 -0.74505805969E-08  0.93827000000E+00  0.93827000000E+00 0.  1.
     999902    2    1    2    0    0 -0.44938608753E-02 -0.15600744981E-02  0.22396736972E-01  0.10210336587E+01  0.10207769050E+01 0.  0.
     999903    2    3    3    0    0 -0.92878834033E-01 -0.19617626036E-01  0.92050836231E-01  0.13368385609E+00  0.19664380620E-01 0.  0.
         14    1    1    2    0    0  0.44938608753E-02  0.15600744981E-02 -0.22396736972E-01  0.22896341302E-01  0.00000000000E+00 0.  1.
     999901    1    3    3    0    0  0.88384973158E-01  0.18057551538E-01 -0.69654099259E-01  0.88734980261E+00  0.88000000000E+00 0.  1.
        -11    1    4    4    0    0 -0.24637786373E-01 -0.12493906337E-01  0.33975672212E-01  0.43791844403E-01  0.51100000000E-03 0.  1.
         11    1    4    4    0    0 -0.68241047660E-01 -0.71237196994E-02  0.58075164019E-01  0.89892011686E-01  0.51100000000E-03 0. -1.
</event>
<event>
 8    1  0.1074844E+005  0.1043930E+01  0.7957747E-01            NaN
         13   -1    0    0    0    0  0.00000000000E+00  0.00000000000E+00  0.74505805969E-08  0.10566000000E+00  0.10566000000E+00 0. -1.
     999900   -1    0    0    0    0 -0.00000000000E+00 -0.00000000000E+00 -0.74505805969E-08  0.93827000000E+00  0.93827000000E+00 0.  1.
     999902    2    1    2    0    0 -0.11449090619E-01  0.17648937578E-01  0.92821725148E-02  0.10209359703E+01  0.10206769960E+01 0.  0.
     999903    2    3    3    0    0  0.29272124142E-01 -0.12308605358E+00  0.13208105264E-01  0.12881492024E+00  0.20292752265E-01 0.  0.
         14    1    1    2    0    0  0.11449090619E-01 -0.17648937578E-01 -0.92821725148E-02  0.22994029665E-01  0.00000000000E+00 0.  1.
     999901    1    3    3    0    0 -0.40721214761E-01  0.14073499116E+00 -0.39259327492E-02  0.89212105009E+00  0.88000000000E+00 0.  1.
        -11    1    4    4    0    0  0.27312835759E-01 -0.75719189031E-01  0.12029491303E-01  0.81390149077E-01  0.51100000000E-03 0.  1.
         11    1    4    4    0    0  0.19592883830E-02 -0.47366864551E-01  0.11786139611E-02  0.47424771167E-01  0.51100000000E-03 0. -1.
</event>
<event>
 8    1  0.1074844E+005  0.1043930E+01  0.7957747E-01            NaN
         13   -1    0    0    0    0  0.00000000000E+00  0.00000000000E+00  0.74505805969E-08  0.10566000000E+00  0.10566000000E+00 0. -1.
     999900   -1    0    0    0    0 -0.00000000000E+00 -0.00000000000E+00 -0.74505805969E-08  0.93827000000E+00  0.93827000000E+00 0. -1.
     999902    2    1    2    0    0 -0.13580011718E-01 -0.18672422350E-01 -0.99467668876E-02  0.10187901065E+01  0.10184798804E+01 0.  0.
     999903    2    3    3    0    0 -0.68869144842E-02 -0.12807464923E+00 -0.23367379849E-01  0.13188889572E+00  0.19952468655E-01 0.  0.
         14    1    1    2    0    0  0.13580011718E-01  0.18672422350E-01  0.99467668876E-02  0.25139893520E-01  0.00000000000E+00 0. -1.
     999901    1    3    3    0    0 -0.66930972335E-02  0.10940222688E+00  0.13420612961E-01  0.88690121076E+00  0.88000000000E+00 0.  1.
        -11    1    4    4    0    0 -0.12487793050E-01 -0.56120178964E-01 -0.73945248519E-02  0.57968608583E-01  0.51100000000E-03 0. -1.
         11    1    4    4    0    0  0.56008785662E-02 -0.71954470270E-01 -0.15972854997E-01  0.73920287136E-01  0.51100000000E-03 0.  1.
</event>
<event>
 8    1  0.1074844E+005  0.1043930E+01  0.7957747E-01            NaN
         13   -1    0    0    0    0  0.00000000000E+00  0.00000000000E+00  0.74505805969E-08  0.10566000000E+00  0.10566000000E+00 0.  1.
     999900   -1    0    0    0    0 -0.00000000000E+00 -0.00000000000E+00 -0.74505805969E-08  0.93827000000E+00  0.93827000000E+00 0. -1.
     999902    2    1    2    0    0 -0.11764858774E-01  0.13941697946E-01 -0.17280697797E-01  0.10188022194E+01  0.10184922959E+01 0.  0.
     999903    2    3    3    0    0 -0.49778010396E-01 -0.20039420668E-02 -0.12039044725E+00  0.13182370577E+00  0.20044039313E-01 0.  0.
         14    1    1    2    0    0  0.11764858774E-01 -0.13941697946E-01  0.17280697797E-01  0.25127780641E-01  0.00000000000E+00 0.  1.
     999901    1    3    3    0    0  0.38013151622E-01  0.15945640013E-01  0.10310974945E+00  0.88697851359E+00  0.88000000000E+00 0.  1.
        -11    1    4    4    0    0 -0.34102942633E-01 -0.99695908475E-02 -0.71026497227E-01  0.79419316714E-01  0.51100000000E-03 0. -1.
         11    1    4    4    0    0 -0.15675067763E-01  0.79656487806E-02 -0.49363950022E-01  0.52404389059E-01  0.51100000000E-03 0.  1.
</event>
<event>
 8    1  0.1074844E+005  0.1043930E+01  0.7957747E-01            NaN
         13   -1    0    0    0    0  0.00000000000E+00  0.00000000000E+00  0.74505805969E-08  0.10566000000E+00  0.10566000000E+00 0. -1.
     999900   -1    0    0    0    0 -0.00000000000E+00 -0.00000000000E+00 -0.74505805969E-08  0.93827000000E+00  0.93827000000E+00 0.  1.
     999902    2    1    2    0    0 -0.20137899718E-01  0.85618260612E-02 -0.42732936535E-02  0.10216342401E+01  0.10213909240E+01 0.  0.
     999903    2    3    3    0    0 -0.47455021081E-01  0.10375782536E+00 -0.67380160494E-01  0.13383303486E+00  0.18802389281E-01 0.  0.
         14    1    1    2    0    0  0.20137899718E-01 -0.85618260612E-02  0.42732936535E-02  0.22295759893E-01  0.00000000000E+00 0.  1.
     999901    1    3    3    0    0  0.27317121364E-01 -0.95195999294E-01  0.63106866840E-01  0.88780120525E+00  0.88000000000E+00 0. -1.
        -11    1    4    4    0    0 -0.20509299166E-01  0.45836998300E-01 -0.40539164154E-01  0.64539497339E-01  0.51100000000E-03 0.  1.
         11    1    4    4    0    0 -0.26945721916E-01  0.57920827056E-01 -0.26840996340E-01  0.69293537519E-01  0.51100000000E-03 0. -1.
</event>
<event>
 8    1  0.1074844E+005  0.1043930E+01  0.7957747E-01            NaN
         13   -1    0    0    0    0  0.00000000000E+00  0.00000000000E+00  0.74505805969E-08  0.10566000000E+00  0.10566000000E+00 0.  1.
     999900   -1    0    0    0    0 -0.00000000000E+00 -0.00000000000E+00 -0.74505805969E-08  0.93827000000E+00  0.93827000000E+00 0. -1.
     999902    2    1    2    0    0 -0.18012488728E-01  0.11107811423E-01 -0.83281510017E-02  0.10211881592E+01  0.10209348976E+01 0.  0.
     999903    2    3    3    0    0  0.12258356541E+00 -0.51271603082E-02 -0.36122386276E-01  0.12944641167E+00  0.19963176651E-01 0.  0.
         14    1    1    2    0    0  0.18012488728E-01 -0.11107811423E-01  0.83281510017E-02  0.22741840820E-01  0.00000000000E+00 0. -1.
     999901    1    3    3    0    0 -0.14059605414E+00  0.16234971731E-01  0.27794235275E-01  0.89174174751E+00  0.88000000000E+00 0.  1.
        -11    1    4    4    0    0  0.78094194051E-01  0.22353923926E-02 -0.14615214401E-01  0.79483116048E-01  0.51100000000E-03 0. -1.
         11    1    4    4    0    0  0.44489371356E-01 -0.73625527008E-02 -0.21507171875E-01  0.49963295618E-01  0.51100000000E-03 0.  1.
</event>
<event>
 8    1  0.1074844E+005  0.1043930E+01  0.7957747E-01            NaN
         13   -1    0    0    0    0  0.00000000000E+00  0.00000000000E+00  0.74505805969E-08  0.10566000000E+00  0.10566000000E+00 0.  1.
     999900   -1    0    0    0    0 -0.00000000000E+00 -0.00000000000E+00 -0.74505805969E-08  0.93827000000E+00  0.93827000000E+00 0. -1.
     999902    2    1    2    0    0 -0.14467258444E-01  0.69086204797E-02  0.17896163218E-01  0.10199028641E+01  0.10196198060E+01 0.  0.
     999903    2    3    3    0    0  0.10100569818E+00 -0.41201195813E-01  0.67230580450E-01  0.12968803444E+00  0.19983636559E-01 0.  0.
         14    1    1    2    0    0  0.14467258444E-01 -0.69086204797E-02 -0.17896163218E-01  0.24027135946E-01  0.00000000000E+00 0.  1.
     999901    1    3    3    0    0 -0.11547295662E+00  0.48109816292E-01 -0.49334417231E-01  0.89021482961E+00  0.88000000000E+00 0.  1.
        -11    1    4    4    0    0  0.51128243451E-01 -0.24630835348E-01  0.45789113552E-01  0.72922420210E-01  0.51100000000E-03 0.  1.
         11    1    4    4    0    0  0.49877454724E-01 -0.16570360464E-01  0.21441466897E-01  0.56765614234E-01  0.51100000000E-03 0. -1.
</event>
<event>
 8    1  0.1074844E+005  0.1043930E+01  0.7957747E-01            NaN
         13   -1    0    0    0    0  0.00000000000E+00  0.00000000000E+00  0.74505805969E-08  0.10566000000E+00  0.10566000000E+00 0. -1.
     999900   -1    0    0    0    0 -0.00000000000E+00 -0.00000000000E+00 -0.74505805969E-08  0.93827000000E+00  0.93827000000E+00 0. -1.
     999902    2    1    2    0    0 -0.50806066506E-02  0.18772340974E-01 -0.12259653232E-01  0.10209406014E+01  0.10206817326E+01 0.  0.
     999903    2    3    3    0    0  0.37363025347E-02  0.11307999369E+00  0.65829456700E-01  0.13241959416E+00  0.20009663147E-01 0.  0.
         14    1    1    2    0    0  0.50806066506E-02 -0.18772340974E-01  0.12259653232E-01  0.22989398577E-01  0.00000000000E+00 0.  1.
     999901    1    3    3    0    0 -0.88169091854E-02 -0.94307652719E-01 -0.78089109932E-01  0.88852100726E+00  0.88000000000E+00 0. -1.
        -11    1    4    4    0    0 -0.56231363370E-02  0.61402034774E-01  0.28163990845E-01  0.67788649773E-01  0.51100000000E-03 0. -1.
         11    1    4    4    0    0  0.93594388718E-02  0.51677958918E-01  0.37665465855E-01  0.64630944392E-01  0.51100000000E-03 0.  1.
</event>
<event>
 8    1  0.1074844E+005  0.1043930E+01  0.7957747E-01            NaN
         13   -1    0    0    0    0  0.00000000000E+00  0.00000000000E+00  0.74505805969E-08  0.10566000000E+00  0.10566000000E+00 0.  1.
     999900   -1    0    0    0    0 -0.00000000000E+00 -0.00000000000E+00 -0.74505805969E-08  0.93827000000E+00  0.93827000000E+00 0. -1.
     999902    2    1    2    0    0  0.12427776423E-01  0.10102462789E-01 -0.17754074883E-01  0.10200194049E+01  0.10197391185E+01 0.  0.
     999903    2    3    3    0    0 -0.36971985279E-01 -0.93950761270E-01  0.75488651021E-01  0.12762845035E+00  0.19920132220E-01 0.  0.
         14    1    1    2    0    0 -0.12427776423E-01 -0.10102462789E-01  0.17754074883E-01  0.23910595062E-01  0.00000000000E+00 0.  1.
     999901    1    3    3    0    0  0.49399761702E-01  0.10405322406E+00 -0.93242725904E-01  0.89239095459E+00  0.88000000000E+00 0. -1.
        -11    1    4    4    0    0 -0.28246815371E-01 -0.62001244710E-01  0.61088901444E-01  0.91510392441E-01  0.51100000000E-03 0. -1.
         11    1    4    4    0    0 -0.87251699077E-02 -0.31949516561E-01  0.14399749577E-01  0.36118057911E-01  0.51100000000E-03 0.  1.
</event>
<event>
 8    1  0.1074844E+005  0.1043930E+01  0.7957747E-01            NaN
         13   -1    0    0    0    0  0.00000000000E+00  0.00000000000E+00  0.74505805969E-08  0.10566000000E+00  0.10566000000E+00 0. -1.
     999900   -1    0    0    0    0 -0.00000000000E+00 -0.00000000000E+00 -0.74505805969E-08  0.93827000000E+00  0.93827000000E+00 0.  1.
     999902    2    1    2    0    0  0.19249225222E-01  0.68365147908E-02 -0.11015720015E-01  0.10207218830E+01  0.10204580079E+01 0.  0.
     999903    2    3    3    0    0  0.97221563080E-01  0.62492483858E-01 -0.64458777305E-01  0.13391106175E+00  0.20491354754E-01 0.  0.
         14    1    1    2    0    0 -0.19249225222E-01 -0.68365147908E-02  0.11015720015E-01  0.23208116977E-01  0.00000000000E+00 0. -1.
     999901    1    3    3    0    0 -0.77972337858E-01 -0.55655969067E-01  0.53443057289E-01  0.88681082128E+00  0.88000000000E+00 0. -1.
        -11    1    4    4    0    0  0.44520400351E-01  0.28995336435E-01 -0.41342529881E-01  0.67322072758E-01  0.51100000000E-03 0. -1.
         11    1    4    4    0    0  0.52701162728E-01  0.33497147423E-01 -0.23116247423E-01  0.66588988987E-01  0.51100000000E-03 0.  1.
</event>
<event>
 8    1  0.1074844E+005  0.1043930E+01  0.7957747E-01            NaN
         13   -1    0    0    0    0  0.00000000000E+00  0.00000000000E+00  0.74505805969E-08  0.10566000000E+00  0.10566000000E+00 0.  1.
     999900   -1    0    0    0    0 -0.00000000000E+00 -0.00000000000E+00 -0.74505805969E-08  0.93827000000E+00  0.93827000000E+00 0.  1.
     999902    2    1    2    0    0 -0.21392240591E-01  0.78304560318E-02 -0.43025046120E-02  0.10207469125E+01  0.10204836127E+01 0.  0.
     999903    2    3    3    0    0  0.76589535486E-01 -0.28456919565E-01  0.97643471003E-01  0.12872102499E+00  0.18949977020E-01 0.  0.
         14    1    1    2    0    0  0.21392240591E-01 -0.78304560318E-02  0.43025046120E-02  0.23183087480E-01  0.00000000000E+00 0. -1.
     999901    1    3    3    0    0 -0.97981776078E-01  0.36287375596E-01 -0.10194597561E+00  0.89202588753E+00  0.88000000000E+00 0.  1.
        -11    1    4    4    0    0  0.52682693963E-01 -0.22913690872E-01  0.79996274350E-01  0.98489433461E-01  0.51100000000E-03 0. -1.
         11    1    4    4    0    0  0.23906841523E-01 -0.55432286929E-02  0.17647196653E-01  0.30231591534E-01  0.51100000000E-03 0.  1.
</event>
<event>
 8    1  0.1074844E+005  0.1043930E+01  0.7957747E-01            NaN
         13   -1    0    0    0    0  0.00000000000E+00  0.00000000000E+00  0.74505805969E-08  0.10566000000E+00  0.10566000000E+00 0. -1.
     999900   -1    0    0    0    0 -0.00000000000E+00 -0.00000000000E+00 -0.74505805969E-08  0.93827000000E+00  0.93827000000E+00 0.  1.
     999902    2    1    2    0    0 -0.93822948170E-02 -0.21656559308E-01  0.68929447587E-02  0.10193424685E+01  0.10190458878E+01 0.  0.
     999903    2    3    3    0    0 -0.13402434463E-01 -0.79370107917E-01  0.10280511938E+00  0.13224260917E+00  0.20975600795E-01 0.  0.
         14    1    1    2    0    0  0.93822948170E-02  0.21656559308E-01 -0.68929447587E-02  0.24587531485E-01  0.00000000000E+00 0. -1.
     999901    1    3    3    0    0  0.40201396457E-02  0.57713548609E-01 -0.95912174619E-01  0.88709985935E+00  0.88000000000E+00 0.  1.
        -11    1    4    4    0    0 -0.17856602877E-02 -0.40692837066E-01  0.36990891959E-01  0.55024383504E-01  0.51100000000E-03 0.  1.
         11    1    4    4    0    0 -0.11616774175E-01 -0.38677270851E-01  0.65814227419E-01  0.77218225662E-01  0.51100000000E-03 0. -1.
</event>
<event>
 8    1  0.1074844E+005  0.1043930E+01  0.7957747E-01            NaN
         13   -1    0    0    0    0  0.00000000000E+00  0.00000000000E+00  0.74505805969E-08  0.10566000000E+00  0.10566000000E+00 0.  1.
     999900   -1    0    0    0    0 -0.00000000000E+00 -0.00000000000E+00 -0.74505805969E-08  0.93827000000E+00  0.93827000000E+00 0.  1.
     999902    2    1    2    0    0  0.13798033122E-01 -0.16754815248E-01 -0.69391422494E-03  0.10222138523E+01  0.10219831549E+01 0.  0.
     999903    2    3    3    0    0 -0.69206138151E-02  0.72938163275E-02 -0.13048421560E+00  0.13212783328E+00  0.18180735762E-01 0.  0.
         14    1    1    2    0    0 -0.13798033122E-01  0.16754815248E-01  0.69391422494E-03  0.21716147655E-01  0.00000000000E+00 0. -1.
     999901    1    3    3    0    0  0.20718646937E-01 -0.24048631575E-01  0.12979030138E+00  0.89008601907E+00  0.88000000000E+00 0. -1.
        -11    1    4    4    0    0  0.42271958262E-02  0.78284909515E-02 -0.41571619701E-01  0.42516057446E-01  0.51100000000E-03 0.  1.
         11    1    4    4    0    0 -0.11147809641E-01 -0.53467462404E-03 -0.88912595900E-01  0.89611775830E-01  0.51100000000E-03 0. -1.
</event>
<event>
 8    1  0.1074844E+005  0.1043930E+01  0.7957747E-01            NaN
         13   -1    0    0    0    0  0.00000000000E+00  0.00000000000E+00  0.74505805969E-08  0.10566000000E+00  0.10566000000E+00 0.  1.
     999900   -1    0    0    0    0 -0.00000000000E+00 -0.00000000000E+00 -0.74505805969E-08  0.93827000000E+00  0.93827000000E+00 0.  1.
     999902    2    1    2    0    0 -0.17556234524E-01 -0.29085753396E-02 -0.16318788730E-01  0.10197849374E+01  0.10194990606E+01 0.  0.
     999903    2    3    3    0    0  0.33218565837E-02 -0.20820228496E-01 -0.12901586552E+00  0.13217164712E+00  0.19486767347E-01 0.  0.
         14    1    1    2    0    0  0.17556234524E-01  0.29085753396E-02  0.16318788730E-01  0.24145062575E-01  0.00000000000E+00 0. -1.
     999901    1    3    3    0    0 -0.20878091107E-01  0.17911653157E-01  0.11269707679E+00  0.88761329030E+00  0.88000000000E+00 0. -1.
        -11    1    4    4    0    0  0.13133880548E-03  0.10078911278E-02 -0.53143601721E-01  0.53155776914E-01  0.51100000000E-03 0.  1.
         11    1    4    4    0    0  0.31905177782E-02 -0.21828119624E-01 -0.75872263797E-01  0.79015870208E-01  0.51100000000E-03 0. -1.
</event>
<event>
 8    1  0.1074844E+005  0.1043930E+01  0.7957747E-01            NaN
         13   -1    0    0    0    0  0.00000000000E+00  0.00000000000E+00  0.74505805969E-08  0.10566000000E+00  0.10566000000E+00 0.  1.
     999900   -1    0    0    0    0 -0.00000000000E+00 -0.00000000000E+00 -0.74505805969E-08  0.93827000000E+00  0.93827000000E+00 0.  1.
     999902    2    1    2    0    0 -0.20341402132E-01 -0.23797375963E-02  0.10229992627E-01  0.10210370198E+01  0.10207803424E+01 0.  0.
     999903    2    3    3    0    0  0.25417052476E-01 -0.70887724219E-01  0.10659256009E+00  0.13195157692E+00  0.19446047975E-01 0.  0.
         14    1    1    2    0    0  0.20341402132E-01  0.23797375963E-02 -0.10229992627E-01  0.22892980166E-01  0.00000000000E+00 0. -1.
     999901    1    3    3    0    0 -0.45758454608E-01  0.68507986623E-01 -0.96362567467E-01  0.88908544292E+00  0.88000000000E+00 0.  1.
        -11    1    4    4    0    0  0.18703976436E-01 -0.54162580803E-01  0.93526746068E-01  0.10968562916E+00  0.51100000000E-03 0.  1.
         11    1    4    4    0    0  0.67130760402E-02 -0.16725143416E-01  0.13065814026E-01  0.22265947754E-01  0.51100000000E-03 0. -1.
</event>
<event>
 8    1  0.1074844E+005  0.1043930E+01  0.7957747E-01            NaN
         13   -1    0    0    0    0  0.00000000000E+00  0.00000000000E+00  0.74505805969E-08  0.10566000000E+00  0.10566000000E+00 0.  1.
     999900   -1    0    0    0    0 -0.00000000000E+00 -0.00000000000E+00 -0.74505805969E-08  0.93827000000E+00  0.93827000000E+00 0. -1.
     999902    2    1    2    0    0 -0.28799389087E-02 -0.16306936728E-01  0.15824139181E-01  0.10210255547E+01  0.10207686171E+01 0.  0.
     999903    2    3    3    0    0 -0.67311115940E-01 -0.10188369478E+00  0.50959370619E-01  0.13383378142E+00  0.20088554060E-01 0.  0.
         14    1    1    2    0    0  0.28799389087E-02  0.16306936728E-01 -0.15824139181E-01  0.22904445298E-01  0.00000000000E+00 0. -1.
     999901    1    3    3    0    0  0.64431177031E-01  0.85576758051E-01 -0.35135231437E-01  0.88719177328E+00  0.88000000000E+00 0.  1.
        -11    1    4    4    0    0 -0.56469644310E-01 -0.94816746420E-01  0.41982748207E-01  0.11807560459E+00  0.51100000000E-03 0. -1.
         11    1    4    4    0    0 -0.10841471630E-01 -0.70669483593E-02  0.89766224113E-02  0.15758176834E-01  0.51100000000E-03 0.  1.
</event>
<event>
 8    1  0.1074844E+005  0.1043930E+01  0.7957747E-01            NaN
         13   -1    0    0    0    0  0.00000000000E+00  0.00000000000E+00  0.74505805969E-08  0.10566000000E+00  0.10566000000E+00 0. -1.
     999900   -1    0    0    0    0 -0.00000000000E+00 -0.00000000000E+00 -0.74505805969E-08  0.93827000000E+00  0.93827000000E+00 0. -1.
     999902    2    1    2    0    0  0.66922630114E-02  0.10901574471E-01  0.18411409101E-01  0.10215110193E+01  0.10212649763E+01 0.  0.
     999903    2    3    3    0    0 -0.61891600694E-01 -0.55877161963E-01 -0.96323676581E-01  0.12891520603E+00  0.19699040827E-01 0.  0.
         14    1    1    2    0    0 -0.66922630114E-02 -0.10901574471E-01 -0.18411409101E-01  0.22418980692E-01  0.00000000000E+00 0.  1.
     999901    1    3    3    0    0  0.68583863705E-01  0.66778736434E-01  0.11473508568E+00  0.89259581328E+00  0.88000000000E+00 0.  1.
        -11    1    4    4    0    0 -0.15975066099E-01 -0.26943315921E-01 -0.32646910479E-01  0.45246291500E-01  0.51100000000E-03 0.  1.
         11    1    4    4    0    0 -0.45916534594E-01 -0.28933846042E-01 -0.63676766102E-01  0.83668914527E-01  0.51100000000E-03 0. -1.
</event>
<event>
 8    1  0.1074844E+005  0.1043930E+01  0.7957747E-01            NaN
         13   -1    0    0    0    0  0.00000000000E+00  0.00000000000E+00  0.74505805969E-08  0.10566000000E+00  0.10566000000E+00 0. -1.
     999900   -1    0    0    0    0 -0.00000000000E+00 -0.00000000000E+00 -0.74505805969E-08  0.93827000000E+00  0.93827000000E+00 0. -1.
     999902    2    1    2    0    0 -0.20044242905E-01  0.83969741682E-02 -0.38994733279E-02  0.10218508981E+01  0.10216123390E+01 0.  0.
     999903    2    3    3    0    0  0.23651452389E-01 -0.45484206835E-01  0.11852884124E+00  0.13067123738E+00  0.19941960867E-01 0.  0.
         14    1    1    2    0    0  0.20044242905E-01 -0.83969741682E-02  0.38994733279E-02  0.22079101908E-01  0.00000000000E+00 0.  1.
     999901    1    3    3    0    0 -0.43695695294E-01  0.53881181004E-01 -0.12242831456E+00  0.89117966071E+00  0.88000000000E+00 0. -1.
        -11    1    4    4    0    0  0.15426341223E-01 -0.14319382869E-01  0.31731211585E-01  0.38080804074E-01  0.51100000000E-03 0. -1.
         11    1    4    4    0    0  0.82251111665E-02 -0.31164823967E-01  0.86797629650E-01  0.92590433310E-01  0.51100000000E-03 0.  1.
</event>
<event>
 8    1  0.1074844E+005  0.1043930E+01  0.7957747E-01            NaN
         13   -1    0    0    0    0  0.00000000000E+00  0.00000000000E+00  0.74505805969E-08  0.10566000000E+00  0.10566000000E+00 0. -1.
     999900   -1    0    0    0    0 -0.00000000000E+00 -0.00000000000E+00 -0.74505805969E-08  0.93827000000E+00  0.93827000000E+00 0.  1.
     999902    2    1    2    0    0 -0.16668828273E-01 -0.15015519536E-01 -0.38877288043E-02  0.10211609399E+01  0.10209070649E+01 0.  0.
     999903    2    3    3    0    0 -0.12101625656E+00  0.35954683206E-01 -0.35996037634E-01  0.13295077847E+00  0.21036187274E-01 0.  0.
         14    1    1    2    0    0  0.16668828273E-01  0.15015519536E-01  0.38877288043E-02  0.22769060108E-01  0.00000000000E+00 0.  1.
     999901    1    3    3    0    0  0.10434742828E+00 -0.50970202742E-01  0.32108308830E-01  0.88821016142E+00  0.88000000000E+00 0.  1.
        -11    1    4    4    0    0 -0.57996489528E-01  0.66803297277E-02 -0.13645343237E-01  0.59955617884E-01  0.51100000000E-03 0.  1.
         11    1    4    4    0    0 -0.63019767029E-01  0.29274353478E-01 -0.22350694397E-01  0.72995160586E-01  0.51100000000E-03 0. -1.
</event>
<event>
 8    1  0.1074844E+005  0.1043930E+01  0.7957747E-01            NaN
         13   -1    0    0    0    0  0.00000000000E+00  0.00000000000E+00  0.74505805969E-08  0.10566000000E+00  0.10566000000E+00 0.  1.
     999900   -1    0    0    0    0 -0.00000000000E+00 -0.00000000000E+00 -0.74505805969E-08  0.93827000000E+00  0.93827000000E+00 0. -1.
     999902    2    1    2    0    0  0.20589144709E-01 -0.12807272268E-01 -0.28214692387E-02  0.10195189412E+01  0.10192266537E+01 0.  0.
     999903    2    3    3    0    0 -0.12481015723E+00  0.14511095502E-01 -0.54496218959E-02  0.12716578387E+00  0.18796035940E-01 0.  0.
         14    1    1    2    0    0 -0.20589144709E-01  0.12807272268E-01  0.28214692387E-02  0.24411058795E-01  0.00000000000E+00 0. -1.
     999901    1    3    3    0    0  0.14539930194E+00 -0.27318367771E-01  0.26281526571E-02  0.89235315734E+00  0.88000000000E+00 0.  1.
        -11    1    4    4    0    0 -0.24656019532E-01  0.64711283123E-02  0.55331957089E-02  0.26089694834E-01  0.51100000000E-03 0.  1.
         11    1    4    4    0    0 -0.10015413770E+00  0.80399671900E-02 -0.10982817605E-01  0.10107608903E+00  0.51100000000E-03 0. -1.
</event>
<event>
 8    1  0.1074844E+005  0.1043930E+01  0.7957747E-01            NaN
         13   -1    0    0    0    0  0.00000000000E+00  0.00000000000E+00  0.74505805969E-08  0.10566000000E+00  0.10566000000E+00 0. -1.
     999900   -1    0    0    0    0 -0.00000000000E+00 -0.00000000000E+00 -0.74505805969E-08  0.93827000000E+00  0.93827000000E+00 0. -1.
     999902    2    1    2    0    0  0.46536331144E-02 -0.15053656588E-02 -0.22985842037E-01  0.10204295455E+01  0.10201589023E+01 0.  0.
     999903    2    3    3    0    0 -0.59254909389E-01  0.11275983141E+00 -0.21179438842E-01  0.13074190361E+00  0.20468338079E-01 0.  0.
         14    1    1    2    0    0 -0.46536331144E-02  0.15053656588E-02  0.22985842037E-01  0.23500454487E-01  0.00000000000E+00 0. -1.
     999901    1    3    3    0    0  0.63908542503E-01 -0.11426519707E+00 -0.18064031955E-02  0.88968764190E+00  0.88000000000E+00 0.  1.
        -11    1    4    4    0    0 -0.33678948463E-01  0.47676039803E-01 -0.16468985967E-01  0.60652823188E-01  0.51100000000E-03 0. -1.
         11    1    4    4    0    0 -0.25575960926E-01  0.65083791604E-01 -0.47104528748E-02  0.70089080420E-01  0.51100000000E-03 0.  1.
</event>
<event>
 8    1  0.1074844E+005  0.1043930E+01  0.7957747E-01            NaN
         13   -1    0    0    0    0  0.00000000000E+00  0.00000000000E+00  0.74505805969E-08  0.10566000000E+00  0.10566000000E+00 0.  1.
     999900   -1    0    0    0    0 -0.00000000000E+00 -0.00000000000E+00 -0.74505805969E-08  0.93827000000E+00  0.93827000000E+00 0.  1.
     999902    2    1    2    0    0  0.17039161579E-02  0.22790807075E-01 -0.86790848606E-02  0.10194831038E+01  0.10191899471E+01 0.  0.
     999903    2    3    3    0    0 -0.42975535441E-01  0.12320967581E+00  0.10846403547E-01  0.13243099304E+00  0.19819247898E-01 0.  0.
         14    1    1    2    0    0 -0.17039161579E-02 -0.22790807075E-01  0.86790848606E-02  0.24446896151E-01  0.00000000000E+00 0.  1.
     999901    1    3    3    0    0  0.44679451599E-01 -0.10041886874E+00 -0.19525488408E-01  0.88705211081E+00  0.88000000000E+00 0. -1.
        -11    1    4    4    0    0 -0.99097280803E-02  0.39744205032E-01 -0.49897644687E-02  0.41266977291E-01  0.51100000000E-03 0.  1.
         11    1    4    4    0    0 -0.33065807360E-01  0.83465470781E-01  0.15836168016E-01  0.91164015749E-01  0.51100000000E-03 0. -1.
</event>
<event>
 8    1  0.1074844E+005  0.1043930E+01  0.7957747E-01            NaN
         13   -1    0    0    0    0  0.00000000000E+00  0.00000000000E+00  0.74505805969E-08  0.10566000000E+00  0.10566000000E+00 0. -1.
     999900   -1    0    0    0    0 -0.00000000000E+00 -0.00000000000E+00 -0.74505805969E-08  0.93827000000E+00  0.93827000000E+00 0. -1.
     999902    2    1    2    0    0 -0.13861381444E-01  0.13312909260E-01  0.15036952770E-01  0.10195275125E+01  0.10192354327E+01 0.  0.
     999903    2    3    3    0    0  0.89122199149E-01  0.10661753988E-01 -0.88432431711E-01  0.12749693003E+00  0.19461058823E-01 0.  0.
         14    1    1    2    0    0  0.13861381444E-01 -0.13312909260E-01 -0.15036952770E-01  0.24402487519E-01  0.00000000000E+00 0.  1.
     999901    1    3    3    0    0 -0.10298358059E+00  0.26511552720E-02  0.10346938448E+00  0.89203058245E+00  0.88000000000E+00 0.  1.
        -11    1    4    4    0    0  0.49090838766E-01 -0.34749620726E-02 -0.51326313310E-01  0.71110037064E-01  0.51100000000E-03 0. -1.
         11    1    4    4    0    0  0.40031360382E-01  0.14136716061E-01 -0.37106118401E-01  0.56386892970E-01  0.51100000000E-03 0.  1.
</event>
<event>
 8    1  0.1074844E+005  0.1043930E+01  0.7957747E-01            NaN
         13   -1    0    0    0    0  0.00000000000E+00  0.00000000000E+00  0.74505805969E-08  0.10566000000E+00  0.10566000000E+00 0.  1.
     999900   -1    0    0    0    0 -0.00000000000E+00 -0.00000000000E+00 -0.74505805969E-08  0.93827000000E+00  0.93827000000E+00 0.  1.
     999902    2    1    2    0    0  0.33718644918E-02  0.12907519581E-01 -0.18130967375E-01  0.10214198798E+01  0.10211718099E+01 0.  0.
     999903    2    3    3    0    0 -0.50708270483E-01  0.11955558480E+00 -0.22966760880E-01  0.13331974150E+00  0.19540082318E-01 0.  0.
         14    1    1    2    0    0 -0.33718644918E-02 -0.12907519581E-01  0.18130967375E-01  0.22510120165E-01  0.00000000000E+00 0.  1.
     999901    1    3    3    0    0  0.54080134975E-01 -0.10664806522E+00  0.48357935052E-02  0.88810013834E+00  0.88000000000E+00 0. -1.
        -11    1    4    4    0    0 -0.16345779322E-01  0.63290584599E-01 -0.10079539039E-01  0.66141823597E-01  0.51100000000E-03 0.  1.
         11    1    4    4    0    0 -0.34362491161E-01  0.56265000196E-01 -0.12887221841E-01  0.67177917902E-01  0.51100000000E-03 0. -1.
</event>
<event>
 8    1  0.1074844E+005  0.1043930E+01  0.7957747E-01            NaN
         13   -1    0    0    0    0  0.00000000000E+00  0.00000000000E+00  0.74505805969E-08  0.10566000000E+00  0.10566000000E+00 0. -1.
     999900   -1    0    0    0    0 -0.00000000000E+00 -0.00000000000E+00 -0.74505805969E-08  0.93827000000E+00  0.93827000000E+00 0.  1.
     999902    2    1    2    0    0  0.11149683035E-02 -0.10663525543E-01  0.22614863422E-01  0.10189022958E+01  0.10185948666E+01 0.  0.
     999903    2    3    3    0    0  0.34011904390E-01 -0.53214952209E-01 -0.10881622497E+00  0.12751743876E+00  0.20762600810E-01 0.  0.
         14    1    1    2    0    0 -0.11149683035E-02  0.10663525543E-01 -0.22614863422E-01  0.25027704228E-01  0.00000000000E+00 0.  1.
     999901    1    3    3    0    0 -0.32896936086E-01  0.42551426666E-01  0.13143108839E+00  0.89138485701E+00  0.88000000000E+00 0. -1.
        -11    1    4    4    0    0  0.56130827538E-02 -0.15313921424E-01 -0.46261088181E-01  0.49054788635E-01  0.51100000000E-03 0.  1.
         11    1    4    4    0    0  0.28398821636E-01 -0.37901030785E-01 -0.62555136789E-01  0.78462650125E-01  0.51100000000E-03 0. -1.
</event>
<event>
 8    1  0.1074844E+005  0.1043930E+01  0.7957747E-01            NaN
         13   -1    0    0    0    0  0.00000000000E+00  0.00000000000E+00  0.74505805969E-08  0.10566000000E+00  0.10566000000E+00 0. -1.
     999900   -1    0    0    0    0 -0.00000000000E+00 -0.00000000000E+00 -0.74505805969E-08  0.93827000000E+00  0.93827000000E+00 0.  1.
     999902    2    1    2    0    0 -0.13375589417E-01 -0.16839700705E-01  0.73603062242E-02  0.10211999314E+01  0.10209469349E+01 0.  0.
     999903    2    3    3    0    0  0.61947495888E-01  0.43409880969E-02 -0.11201094629E+00  0.12970024843E+00  0.20478425943E-01 0.  0.
         14    1    1    2    0    0  0.13375589417E-01  0.16839700705E-01 -0.73603062242E-02  0.22730068627E-01  0.00000000000E+00 0. -1.
     999901    1    3    3    0    0 -0.75323085305E-01 -0.21180688802E-01  0.11937125252E+00  0.89149968294E+00  0.88000000000E+00 0. -1.
        -11    1    4    4    0    0  0.28912006628E-01 -0.32958025734E-02 -0.69308685291E-01  0.75171280550E-01  0.51100000000E-03 0.  1.
         11    1    4    4    0    0  0.33035489260E-01  0.76367906703E-02 -0.42702261003E-01  0.54528967881E-01  0.51100000000E-03 0. -1.
</event>
<event>
 8    1  0.1074844E+005  0.1043930E+01  0.7957747E-01            NaN
         13   -1    0    0    0    0  0.00000000000E+00  0.00000000000E+00  0.74505805969E-08  0.10566000000E+00  0.10566000000E+00 0. -1.
     999900   -1    0    0    0    0 -0.00000000000E+00 -0.00000000000E+00 -0.74505805969E-08  0.93827000000E+00  0.93827000000E+00 0.  1.
     999902    2    1    2    0    0  0.12545518397E-01  0.17188385951E-01  0.97468873557E-02  0.10205241790E+01  0.10202557363E+01 0.  0.
     999903    2    3    3    0    0 -0.30838413103E-01  0.85060055184E-01 -0.92466078593E-01  0.13095337271E+00  0.20312297348E-01 0.  0.
         14    1    1    2    0    0 -0.12545518397E-01 -0.17188385951E-01 -0.97468873557E-02  0.23405820997E-01  0.00000000000E+00 0.  1.
     999901    1    3    3    0    0  0.43383931500E-01 -0.67871669233E-01  0.10221296595E+00  0.88957080629E+00  0.88000000000E+00 0. -1.
        -11    1    4    4    0    0 -0.17012002308E-01  0.65459658130E-01 -0.76614181639E-01  0.10219769574E+00  0.51100000000E-03 0. -1.
         11    1    4    4    0    0 -0.13826410795E-01  0.19600397054E-01 -0.15851896954E-01  0.28755676973E-01  0.51100000000E-03 0.  1.
</event>
<event>
 8    1  0.1074844E+005  0.1043930E+01  0.7957747E-01            NaN
         13   -1    0    0    0    0  0.00000000000E+00  0.00000000000E+00  0.74505805969E-08  0.10566000000E+00  0.10566000000E+00 0. -1.
     999900   -1    0    0    0    0 -0.00000000000E+00 -0.00000000000E+00 -0.74505805969E-08  0.93827000000E+00  0.93827000000E+00 0.  1.
     999902    2    1    2    0    0  0.13417095014E-01  0.76360959834E-02 -0.13521214258E-01  0.10234080207E+01  0.10232022406E+01 0.  0.
     999903    2    3    3    0    0  0.77148666463E-01  0.74273891792E-01  0.77831595067E-01  0.13388700080E+00  0.19986096490E-01 0.  0.
         14    1    1    2    0    0 -0.13417095014E-01 -0.76360959834E-02  0.13521214258E-01  0.20521979327E-01  0.00000000000E+00 0. -1.
     999901    1    3    3    0    0 -0.63731571449E-01 -0.66637795809E-01 -0.91352809324E-01  0.88952101988E+00  0.88000000000E+00 0.  1.
        -11    1    4    4    0    0  0.65577597884E-01  0.51740494644E-01  0.61739809694E-01  0.10387283260E+00  0.51100000000E-03 0.  1.
         11    1    4    4    0    0  0.11571068578E-01  0.22533397149E-01  0.16091785372E-01  0.30014168197E-01  0.51100000000E-03 0. -1.
</event>
<event>
 8    1  0.1074844E+005  0.1043930E+01  0.7957747E-01            NaN
         13   -1    0    0    0    0  0.00000000000E+00  0.00000000000E+00  0.74505805969E-08  0.10566000000E+00  0.10566000000E+00 0. -1.
     999900   -1    0    0    0    0 -0.00000000000E+00 -0.00000000000E+00 -0.74505805969E-08  0.93827000000E+00  0.93827000000E+00 0. -1.
     999902    2    1    2    0    0 -0.41090389279E-02 -0.23410517723E-01 -0.65031880217E-02  0.10192880034E+01  0.10189900912E+01 0.  0.
     999903    2    3    3    0    0 -0.11734767811E+00 -0.32382684049E-01  0.44493954058E-01  0.13052245634E+00  0.15404021486E-01 0.  0.
         14    1    1    2    0    0  0.41090389279E-02  0.23410517723E-01  0.65031880217E-02  0.24641996580E-01  0.00000000000E+00 0. -1.
     999901    1    3    3    0    0  0.11323863918E+00  0.89721663254E-02 -0.50997142080E-01  0.88876554708E+00  0.88000000000E+00 0. -1.
        -11    1    4    4    0    0 -0.38440234519E-01 -0.32331800195E-02  0.13489418100E-01  0.40869678303E-01  0.51100000000E-03 0. -1.
         11    1    4    4    0    0 -0.78907443591E-01 -0.29149504029E-01  0.31004535959E-01  0.89652778040E-01  0.51100000000E-03 0.  1.
</event>
<event>
 8    1  0.1074844E+005  0.1043930E+01  0.7957747E-01            NaN
         13   -1    0    0    0    0  0.00000000000E+00  0.00000000000E+00  0.74505805969E-08  0.10566000000E+00  0.10566000000E+00 0.  1.
     999900   -1    0    0    0    0 -0.00000000000E+00 -0.00000000000E+00 -0.74505805969E-08  0.93827000000E+00  0.93827000000E+00 0. -1.
     999902    2    1    2    0    0 -0.23772220410E-01 -0.35579042294E-02  0.58581789942E-02  0.10191894380E+01  0.10188891084E+01 0.  0.
     999903    2    3    3    0    0 -0.62458461725E-01 -0.42482621182E-01 -0.10446039165E+00  0.13060520123E+00  0.20974094044E-01 0.  0.
         14    1    1    2    0    0  0.23772220410E-01  0.35579042294E-02 -0.58581789942E-02  0.24740561975E-01  0.00000000000E+00 0. -1.
     999901    1    3    3    0    0  0.38686241315E-01  0.38924716952E-01  0.11031857064E+00  0.88858423680E+00  0.88000000000E+00 0.  1.
        -11    1    4    4    0    0 -0.44606095123E-01 -0.28111920464E-01 -0.87230693607E-01  0.10192859669E+00  0.51100000000E-03 0.  1.
         11    1    4    4    0    0 -0.17852366602E-01 -0.14370700718E-01 -0.17229698039E-01  0.28676604540E-01  0.51100000000E-03 0. -1.
</event>
<event>
 8    1  0.1074844E+005  0.1043930E+01  0.7957747E-01            NaN
         13   -1    0    0    0    0  0.00000000000E+00  0.00000000000E+00  0.74505805969E-08  0.10566000000E+00  0.10566000000E+00 0.  1.
     999900   -1    0    0    0    0 -0.00000000000E+00 -0.00000000000E+00 -0.74505805969E-08  0.93827000000E+00  0.93827000000E+00 0.  1.
     999902    2    1    2    0    0  0.19873877006E-02 -0.42746754862E-02 -0.22905006778E-01  0.10205449215E+01  0.10202769599E+01 0.  0.
     999903    2    3    3    0    0  0.88275837391E-01  0.92657228327E-01 -0.20115017517E-01  0.13102298554E+00  0.19606717805E-01 0.  0.
         14    1    1    2    0    0 -0.19873877006E-02  0.42746754862E-02  0.22905006778E-01  0.23385078488E-01  0.00000000000E+00 0.  1.
     999901    1    3    3    0    0 -0.86288449690E-01 -0.96931903813E-01 -0.27899892614E-02  0.88952193597E+00  0.88000000000E+00 0. -1.
        -11    1    4    4    0    0  0.35382672310E-01  0.49579306762E-01 -0.14226933196E-01  0.62551641929E-01  0.51100000000E-03 0.  1.
         11    1    4    4    0    0  0.52893165081E-01  0.43077921565E-01 -0.58880843204E-02  0.68471343616E-01  0.51100000000E-03 0. -1.
</event>
<event>
 8    1  0.1074844E+005  0.1043930E+01  0.7957747E-01            NaN
         13   -1    0    0    0    0  0.00000000000E+00  0.00000000000E+00  0.74505805969E-08  0.10566000000E+00  0.10566000000E+00 0.  1.
     999900   -1    0    0    0    0 -0.00000000000E+00 -0.00000000000E+00 -0.74505805969E-08  0.93827000000E+00  0.93827000000E+00 0. -1.
     999902    2    1    2    0    0  0.22492759438E-01  0.85140523531E-02  0.93278072632E-03  0.10198616932E+01  0.10195776526E+01 0.  0.
     999903    2    3    3    0    0  0.45014364772E-01 -0.89268191470E-01  0.81452358038E-01  0.13050687518E+00  0.20061276041E-01 0.  0.
         14    1    1    2    0    0 -0.22492759438E-01 -0.85140523531E-02 -0.93278072632E-03  0.24068306847E-01  0.00000000000E+00 0. -1.
     999901    1    3    3    0    0 -0.22521605334E-01  0.97782243823E-01 -0.80519577311E-01  0.88935481797E+00  0.88000000000E+00 0. -1.
        -11    1    4    4    0    0  0.36410237396E-01 -0.51401657373E-01  0.53687880661E-01  0.82767659257E-01  0.51100000000E-03 0. -1.
         11    1    4    4    0    0  0.86041273755E-02 -0.37866534097E-01  0.27764477376E-01  0.47739215927E-01  0.51100000000E-03 0.  1.
</event>
<event>
 8    1  0.1074844E+005  0.1043930E+01  0.7957747E-01            NaN
         13   -1    0    0    0    0  0.00000000000E+00  0.00000000000E+00  0.74505805969E-08  0.10566000000E+00  0.10566000000E+00 0. -1.
     999900   -1    0    0    0    0 -0.00000000000E+00 -0.00000000000E+00 -0.74505805969E-08  0.93827000000E+00  0.93827000000E+00 0. -1.
     999902    2    1    2    0    0  0.20634683545E-01  0.12761147284E-01 -0.82454547687E-02  0.10183053133E+01  0.10179828518E+01 0.  0.
     999903    2    3    3    0    0  0.77139068508E-01  0.50184672844E-01  0.89817493506E-01  0.13026837283E+00  0.20826174425E-01 0.  0.
         14    1    1    2    0    0 -0.20634683545E-01 -0.12761147284E-01  0.82454547687E-02  0.25624686717E-01  0.00000000000E+00 0.  1.
     999901    1    3    3    0    0 -0.56504384963E-01 -0.37423525560E-01 -0.98062948275E-01  0.88803694045E+00  0.88000000000E+00 0. -1.
        -11    1    4    4    0    0  0.61709575413E-01  0.39030534424E-01  0.58276586942E-01  0.93423102184E-01  0.51100000000E-03 0. -1.
         11    1    4    4    0    0  0.15429493095E-01  0.11154138421E-01  0.31540906564E-01  0.36845270646E-01  0.51100000000E-03 0.  1.
</event>
<event>
 8    1  0.1074844E+005  0.1043930E+01  0.7957747E-01            NaN
         13   -1    0    0    0    0  0.00000000000E+00  0.00000000000E+00  0.74505805969E-08  0.10566000000E+00  0.10566000000E+00 0. -1.
     999900   -1    0    0    0    0 -0.00000000000E+00 -0.00000000000E+00 -0.74505805969E-08  0.93827000000E+00  0.93827000000E+00 0.  1.
     999902    2    1    2    0    0  0.21333966333E-01  0.70407112039E-02  0.73921260867E-02  0.10202793497E+01  0.10200051951E+01 0.  0.
     999903    2    3    3    0    0  0.26497773302E-01  0.11781768795E+00  0.50221589472E-01  0.13228578751E+00  0.19854015779E-01 0.  0.
         14    1    1    2    0    0 -0.21333966333E-01 -0.70407112039E-02 -0.73921260867E-02  0.23650650347E-01  0.00000000000E+00 0.  1.
     999901    1    3    3    0    0 -0.51638069686E-02 -0.11077697675E+00 -0.42829463385E-01  0.88799356215E+00  0.88000000000E+00 0.  1.
        -11    1    4    4    0    0  0.22991974977E-01  0.74415682629E-01  0.39986035839E-01  0.87552663681E-01  0.51100000000E-03 0. -1.
         11    1    4    4    0    0  0.35057983252E-02  0.43402005323E-01  0.10235553633E-01  0.44733123825E-01  0.51100000000E-03 0.  1.
</event>
<event>
 8    1  0.1074844E+005  0.1043930E+01  0.7957747E-01            NaN
         13   -1    0    0    0    0  0.00000000000E+00  0.00000000000E+00  0.74505805969E-08  0.10566000000E+00  0.10566000000E+00 0. -1.
     999900   -1    0    0    0    0 -0.00000000000E+00 -0.00000000000E+00 -0.74505805969E-08  0.93827000000E+00  0.93827000000E+00 0. -1.
     999902    2    1    2    0    0  0.21309462414E-02 -0.22901232475E-01  0.24999611198E-02  0.10207943741E+01  0.10205321636E+01 0.  0.
     999903    2    3    3    0    0  0.64179930363E-01  0.75665522045E-01 -0.80346613395E-01  0.12926252584E+00  0.20220969693E-01 0.  0.
         14    1    1    2    0    0 -0.21309462414E-02  0.22901232475E-01 -0.24999611198E-02  0.23135625912E-01  0.00000000000E+00 0. -1.
     999901    1    3    3    0    0 -0.62048984121E-01 -0.98566754520E-01  0.82846574515E-01  0.89153184825E+00  0.88000000000E+00 0.  1.
        -11    1    4    4    0    0  0.40153698988E-01  0.61033405454E-01 -0.55939279854E-01  0.92015543661E-01  0.51100000000E-03 0.  1.
         11    1    4    4    0    0  0.24026231375E-01  0.14632116592E-01 -0.24407333541E-01  0.37246982181E-01  0.51100000000E-03 0. -1.
</event>
<event>
 8    1  0.1074844E+005  0.1043930E+01  0.7957747E-01            NaN
         13   -1    0    0    0    0  0.00000000000E+00  0.00000000000E+00  0.74505805969E-08  0.10566000000E+00  0.10566000000E+00 0.  1.
     999900   -1    0    0    0    0 -0.00000000000E+00 -0.00000000000E+00 -0.74505805969E-08  0.93827000000E+00  0.93827000000E+00 0.  1.
     999902    2    1    2    0    0 -0.10955042819E-01 -0.12334338089E-02 -0.20651530264E-01  0.10205201725E+01  0.10202516368E+01 0.  0.
     999903    2    3    3    0    0 -0.69113581339E-01  0.72501199859E-01 -0.85207439738E-01  0.13317205745E+00  0.21008997887E-01 0.  0.
         14    1    1    2    0    0  0.10955042819E-01  0.12334338089E-02  0.20651530264E-01  0.23409827517E-01  0.00000000000E+00 0.  1.
     999901    1    3    3    0    0  0.58158538520E-01 -0.73734633668E-01  0.64555909474E-01  0.88734811503E+00  0.88000000000E+00 0. -1.
        -11    1    4    4    0    0 -0.54754214674E-01  0.43807273232E-01 -0.55293488573E-01  0.89301356161E-01  0.51100000000E-03 0. -1.
         11    1    4    4    0    0 -0.14359366665E-01  0.28693926627E-01 -0.29913951165E-01  0.43870701289E-01  0.51100000000E-03 0.  1.
</event>
<event>
 8    1  0.1074844E+005  0.1043930E+01  0.7957747E-01            NaN
         13   -1    0    0    0    0  0.00000000000E+00  0.00000000000E+00  0.74505805969E-08  0.10566000000E+00  0.10566000000E+00 0.  1.
     999900   -1    0    0    0    0 -0.00000000000E+00 -0.00000000000E+00 -0.74505805969E-08  0.93827000000E+00  0.93827000000E+00 0. -1.
     999902    2    1    2    0    0 -0.58160651771E-03 -0.14973132720E-01  0.17889350661E-01  0.10205941513E+01  0.10203273297E+01 0.  0.
     999903    2    3    3    0    0 -0.10947538484E+00 -0.44868617848E-01  0.56309112496E-01  0.13254703928E+00  0.19998717900E-01 0.  0.
         14    1    1    2    0    0  0.58160651771E-03  0.14973132720E-01 -0.17889350661E-01  0.23335848745E-01  0.00000000000E+00 0. -1.
     999901    1    3    3    0    0  0.10889377832E+00  0.29895485127E-01 -0.38419761836E-01  0.88804711198E+00  0.88000000000E+00 0.  1.
        -11    1    4    4    0    0 -0.72720760827E-01 -0.39436464114E-01  0.41425818744E-01  0.92519745659E-01  0.51100000000E-03 0. -1.
         11    1    4    4    0    0 -0.36754624015E-01 -0.54321537332E-02  0.14883293752E-01  0.40027293620E-01  0.51100000000E-03 0.  1.
</event>
<event>
 8    1  0.1074844E+005  0.1043930E+01  0.7957747E-01            NaN
         13   -1    0    0    0    0  0.00000000000E+00  0.00000000000E+00  0.74505805969E-08  0.10566000000E+00  0.10566000000E+00 0. -1.
     999900   -1    0    0    0    0 -0.00000000000E+00 -0.00000000000E+00 -0.74505805969E-08  0.93827000000E+00  0.93827000000E+00 0.  1.
     999902    2    1    2    0    0 -0.12416973142E-01  0.17985452136E-01  0.92233747360E-02  0.10202081040E+01  0.10199322757E+01 0.  0.
     999903    2    3    3    0    0 -0.71180122663E-01  0.74768780433E-01  0.82105316884E-01  0.13342220442E+00  0.20080368094E-01 0.  0.
         14    1    1    2    0    0  0.12416973142E-01 -0.17985452136E-01 -0.92233747360E-02  0.23721896047E-01  0.00000000000E+00 0.  1.
     999901    1    3    3    0    0  0.58763149522E-01 -0.56783328297E-01 -0.72881942148E-01  0.88678589953E+00  0.88000000000E+00 0. -1.
        -11    1    4    4    0    0 -0.43682241064E-01  0.44332949273E-01  0.36800862401E-01  0.72305692515E-01  0.51100000000E-03 0.  1.
         11    1    4    4    0    0 -0.27497881600E-01  0.30435831159E-01  0.45304454483E-01  0.61116511908E-01  0.51100000000E-03 0. -1.
</event>
<event>
 8    1  0.1074844E+005  0.1043930E+01  0.7957747E-01            NaN
         13   -1    0    0    0    0  0.00000000000E+00  0.00000000000E+00  0.74505805969E-08  0.10566000000E+00  0.10566000000E+00 0. -1.
     999900   -1    0    0    0    0 -0.00000000000E+00 -0.00000000000E+00 -0.74505805969E-08  0.93827000000E+00  0.93827000000E+00 0.  1.
     999902    2    1    2    0    0  0.58642655589E-02  0.11075829370E-01 -0.26402829748E-01  0.10147037614E+01  0.10142827763E+01 0.  0.
     999903    2    3    3    0    0 -0.11223494361E+00 -0.32276085267E-02  0.47743770045E-01  0.12360908075E+00  0.19815076134E-01 0.  0.
         14    1    1    2    0    0 -0.58642655589E-02 -0.11075829370E-01  0.26402829748E-01  0.29226238647E-01  0.00000000000E+00 0. -1.
     999901    1    3    3    0    0  0.11809920917E+00  0.14303437896E-01 -0.74146599793E-01  0.89109468060E+00  0.88000000000E+00 0.  1.
        -11    1    4    4    0    0 -0.89810831280E-01 -0.64522818039E-02  0.30275866543E-01  0.94997402973E-01  0.51100000000E-03 0.  1.
         11    1    4    4    0    0 -0.22424112326E-01  0.32246732772E-02  0.17467903501E-01  0.28611677775E-01  0.51100000000E-03 0. -1.
</event>
<event>
 8    1  0.1074844E+005  0.1043930E+01  0.7957747E-01            NaN
         13   -1    0    0    0    0  0.00000000000E+00  0.00000000000E+00  0.74505805969E-08  0.10566000000E+00  0.10566000000E+00 0. -1.
     999900   -1    0    0    0    0 -0.00000000000E+00 -0.00000000000E+00 -0.74505805969E-08  0.93827000000E+00  0.93827000000E+00 0.  1.
     999902    2    1    2    0    0 -0.12164317386E-03  0.63122539827E-02 -0.22431011599E-01  0.10206274330E+01  0.10203613808E+01 0.  0.
     999903    2    3    3    0    0 -0.12495272746E+00  0.29039352898E-01 -0.21283876975E-01  0.13152640581E+00  0.19741425722E-01 0.  0.
         14    1    1    2    0    0  0.12164317386E-03 -0.63122539827E-02  0.22431011599E-01  0.23302566999E-01  0.00000000000E+00 0. -1.
     999901    1    3    3    0    0  0.12483108429E+00 -0.22727098915E-01 -0.11471346236E-02  0.88910102719E+00  0.88000000000E+00 0.  1.
        -11    1    4    4    0    0 -0.30603562510E-02 -0.23740957415E-02 -0.91952403115E-03  0.40135715288E-02  0.51100000000E-03 0. -1.
         11    1    4    4    0    0 -0.12189237121E+00  0.31413448639E-01 -0.20364352944E-01  0.12751283428E+00  0.51100000000E-03 0.  1.
</event>
<event>
 8    1  0.1074844E+005  0.1043930E+01  0.7957747E-01            NaN
         13   -1    0    0    0    0  0.00000000000E+00  0.00000000000E+00  0.74505805969E-08  0.10566000000E+00  0.10566000000E+00 0.  1.
     999900   -1    0    0    0    0 -0.00000000000E+00 -0.00000000000E+00 -0.74505805969E-08  0.93827000000E+00  0.93827000000E+00 0. -1.
     999902    2    1    2    0    0  0.13097583823E-01  0.19446262683E-02  0.18216747695E-01  0.10214093834E+01  0.10211610796E+01 0.  0.
     999903    2    3    3    0    0 -0.89692559676E-02 -0.11720296906E+00 -0.52681419095E-01  0.13028108463E+00  0.19515265484E-01 0.  0.
         14    1    1    2    0    0 -0.13097583823E-01 -0.19446262683E-02 -0.18216747695E-01  0.22520616553E-01  0.00000000000E+00 0.  1.
     999901    1    3    3    0    0  0.22066839791E-01  0.11914759533E+00  0.70898166790E-01  0.89112829881E+00  0.88000000000E+00 0.  1.
        -11    1    4    4    0    0 -0.12608395367E-01 -0.10175327420E+00 -0.40397753468E-01  0.11020408364E+00  0.51100000000E-03 0. -1.
         11    1    4    4    0    0  0.36391393994E-02 -0.15449694858E-01 -0.12283665627E-01  0.20077000996E-01  0.51100000000E-03 0.  1.
</event>
<event>
 8    1  0.1074844E+005  0.1043930E+01  0.7957747E-01            NaN
         13   -1    0    0    0    0  0.00000000000E+00  0.00000000000E+00  0.74505805969E-08  0.10566000000E+00  0.10566000000E+00 0. -1.
     999900   -1    0    0    0    0 -0.00000000000E+00 -0.00000000000E+00 -0.74505805969E-08  0.93827000000E+00  0.93827000000E+00 0.  1.
     999902    2    1    2    0    0 -0.56290108158E-03 -0.43326707377E-02 -0.23395733724E-01  0.10201298057E+01  0.10198521320E+01 0.  0.
     999903    2    3    3    0    0  0.10242635321E+00  0.72426156088E-01 -0.34079255581E-01  0.13074077852E+00  0.13966015442E-01 0.  0.
         14    1    1    2    0    0  0.56290108158E-03  0.43326707377E-02  0.23395733724E-01  0.23800194323E-01  0.00000000000E+00 0. -1.
     999901    1    3    3    0    0 -0.10298925430E+00 -0.76758826826E-01  0.10683521857E-01  0.88938902716E+00  0.88000000000E+00 0. -1.
        -11    1    4    4    0    0  0.67328370955E-01  0.43945943180E-01 -0.15574547279E-01  0.81897393740E-01  0.51100000000E-03 0. -1.
         11    1    4    4    0    0  0.35097982259E-01  0.28480212909E-01 -0.18504708302E-01  0.48843384776E-01  0.51100000000E-03 0.  1.
</event>
<event>
 8    1  0.1074844E+005  0.1043930E+01  0.7957747E-01            NaN
         13   -1    0    0    0    0  0.00000000000E+00  0.00000000000E+00  0.74505805969E-08  0.10566000000E+00  0.10566000000E+00 0. -1.
     999900   -1    0    0    0    0 -0.00000000000E+00 -0.00000000000E+00 -0.74505805969E-08  0.93827000000E+00  0.93827000000E+00 0.  1.
     999902    2    1    2    0    0 -0.12810152352E-01  0.20578436059E-01 -0.64178539959E-02  0.10188548951E+01  0.10185462859E+01 0.  0.
     999903    2    3    3    0    0  0.12046534752E+00 -0.14193494662E-01 -0.34356628710E-01  0.12770281992E+00  0.20353796579E-01 0.  0.
         14    1    1    2    0    0  0.12810152352E-01 -0.20578436059E-01  0.64178539959E-02  0.25075104862E-01  0.00000000000E+00 0.  1.
     999901    1    3    3    0    0 -0.13327549987E+00  0.34771930721E-01  0.27938774714E-01  0.89115207522E+00  0.88000000000E+00 0. -1.
        -11    1    4    4    0    0  0.48152133704E-01 -0.78321104075E-03 -0.46611577132E-02  0.48386247137E-01  0.51100000000E-03 0.  1.
         11    1    4    4    0    0  0.72313213817E-01 -0.13410283621E-01 -0.29695470997E-01  0.79316572783E-01  0.51100000000E-03 0. -1.
</event>
<event>
 8    1  0.1074844E+005  0.1043930E+01  0.7957747E-01            NaN
         13   -1    0    0    0    0  0.00000000000E+00  0.00000000000E+00  0.74505805969E-08  0.10566000000E+00  0.10566000000E+00 0. -1.
     999900   -1    0    0    0    0 -0.00000000000E+00 -0.00000000000E+00 -0.74505805969E-08  0.93827000000E+00  0.93827000000E+00 0. -1.
     999902    2    1    2    0    0  0.14946435657E-01  0.12182306985E-01  0.10555033732E-01  0.10219478873E+01  0.10217114422E+01 0.  0.
     999903    2    3    3    0    0 -0.89872252776E-01 -0.51663690559E-01 -0.74786628913E-01  0.12934132881E+00  0.19747929851E-01 0.  0.
         14    1    1    2    0    0 -0.14946435657E-01 -0.12182306985E-01 -0.10555033732E-01  0.21982112715E-01  0.00000000000E+00 0. -1.
     999901    1    3    3    0    0  0.10481868843E+00  0.63845997544E-01  0.85341662645E-01  0.89260655847E+00  0.88000000000E+00 0.  1.
        -11    1    4    4    0    0 -0.42677079204E-01 -0.13905446893E-01 -0.27986667109E-01  0.52898102041E-01  0.51100000000E-03 0.  1.
         11    1    4    4    0    0 -0.47195173572E-01 -0.37758243666E-01 -0.46799961804E-01  0.76443226771E-01  0.51100000000E-03 0. -1.
</event>
<event>
 8    1  0.1074844E+005  0.1043930E+01  0.7957747E-01            NaN
         13   -1    0    0    0    0  0.00000000000E+00  0.00000000000E+00  0.74505805969E-08  0.10566000000E+00  0.10566000000E+00 0.  1.
     999900   -1    0    0    0    0 -0.00000000000E+00 -0.00000000000E+00 -0.74505805969E-08  0.93827000000E+00  0.93827000000E+00 0. -1.
     999902    2    1    2    0    0 -0.14030175643E-02  0.22852304634E-01  0.52201189026E-02  0.10204471142E+01  0.10201768802E+01 0.  0.
     999903    2    3    3    0    0 -0.26398405106E-01  0.11705325817E+00  0.55019406811E-01  0.13366723274E+00  0.21010781563E-01 0.  0.
         14    1    1    2    0    0  0.14030175643E-02 -0.22852304634E-01 -0.52201189026E-02  0.23482885826E-01  0.00000000000E+00 0.  1.
     999901    1    3    3    0    0  0.24995387542E-01 -0.94200953534E-01 -0.49799287908E-01  0.88677988144E+00  0.88000000000E+00 0. -1.
        -11    1    4    4    0    0 -0.16970938600E-01  0.33348641497E-01  0.13777848354E-01  0.39877749095E-01  0.51100000000E-03 0. -1.
         11    1    4    4    0    0 -0.94274665054E-02  0.83704616671E-01  0.41241558457E-01  0.93789483641E-01  0.51100000000E-03 0.  1.
</event>
<event>
 8    1  0.1074844E+005  0.1043930E+01  0.7957747E-01            NaN
         13   -1    0    0    0    0  0.00000000000E+00  0.00000000000E+00  0.74505805969E-08  0.10566000000E+00  0.10566000000E+00 0. -1.
     999900   -1    0    0    0    0 -0.00000000000E+00 -0.00000000000E+00 -0.74505805969E-08  0.93827000000E+00  0.93827000000E+00 0. -1.
     999902    2    1    2    0    0 -0.37205099934E-02 -0.29248785225E-01 -0.69914663066E-02  0.10136279500E+01  0.10131749142E+01 0.  0.
     999903    2    3    3    0    0  0.24124824285E-01 -0.96491207922E-01  0.75915774891E-01  0.12673984169E+00  0.20179748320E-01 0.  0.
         14    1    1    2    0    0  0.37205099934E-02  0.29248785225E-01  0.69914663066E-02  0.30302049978E-01  0.00000000000E+00 0. -1.
     999901    1    3    3    0    0 -0.27845334278E-01  0.67242422697E-01 -0.82907241198E-01  0.88688810833E+00  0.88000000000E+00 0. -1.
        -11    1    4    4    0    0  0.41695728625E-02 -0.33210803419E-01  0.36654886264E-01  0.49640554082E-01  0.51100000000E-03 0. -1.
         11    1    4    4    0    0  0.19955251423E-01 -0.63280404503E-01  0.39260888627E-01  0.77099287612E-01  0.51100000000E-03 0.  1.
</event>
<event>
 8    1  0.1074844E+005  0.1043930E+01  0.7957747E-01            NaN
         13   -1    0    0    0    0  0.00000000000E+00  0.00000000000E+00  0.74505805969E-08  0.10566000000E+00  0.10566000000E+00 0.  1.
     999900   -1    0    0    0    0 -0.00000000000E+00 -0.00000000000E+00 -0.74505805969E-08  0.93827000000E+00  0.93827000000E+00 0.  1.
     999902    2    1    2    0    0 -0.82779502391E-02  0.21233014728E-01  0.68459943714E-02  0.10201343489E+01  0.10198567824E+01 0.  0.
     999903    2    3    3    0    0  0.81839297016E-01 -0.64318004033E-01  0.73323767155E-01  0.12892203445E+00  0.20249443421E-01 0.  0.
         14    1    1    2    0    0  0.82779502391E-02 -0.21233014728E-01 -0.68459943714E-02  0.23795651147E-01  0.00000000000E+00 0.  1.
     999901    1    3    3    0    0 -0.90117247255E-01  0.85551018760E-01 -0.66477772784E-01  0.89121231440E+00  0.88000000000E+00 0. -1.
        -11    1    4    4    0    0  0.36007198638E-01 -0.31778606623E-01  0.22083958529E-01  0.52861711455E-01  0.51100000000E-03 0. -1.
         11    1    4    4    0    0  0.45832098378E-01 -0.32539397410E-01  0.51239808626E-01  0.76060322998E-01  0.51100000000E-03 0.  1.
</event>
<event>
 8    1  0.1074844E+005  0.1043930E+01  0.7957747E-01            NaN
         13   -1    0    0    0    0  0.00000000000E+00  0.00000000000E+00  0.74505805969E-08  0.10566000000E+00  0.10566000000E+00 0. -1.
     999900   -1    0    0    0    0 -0.00000000000E+00 -0.00000000000E+00 -0.74505805969E-08  0.93827000000E+00  0.93827000000E+00 0.  1.
     999902    2    1    2    0    0 -0.10166649303E-01  0.18895878749E-01  0.11122197022E-01  0.10197614614E+01  0.10194750217E+01 0.  0.
     999903    2    3    3    0    0 -0.10928365417E+00  0.63361653220E-01  0.34273919547E-01  0.13277928118E+00  0.22316356859E-01 0.  0.
         14    1    1    2    0    0  0.10166649303E-01 -0.18895878749E-01 -0.11122197022E-01  0.24168538606E-01  0.00000000000E+00 0. -1.
     999901    1    3    3    0    0  0.99117004866E-01 -0.44465774471E-01 -0.23151722525E-01  0.88698218021E+00  0.88000000000E+00 0.  1.
        -11    1    4    4    0    0 -0.66930455298E-01  0.27112346088E-01  0.23937606092E-01  0.76079138160E-01  0.51100000000E-03 0.  1.
         11    1    4    4    0    0 -0.42353198872E-01  0.36249307132E-01  0.10336313455E-01  0.56700143025E-01  0.51100000000E-03 0. -1.
</event>
<event>
 8    1  0.1074844E+005  0.1043930E+01  0.7957747E-01            NaN
         13   -1    0    0    0    0  0.00000000000E+00  0.00000000000E+00  0.74505805969E-08  0.10566000000E+00  0.10566000000E+00 0.  1.
     999900   -1    0    0    0    0 -0.00000000000E+00 -0.00000000000E+00 -0.74505805969E-08  0.93827000000E+00  0.93827000000E+00 0.  1.
     999902    2    1    2    0    0  0.22597654641E-01  0.11350163393E-02  0.45787428380E-02  0.10208452184E+01  0.10205841723E+01 0.  0.
     999903    2    3    3    0    0 -0.19910601511E-01  0.62807212714E-01  0.11170706500E+00  0.13118972939E+00  0.19776215630E-01 0.  0.
         14    1    1    2    0    0 -0.22597654641E-01 -0.11350163393E-02 -0.45787428380E-02  0.23084781640E-01  0.00000000000E+00 0. -1.
     999901    1    3    3    0    0  0.42508256152E-01 -0.61672196374E-01 -0.10712832216E+00  0.88965548897E+00  0.88000000000E+00 0.  1.
        -11    1    4    4    0    0 -0.22334935713E-01  0.40027812729E-01  0.76498972586E-01  0.89181999713E-01  0.51100000000E-03 0.  1.
         11    1    4    4    0    0  0.24243342027E-02  0.22779399985E-01  0.35208092416E-01  0.42007729676E-01  0.51100000000E-03 0. -1.
</event>
<event>
 8    1  0.1074844E+005  0.1043930E+01  0.7957747E-01            NaN
         13   -1    0    0    0    0  0.00000000000E+00  0.00000000000E+00  0.74505805969E-08  0.10566000000E+00  0.10566000000E+00 0.  1.
     999900   -1    0    0    0    0 -0.00000000000E+00 -0.00000000000E+00 -0.74505805969E-08  0.93827000000E+00  0.93827000000E+00 0. -1.
     999902    2    1    2    0    0  0.20639588749E-01 -0.10659765060E-01  0.70457110781E-02  0.10196552135E+01  0.10193662194E+01 0.  0.
     999903    2    3    3    0    0 -0.99706969823E-01 -0.68194449352E-01  0.39994588152E-01  0.12899300898E+00  0.21158131579E-01 0.  0.
         14    1    1    2    0    0 -0.20639588749E-01  0.10659765060E-01 -0.70457110781E-02  0.24274786497E-01  0.00000000000E+00 0. -1.
     999901    1    3    3    0    0  0.12034655857E+00  0.57534684292E-01 -0.32948877073E-01  0.89066220452E+00  0.88000000000E+00 0. -1.
        -11    1    4    4    0    0 -0.14953224833E-01 -0.19362277830E-01  0.11975356414E-01  0.27242742482E-01  0.51100000000E-03 0. -1.
         11    1    4    4    0    0 -0.84753744990E-01 -0.48832171522E-01  0.28019231738E-01  0.10175026650E+00  0.51100000000E-03 0.  1.
</event>
<event>
 8    1  0.1074844E+005  0.1043930E+01  0.7957747E-01            NaN
         13   -1    0    0    0    0  0.00000000000E+00  0.00000000000E+00  0.74505805969E-08  0.10566000000E+00  0.10566000000E+00 0. -1.
     999900   -1    0    0    0    0 -0.00000000000E+00 -0.00000000000E+00 -0.74505805969E-08  0.93827000000E+00  0.93827000000E+00 0.  1.
     999902    2    1    2    0    0  0.69582941384E-02 -0.49288124292E-02  0.20779981204E-01  0.10214685070E+01  0.10212215196E+01 0.  0.
     999903    2    3    3    0    0 -0.67299026148E-01 -0.80101839225E-01  0.80005576314E-01  0.13317080651E+00  0.19700454220E-01 0.  0.
         14    1    1    2    0    0 -0.69582941384E-02  0.49288124292E-02 -0.20779981204E-01  0.22461493007E-01  0.00000000000E+00 0.  1.
     999901    1    3    3    0    0  0.74257320286E-01  0.75173026796E-01 -0.59225595110E-01  0.88829770049E+00  0.88000000000E+00 0.  1.
        -11    1    4    4    0    0 -0.40482699446E-01 -0.53024792830E-01  0.61776334829E-01  0.90923342850E-01  0.51100000000E-03 0. -1.
         11    1    4    4    0    0 -0.26816326702E-01 -0.27077046396E-01  0.18229241485E-01  0.42247463657E-01  0.51100000000E-03 0.  1.
</event>
<event>
 8    1  0.1074844E+005  0.1043930E+01  0.7957747E-01            NaN
         13   -1    0    0    0    0  0.00000000000E+00  0.00000000000E+00  0.74505805969E-08  0.10566000000E+00  0.10566000000E+00 0. -1.
     999900   -1    0    0    0    0 -0.00000000000E+00 -0.00000000000E+00 -0.74505805969E-08  0.93827000000E+00  0.93827000000E+00 0. -1.
     999902    2    1    2    0    0  0.15588895762E-01  0.81587799955E-02 -0.11358898265E-01  0.10229871269E+01  0.10227727304E+01 0.  0.
     999903    2    3    3    0    0 -0.50345311441E-02  0.32136499642E-01  0.12615796245E+00  0.13174577705E+00  0.19570824402E-01 0.  0.
         14    1    1    2    0    0 -0.15588895762E-01 -0.81587799955E-02  0.11358898265E-01  0.20942873057E-01  0.00000000000E+00 0. -1.
     999901    1    3    3    0    0  0.20623426906E-01 -0.23977719646E-01 -0.13751686072E+00  0.89124134989E+00  0.88000000000E+00 0. -1.
        -11    1    4    4    0    0  0.58376068690E-02  0.17384598299E-01  0.46113681158E-01  0.49628969593E-01  0.51100000000E-03 0.  1.
         11    1    4    4    0    0 -0.10872138013E-01  0.14751901343E-01  0.80044281293E-01  0.82116807457E-01  0.51100000000E-03 0. -1.
</event>
<event>
 8    1  0.1074844E+005  0.1043930E+01  0.7957747E-01            NaN
         13   -1    0    0    0    0  0.00000000000E+00  0.00000000000E+00  0.74505805969E-08  0.10566000000E+00  0.10566000000E+00 0.  1.
     999900   -1    0    0    0    0 -0.00000000000E+00 -0.00000000000E+00 -0.74505805969E-08  0.93827000000E+00  0.93827000000E+00 0.  1.
     999902    2    1    2    0    0 -0.16578280207E-01 -0.69612647790E-04  0.16901352201E-01  0.10202551203E+01  0.10199803972E+01 0.  0.
     999903    2    3    3    0    0 -0.35391019644E-01  0.12356906409E+00  0.10679750636E-01  0.13139115444E+00  0.25054750457E-01 0.  0.
         14    1    1    2    0    0  0.16578280207E-01  0.69612647790E-04 -0.16901352201E-01  0.23674879657E-01  0.00000000000E+00 0. -1.
     999901    1    3    3    0    0  0.18812739437E-01 -0.12363867674E+00  0.62216015658E-02  0.88886396590E+00  0.88000000000E+00 0.  1.
        -11    1    4    4    0    0 -0.11992227265E-02  0.16540706274E-01  0.93076743885E-02  0.19024379693E-01  0.51100000000E-03 0.  1.
         11    1    4    4    0    0 -0.34191796918E-01  0.10702835782E+00  0.13720762471E-02  0.11236677475E+00  0.51100000000E-03 0. -1.
</event>
<event>
 8    1  0.1074844E+005  0.1043930E+01  0.7957747E-01            NaN
         13   -1    0    0    0    0  0.00000000000E+00  0.00000000000E+00  0.74505805969E-08  0.10566000000E+00  0.10566000000E+00 0. -1.
     999900   -1    0    0    0    0 -0.00000000000E+00 -0.00000000000E+00 -0.74505805969E-08  0.93827000000E+00  0.93827000000E+00 0. -1.
     999902    2    1    2    0    0 -0.15865680260E-02 -0.22532765858E-01  0.42045965112E-02  0.10209534605E+01  0.10206948845E+01 0.  0.
     999903    2    3    3    0    0 -0.67973116019E-01  0.76124678970E-01 -0.76595826889E-01  0.12928694572E+00  0.20805825779E-01 0.  0.
         14    1    1    2    0    0  0.15865680260E-02  0.22532765858E-01 -0.42045965112E-02  0.22976539494E-01  0.00000000000E+00 0. -1.
     999901    1    3    3    0    0  0.66386547993E-01 -0.98657444828E-01  0.80800423400E-01  0.89166651479E+00  0.88000000000E+00 0.  1.
        -11    1    4    4    0    0 -0.64964378474E-01  0.77137972612E-01 -0.75094162377E-01  0.12573794826E+00  0.51100000000E-03 0.  1.
         11    1    4    4    0    0 -0.30087375452E-02 -0.10132936425E-02 -0.15016645121E-02  0.35489974540E-02  0.51100000000E-03 0. -1.
</event>
<event>
 8    1  0.1074844E+005  0.1043930E+01  0.7957747E-01            NaN
         13   -1    0    0    0    0  0.00000000000E+00  0.00000000000E+00  0.74505805969E-08  0.10566000000E+00  0.10566000000E+00 0. -1.
     999900   -1    0    0    0    0 -0.00000000000E+00 -0.00000000000E+00 -0.74505805969E-08  0.93827000000E+00  0.93827000000E+00 0.  1.
     999902    2    1    2    0    0  0.22197507234E-01  0.85194268043E-02 -0.19281081122E-02  0.10200757014E+01  0.10197967489E+01 0.  0.
     999903    2    3    3    0    0  0.92020529103E-01  0.58376881298E-02 -0.93172183464E-01  0.13260292583E+00  0.20015588622E-01 0.  0.
         14    1    1    2    0    0 -0.22197507234E-01 -0.85194268043E-02  0.19281081122E-02  0.23854298593E-01  0.00000000000E+00 0. -1.
     999901    1    3    3    0    0 -0.69823021869E-01  0.26817386746E-02  0.91244075352E-01  0.88747277558E+00  0.88000000000E+00 0. -1.
        -11    1    4    4    0    0  0.15151707602E-02  0.30076007231E-02 -0.14141975394E-02  0.36881540400E-02  0.51100000000E-03 0. -1.
         11    1    4    4    0    0  0.90505358343E-01  0.28300874067E-02 -0.91757985925E-01  0.12891477179E+00  0.51100000000E-03 0.  1.
</event>
<event>
 8    1  0.1074844E+005  0.1043930E+01  0.7957747E-01            NaN
         13   -1    0    0    0    0  0.00000000000E+00  0.00000000000E+00  0.74505805969E-08  0.10566000000E+00  0.10566000000E+00 0.  1.
     999900   -1    0    0    0    0 -0.00000000000E+00 -0.00000000000E+00 -0.74505805969E-08  0.93827000000E+00  0.93827000000E+00 0. -1.
     999902    2    1    2    0    0 -0.21787547016E-01 -0.73352455059E-02 -0.39092887860E-02  0.10206107897E+01  0.10203443529E+01 0.  0.
     999903    2    3    3    0    0  0.77401206396E-01 -0.79974788509E-01 -0.64134473331E-01  0.13002559730E+00  0.20162136190E-01 0.  0.
         14    1    1    2    0    0  0.21787547016E-01  0.73352455059E-02  0.39092887860E-02  0.23319210330E-01  0.00000000000E+00 0. -1.
     999901    1    3    3    0    0 -0.99188753412E-01  0.72639543003E-01  0.60225184545E-01  0.89058519237E+00  0.88000000000E+00 0.  1.
        -11    1    4    4    0    0  0.19422591871E-01 -0.24543164396E-01 -0.85999877628E-02  0.32462669393E-01  0.51100000000E-03 0.  1.
         11    1    4    4    0    0  0.57978614524E-01 -0.55431624113E-01 -0.55534485568E-01  0.97562927909E-01  0.51100000000E-03 0. -1.
</event>
<event>
 8    1  0.1074844E+005  0.1043930E+01  0.7957747E-01            NaN
         13   -1    0    0    0    0  0.00000000000E+00  0.00000000000E+00  0.74505805969E-08  0.10566000000E+00  0.10566000000E+00 0.  1.
     999900   -1    0    0    0    0 -0.00000000000E+00 -0.00000000000E+00 -0.74505805969E-08  0.93827000000E+00  0.93827000000E+00 0. -1.
     999902    2    1    2    0    0 -0.93632761864E-02  0.17492261191E-01  0.16954955436E-01  0.10178317116E+01  0.10174970627E+01 0.  0.
     999903    2    3    3    0    0  0.60731937532E-01 -0.45304965688E-01 -0.98126787399E-01  0.12536286722E+00  0.18603062120E-01 0.  0.
         14    1    1    2    0    0  0.93632761864E-02 -0.17492261191E-01 -0.16954955436E-01  0.26098288380E-01  0.00000000000E+00 0. -1.
     999901    1    3    3    0    0 -0.70095213718E-01  0.62797226878E-01  0.11508174284E+00  0.89246884440E+00  0.88000000000E+00 0.  1.
        -11    1    4    4    0    0  0.26133575384E-01 -0.29011802405E-01 -0.41052335194E-01  0.56658660300E-01  0.51100000000E-03 0.  1.
         11    1    4    4    0    0  0.34598362148E-01 -0.16293163282E-01 -0.57074452205E-01  0.68704206920E-01  0.51100000000E-03 0. -1.
</event>
<event>
 8    1  0.1074844E+005  0.1043930E+01  0.7957747E-01            NaN
         13   -1    0    0    0    0  0.00000000000E+00  0.00000000000E+00  0.74505805969E-08  0.10566000000E+00  0.10566000000E+00 0. -1.
     999900   -1    0    0    0    0 -0.00000000000E+00 -0.00000000000E+00 -0.74505805969E-08  0.93827000000E+00  0.93827000000E+00 0. -1.
     999902    2    1    2    0    0  0.92595738679E-02  0.18119924012E-01  0.14760569698E-01  0.10187914684E+01  0.10184812763E+01 0.  0.
     999903    2    3    3    0    0 -0.12594100825E-01  0.12871199771E+00  0.13720793678E-01  0.13159967908E+00  0.20120278960E-01 0.  0.
         14    1    1    2    0    0 -0.92595738679E-02 -0.18119924012E-01 -0.14760569698E-01  0.25138531624E-01  0.00000000000E+00 0.  1.
     999901    1    3    3    0    0  0.21853674693E-01 -0.11059207369E+00  0.10397760198E-02  0.88719178930E+00  0.88000000000E+00 0.  1.
        -11    1    4    4    0    0  0.29752435565E-02  0.49201986336E-01  0.11136528024E-01  0.50536827276E-01  0.51100000000E-03 0. -1.
         11    1    4    4    0    0 -0.15569344382E-01  0.79510011370E-01  0.25842656543E-02  0.81062851804E-01  0.51100000000E-03 0.  1.
</event>
<event>
 8    1  0.1074844E+005  0.1043930E+01  0.7957747E-01            NaN
         13   -1    0    0    0    0  0.00000000000E+00  0.00000000000E+00  0.74505805969E-08  0.10566000000E+00  0.10566000000E+00 0.  1.
     999900   -1    0    0    0    0 -0.00000000000E+00 -0.00000000000E+00 -0.74505805969E-08  0.93827000000E+00  0.93827000000E+00 0.  1.
     999902    2    1    2    0    0  0.35639399356E-02 -0.14635589393E-01 -0.17552864912E-01  0.10207998203E+01  0.10205377347E+01 0.  0.
     999903    2    3    3    0    0  0.16745742509E-01 -0.85058215128E-01 -0.10031998218E+00  0.13401715145E+00  0.19523785623E-01 0.  0.
         14    1    1    2    0    0 -0.35639399356E-02  0.14635589393E-01  0.17552864912E-01  0.23130179666E-01  0.00000000000E+00 0.  1.
     999901    1    3    3    0    0 -0.13181802573E-01  0.70422625735E-01  0.82767117267E-01  0.88678266889E+00  0.88000000000E+00 0.  1.
        -11    1    4    4    0    0  0.16712883987E-01 -0.44848934551E-01 -0.45585777085E-01  0.66098953206E-01  0.51100000000E-03 0. -1.
         11    1    4    4    0    0  0.32858522237E-04 -0.40209280577E-01 -0.54734205095E-01  0.67918198243E-01  0.51100000000E-03 0.  1.
</event>
<event>
 8    1  0.1074844E+005  0.1043930E+01  0.7957747E-01            NaN
         13   -1    0    0    0    0  0.00000000000E+00  0.00000000000E+00  0.74505805969E-08  0.10566000000E+00  0.10566000000E+00 0.  1.
     999900   -1    0    0    0    0 -0.00000000000E+00 -0.00000000000E+00 -0.74505805969E-08  0.93827000000E+00  0.93827000000E+00 0.  1.
     999902    2    1    2    0    0 -0.74390199622E-02 -0.27301535762E-01  0.12405844593E-01  0.10130331093E+01  0.10125618316E+01 0.  0.
     999903    2    3    3    0    0 -0.99072888551E-01  0.55860602615E-01 -0.41866656862E-01  0.12271956257E+00  0.19272516964E-01 0.  0.
         14    1    1    2    0    0  0.74390199622E-02  0.27301535762E-01 -0.12405844593E-01  0.30896890670E-01  0.00000000000E+00 0.  1.
     999901    1    3    3    0    0  0.91633868588E-01 -0.83162138377E-01  0.54272501455E-01  0.89031354676E+00  0.88000000000E+00 0. -1.
        -11    1    4    4    0    0 -0.38037511901E-01  0.28087693741E-01 -0.93891949696E-02  0.48209842921E-01  0.51100000000E-03 0. -1.
         11    1    4    4    0    0 -0.61035376650E-01  0.27772908874E-01 -0.32477461892E-01  0.74509719648E-01  0.51100000000E-03 0.  1.
</event>
<event>
 8    1  0.1074844E+005  0.1043930E+01  0.7957747E-01            NaN
         13   -1    0    0    0    0  0.00000000000E+00  0.00000000000E+00  0.74505805969E-08  0.10566000000E+00  0.10566000000E+00 0. -1.
     999900   -1    0    0    0    0 -0.00000000000E+00 -0.00000000000E+00 -0.74505805969E-08  0.93827000000E+00  0.93827000000E+00 0.  1.
     999902    2    1    2    0    0  0.10659193326E-01  0.15362688506E-01 -0.14951472078E-01  0.10199888823E+01  0.10197078713E+01 0.  0.
     999903    2    3    3    0    0  0.81055312145E-01 -0.21113606495E-01 -0.10054064719E+00  0.13228868484E+00  0.19393978214E-01 0.  0.
         14    1    1    2    0    0 -0.10659193326E-01 -0.15362688506E-01  0.14951472078E-01  0.23941117722E-01  0.00000000000E+00 0. -1.
     999901    1    3    3    0    0 -0.70396118819E-01  0.36476295000E-01  0.85589175117E-01  0.88770019744E+00  0.88000000000E+00 0. -1.
        -11    1    4    4    0    0  0.43057507364E-01 -0.20098443399E-02 -0.44765746135E-01  0.62146774355E-01  0.51100000000E-03 0.  1.
         11    1    4    4    0    0  0.37997804781E-01 -0.19103762155E-01 -0.55774901060E-01  0.70141910480E-01  0.51100000000E-03 0. -1.
</event>
<event>
 8    1  0.1074844E+005  0.1043930E+01  0.7957747E-01            NaN
         13   -1    0    0    0    0  0.00000000000E+00  0.00000000000E+00  0.74505805969E-08  0.10566000000E+00  0.10566000000E+00 0.  1.
     999900   -1    0    0    0    0 -0.00000000000E+00 -0.00000000000E+00 -0.74505805969E-08  0.93827000000E+00  0.93827000000E+00 0. -1.
     999902    2    1    2    0    0  0.22261960659E-01  0.47906996324E-02  0.64714437281E-02  0.10202566969E+01  0.10199820108E+01 0.  0.
     999903    2    3    3    0    0  0.12674303801E-01  0.12427191224E+00 -0.34545724944E-01  0.13118409500E+00  0.20290725034E-01 0.  0.
         14    1    1    2    0    0 -0.22261960659E-01 -0.47906996324E-02 -0.64714437281E-02  0.23673303092E-01  0.00000000000E+00 0. -1.
     999901    1    3    3    0    0  0.95876568577E-02 -0.11948121261E+00  0.41017168672E-01  0.88907260190E+00  0.88000000000E+00 0. -1.
        -11    1    4    4    0    0  0.73118235724E-02  0.13545959737E-01 -0.72138408173E-02  0.17007539783E-01  0.51100000000E-03 0. -1.
         11    1    4    4    0    0  0.53624802288E-02  0.11072595250E+00 -0.27331884126E-01  0.11417655522E+00  0.51100000000E-03 0.  1.
</event>
<event>
 7    1  0.1074844E+005  0.1043930E+01  0.7957747E-01            NaN
         13   -1    0    0    0    0  0.00000000000E+00  0.00000000000E+00  0.74505805969E-08  0.10566000000E+00  0.10566000000E+00 0.  1.
     999900   -1    0    0    0    0 -0.00000000000E+00 -0.00000000000E+00 -0.74505805969E-08  0.93827000000E+00  0.93827000000E+00 0. -1.
     999903    2    1    2    0    0 -0.16322528770E-01 -0.95997336079E-01 -0.31908288916E-01  0.10383673704E+00  0.16793319424E-01 0.  0.
         14    1    1    2    0    0  0.31004313283E-01 -0.19613135207E-02 -0.41113136897E-01  0.51530614380E-01  0.00000000000E+00 0. -1.
     999901    1    1    2    0    0 -0.14681784513E-01  0.97958649600E-01  0.73021425813E-01  0.88856264858E+00  0.88000000000E+00 0.  1.
        -11    1    3    3    0    0 -0.25388696775E-02 -0.57314379082E-01 -0.23011325762E-01  0.61815581718E-01  0.51100000000E-03 0.  1.
         11    1    3    3    0    0 -0.13783659093E-01 -0.38682956997E-01 -0.88969631541E-02  0.42021155319E-01  0.51100000000E-03 0. -1.
</event>
<event>
 8    1  0.1074844E+005  0.1043930E+01  0.7957747E-01            NaN
         13   -1    0    0    0    0  0.00000000000E+00  0.00000000000E+00  0.74505805969E-08  0.10566000000E+00  0.10566000000E+00 0.  1.
     999900   -1    0    0    0    0 -0.00000000000E+00 -0.00000000000E+00 -0.74505805969E-08  0.93827000000E+00  0.93827000000E+00 0. -1.
     999902    2    1    2    0    0  0.14830732742E-01 -0.17490101596E-01 -0.87151669159E-02  0.10193982161E+01  0.10191029951E+01 0.  0.
     999903    2    3    3    0    0  0.44554776775E-01 -0.80185470375E-01 -0.93610514321E-01  0.13259415201E+00  0.20085889640E-01 0.  0.
         14    1    1    2    0    0 -0.14830732742E-01  0.17490101596E-01  0.87151669159E-02  0.24531783911E-01  0.00000000000E+00 0.  1.
     999901    1    3    3    0    0 -0.29724044033E-01  0.62695368779E-01  0.84895347405E-01  0.88680406408E+00  0.88000000000E+00 0.  1.
        -11    1    4    4    0    0  0.23708111558E-01 -0.47017646173E-01 -0.39682919741E-01  0.65937309965E-01  0.51100000000E-03 0.  1.
         11    1    4    4    0    0  0.20846665217E-01 -0.33167824202E-01 -0.53927594580E-01  0.66656842043E-01  0.51100000000E-03 0. -1.
</event>
<event>
 8    1  0.1074844E+005  0.1043930E+01  0.7957747E-01            NaN
         13   -1    0    0    0    0  0.00000000000E+00  0.00000000000E+00  0.74505805969E-08  0.10566000000E+00  0.10566000000E+00 0.  1.
     999900   -1    0    0    0    0 -0.00000000000E+00 -0.00000000000E+00 -0.74505805969E-08  0.93827000000E+00  0.93827000000E+00 0.  1.
     999902    2    1    2    0    0  0.17131294727E-01  0.29198989089E-02  0.15918806769E-01  0.10203627456E+01  0.10200905436E+01 0.  0.
     999903    2    3    3    0    0  0.37038268463E-02  0.24470667788E-01 -0.12486477179E+00  0.12881086913E+00  0.19710323629E-01 0.  0.
         14    1    1    2    0    0 -0.17131294727E-01 -0.29198989089E-02 -0.15918806769E-01  0.23567254351E-01  0.00000000000E+00 0. -1.
     999901    1    3    3    0    0  0.13427467881E-01 -0.21550768880E-01  0.14078357856E+00  0.89155187652E+00  0.88000000000E+00 0. -1.
        -11    1    4    4    0    0 -0.76482647984E-02  0.11671319065E-01 -0.44320760705E-01  0.46468339691E-01  0.51100000000E-03 0.  1.
         11    1    4    4    0    0  0.11352091645E-01  0.12799348724E-01 -0.80544011081E-01  0.82342529440E-01  0.51100000000E-03 0. -1.
</event>
<event>
 8    1  0.1074844E+005  0.1043930E+01  0.7957747E-01            NaN
         13   -1    0    0    0    0  0.00000000000E+00  0.00000000000E+00  0.74505805969E-08  0.10566000000E+00  0.10566000000E+00 0. -1.
     999900   -1    0    0    0    0 -0.00000000000E+00 -0.00000000000E+00 -0.74505805969E-08  0.93827000000E+00  0.93827000000E+00 0. -1.
     999902    2    1    2    0    0  0.92859748074E-02 -0.20111799470E-01 -0.87363268057E-02  0.10201174568E+01  0.10198394915E+01 0.  0.
     999903    2    3    3    0    0  0.12851328278E+00 -0.26252716653E-02  0.19258864143E-01  0.13146417217E+00  0.19732430507E-01 0.  0.
         14    1    1    2    0    0 -0.92859748074E-02  0.20111799470E-01  0.87363268057E-02  0.23812543167E-01  0.00000000000E+00 0. -1.
     999901    1    3    3    0    0 -0.11922730798E+00 -0.17486527805E-01 -0.27995190948E-01  0.88865328466E+00  0.88000000000E+00 0. -1.
        -11    1    4    4    0    0  0.58564121359E-01  0.27073208838E-02 -0.31839813567E-03  0.58629756910E-01  0.51100000000E-03 0.  1.
         11    1    4    4    0    0  0.69949161424E-01 -0.53325925491E-02  0.19577262278E-01  0.72834415262E-01  0.51100000000E-03 0. -1.
</event>
<event>
 8    1  0.1074844E+005  0.1043930E+01  0.7957747E-01            NaN
         13   -1    0    0    0    0  0.00000000000E+00  0.00000000000E+00  0.74505805969E-08  0.10566000000E+00  0.10566000000E+00 0.  1.
     999900   -1    0    0    0    0 -0.00000000000E+00 -0.00000000000E+00 -0.74505805969E-08  0.93827000000E+00  0.93827000000E+00 0. -1.
     999902    2    1    2    0    0 -0.22031321952E-01 -0.30496451523E-02  0.72413998398E-02  0.10205394602E+01  0.10202713719E+01 0.  0.
     999903    2    3    3    0    0 -0.35454537491E-01  0.56882865636E-01  0.11086671178E+00  0.13233323757E+00  0.26980981347E-01 0.  0.
         14    1    1    2    0    0  0.22031321952E-01  0.30496451523E-02 -0.72413998398E-02  0.23390539843E-01  0.00000000000E+00 0. -1.
     999901    1    3    3    0    0  0.13423215539E-01 -0.59932510788E-01 -0.10362531194E+00  0.88820622258E+00  0.88000000000E+00 0. -1.
        -11    1    4    4    0    0 -0.20588640809E-01  0.13120243017E-01  0.52337075640E-01  0.57753471885E-01  0.51100000000E-03 0. -1.
         11    1    4    4    0    0 -0.14865896682E-01  0.43762622620E-01  0.58529636136E-01  0.74579765687E-01  0.51100000000E-03 0.  1.
</event>
<event>
 8    1  0.1074844E+005  0.1043930E+01  0.7957747E-01            NaN
         13   -1    0    0    0    0  0.00000000000E+00  0.00000000000E+00  0.74505805969E-08  0.10566000000E+00  0.10566000000E+00 0.  1.
     999900   -1    0    0    0    0 -0.00000000000E+00 -0.00000000000E+00 -0.74505805969E-08  0.93827000000E+00  0.93827000000E+00 0.  1.
     999902    2    1    2    0    0  0.21557691759E-01  0.23873113200E-01 -0.11188800131E-01  0.10098734462E+01  0.10092990283E+01 0.  0.
     999903    2    3    3    0    0 -0.59179977827E-01 -0.26875996016E-01 -0.99308016387E-01  0.12034602131E+00  0.19912151772E-01 0.  0.
         14    1    1    2    0    0 -0.21557691759E-01 -0.23873113200E-01  0.11188800131E-01  0.34056553792E-01  0.00000000000E+00 0. -1.
     999901    1    3    3    0    0  0.80737669586E-01  0.50749109217E-01  0.88119216256E-01  0.88952742490E+00  0.88000000000E+00 0. -1.
        -11    1    4    4    0    0 -0.52518079259E-01 -0.19139887121E-01 -0.71761451067E-01  0.90964008862E-01  0.51100000000E-03 0.  1.
         11    1    4    4    0    0 -0.66618985686E-02 -0.77361088958E-02 -0.27546565320E-01  0.29382012445E-01  0.51100000000E-03 0. -1.
</event>
<event>
 8    1  0.1074844E+005  0.1043930E+01  0.7957747E-01            NaN
         13   -1    0    0    0    0  0.00000000000E+00  0.00000000000E+00  0.74505805969E-08  0.10566000000E+00  0.10566000000E+00 0.  1.
     999900   -1    0    0    0    0 -0.00000000000E+00 -0.00000000000E+00 -0.74505805969E-08  0.93827000000E+00  0.93827000000E+00 0. -1.
     999902    2    1    2    0    0  0.34452530151E-02 -0.23075690235E-01  0.58696522501E-02  0.10198715282E+01  0.10195877225E+01 0.  0.
     999903    2    3    3    0    0 -0.76873706773E-01  0.66246626754E-01 -0.75787558856E-01  0.12796485609E+00  0.18250149803E-01 0.  0.
         14    1    1    2    0    0 -0.34452530151E-02  0.23075690235E-01 -0.58696522501E-02  0.24058471807E-01  0.00000000000E+00 0. -1.
     999901    1    3    3    0    0  0.80318959789E-01 -0.89322316988E-01  0.81657211106E-01  0.89190667210E+00  0.88000000000E+00 0.  1.
        -11    1    4    4    0    0 -0.17876256175E-01  0.12004154974E-01 -0.79333142064E-02  0.22953406431E-01  0.51100000000E-03 0. -1.
         11    1    4    4    0    0 -0.58997450598E-01  0.54242471779E-01 -0.67854244650E-01  0.10501144966E+00  0.51100000000E-03 0.  1.
</event>
<event>
 8    1  0.1074844E+005  0.1043930E+01  0.7957747E-01            NaN
         13   -1    0    0    0    0  0.00000000000E+00  0.00000000000E+00  0.74505805969E-08  0.10566000000E+00  0.10566000000E+00 0.  1.
     999900   -1    0    0    0    0 -0.00000000000E+00 -0.00000000000E+00 -0.74505805969E-08  0.93827000000E+00  0.93827000000E+00 0.  1.
     999902    2    1    2    0    0 -0.22728959176E-01  0.22902042172E-02  0.56352408797E-02  0.10204011547E+01  0.10201298496E+01 0.  0.
     999903    2    3    3    0    0  0.32136805302E-01  0.12306793369E+00  0.20603198148E-01  0.13033286981E+00  0.19587613999E-01 0.  0.
         14    1    1    2    0    0  0.22728959176E-01 -0.22902042172E-02 -0.56352408797E-02  0.23528845283E-01  0.00000000000E+00 0. -1.
     999901    1    3    3    0    0 -0.54865764478E-01 -0.12077772947E+00 -0.14967957269E-01  0.89006828490E+00  0.88000000000E+00 0. -1.
        -11    1    4    4    0    0  0.31569211801E-01  0.89807621579E-01  0.11843773424E-01  0.95929975072E-01  0.51100000000E-03 0.  1.
         11    1    4    4    0    0  0.56759350127E-03  0.33260312110E-01  0.87594247241E-02  0.34402894741E-01  0.51100000000E-03 0. -1.
</event>
<event>
 8    1  0.1074844E+005  0.1043930E+01  0.7957747E-01            NaN
         13   -1    0    0    0    0  0.00000000000E+00  0.00000000000E+00  0.74505805969E-08  0.10566000000E+00  0.10566000000E+00 0.  1.
     999900   -1    0    0    0    0 -0.00000000000E+00 -0.00000000000E+00 -0.74505805969E-08  0.93827000000E+00  0.93827000000E+00 0. -1.
     999902    2    1    2    0    0  0.49498254130E-02 -0.22883964375E-01 -0.15402751435E-02  0.10204662184E+01  0.10201964291E+01 0.  0.
     999903    2    3    3    0    0  0.23296788741E-01  0.80518058572E-01 -0.96393495537E-01  0.12916059027E+00  0.19101151120E-01 0.  0.
         14    1    1    2    0    0 -0.49498254130E-02  0.22883964375E-01  0.15402751435E-02  0.23463781551E-01  0.00000000000E+00 0.  1.
     999901    1    3    3    0    0 -0.18346963328E-01 -0.10340202295E+00  0.94853220393E-01  0.89130562818E+00  0.88000000000E+00 0.  1.
        -11    1    4    4    0    0  0.10414882794E-01  0.10691619255E-01 -0.18027905053E-01  0.23410403404E-01  0.51100000000E-03 0.  1.
         11    1    4    4    0    0  0.12881905947E-01  0.69826439316E-01 -0.78365590484E-01  0.10575018686E+00  0.51100000000E-03 0. -1.
</event>
<event>
 8    1  0.1074844E+005  0.1043930E+01  0.7957747E-01            NaN
         13   -1    0    0    0    0  0.00000000000E+00  0.00000000000E+00  0.74505805969E-08  0.10566000000E+00  0.10566000000E+00 0. -1.
     999900   -1    0    0    0    0 -0.00000000000E+00 -0.00000000000E+00 -0.74505805969E-08  0.93827000000E+00  0.93827000000E+00 0. -1.
     999902    2    1    2    0    0 -0.18081295631E-01 -0.11112368967E-01 -0.19021138360E-01  0.10154304965E+01  0.10150304781E+01 0.  0.
     999903    2    3    3    0    0 -0.11193360233E+00  0.29169821956E-01 -0.53200416803E-01  0.12886457483E+00  0.19894332185E-01 0.  0.
         14    1    1    2    0    0  0.18081295631E-01  0.11112368967E-01  0.19021138360E-01  0.28499503510E-01  0.00000000000E+00 0. -1.
     999901    1    3    3    0    0  0.93852306703E-01 -0.40282190924E-01  0.34179278443E-01  0.88656592166E+00  0.88000000000E+00 0.  1.
        -11    1    4    4    0    0 -0.42904862513E-01  0.14963191315E-02 -0.21550030372E-01  0.48038850197E-01  0.51100000000E-03 0. -1.
         11    1    4    4    0    0 -0.69028739821E-01  0.27673502825E-01 -0.31650386431E-01  0.80825724631E-01  0.51100000000E-03 0.  1.
</event>
<event>
 8    1  0.1074844E+005  0.1043930E+01  0.7957747E-01            NaN
         13   -1    0    0    0    0  0.00000000000E+00  0.00000000000E+00  0.74505805969E-08  0.10566000000E+00  0.10566000000E+00 0. -1.
     999900   -1    0    0    0    0 -0.00000000000E+00 -0.00000000000E+00 -0.74505805969E-08  0.93827000000E+00  0.93827000000E+00 0. -1.
     999902    2    1    2    0    0 -0.17692937749E-01  0.81489669104E-02 -0.12755353493E-01  0.10206459980E+01  0.10203803744E+01 0.  0.
     999903    2    3    3    0    0 -0.18550971695E-01  0.82932680667E-01  0.97241565780E-01  0.13065012027E+00  0.19787969542E-01 0.  0.
         14    1    1    2    0    0  0.17692937749E-01 -0.81489669104E-02  0.12755353493E-01  0.23284002032E-01  0.00000000000E+00 0.  1.
     999901    1    3    3    0    0  0.85803394647E-03 -0.74783713756E-01 -0.10999691927E+00  0.88999587770E+00  0.88000000000E+00 0. -1.
        -11    1    4    4    0    0 -0.12117418466E-01  0.67798176450E-01  0.66268416993E-01  0.95578181464E-01  0.51100000000E-03 0. -1.
         11    1    4    4    0    0 -0.64335532298E-02  0.15134504217E-01  0.30973148786E-01  0.35071938809E-01  0.51100000000E-03 0.  1.
</event>
<event>
 8    1  0.1074844E+005  0.1043930E+01  0.7957747E-01            NaN
         13   -1    0    0    0    0  0.00000000000E+00  0.00000000000E+00  0.74505805969E-08  0.10566000000E+00  0.10566000000E+00 0. -1.
     999900   -1    0    0    0    0 -0.00000000000E+00 -0.00000000000E+00 -0.74505805969E-08  0.93827000000E+00  0.93827000000E+00 0. -1.
     999902    2    1    2    0    0  0.13887728517E-01  0.18059284019E-01  0.74942805057E-02  0.10199472774E+01  0.10196652773E+01 0.  0.
     999903    2    3    3    0    0  0.67193598391E-01  0.88588224018E-01  0.70208145287E-01  0.13329690890E+00  0.21818092452E-01 0.  0.
         14    1    1    2    0    0 -0.13887728517E-01 -0.18059284019E-01 -0.74942805057E-02  0.23982722592E-01  0.00000000000E+00 0.  1.
     999901    1    3    3    0    0 -0.53305869874E-01 -0.70528939999E-01 -0.62713864781E-01  0.88665036851E+00  0.88000000000E+00 0. -1.
        -11    1    4    4    0    0  0.46163537840E-01  0.75152376564E-01  0.51844400082E-01  0.10230862559E+00  0.51100000000E-03 0. -1.
         11    1    4    4    0    0  0.21030060551E-01  0.13435847454E-01  0.18363745205E-01  0.30988283311E-01  0.51100000000E-03 0.  1.
</event>
<event>
 8    1  0.1074844E+005  0.1043930E+01  0.7957747E-01            NaN
         13   -1    0    0    0    0  0.00000000000E+00  0.00000000000E+00  0.74505805969E-08  0.10566000000E+00  0.10566000000E+00 0.  1.
     999900   -1    0    0    0    0 -0.00000000000E+00 -0.00000000000E+00 -0.74505805969E-08  0.93827000000E+00  0.93827000000E+00 0.  1.
     999902    2    1    2    0    0 -0.13036630266E-01 -0.18635509494E-01  0.38995413141E-02  0.10208552873E+01  0.10205944715E+01 0.  0.
     999903    2    3    3    0    0 -0.31451449097E-01 -0.56362582344E-01 -0.11335639542E+00  0.13208569273E+00  0.20761105501E-01 0.  0.
         14    1    1    2    0    0  0.13036630266E-01  0.18635509494E-01 -0.38995413141E-02  0.23074712679E-01  0.00000000000E+00 0. -1.
     999901    1    3    3    0    0  0.18414818831E-01  0.37727072850E-01  0.11725593673E+00  0.88876959460E+00  0.88000000000E+00 0. -1.
        -11    1    4    4    0    0 -0.25264385254E-01 -0.32346016379E-01 -0.54603147127E-01  0.68310458460E-01  0.51100000000E-03 0. -1.
         11    1    4    4    0    0 -0.61870638423E-02 -0.24016565965E-01 -0.58753248292E-01  0.63775234265E-01  0.51100000000E-03 0.  1.
</event>
<event>
 8    1  0.1074844E+005  0.1043930E+01  0.7957747E-01            NaN
         13   -1    0    0    0    0  0.00000000000E+00  0.00000000000E+00  0.74505805969E-08  0.10566000000E+00  0.10566000000E+00 0. -1.
     999900   -1    0    0    0    0 -0.00000000000E+00 -0.00000000000E+00 -0.74505805969E-08  0.93827000000E+00  0.93827000000E+00 0. -1.
     999902    2    1    2    0    0 -0.57824750504E-02  0.32197900545E-03  0.22648479084E-01  0.10205527826E+01  0.10202850032E+01 0.  0.
     999903    2    3    3    0    0  0.99430234834E-01 -0.46651385512E-01  0.69992980511E-01  0.13177963207E+00  0.20103003242E-01 0.  0.
         14    1    1    2    0    0  0.57824750504E-02 -0.32197900545E-03 -0.22648479084E-01  0.23377217392E-01  0.00000000000E+00 0.  1.
     999901    1    3    3    0    0 -0.10521270988E+00  0.46973364517E-01 -0.47344501427E-01  0.88877315053E+00  0.88000000000E+00 0. -1.
        -11    1    4    4    0    0  0.89388879708E-02 -0.10494184652E-01  0.12616295051E-01  0.18693946920E-01  0.51100000000E-03 0.  1.
         11    1    4    4    0    0  0.90491346863E-01 -0.36157200860E-01  0.57376685461E-01  0.11308568515E+00  0.51100000000E-03 0. -1.
</event>
<event>
 8    1  0.1074844E+005  0.1043930E+01  0.7957747E-01            NaN
         13   -1    0    0    0    0  0.00000000000E+00  0.00000000000E+00  0.74505805969E-08  0.10566000000E+00  0.10566000000E+00 0. -1.
     999900   -1    0    0    0    0 -0.00000000000E+00 -0.00000000000E+00 -0.74505805969E-08  0.93827000000E+00  0.93827000000E+00 0.  1.
     999902    2    1    2    0    0  0.68381900385E-02 -0.17591316640E-01  0.18759300459E-01  0.10173193514E+01  0.10169712563E+01 0.  0.
     999903    2    3    3    0    0 -0.12039195395E+00  0.30211248577E-01  0.17485690902E-01  0.12688450436E+00  0.19671958285E-01 0.  0.
         14    1    1    2    0    0 -0.68381900385E-02  0.17591316640E-01 -0.18759300459E-01  0.26610648580E-01  0.00000000000E+00 0.  1.
     999901    1    3    3    0    0  0.12723014399E+00 -0.47802565217E-01  0.12736095570E-02  0.89043484706E+00  0.88000000000E+00 0. -1.
        -11    1    4    4    0    0 -0.38757119080E-01  0.66775737821E-03  0.31856358667E-02  0.38896909596E-01  0.51100000000E-03 0.  1.
         11    1    4    4    0    0 -0.81634834873E-01  0.29543491199E-01  0.14300055035E-01  0.87987594762E-01  0.51100000000E-03 0. -1.
</event>
<event>
 8    1  0.1074844E+005  0.1043930E+01  0.7957747E-01            NaN
         13   -1    0    0    0    0  0.00000000000E+00  0.00000000000E+00  0.74505805969E-08  0.10566000000E+00  0.10566000000E+00 0.  1.
     999900   -1    0    0    0    0 -0.00000000000E+00 -0.00000000000E+00 -0.74505805969E-08  0.93827000000E+00  0.93827000000E+00 0.  1.
     999902    2    1    2    0    0 -0.18387805117E-01  0.64701188119E-02 -0.13297012575E-01  0.10203337215E+01  0.10200608408E+01 0.  0.
     999903    2    3    3    0    0  0.99685749921E-01  0.74084850821E-02 -0.81227625741E-01  0.12985249593E+00  0.16480568166E-01 0.  0.
         14    1    1    2    0    0  0.18387805117E-01 -0.64701188119E-02  0.13297012575E-01  0.23596278476E-01  0.00000000000E+00 0.  1.
     999901    1    3    3    0    0 -0.11807355504E+00 -0.93836627013E-03  0.67930613166E-01  0.89048122559E+00  0.88000000000E+00 0. -1.
        -11    1    4    4    0    0  0.14979504354E-01  0.25811608141E-02 -0.56409599275E-02  0.16221266651E-01  0.51100000000E-03 0.  1.
         11    1    4    4    0    0  0.84706245567E-01  0.48273242679E-02 -0.75586665814E-01  0.11363122928E+00  0.51100000000E-03 0. -1.
</event>
<event>
 8    1  0.1074844E+005  0.1043930E+01  0.7957747E-01            NaN
         13   -1    0    0    0    0  0.00000000000E+00  0.00000000000E+00  0.74505805969E-08  0.10566000000E+00  0.10566000000E+00 0. -1.
     999900   -1    0    0    0    0 -0.00000000000E+00 -0.00000000000E+00 -0.74505805969E-08  0.93827000000E+00  0.93827000000E+00 0.  1.
     999902    2    1    2    0    0 -0.23535466278E-02  0.23184447461E-01  0.63644330909E-03  0.10206177104E+01  0.10203514336E+01 0.  0.
     999903    2    3    3    0    0 -0.58594795127E-01  0.10919603906E+00  0.45632804372E-01  0.13349554045E+00  0.19534111813E-01 0.  0.
         14    1    1    2    0    0  0.23535466278E-02 -0.23184447461E-01 -0.63644330909E-03  0.23312289589E-01  0.00000000000E+00 0.  1.
     999901    1    3    3    0    0  0.56241248500E-01 -0.86011591597E-01 -0.44996361063E-01  0.88712216996E+00  0.88000000000E+00 0. -1.
        -11    1    4    4    0    0 -0.30255206499E-01  0.58238996973E-01  0.34450843162E-01  0.74123410636E-01  0.51100000000E-03 0. -1.
         11    1    4    4    0    0 -0.28339588628E-01  0.50957042084E-01  0.11181961210E-01  0.59372129818E-01  0.51100000000E-03 0.  1.
</event>
<event>
 8    1  0.1074844E+005  0.1043930E+01  0.7957747E-01            NaN
         13   -1    0    0    0    0  0.00000000000E+00  0.00000000000E+00  0.74505805969E-08  0.10566000000E+00  0.10566000000E+00 0. -1.
     999900   -1    0    0    0    0 -0.00000000000E+00 -0.00000000000E+00 -0.74505805969E-08  0.93827000000E+00  0.93827000000E+00 0.  1.
     999902    2    1    2    0    0 -0.40109019848E-02 -0.10119444696E-01 -0.21957415396E-01  0.10194224790E+01  0.10191278487E+01 0.  0.
     999903    2    3    3    0    0  0.23426602407E-01  0.10217244158E+00  0.69224017893E-01  0.12719137767E+00  0.19941624347E-01 0.  0.
         14    1    1    2    0    0  0.40109019848E-02  0.10119444696E-01  0.21957415396E-01  0.24507521020E-01  0.00000000000E+00 0. -1.
     999901    1    3    3    0    0 -0.27437504392E-01 -0.11229188628E+00 -0.91181433288E-01  0.89223110131E+00  0.88000000000E+00 0.  1.
        -11    1    4    4    0    0  0.68245795294E-02  0.55459019693E-01  0.26960613454E-01  0.62043642300E-01  0.51100000000E-03 0.  1.
         11    1    4    4    0    0  0.16602022877E-01  0.46713421886E-01  0.42263404439E-01  0.65147735369E-01  0.51100000000E-03 0. -1.
</event>
<event>
 8    1  0.1074844E+005  0.1043930E+01  0.7957747E-01            NaN
         13   -1    0    0    0    0  0.00000000000E+00  0.00000000000E+00  0.74505805969E-08  0.10566000000E+00  0.10566000000E+00 0. -1.
     999900   -1    0    0    0    0 -0.00000000000E+00 -0.00000000000E+00 -0.74505805969E-08  0.93827000000E+00  0.93827000000E+00 0. -1.
     999902    2    1    2    0    0  0.24003866978E-01  0.59205417055E-03 -0.82002817994E-02  0.10185571645E+01  0.10182410896E+01 0.  0.
     999903    2    3    3    0    0 -0.11509228813E+00  0.47217763501E-01 -0.11288183316E-01  0.12640738323E+00  0.19381730455E-01 0.  0.
         14    1    1    2    0    0 -0.24003866978E-01 -0.59205417055E-03  0.82002817994E-02  0.25372835467E-01  0.00000000000E+00 0. -1.
     999901    1    3    3    0    0  0.13909615511E+00 -0.46625709331E-01  0.30879015163E-02  0.89214978130E+00  0.88000000000E+00 0.  1.
        -11    1    4    4    0    0 -0.42502482107E-01  0.19619414132E-01 -0.13475126326E-01  0.48715732025E-01  0.51100000000E-03 0.  1.
         11    1    4    4    0    0 -0.72589806027E-01  0.27598349369E-01  0.21869430101E-02  0.77691651209E-01  0.51100000000E-03 0. -1.
</event>
<event>
 8    1  0.1074844E+005  0.1043930E+01  0.7957747E-01            NaN
         13   -1    0    0    0    0  0.00000000000E+00  0.00000000000E+00  0.74505805969E-08  0.10566000000E+00  0.10566000000E+00 0.  1.
     999900   -1    0    0    0    0 -0.00000000000E+00 -0.00000000000E+00 -0.74505805969E-08  0.93827000000E+00  0.93827000000E+00 0. -1.
     999902    2    1    2    0    0  0.17651238152E-01  0.15700101949E-01  0.83756141417E-03  0.10202918757E+01  0.10200180149E+01 0.  0.
     999903    2    3    3    0    0 -0.47744847953E-01  0.53163316036E-01 -0.10697521157E+00  0.13051452465E+00  0.22009919959E-01 0.  0.
         14    1    1    2    0    0 -0.17651238152E-01 -0.15700101949E-01 -0.83756141417E-03  0.23638124262E-01  0.00000000000E+00 0.  1.
     999901    1    3    3    0    0  0.65396086104E-01 -0.37463214087E-01  0.10781277298E+00  0.88977735109E+00  0.88000000000E+00 0.  1.
        -11    1    4    4    0    0 -0.33675631110E-01  0.28280393637E-01 -0.48792478942E-01  0.65687106171E-01  0.51100000000E-03 0. -1.
         11    1    4    4    0    0 -0.14069216843E-01  0.24882922399E-01 -0.58182732629E-01  0.64827418481E-01  0.51100000000E-03 0.  1.
</event>
<event>
 8    1  0.1074844E+005  0.1043930E+01  0.7957747E-01            NaN
         13   -1    0    0    0    0  0.00000000000E+00  0.00000000000E+00  0.74505805969E-08  0.10566000000E+00  0.10566000000E+00 0.  1.
     999900   -1    0    0    0    0 -0.00000000000E+00 -0.00000000000E+00 -0.74505805969E-08  0.93827000000E+00  0.93827000000E+00 0. -1.
     999902    2    1    2    0    0 -0.13305271356E-01 -0.16865745309E-01 -0.75709212842E-02  0.10211527644E+01  0.10208987050E+01 0.  0.
     999903    2    3    3    0    0  0.21946260772E-01 -0.99503775995E-01 -0.83625100256E-01  0.13331496801E+00  0.19926954187E-01 0.  0.
         14    1    1    2    0    0  0.13305271356E-01  0.16865745309E-01  0.75709212842E-02  0.22777235560E-01  0.00000000000E+00 0.  1.
     999901    1    3    3    0    0 -0.35251532128E-01  0.82638030686E-01  0.76054178972E-01  0.88783779643E+00  0.88000000000E+00 0. -1.
        -11    1    4    4    0    0  0.11826612161E-01 -0.85228148000E-01 -0.65713417506E-01  0.10826920304E+00  0.51100000000E-03 0. -1.
         11    1    4    4    0    0  0.10119648611E-01 -0.14275627995E-01 -0.17911682750E-01  0.25045764963E-01  0.51100000000E-03 0.  1.
</event>
<event>
 8    1  0.1074844E+005  0.1043930E+01  0.7957747E-01            NaN
         13   -1    0    0    0    0  0.00000000000E+00  0.00000000000E+00  0.74505805969E-08  0.10566000000E+00  0.10566000000E+00 0.  1.
     999900   -1    0    0    0    0 -0.00000000000E+00 -0.00000000000E+00 -0.74505805969E-08  0.93827000000E+00  0.93827000000E+00 0. -1.
     999902    2    1    2    0    0  0.24377069547E-01  0.13863410920E-02 -0.20093264237E-03  0.10195127144E+01  0.10192202760E+01 0.  0.
     999903    2    3    3    0    0 -0.12448578261E+00 -0.37537429866E-02  0.58377419158E-02  0.12697530074E+00  0.24038450631E-01 0.  0.
         14    1    1    2    0    0 -0.24377069547E-01 -0.13863410920E-02  0.20093264237E-03  0.24417285583E-01  0.00000000000E+00 0. -1.
     999901    1    3    3    0    0  0.14886285216E+00  0.51400840786E-02 -0.60386745581E-02  0.89253741367E+00  0.88000000000E+00 0.  1.
        -11    1    4    4    0    0 -0.44760682948E-01 -0.32539795910E-02  0.13530089782E-01  0.46876770065E-01  0.51100000000E-03 0.  1.
         11    1    4    4    0    0 -0.79725099665E-01 -0.49976339558E-03 -0.76923478667E-02  0.80098530678E-01  0.51100000000E-03 0. -1.
</event>
<event>
 8    1  0.1074844E+005  0.1043930E+01  0.7957747E-01            NaN
         13   -1    0    0    0    0  0.00000000000E+00  0.00000000000E+00  0.74505805969E-08  0.10566000000E+00  0.10566000000E+00 0. -1.
     999900   -1    0    0    0    0 -0.00000000000E+00 -0.00000000000E+00 -0.74505805969E-08  0.93827000000E+00  0.93827000000E+00 0.  1.
     999902    2    1    2    0    0 -0.73821897632E-02 -0.42564125547E-02 -0.21940772192E-01  0.10203925563E+01  0.10201210505E+01 0.  0.
     999903    2    3    3    0    0 -0.81167398806E-01 -0.42860863426E-01 -0.94752057757E-01  0.13346750643E+00  0.20258888960E-01 0.  0.
         14    1    1    2    0    0  0.73821897632E-02  0.42564125547E-02  0.21940772192E-01  0.23537443742E-01  0.00000000000E+00 0. -1.
     999901    1    3    3    0    0  0.73785209042E-01  0.38604450871E-01  0.72811285565E-01  0.88692504982E+00  0.88000000000E+00 0. -1.
        -11    1    4    4    0    0 -0.29814813805E-01 -0.57290469935E-02 -0.26136354055E-01  0.40063889301E-01  0.51100000000E-03 0.  1.
         11    1    4    4    0    0 -0.51352585001E-01 -0.37131816433E-01 -0.68615703702E-01  0.93403617133E-01  0.51100000000E-03 0. -1.
</event>
<event>
 8    1  0.1074844E+005  0.1043930E+01  0.7957747E-01            NaN
         13   -1    0    0    0    0  0.00000000000E+00  0.00000000000E+00  0.74505805969E-08  0.10566000000E+00  0.10566000000E+00 0. -1.
     999900   -1    0    0    0    0 -0.00000000000E+00 -0.00000000000E+00 -0.74505805969E-08  0.93827000000E+00  0.93827000000E+00 0.  1.
     999902    2    1    2    0    0 -0.13912074498E-01 -0.13900846887E-01  0.12409443398E-01  0.10206754597E+01  0.10204105156E+01 0.  0.
     999903    2    3    3    0    0  0.52454387147E-01 -0.49907615625E-01  0.10870546216E+00  0.13220828646E+00  0.20491966126E-01 0.  0.
         14    1    1    2    0    0  0.13912074498E-01  0.13900846887E-01 -0.12409443398E-01  0.23254540340E-01  0.00000000000E+00 0.  1.
     999901    1    3    3    0    0 -0.66366461644E-01  0.36006768738E-01 -0.96296018766E-01  0.88846717320E+00  0.88000000000E+00 0.  1.
        -11    1    4    4    0    0  0.24430374299E-01 -0.36857925332E-01  0.67423327547E-01  0.80631979181E-01  0.51100000000E-03 0.  1.
         11    1    4    4    0    0  0.28024012848E-01 -0.13049690293E-01  0.41282134616E-01  0.51576307277E-01  0.51100000000E-03 0. -1.
</event>
<event>
 8    1  0.1074844E+005  0.1043930E+01  0.7957747E-01            NaN
         13   -1    0    0    0    0  0.00000000000E+00  0.00000000000E+00  0.74505805969E-08  0.10566000000E+00  0.10566000000E+00 0.  1.
     999900   -1    0    0    0    0 -0.00000000000E+00 -0.00000000000E+00 -0.74505805969E-08  0.93827000000E+00  0.93827000000E+00 0. -1.
     999902    2    1    2    0    0  0.86941330077E-02  0.21516259269E-01 -0.35286204669E-02  0.10204568553E+01  0.10201868480E+01 0.  0.
     999903    2    3    3    0    0  0.12800050870E+00 -0.22860721777E-01  0.14305648528E-03  0.13129049909E+00  0.18177784752E-01 0.  0.
         14    1    1    2    0    0 -0.86941330077E-02 -0.21516259269E-01  0.35286204669E-02  0.23473144742E-01  0.00000000000E+00 0. -1.
     999901    1    3    3    0    0 -0.11930637569E+00  0.44376981046E-01 -0.36716769522E-02  0.88916635617E+00  0.88000000000E+00 0.  1.
        -11    1    4    4    0    0  0.27945434525E-01 -0.10194873610E-01 -0.55935502082E-02  0.30272622675E-01  0.51100000000E-03 0.  1.
         11    1    4    4    0    0  0.10005507418E+00 -0.12665848167E-01  0.57366066934E-02  0.10101787642E+00  0.51100000000E-03 0. -1.
</event>
<event>
 8    1  0.1074844E+005  0.1043930E+01  0.7957747E-01            NaN
         13   -1    0    0    0    0  0.00000000000E+00  0.00000000000E+00  0.74505805969E-08  0.10566000000E+00  0.10566000000E+00 0.  1.
     999900   -1    0    0    0    0 -0.00000000000E+00 -0.00000000000E+00 -0.74505805969E-08  0.93827000000E+00  0.93827000000E+00 0. -1.
     999902    2    1    2    0    0 -0.18316208691E-01  0.28192261675E-03  0.15257669767E-01  0.10200897091E+01  0.10198110880E+01 0.  0.
     999903    2    3    3    0    0 -0.50768981267E-01 -0.10182985692E+00  0.65204311039E-01  0.13218506058E+00  0.16567403058E-01 0.  0.
         14    1    1    2    0    0  0.18316208691E-01 -0.28192261675E-03 -0.15257669767E-01  0.23840290852E-01  0.00000000000E+00 0.  1.
     999901    1    3    3    0    0  0.32452772576E-01  0.10211177954E+00 -0.49946641272E-01  0.88790464856E+00  0.88000000000E+00 0. -1.
        -11    1    4    4    0    0 -0.44927829857E-01 -0.98441585802E-01  0.61511201210E-01  0.12447146141E+00  0.51100000000E-03 0. -1.
         11    1    4    4    0    0 -0.58411514099E-02 -0.33882711190E-02  0.36931098293E-02  0.77135991716E-02  0.51100000000E-03 0.  1.
</event>
<event>
 8    1  0.1074844E+005  0.1043930E+01  0.7957747E-01            NaN
         13   -1    0    0    0    0  0.00000000000E+00  0.00000000000E+00  0.74505805969E-08  0.10566000000E+00  0.10566000000E+00 0. -1.
     999900   -1    0    0    0    0 -0.00000000000E+00 -0.00000000000E+00 -0.74505805969E-08  0.93827000000E+00  0.93827000000E+00 0. -1.
     999902    2    1    2    0    0  0.90424134729E-02  0.22217676652E-01  0.19226958162E-02  0.10198657702E+01  0.10195818270E+01 0.  0.
     999903    2    3    3    0    0  0.31855884235E-01 -0.12041243364E+00  0.76241001463E-02  0.12807189893E+00  0.28815496777E-01 0.  0.
         14    1    1    2    0    0 -0.90424134729E-02 -0.22217676652E-01 -0.19226958162E-02  0.24064229812E-01  0.00000000000E+00 0.  1.
     999901    1    3    3    0    0 -0.22813470763E-01  0.14263011030E+00 -0.57014043300E-02  0.89179387126E+00  0.88000000000E+00 0. -1.
        -11    1    4    4    0    0  0.65478544883E-02 -0.70235321974E-01 -0.41027198701E-02  0.70660938874E-01  0.51100000000E-03 0.  1.
         11    1    4    4    0    0  0.25308029747E-01 -0.50177111671E-01  0.11726820016E-01  0.57410960051E-01  0.51100000000E-03 0. -1.
</event>
<event>
 8    1  0.1074844E+005  0.1043930E+01  0.7957747E-01            NaN
         13   -1    0    0    0    0  0.00000000000E+00  0.00000000000E+00  0.74505805969E-08  0.10566000000E+00  0.10566000000E+00 0. -1.
     999900   -1    0    0    0    0 -0.00000000000E+00 -0.00000000000E+00 -0.74505805969E-08  0.93827000000E+00  0.93827000000E+00 0.  1.
     999902    2    1    2    0    0  0.16902032414E-01 -0.14914838794E-01 -0.84194693933E-02  0.10198671951E+01  0.10195832860E+01 0.  0.
     999903    2    3    3    0    0  0.22938222006E-02  0.92336385653E-01 -0.88656027115E-01  0.12961210234E+00  0.20202380870E-01 0.  0.
         14    1    1    2    0    0 -0.16902032414E-01  0.14914838794E-01  0.84194693933E-02  0.24062804925E-01  0.00000000000E+00 0. -1.
     999901    1    3    3    0    0  0.14608210214E-01 -0.10725122445E+00  0.80236557722E-01  0.89025509274E+00  0.88000000000E+00 0.  1.
        -11    1    4    4    0    0 -0.48112797587E-02  0.55814551027E-01 -0.42472495213E-01  0.70303531134E-01  0.51100000000E-03 0. -1.
         11    1    4    4    0    0  0.71051019592E-02  0.36521834626E-01 -0.46183531902E-01  0.59308571204E-01  0.51100000000E-03 0.  1.
</event>
<event>
 8    1  0.1074844E+005  0.1043930E+01  0.7957747E-01            NaN
         13   -1    0    0    0    0  0.00000000000E+00  0.00000000000E+00  0.74505805969E-08  0.10566000000E+00  0.10566000000E+00 0.  1.
     999900   -1    0    0    0    0 -0.00000000000E+00 -0.00000000000E+00 -0.74505805969E-08  0.93827000000E+00  0.93827000000E+00 0. -1.
     999902    2    1    2    0    0  0.16028822970E-02 -0.22352302642E-01 -0.80890291447E-02  0.10201050749E+01  0.10198268170E+01 0.  0.
     999903    2    3    3    0    0 -0.59283332533E-01  0.11032495899E+00  0.15044742148E-01  0.12777914883E+00  0.20372935853E-01 0.  0.
         14    1    1    2    0    0 -0.16028822970E-02  0.22352302642E-01  0.80890291447E-02  0.23824925132E-01  0.00000000000E+00 0.  1.
     999901    1    3    3    0    0  0.60886214830E-01 -0.13267726164E+00 -0.23133771293E-01  0.89232592604E+00  0.88000000000E+00 0. -1.
        -11    1    4    4    0    0 -0.16562511916E-01  0.29648140591E-01 -0.49517493425E-02  0.34323606803E-01  0.51100000000E-03 0.  1.
         11    1    4    4    0    0 -0.42720820617E-01  0.80676818403E-01  0.19996491491E-01  0.93455542023E-01  0.51100000000E-03 0. -1.
</event>
<event>
 8    1  0.1074844E+005  0.1043930E+01  0.7957747E-01            NaN
         13   -1    0    0    0    0  0.00000000000E+00  0.00000000000E+00  0.74505805969E-08  0.10566000000E+00  0.10566000000E+00 0.  1.
     999900   -1    0    0    0    0 -0.00000000000E+00 -0.00000000000E+00 -0.74505805969E-08  0.93827000000E+00  0.93827000000E+00 0.  1.
     999902    2    1    2    0    0 -0.14744822064E-01 -0.17699663624E-01 -0.51276202467E-02  0.10203295687E+01  0.10200565907E+01 0.  0.
     999903    2    3    3    0    0 -0.69167673252E-01 -0.83164963456E-01 -0.75676093057E-01  0.13341094825E+00  0.19262187899E-01 0.  0.
         14    1    1    2    0    0  0.14744822064E-01  0.17699663624E-01  0.51276202467E-02  0.23600431341E-01  0.00000000000E+00 0.  1.
     999901    1    3    3    0    0  0.54422851188E-01  0.65465299832E-01  0.70548472811E-01  0.88691862041E+00  0.88000000000E+00 0. -1.
        -11    1    4    4    0    0 -0.18828551230E-01 -0.18401146186E-01 -0.28422474485E-01  0.38745511989E-01  0.51100000000E-03 0. -1.
         11    1    4    4    0    0 -0.50339122021E-01 -0.64763817270E-01 -0.47253618572E-01  0.94665436261E-01  0.51100000000E-03 0.  1.
</event>
<event>
 8    1  0.1074844E+005  0.1043930E+01  0.7957747E-01            NaN
         13   -1    0    0    0    0  0.00000000000E+00  0.00000000000E+00  0.74505805969E-08  0.10566000000E+00  0.10566000000E+00 0.  1.
     999900   -1    0    0    0    0 -0.00000000000E+00 -0.00000000000E+00 -0.74505805969E-08  0.93827000000E+00  0.93827000000E+00 0.  1.
     999902    2    1    2    0    0  0.16127541264E-03 -0.78660123616E-02  0.20993588203E-01  0.10215105686E+01  0.10212645156E+01 0.  0.
     999903    2    3    3    0    0  0.13011427621E+00 -0.69967734581E-02  0.47316402377E-02  0.13181793122E+00  0.19362305152E-01 0.  0.
         14    1    1    2    0    0 -0.16127541264E-03  0.78660123616E-02 -0.20993588203E-01  0.22419431435E-01  0.00000000000E+00 0. -1.
     999901    1    3    3    0    0 -0.12995300079E+00 -0.86923890350E-03  0.16261947965E-01  0.88969263734E+00  0.88000000000E+00 0. -1.
        -11    1    4    4    0    0  0.71305991101E-01 -0.13384800542E-01  0.38426112145E-02  0.72654828019E-01  0.51100000000E-03 0.  1.
         11    1    4    4    0    0  0.58808285105E-01  0.63880270844E-02  0.88902902321E-03  0.59163103203E-01  0.51100000000E-03 0. -1.
</event>
<event>
 8    1  0.1074844E+005  0.1043930E+01  0.7957747E-01            NaN
         13   -1    0    0    0    0  0.00000000000E+00  0.00000000000E+00  0.74505805969E-08  0.10566000000E+00  0.10566000000E+00 0.  1.
     999900   -1    0    0    0    0 -0.00000000000E+00 -0.00000000000E+00 -0.74505805969E-08  0.93827000000E+00  0.93827000000E+00 0.  1.
     999902    2    1    2    0    0 -0.78478735730E-02 -0.85237913150E-02  0.18461858888E-01  0.10221335698E+01  0.10219011449E+01 0.  0.
     999903    2    3    3    0    0 -0.44650337622E-01 -0.34710471670E-01  0.12078169687E+00  0.13505436650E+00  0.21283658524E-01 0.  0.
         14    1    1    2    0    0  0.78478735730E-02  0.85237913150E-02 -0.18461858888E-01  0.21796430249E-01  0.00000000000E+00 0. -1.
     999901    1    3    3    0    0  0.36802464049E-01  0.26186680354E-01 -0.10231983798E+00  0.88707920325E+00  0.88000000000E+00 0.  1.
        -11    1    4    4    0    0 -0.84089151915E-02  0.21688313030E-02  0.18628044009E-01  0.20559154372E-01  0.51100000000E-03 0.  1.
         11    1    4    4    0    0 -0.36241422430E-01 -0.36879302972E-01  0.10215365286E+00  0.11449521213E+00  0.51100000000E-03 0. -1.
</event>
<event>
 8    1  0.1074844E+005  0.1043930E+01  0.7957747E-01            NaN
         13   -1    0    0    0    0  0.00000000000E+00  0.00000000000E+00  0.74505805969E-08  0.10566000000E+00  0.10566000000E+00 0. -1.
     999900   -1    0    0    0    0 -0.00000000000E+00 -0.00000000000E+00 -0.74505805969E-08  0.93827000000E+00  0.93827000000E+00 0. -1.
     999902    2    1    2    0    0  0.14454544366E-01  0.55654512226E-02  0.19505412702E-01  0.10190227877E+01  0.10187183480E+01 0.  0.
     999903    2    3    3    0    0 -0.12208579992E+00  0.32727351708E-01 -0.82236841854E-03  0.12784701764E+00  0.19187535987E-01 0.  0.
         14    1    1    2    0    0 -0.14454544366E-01 -0.55654512226E-02 -0.19505412702E-01  0.24907212305E-01  0.00000000000E+00 0.  1.
     999901    1    3    3    0    0  0.13654034428E+00 -0.27161900486E-01  0.20327781120E-01  0.89117577006E+00  0.88000000000E+00 0. -1.
        -11    1    4    4    0    0 -0.71416061377E-01  0.26523150337E-01 -0.66055860216E-02  0.76469773205E-01  0.51100000000E-03 0. -1.
         11    1    4    4    0    0 -0.50669738541E-01  0.62042013712E-02  0.57832176031E-02  0.51377244431E-01  0.51100000000E-03 0.  1.
</event>
<event>
 8    1  0.1074844E+005  0.1043930E+01  0.7957747E-01            NaN
         13   -1    0    0    0    0  0.00000000000E+00  0.00000000000E+00  0.74505805969E-08  0.10566000000E+00  0.10566000000E+00 0.  1.
     999900   -1    0    0    0    0 -0.00000000000E+00 -0.00000000000E+00 -0.74505805969E-08  0.93827000000E+00  0.93827000000E+00 0.  1.
     999902    2    1    2    0    0 -0.14474404407E-01  0.16614050806E-01 -0.41494450859E-02  0.10215078466E+01  0.10212617332E+01 0.  0.
     999903    2    3    3    0    0 -0.74499511517E-01 -0.79824190689E-01 -0.70641107508E-01  0.13171883283E+00  0.20919039596E-01 0.  0.
         14    1    1    2    0    0  0.14474404407E-01 -0.16614050806E-01  0.41494450859E-02  0.22422153367E-01  0.00000000000E+00 0.  1.
     999901    1    3    3    0    0  0.60025107110E-01  0.96438241495E-01  0.66491662422E-01  0.88978901380E+00  0.88000000000E+00 0. -1.
        -11    1    4    4    0    0 -0.59914659614E-01 -0.71267006205E-01 -0.52398621521E-01  0.10683926838E+00  0.51100000000E-03 0. -1.
         11    1    4    4    0    0 -0.14584851903E-01 -0.85571844846E-02 -0.18242485987E-01  0.24879564452E-01  0.51100000000E-03 0.  1.
</event>
<event>
 8    1  0.1074844E+005  0.1043930E+01  0.7957747E-01            NaN
         13   -1    0    0    0    0  0.00000000000E+00  0.00000000000E+00  0.74505805969E-08  0.10566000000E+00  0.10566000000E+00 0.  1.
     999900   -1    0    0    0    0 -0.00000000000E+00 -0.00000000000E+00 -0.74505805969E-08  0.93827000000E+00  0.93827000000E+00 0.  1.
     999902    2    1    2    0    0 -0.14663366051E-02 -0.22118235496E-01  0.73622845624E-02  0.10205725661E+01  0.10203052450E+01 0.  0.
     999903    2    3    3    0    0  0.17271574991E-01  0.85409552004E-01 -0.92065325718E-01  0.12827262544E+00  0.19614876020E-01 0.  0.
         14    1    1    2    0    0  0.14663366051E-02  0.22118235496E-01 -0.73622845624E-02  0.23357433901E-01  0.00000000000E+00 0.  1.
     999901    1    3    3    0    0 -0.18737911596E-01 -0.10752778750E+00  0.99427610280E-01  0.89229994066E+00  0.88000000000E+00 0. -1.
        -11    1    4    4    0    0  0.21562845322E-01  0.67821510483E-01 -0.71841915638E-01  0.10112485128E+00  0.51100000000E-03 0.  1.
         11    1    4    4    0    0 -0.42912703314E-02  0.17588041521E-01 -0.20223410080E-01  0.27147774160E-01  0.51100000000E-03 0. -1.
</event>
<event>
 8    1  0.1074844E+005  0.1043930E+01  0.7957747E-01            NaN
         13   -1    0    0    0    0  0.00000000000E+00  0.00000000000E+00  0.74505805969E-08  0.10566000000E+00  0.10566000000E+00 0.  1.
     999900   -1    0    0    0    0 -0.00000000000E+00 -0.00000000000E+00 -0.74505805969E-08  0.93827000000E+00  0.93827000000E+00 0.  1.
     999902    2    1    2    0    0 -0.14558169207E-01  0.16504187738E-01 -0.57423341594E-02  0.10211857061E+01  0.10209323893E+01 0.  0.
     999903    2    3    3    0    0 -0.25241666779E-01  0.19700056663E-01 -0.12718166613E+00  0.13277596839E+00  0.20713464450E-01 0.  0.
         14    1    1    2    0    0  0.14558169207E-01 -0.16504187738E-01  0.57423341594E-02  0.22744293903E-01  0.00000000000E+00 0.  1.
     999901    1    3    3    0    0  0.10683497572E-01 -0.31958689255E-02  0.12143933197E+00  0.88840973770E+00  0.88000000000E+00 0. -1.
        -11    1    4    4    0    0 -0.27640766567E-01  0.12762655915E-01 -0.94855579715E-01  0.99622986737E-01  0.51100000000E-03 0.  1.
         11    1    4    4    0    0  0.23990997882E-02  0.69374007483E-02 -0.32326086412E-01  0.33152981656E-01  0.51100000000E-03 0. -1.
</event>
<event>
 8    1  0.1074844E+005  0.1043930E+01  0.7957747E-01            NaN
         13   -1    0    0    0    0  0.00000000000E+00  0.00000000000E+00  0.74505805969E-08  0.10566000000E+00  0.10566000000E+00 0. -1.
     999900   -1    0    0    0    0 -0.00000000000E+00 -0.00000000000E+00 -0.74505805969E-08  0.93827000000E+00  0.93827000000E+00 0.  1.
     999902    2    1    2    0    0 -0.85405558910E-02  0.55992181233E-02  0.19804305021E-01  0.10216476564E+01  0.10214046363E+01 0.  0.
     999903    2    3    3    0    0  0.15155766467E-01 -0.46037787354E-01  0.12307206358E+00  0.13378948869E+00  0.20092768035E-01 0.  0.
         14    1    1    2    0    0  0.85405558910E-02 -0.55992181233E-02 -0.19804305021E-01  0.22282343591E-01  0.00000000000E+00 0.  1.
     999901    1    3    3    0    0 -0.23696322358E-01  0.51637005477E-01 -0.10326775856E+00  0.88785816772E+00  0.88000000000E+00 0.  1.
        -11    1    4    4    0    0  0.15082079095E-01 -0.18409612458E-01  0.43974519854E-01  0.50004024418E-01  0.51100000000E-03 0. -1.
         11    1    4    4    0    0  0.73687371640E-04 -0.27628174895E-01  0.79097543731E-01  0.83785464271E-01  0.51100000000E-03 0.  1.
</event>
<event>
 8    1  0.1074844E+005  0.1043930E+01  0.7957747E-01            NaN
         13   -1    0    0    0    0  0.00000000000E+00  0.00000000000E+00  0.74505805969E-08  0.10566000000E+00  0.10566000000E+00 0. -1.
     999900   -1    0    0    0    0 -0.00000000000E+00 -0.00000000000E+00 -0.74505805969E-08  0.93827000000E+00  0.93827000000E+00 0.  1.
     999902    2    1    2    0    0 -0.62164329938E-02  0.19173629084E-01 -0.11747923676E-01  0.10206000664E+01  0.10203333817E+01 0.  0.
     999903    2    3    3    0    0 -0.92284275613E-01 -0.59815026035E-01 -0.68304147498E-01  0.13108025907E+00  0.20551225923E-01 0.  0.
         14    1    1    2    0    0  0.62164329938E-02 -0.19173629084E-01  0.11747923676E-01  0.23329933607E-01  0.00000000000E+00 0. -1.
     999901    1    3    3    0    0  0.86067842619E-01  0.78988655119E-01  0.56556223822E-01  0.88951980733E+00  0.88000000000E+00 0.  1.
        -11    1    4    4    0    0 -0.74079917752E-01 -0.41089335178E-01 -0.44266872306E-01  0.95582345568E-01  0.51100000000E-03 0.  1.
         11    1    4    4    0    0 -0.18204357861E-01 -0.18725690857E-01 -0.24037275192E-01  0.35497913500E-01  0.51100000000E-03 0. -1.
</event>
<event>
 8    1  0.1074844E+005  0.1043930E+01  0.7957747E-01            NaN
         13   -1    0    0    0    0  0.00000000000E+00  0.00000000000E+00  0.74505805969E-08  0.10566000000E+00  0.10566000000E+00 0.  1.
     999900   -1    0    0    0    0 -0.00000000000E+00 -0.00000000000E+00 -0.74505805969E-08  0.93827000000E+00  0.93827000000E+00 0. -1.
     999902    2    1    2    0    0  0.10330032493E-01  0.18937712780E-01  0.82104155153E-02  0.10208484606E+01  0.10205874887E+01 0.  0.
     999903    2    3    3    0    0 -0.62214496849E-01  0.87542370867E-01  0.77004868206E-01  0.13253433569E+00  0.10064298004E-01 0.  0.
         14    1    1    2    0    0 -0.10330032493E-01 -0.18937712780E-01 -0.82104155153E-02  0.23081539368E-01  0.00000000000E+00 0. -1.
     999901    1    3    3    0    0  0.72544529342E-01 -0.68604658087E-01 -0.68794452691E-01  0.88831412494E+00  0.88000000000E+00 0. -1.
        -11    1    4    4    0    0 -0.49488932254E-01  0.62735011822E-01  0.54878297599E-01  0.96936705083E-01  0.51100000000E-03 0.  1.
         11    1    4    4    0    0 -0.12725564595E-01  0.24807359045E-01  0.22126570607E-01  0.35597630608E-01  0.51100000000E-03 0. -1.
</event>
<event>
 8    1  0.1074844E+005  0.1043930E+01  0.7957747E-01            NaN
         13   -1    0    0    0    0  0.00000000000E+00  0.00000000000E+00  0.74505805969E-08  0.10566000000E+00  0.10566000000E+00 0. -1.
     999900   -1    0    0    0    0 -0.00000000000E+00 -0.00000000000E+00 -0.74505805969E-08  0.93827000000E+00  0.93827000000E+00 0. -1.
     999902    2    1    2    0    0  0.90866047811E-02 -0.44638835404E-02  0.21920851247E-01  0.10197842682E+01  0.10194983754E+01 0.  0.
     999903    2    3    3    0    0 -0.11023758440E+00  0.57285418888E-01  0.30528280275E-01  0.12954535295E+00  0.20397998478E-01 0.  0.
         14    1    1    2    0    0 -0.90866047811E-02  0.44638835404E-02 -0.21920851247E-01  0.24145731758E-01  0.00000000000E+00 0.  1.
     999901    1    3    3    0    0  0.11932418918E+00 -0.61749302429E-01 -0.86074290275E-02  0.89023891530E+00  0.88000000000E+00 0. -1.
        -11    1    4    4    0    0 -0.35295534849E-01  0.18255479168E-01  0.19703580961E-01  0.44356843031E-01  0.51100000000E-03 0. -1.
         11    1    4    4    0    0 -0.74942049550E-01  0.39029939720E-01  0.10824699313E-01  0.85188509915E-01  0.51100000000E-03 0.  1.
</event>
<event>
 8    1  0.1074844E+005  0.1043930E+01  0.7957747E-01            NaN
         13   -1    0    0    0    0  0.00000000000E+00  0.00000000000E+00  0.74505805969E-08  0.10566000000E+00  0.10566000000E+00 0.  1.
     999900   -1    0    0    0    0 -0.00000000000E+00 -0.00000000000E+00 -0.74505805969E-08  0.93827000000E+00  0.93827000000E+00 0.  1.
     999902    2    1    2    0    0  0.14943082000E-01 -0.15345949278E-01  0.93853940005E-02  0.10205445456E+01  0.10202765752E+01 0.  0.
     999903    2    3    3    0    0 -0.12165780925E+00  0.35966868247E-01  0.14062028262E-01  0.12851613814E+00  0.14980619478E-01 0.  0.
         14    1    1    2    0    0 -0.14943082000E-01  0.15345949278E-01 -0.93853940005E-02  0.23385454442E-01  0.00000000000E+00 0. -1.
     999901    1    3    3    0    0  0.13660089125E+00 -0.51312817526E-01 -0.46766342620E-02  0.89202840742E+00  0.88000000000E+00 0.  1.
        -11    1    4    4    0    0 -0.69441325835E-01  0.25706359129E-01  0.26907902787E-02  0.74097342103E-01  0.51100000000E-03 0.  1.
         11    1    4    4    0    0 -0.52216483417E-01  0.10260509118E-01  0.11371237984E-01  0.54418796037E-01  0.51100000000E-03 0. -1.
</event>
<event>
 8    1  0.1074844E+005  0.1043930E+01  0.7957747E-01            NaN
         13   -1    0    0    0    0  0.00000000000E+00  0.00000000000E+00  0.74505805969E-08  0.10566000000E+00  0.10566000000E+00 0.  1.
     999900   -1    0    0    0    0 -0.00000000000E+00 -0.00000000000E+00 -0.74505805969E-08  0.93827000000E+00  0.93827000000E+00 0. -1.
     999902    2    1    2    0    0  0.12272312170E-01  0.20210566036E-01 -0.47315308795E-02  0.10198164351E+01  0.10195313126E+01 0.  0.
     999903    2    3    3    0    0  0.23341617296E-01 -0.97057779221E-01  0.77734406560E-01  0.12814663912E+00  0.20344029792E-01 0.  0.
         14    1    1    2    0    0 -0.12272312170E-01 -0.20210566036E-01  0.47315308795E-02  0.24113564853E-01  0.00000000000E+00 0.  1.
     999901    1    3    3    0    0 -0.11069305127E-01  0.11726834526E+00 -0.82465937439E-01  0.89166979603E+00  0.88000000000E+00 0. -1.
        -11    1    4    4    0    0  0.41102837303E-02 -0.44450108969E-01  0.24758451405E-01  0.51048493187E-01  0.51100000000E-03 0.  1.
         11    1    4    4    0    0  0.19231333566E-01 -0.52607670252E-01  0.52975955155E-01  0.77098145929E-01  0.51100000000E-03 0. -1.
</event>
<event>
 8    1  0.1074844E+005  0.1043930E+01  0.7957747E-01            NaN
         13   -1    0    0    0    0  0.00000000000E+00  0.00000000000E+00  0.74505805969E-08  0.10566000000E+00  0.10566000000E+00 0. -1.
     999900   -1    0    0    0    0 -0.00000000000E+00 -0.00000000000E+00 -0.74505805969E-08  0.93827000000E+00  0.93827000000E+00 0. -1.
     999902    2    1    2    0    0 -0.10448398374E-01  0.14576222253E-01  0.16923649479E-01  0.10192714275E+01  0.10189731095E+01 0.  0.
     999903    2    3    3    0    0  0.89395372535E-03  0.11856914865E+00  0.54934968472E-01  0.13226069590E+00  0.20386239325E-01 0.  0.
         14    1    1    2    0    0  0.10448398374E-01 -0.14576222253E-01 -0.16923649479E-01  0.24658572453E-01  0.00000000000E+00 0.  1.
     999901    1    3    3    0    0 -0.11342352100E-01 -0.10399292639E+00 -0.38011318992E-01  0.88701073165E+00  0.88000000000E+00 0. -1.
        -11    1    4    4    0    0  0.10141903915E-01  0.44257016861E-01  0.21849589531E-01  0.50390549115E-01  0.51100000000E-03 0.  1.
         11    1    4    4    0    0 -0.92479501897E-02  0.74312131786E-01  0.33085378941E-01  0.81870146781E-01  0.51100000000E-03 0. -1.
</event>
<event>
 8    1  0.1074844E+005  0.1043930E+01  0.7957747E-01            NaN
         13   -1    0    0    0    0  0.00000000000E+00  0.00000000000E+00  0.74505805969E-08  0.10566000000E+00  0.10566000000E+00 0.  1.
     999900   -1    0    0    0    0 -0.00000000000E+00 -0.00000000000E+00 -0.74505805969E-08  0.93827000000E+00  0.93827000000E+00 0. -1.
     999902    2    1    2    0    0  0.91864389104E-02  0.20163639452E-01 -0.18552211399E-02  0.10216947833E+01  0.10214528013E+01 0.  0.
     999903    2    3    3    0    0 -0.43137146985E-01 -0.11616200590E+00 -0.30625210474E-01  0.12919819984E+00  0.19996156160E-01 0.  0.
         14    1    1    2    0    0 -0.91864389104E-02 -0.20163639452E-01  0.18552211399E-02  0.22235216690E-01  0.00000000000E+00 0. -1.
     999901    1    3    3    0    0  0.52323585896E-01  0.13632564535E+00  0.28769989334E-01  0.89249658347E+00  0.88000000000E+00 0.  1.
        -11    1    4    4    0    0 -0.16000028545E-01 -0.56441842458E-01 -0.53977663587E-02  0.58915867949E-01  0.51100000000E-03 0. -1.
         11    1    4    4    0    0 -0.27137118440E-01 -0.59720163438E-01 -0.25227444116E-01  0.70282331890E-01  0.51100000000E-03 0.  1.
</event>
<event>
 8    1  0.1074844E+005  0.1043930E+01  0.7957747E-01            NaN
         13   -1    0    0    0    0  0.00000000000E+00  0.00000000000E+00  0.74505805969E-08  0.10566000000E+00  0.10566000000E+00 0. -1.
     999900   -1    0    0    0    0 -0.00000000000E+00 -0.00000000000E+00 -0.74505805969E-08  0.93827000000E+00  0.93827000000E+00 0.  1.
     999902    2    1    2    0    0  0.66679614168E-02  0.16133577519E-01 -0.14828087861E-01  0.10210252795E+01  0.10207683357E+01 0.  0.
     999903    2    3    3    0    0 -0.74004971432E-01  0.11904646541E-02  0.10066366918E+00  0.12969494527E+00  0.34777169700E-01 0.  0.
         14    1    1    2    0    0 -0.66679614168E-02 -0.16133577519E-01  0.14828087861E-01  0.22904720531E-01  0.00000000000E+00 0. -1.
     999901    1    3    3    0    0  0.80672932849E-01  0.14943112865E-01 -0.11549175705E+00  0.89133033420E+00  0.88000000000E+00 0.  1.
        -11    1    4    4    0    0 -0.63808464088E-01  0.13431199894E-01  0.74012051843E-01  0.98640570552E-01  0.51100000000E-03 0.  1.
         11    1    4    4    0    0 -0.10196507344E-01 -0.12240735240E-01  0.26651617341E-01  0.31054374718E-01  0.51100000000E-03 0. -1.
</event>
<event>
 8    1  0.1074844E+005  0.1043930E+01  0.7957747E-01            NaN
         13   -1    0    0    0    0  0.00000000000E+00  0.00000000000E+00  0.74505805969E-08  0.10566000000E+00  0.10566000000E+00 0.  1.
     999900   -1    0    0    0    0 -0.00000000000E+00 -0.00000000000E+00 -0.74505805969E-08  0.93827000000E+00  0.93827000000E+00 0.  1.
     999902    2    1    2    0    0  0.14965901646E-01 -0.19705038652E-01 -0.10375945606E-01  0.10170985444E+01  0.10167445707E+01 0.  0.
     999903    2    3    3    0    0 -0.98518731194E-01  0.50320257059E-01 -0.56888577784E-01  0.12583779197E+00  0.18993971152E-01 0.  0.
         14    1    1    2    0    0 -0.14965901646E-01  0.19705038652E-01  0.10375945606E-01  0.26831455562E-01  0.00000000000E+00 0.  1.
     999901    1    3    3    0    0  0.11348463284E+00 -0.70025295711E-01  0.46512632177E-01  0.89126075246E+00  0.88000000000E+00 0.  1.
        -11    1    4    4    0    0 -0.68157918501E-01  0.26033824585E-01 -0.42101911299E-01  0.84238316300E-01  0.51100000000E-03 0.  1.
         11    1    4    4    0    0 -0.30360812693E-01  0.24286432474E-01 -0.14786666484E-01  0.41599475674E-01  0.51100000000E-03 0. -1.
</event>
<event>
 8    1  0.1074844E+005  0.1043930E+01  0.7957747E-01            NaN
         13   -1    0    0    0    0  0.00000000000E+00  0.00000000000E+00  0.74505805969E-08  0.10566000000E+00  0.10566000000E+00 0.  1.
     999900   -1    0    0    0    0 -0.00000000000E+00 -0.00000000000E+00 -0.74505805969E-08  0.93827000000E+00  0.93827000000E+00 0.  1.
     999902    2    1    2    0    0 -0.52682995067E-02  0.16432000278E-01  0.16054852380E-01  0.10203604455E+01  0.10200881898E+01 0.  0.
     999903    2    3    3    0    0  0.10510357357E+00  0.35322588591E-01 -0.64246382311E-01  0.12963765309E+00  0.19592779671E-01 0.  0.
         14    1    1    2    0    0  0.52682995067E-02 -0.16432000278E-01 -0.16054852380E-01  0.23569554467E-01  0.00000000000E+00 0.  1.
     999901    1    3    3    0    0 -0.11037187308E+00 -0.18890588313E-01  0.80301234691E-01  0.89072279245E+00  0.88000000000E+00 0. -1.
        -11    1    4    4    0    0  0.59878232894E-01  0.19433377449E-01 -0.25205301979E-01  0.67813179416E-01  0.51100000000E-03 0. -1.
         11    1    4    4    0    0  0.45225340677E-01  0.15889211143E-01 -0.39041080332E-01  0.61824473669E-01  0.51100000000E-03 0.  1.
</event>
<event>
 8    1  0.1074844E+005  0.1043930E+01  0.7957747E-01            NaN
         13   -1    0    0    0    0  0.00000000000E+00  0.00000000000E+00  0.74505805969E-08  0.10566000000E+00  0.10566000000E+00 0.  1.
     999900   -1    0    0    0    0 -0.00000000000E+00 -0.00000000000E+00 -0.74505805969E-08  0.93827000000E+00  0.93827000000E+00 0.  1.
     999902    2    1    2    0    0  0.15808948526E-01  0.18218576526E-01  0.68692472228E-03  0.10197988738E+01  0.10195133309E+01 0.  0.
     999903    2    3    3    0    0 -0.73147461644E-01 -0.39262354515E-01 -0.95711465405E-01  0.12822164782E+00  0.19698292617E-01 0.  0.
         14    1    1    2    0    0 -0.15808948526E-01 -0.18218576526E-01 -0.68692472228E-03  0.24131126159E-01  0.00000000000E+00 0. -1.
     999901    1    3    3    0    0  0.88956410171E-01  0.57480931041E-01  0.96398390127E-01  0.89157722602E+00  0.88000000000E+00 0. -1.
        -11    1    4    4    0    0 -0.19429373883E-01 -0.87905082681E-02 -0.12947015733E-01  0.24953154960E-01  0.51100000000E-03 0.  1.
         11    1    4    4    0    0 -0.53718087761E-01 -0.30471846247E-01 -0.82764449673E-01  0.10326849286E+00  0.51100000000E-03 0. -1.
</event>
<event>
 8    1  0.1074844E+005  0.1043930E+01  0.7957747E-01            NaN
         13   -1    0    0    0    0  0.00000000000E+00  0.00000000000E+00  0.74505805969E-08  0.10566000000E+00  0.10566000000E+00 0.  1.
     999900   -1    0    0    0    0 -0.00000000000E+00 -0.00000000000E+00 -0.74505805969E-08  0.93827000000E+00  0.93827000000E+00 0. -1.
     999902    2    1    2    0    0 -0.24885849397E-01 -0.16743822604E-02  0.10555319822E-01  0.10168463549E+01  0.10164856052E+01 0.  0.
     999903    2    3    3    0    0  0.61124946260E-02  0.46355021872E-01  0.11805352127E+00  0.12846378847E+00  0.19497702947E-01 0.  0.
         14    1    1    2    0    0  0.24885849397E-01  0.16743822604E-02 -0.10555319822E-01  0.27083645115E-01  0.00000000000E+00 0. -1.
     999901    1    3    3    0    0 -0.30998344023E-01 -0.48029404132E-01 -0.10749820145E+00  0.88838256641E+00  0.88000000000E+00 0. -1.
        -11    1    4    4    0    0 -0.61570815895E-02  0.25633107826E-01  0.55916232504E-01  0.61821129470E-01  0.51100000000E-03 0. -1.
         11    1    4    4    0    0  0.12269576215E-01  0.20721914046E-01  0.62137288768E-01  0.66642659000E-01  0.51100000000E-03 0.  1.
</event>
<event>
 8    1  0.1074844E+005  0.1043930E+01  0.7957747E-01            NaN
         13   -1    0    0    0    0  0.00000000000E+00  0.00000000000E+00  0.74505805969E-08  0.10566000000E+00  0.10566000000E+00 0.  1.
     999900   -1    0    0    0    0 -0.00000000000E+00 -0.00000000000E+00 -0.74505805969E-08  0.93827000000E+00  0.93827000000E+00 0.  1.
     999902    2    1    2    0    0 -0.47053390571E-02 -0.62653805715E-02  0.30696082977E-01  0.10122496477E+01  0.10117537767E+01 0.  0.
     999903    2    3    3    0    0  0.91528840175E-01 -0.77258617515E-01 -0.17206276994E-01  0.12287026129E+00  0.21321880255E-01 0.  0.
         14    1    1    2    0    0  0.47053390571E-02  0.62653805715E-02 -0.30696082977E-01  0.31680352263E-01  0.00000000000E+00 0. -1.
     999901    1    3    3    0    0 -0.96234179232E-01  0.70993236943E-01  0.47902359972E-01  0.88937938645E+00  0.88000000000E+00 0. -1.
        -11    1    4    4    0    0  0.26891531620E-01 -0.12059368091E-01 -0.81666128838E-04  0.29476272186E-01  0.51100000000E-03 0.  1.
         11    1    4    4    0    0  0.64637308555E-01 -0.65199249424E-01 -0.17124610865E-01  0.93393989105E-01  0.51100000000E-03 0. -1.
</event>
<event>
 8    1  0.1074844E+005  0.1043930E+01  0.7957747E-01            NaN
         13   -1    0    0    0    0  0.00000000000E+00  0.00000000000E+00  0.74505805969E-08  0.10566000000E+00  0.10566000000E+00 0. -1.
     999900   -1    0    0    0    0 -0.00000000000E+00 -0.00000000000E+00 -0.74505805969E-08  0.93827000000E+00  0.93827000000E+00 0.  1.
     999902    2    1    2    0    0  0.15890437423E-01  0.98500916865E-02 -0.13981953777E-01  0.10205842222E+01  0.10203171710E+01 0.  0.
     999903    2    3    3    0    0  0.38014887795E-01  0.17989925395E-01  0.12127143966E+00  0.12993882219E+00  0.20213023626E-01 0.  0.
         14    1    1    2    0    0 -0.15890437423E-01 -0.98500916865E-02  0.13981953777E-01  0.23345777758E-01  0.00000000000E+00 0. -1.
     999901    1    3    3    0    0 -0.22124450372E-01 -0.81398337090E-02 -0.13525339344E+00  0.89064540005E+00  0.88000000000E+00 0.  1.
        -11    1    4    4    0    0  0.15810967851E-01  0.15940386767E-01  0.42475605137E-01  0.48047068458E-01  0.51100000000E-03 0. -1.
         11    1    4    4    0    0  0.22203919944E-01  0.20495386288E-02  0.78795834527E-01  0.81891753731E-01  0.51100000000E-03 0.  1.
</event>
<event>
 8    1  0.1074844E+005  0.1043930E+01  0.7957747E-01            NaN
         13   -1    0    0    0    0  0.00000000000E+00  0.00000000000E+00  0.74505805969E-08  0.10566000000E+00  0.10566000000E+00 0. -1.
     999900   -1    0    0    0    0 -0.00000000000E+00 -0.00000000000E+00 -0.74505805969E-08  0.93827000000E+00  0.93827000000E+00 0. -1.
     999902    2    1    2    0    0 -0.10213010234E-01 -0.21053066092E-01  0.33281969953E-02  0.10202949822E+01  0.10200211942E+01 0.  0.
     999903    2    3    3    0    0 -0.11921604924E+00  0.47315549308E-01  0.15736804730E-01  0.13085139007E+00  0.20572108723E-01 0.  0.
         14    1    1    2    0    0  0.10213010234E-01  0.21053066092E-01 -0.33281969953E-02  0.23635017773E-01  0.00000000000E+00 0. -1.
     999901    1    3    3    0    0  0.10900303901E+00 -0.68368615400E-01 -0.12408607735E-01  0.88944359216E+00  0.88000000000E+00 0. -1.
        -11    1    4    4    0    0 -0.56421008588E-01  0.13729690137E-01  0.73684905357E-03  0.58074423535E-01  0.51100000000E-03 0.  1.
         11    1    4    4    0    0 -0.62795040652E-01  0.33585859171E-01  0.14999955677E-01  0.72776966535E-01  0.51100000000E-03 0. -1.
</event>
<event>
 8    1  0.1074844E+005  0.1043930E+01  0.7957747E-01            NaN
         13   -1    0    0    0    0  0.00000000000E+00  0.00000000000E+00  0.74505805969E-08  0.10566000000E+00  0.10566000000E+00 0. -1.
     999900   -1    0    0    0    0 -0.00000000000E+00 -0.00000000000E+00 -0.74505805969E-08  0.93827000000E+00  0.93827000000E+00 0. -1.
     999902    2    1    2    0    0  0.12291748639E-01 -0.67362110698E-02 -0.19097301188E-01  0.10202409617E+01  0.10199659060E+01 0.  0.
     999903    2    3    3    0    0 -0.81432786508E-01 -0.19345669197E-01 -0.99492808006E-01  0.13153025259E+00  0.19895599172E-01 0.  0.
         14    1    1    2    0    0 -0.12291748639E-01  0.67362110698E-02  0.19097301188E-01  0.23689038327E-01  0.00000000000E+00 0. -1.
     999901    1    3    3    0    0  0.93724535147E-01  0.12609458127E-01  0.80395506818E-01  0.88871070908E+00  0.88000000000E+00 0.  1.
        -11    1    4    4    0    0 -0.51131592872E-01 -0.39066242931E-02 -0.51235389185E-01  0.72491570054E-01  0.51100000000E-03 0.  1.
         11    1    4    4    0    0 -0.30301193636E-01 -0.15439044904E-01 -0.48257418821E-01  0.59038682536E-01  0.51100000000E-03 0. -1.
</event>
<event>
 8    1  0.1074844E+005  0.1043930E+01  0.7957747E-01            NaN
         13   -1    0    0    0    0  0.00000000000E+00  0.00000000000E+00  0.74505805969E-08  0.10566000000E+00  0.10566000000E+00 0.  1.
     999900   -1    0    0    0    0 -0.00000000000E+00 -0.00000000000E+00 -0.74505805969E-08  0.93827000000E+00  0.93827000000E+00 0. -1.
     999902    2    1    2    0    0 -0.10080861837E-01  0.93348924959E-02  0.18740433193E-01  0.10206927921E+01  0.10204282474E+01 0.  0.
     999903    2    3    3    0    0  0.75026591734E-02  0.40222793328E-01  0.12539973408E+00  0.13354035365E+00  0.20827139739E-01 0.  0.
         14    1    1    2    0    0  0.10080861837E-01 -0.93348924959E-02 -0.18740433193E-01  0.23237207869E-01  0.00000000000E+00 0. -1.
     999901    1    3    3    0    0 -0.17583521010E-01 -0.30887900832E-01 -0.10665930088E+00  0.88715243848E+00  0.88000000000E+00 0. -1.
        -11    1    4    4    0    0 -0.32862842445E-02  0.16338552772E-01  0.73848675727E-01  0.75707568964E-01  0.51100000000E-03 0.  1.
         11    1    4    4    0    0  0.10788943418E-01  0.23884240556E-01  0.51551058350E-01  0.57832784690E-01  0.51100000000E-03 0. -1.
</event>
<event>
 8    1  0.1074844E+005  0.1043930E+01  0.7957747E-01            NaN
         13   -1    0    0    0    0  0.00000000000E+00  0.00000000000E+00  0.74505805969E-08  0.10566000000E+00  0.10566000000E+00 0. -1.
     999900   -1    0    0    0    0 -0.00000000000E+00 -0.00000000000E+00 -0.74505805969E-08  0.93827000000E+00  0.93827000000E+00 0. -1.
     999902    2    1    2    0    0  0.80088867816E-03 -0.20079674942E-01  0.11333862028E-01  0.10208585632E+01  0.10205978223E+01 0.  0.
     999903    2    3    3    0    0 -0.44717282803E-02  0.10492215861E+00 -0.70827235972E-01  0.12821994375E+00  0.19879660409E-01 0.  0.
         14    1    1    2    0    0 -0.80088867816E-03  0.20079674942E-01 -0.11333862028E-01  0.23071436820E-01  0.00000000000E+00 0.  1.
     999901    1    3    3    0    0  0.52726169585E-02 -0.12500183355E+00  0.82161098000E-01  0.89263861943E+00  0.88000000000E+00 0.  1.
        -11    1    4    4    0    0 -0.30381037875E-02  0.14690176430E-01 -0.29481684537E-02  0.15296541321E-01  0.51100000000E-03 0. -1.
         11    1    4    4    0    0 -0.14336244928E-02  0.90231982178E-01 -0.67879067518E-01  0.11292340242E+00  0.51100000000E-03 0.  1.
</event>
<event>
 8    1  0.1074844E+005  0.1043930E+01  0.7957747E-01            NaN
         13   -1    0    0    0    0  0.00000000000E+00  0.00000000000E+00  0.74505805969E-08  0.10566000000E+00  0.10566000000E+00 0.  1.
     999900   -1    0    0    0    0 -0.00000000000E+00 -0.00000000000E+00 -0.74505805969E-08  0.93827000000E+00  0.93827000000E+00 0.  1.
     999902    2    1    2    0    0  0.69081414121E-02  0.21490534032E-01  0.76088167708E-02  0.10201085902E+01  0.10198304155E+01 0.  0.
     999903    2    3    3    0    0  0.49533193939E-01 -0.10925585509E+00 -0.40101719528E-01  0.12815129941E+00  0.20596807026E-01 0.  0.
         14    1    1    2    0    0 -0.69081414121E-02 -0.21490534032E-01 -0.76088167708E-02  0.23821409770E-01  0.00000000000E+00 0. -1.
     999901    1    3    3    0    0 -0.42625052527E-01  0.13074638912E+00  0.47710536299E-01  0.89195729082E+00  0.88000000000E+00 0.  1.
        -11    1    4    4    0    0  0.23521901981E-01 -0.37705832148E-01 -0.23319877397E-01  0.50190511590E-01  0.51100000000E-03 0. -1.
         11    1    4    4    0    0  0.26011291958E-01 -0.71550022937E-01 -0.16781842131E-01  0.77960787822E-01  0.51100000000E-03 0.  1.
</event>
<event>
 8    1  0.1074844E+005  0.1043930E+01  0.7957747E-01            NaN
         13   -1    0    0    0    0  0.00000000000E+00  0.00000000000E+00  0.74505805969E-08  0.10566000000E+00  0.10566000000E+00 0.  1.
     999900   -1    0    0    0    0 -0.00000000000E+00 -0.00000000000E+00 -0.74505805969E-08  0.93827000000E+00  0.93827000000E+00 0.  1.
     999902    2    1    2    0    0 -0.12214312285E-01 -0.17327868646E-01  0.10123157571E-01  0.10204369633E+01  0.10201664929E+01 0.  0.
     999903    2    3    3    0    0 -0.11451550446E+00 -0.20617954460E-01 -0.58829925578E-01  0.13182518848E+00  0.19442720137E-01 0.  0.
         14    1    1    2    0    0  0.12214312285E-01  0.17327868646E-01 -0.10123157571E-01  0.23493036747E-01  0.00000000000E+00 0.  1.
     999901    1    3    3    0    0  0.10230119218E+00  0.32900858144E-02  0.68953083149E-01  0.88861177477E+00  0.88000000000E+00 0. -1.
        -11    1    4    4    0    0 -0.41625314698E-01 -0.56147299007E-02 -0.31660355742E-01  0.52600677394E-01  0.51100000000E-03 0.  1.
         11    1    4    4    0    0 -0.72890189764E-01 -0.15003224559E-01 -0.27169569836E-01  0.79224511088E-01  0.51100000000E-03 0. -1.
</event>
<event>
 8    1  0.1074844E+005  0.1043930E+01  0.7957747E-01            NaN
         13   -1    0    0    0    0  0.00000000000E+00  0.00000000000E+00  0.74505805969E-08  0.10566000000E+00  0.10566000000E+00 0. -1.
     999900   -1    0    0    0    0 -0.00000000000E+00 -0.00000000000E+00 -0.74505805969E-08  0.93827000000E+00  0.93827000000E+00 0. -1.
     999902    2    1    2    0    0  0.20907995214E-01 -0.84382363388E-02  0.68791237171E-02  0.10203573370E+01  0.10200850086E+01 0.  0.
     999903    2    3    3    0    0  0.12736487675E+00 -0.29058848562E-01  0.19510070418E-01  0.13361170378E+00  0.20129978394E-01 0.  0.
         14    1    1    2    0    0 -0.20907995214E-01  0.84382363388E-02 -0.68791237171E-02  0.23572662970E-01  0.00000000000E+00 0.  1.
     999901    1    3    3    0    0 -0.10645688153E+00  0.20620612223E-01 -0.12630946701E-01  0.88674563325E+00  0.88000000000E+00 0. -1.
        -11    1    4    4    0    0  0.14916702605E-01 -0.76821697124E-02  0.79268748633E-02  0.18563949316E-01  0.51100000000E-03 0. -1.
         11    1    4    4    0    0  0.11244817414E+00 -0.21376678850E-01  0.11583195555E-01  0.11504775446E+00  0.51100000000E-03 0.  1.
</event>
<event>
 8    1  0.1074844E+005  0.1043930E+01  0.7957747E-01            NaN
         13   -1    0    0    0    0  0.00000000000E+00  0.00000000000E+00  0.74505805969E-08  0.10566000000E+00  0.10566000000E+00 0.  1.
     999900   -1    0    0    0    0 -0.00000000000E+00 -0.00000000000E+00 -0.74505805969E-08  0.93827000000E+00  0.93827000000E+00 0.  1.
     999902    2    1    2    0    0  0.17711796017E-01  0.15836860422E-01  0.23291289615E-02  0.10200566109E+01  0.10197772064E+01 0.  0.
     999903    2    3    3    0    0 -0.83780695376E-01 -0.19882134162E-01  0.93716824908E-01  0.12880564547E+00  0.19838015459E-01 0.  0.
         14    1    1    2    0    0 -0.17711796017E-01 -0.15836860422E-01 -0.23291289615E-02  0.23873389116E-01  0.00000000000E+00 0. -1.
     999901    1    3    3    0    0  0.10149249139E+00  0.35718994583E-01 -0.91387695946E-01  0.89125096542E+00  0.88000000000E+00 0.  1.
        -11    1    4    4    0    0 -0.30160566611E-01 -0.15392547684E-01  0.44176966491E-01  0.55663774502E-01  0.51100000000E-03 0.  1.
         11    1    4    4    0    0 -0.53620128766E-01 -0.44895864777E-02  0.49539858417E-01  0.73141870967E-01  0.51100000000E-03 0. -1.
</event>
<event>
 8    1  0.1074844E+005  0.1043930E+01  0.7957747E-01            NaN
         13   -1    0    0    0    0  0.00000000000E+00  0.00000000000E+00  0.74505805969E-08  0.10566000000E+00  0.10566000000E+00 0. -1.
     999900   -1    0    0    0    0 -0.00000000000E+00 -0.00000000000E+00 -0.74505805969E-08  0.93827000000E+00  0.93827000000E+00 0. -1.
     999902    2    1    2    0    0 -0.10138740368E-01  0.65239637226E-02  0.21752798399E-01  0.10190595276E+01  0.10187559965E+01 0.  0.
     999903    2    3    3    0    0 -0.11393563142E-01  0.12292501973E+00 -0.34123435200E-01  0.12963671819E+00  0.20022390390E-01 0.  0.
         14    1    1    2    0    0  0.10138740368E-01 -0.65239637226E-02 -0.21752798399E-01  0.24870472394E-01  0.00000000000E+00 0.  1.
     999901    1    3    3    0    0  0.12548227737E-02 -0.11640105601E+00  0.55876233599E-01  0.88942280941E+00  0.88000000000E+00 0.  1.
        -11    1    4    4    0    0 -0.86490364110E-02  0.99542845053E-01 -0.19169069374E-01  0.10174132972E+00  0.51100000000E-03 0. -1.
         11    1    4    4    0    0 -0.27445267310E-02  0.23382174681E-01 -0.14954365825E-01  0.27895388472E-01  0.51100000000E-03 0.  1.
</event>
<event>
 8    1  0.1074844E+005  0.1043930E+01  0.7957747E-01            NaN
         13   -1    0    0    0    0  0.00000000000E+00  0.00000000000E+00  0.74505805969E-08  0.10566000000E+00  0.10566000000E+00 0. -1.
     999900   -1    0    0    0    0 -0.00000000000E+00 -0.00000000000E+00 -0.74505805969E-08  0.93827000000E+00  0.93827000000E+00 0.  1.
     999902    2    1    2    0    0  0.17666336298E-01  0.86610116415E-02 -0.13908040204E-01  0.10198354748E+01  0.10195508077E+01 0.  0.
     999903    2    3    3    0    0 -0.66074928438E-01  0.60713998614E-01  0.89423576273E-01  0.12832017163E+00  0.20430483563E-01 0.  0.
         14    1    1    2    0    0 -0.17666336298E-01 -0.86610116415E-02  0.13908040204E-01  0.24094525170E-01  0.00000000000E+00 0.  1.
     999901    1    3    3    0    0  0.83741264735E-01 -0.52052986972E-01 -0.10333161648E+00  0.89151530320E+00  0.88000000000E+00 0.  1.
        -11    1    4    4    0    0 -0.14599685274E-01  0.99100681574E-02  0.79053124489E-02  0.19342061599E-01  0.51100000000E-03 0. -1.
         11    1    4    4    0    0 -0.51475243164E-01  0.50803930456E-01  0.81518263824E-01  0.10897811003E+00  0.51100000000E-03 0.  1.
</event>
<event>
 8    1  0.1074844E+005  0.1043930E+01  0.7957747E-01            NaN
         13   -1    0    0    0    0  0.00000000000E+00  0.00000000000E+00  0.74505805969E-08  0.10566000000E+00  0.10566000000E+00 0. -1.
     999900   -1    0    0    0    0 -0.00000000000E+00 -0.00000000000E+00 -0.74505805969E-08  0.93827000000E+00  0.93827000000E+00 0.  1.
     999902    2    1    2    0    0  0.17128307100E-01 -0.14419078543E-02 -0.16408281722E-01  0.10201667992E+01  0.10198899982E+01 0.  0.
     999903    2    3    3    0    0 -0.81203963394E-01 -0.51325254277E-01 -0.86245077448E-01  0.13054060710E+00  0.19346093136E-01 0.  0.
         14    1    1    2    0    0 -0.17128307100E-01  0.14419078543E-02  0.16408281722E-01  0.23763200782E-01  0.00000000000E+00 0. -1.
     999901    1    3    3    0    0  0.98332270493E-01  0.49883346423E-01  0.69836795726E-01  0.88962619212E+00  0.88000000000E+00 0.  1.
        -11    1    4    4    0    0 -0.46190212382E-01 -0.21328613448E-01 -0.54512745230E-01  0.74567727503E-01  0.51100000000E-03 0. -1.
         11    1    4    4    0    0 -0.35013751012E-01 -0.29996640829E-01 -0.31732332218E-01  0.55972879593E-01  0.51100000000E-03 0.  1.
</event>
<event>
 8    1  0.1074844E+005  0.1043930E+01  0.7957747E-01            NaN
         13   -1    0    0    0    0  0.00000000000E+00  0.00000000000E+00  0.74505805969E-08  0.10566000000E+00  0.10566000000E+00 0.  1.
     999900   -1    0    0    0    0 -0.00000000000E+00 -0.00000000000E+00 -0.74505805969E-08  0.93827000000E+00  0.93827000000E+00 0.  1.
     999902    2    1    2    0    0 -0.12199874183E-02 -0.91440762328E-02  0.20409636174E-01  0.10215323272E+01  0.10212867568E+01 0.  0.
     999903    2    3    3    0    0  0.49061034579E-01  0.18019174035E-01 -0.11641683429E+00  0.12912686643E+00  0.19727964407E-01 0.  0.
         14    1    1    2    0    0  0.12199874183E-02  0.91440762328E-02 -0.20409636174E-01  0.22397672831E-01  0.00000000000E+00 0. -1.
     999901    1    3    3    0    0 -0.50281021997E-01 -0.27163250268E-01  0.13682647047E+00  0.89240546074E+00  0.88000000000E+00 0. -1.
        -11    1    4    4    0    0  0.96219642392E-02  0.12709761469E-01 -0.29630328973E-01  0.33650226573E-01  0.51100000000E-03 0. -1.
         11    1    4    4    0    0  0.39439070340E-01  0.53094125666E-02 -0.86786505322E-01  0.95476639856E-01  0.51100000000E-03 0.  1.
</event>
<event>
 8    1  0.1074844E+005  0.1043930E+01  0.7957747E-01            NaN
         13   -1    0    0    0    0  0.00000000000E+00  0.00000000000E+00  0.74505805969E-08  0.10566000000E+00  0.10566000000E+00 0. -1.
     999900   -1    0    0    0    0 -0.00000000000E+00 -0.00000000000E+00 -0.74505805969E-08  0.93827000000E+00  0.93827000000E+00 0. -1.
     999902    2    1    2    0    0  0.40298878902E-02 -0.10263174340E-01  0.20788091610E-01  0.10203987974E+01  0.10201274372E+01 0.  0.
     999903    2    3    3    0    0  0.40630273283E-01 -0.12080242341E+00  0.31083784502E-01  0.13266881868E+00  0.19767882591E-01 0.  0.
         14    1    1    2    0    0 -0.40298878902E-02  0.10263174340E-01 -0.20788091610E-01  0.23531202619E-01  0.00000000000E+00 0.  1.
     999901    1    3    3    0    0 -0.36600385393E-01  0.11053924907E+00 -0.10295692893E-01  0.88772997870E+00  0.88000000000E+00 0. -1.
        -11    1    4    4    0    0  0.22188163484E-01 -0.41335010347E-01  0.58809357140E-02  0.47283656850E-01  0.51100000000E-03 0. -1.
         11    1    4    4    0    0  0.18442109799E-01 -0.79467413061E-01  0.25202848788E-01  0.85385161828E-01  0.51100000000E-03 0.  1.
</event>
<event>
 8    1  0.1074844E+005  0.1043930E+01  0.7957747E-01            NaN
         13   -1    0    0    0    0  0.00000000000E+00  0.00000000000E+00  0.74505805969E-08  0.10566000000E+00  0.10566000000E+00 0. -1.
     999900   -1    0    0    0    0 -0.00000000000E+00 -0.00000000000E+00 -0.74505805969E-08  0.93827000000E+00  0.93827000000E+00 0. -1.
     999902    2    1    2    0    0  0.16295310883E-02  0.23419093740E-01 -0.32366656558E-02  0.10202322084E+01  0.10199569470E+01 0.  0.
     999903    2    3    3    0    0 -0.95399966590E-02  0.49232448202E-01  0.12017793242E+00  0.13117526384E+00  0.15791418851E-01 0.  0.
         14    1    1    2    0    0 -0.16295310883E-02 -0.23419093740E-01  0.32366656558E-02  0.23697791622E-01  0.00000000000E+00 0.  1.
     999901    1    3    3    0    0  0.11169527747E-01 -0.25813354461E-01 -0.12341459808E+00  0.88905694454E+00  0.88000000000E+00 0. -1.
        -11    1    4    4    0    0 -0.87671374197E-02  0.34090214718E-01  0.99391297411E-01  0.10544143664E+00  0.51100000000E-03 0.  1.
         11    1    4    4    0    0 -0.77285923925E-03  0.15142233484E-01  0.20786635011E-01  0.25733827200E-01  0.51100000000E-03 0. -1.
</event>
<event>
 8    1  0.1074844E+005  0.1043930E+01  0.7957747E-01            NaN
         13   -1    0    0    0    0  0.00000000000E+00  0.00000000000E+00  0.74505805969E-08  0.10566000000E+00  0.10566000000E+00 0.  1.
     999900   -1    0    0    0    0 -0.00000000000E+00 -0.00000000000E+00 -0.74505805969E-08  0.93827000000E+00  0.93827000000E+00 0. -1.
     999902    2    1    2    0    0 -0.19946719093E-01 -0.95017023452E-02  0.65994381070E-02  0.10208712374E+01  0.10206107861E+01 0.  0.
     999903    2    3    3    0    0  0.81752188327E-01  0.95006130952E-01  0.21434443592E-01  0.12874757310E+00  0.20172183622E-01 0.  0.
         14    1    1    2    0    0  0.19946719093E-01  0.95017023452E-02 -0.65994381070E-02  0.23058762615E-01  0.00000000000E+00 0. -1.
     999901    1    3    3    0    0 -0.10169890742E+00 -0.10450783330E+00 -0.14835005485E-01  0.89212366429E+00  0.88000000000E+00 0. -1.
        -11    1    4    4    0    0  0.18976892856E-01  0.31348717890E-01 -0.65330622472E-03  0.36654501849E-01  0.51100000000E-03 0. -1.
         11    1    4    4    0    0  0.62775295471E-01  0.63657413062E-01  0.22087749817E-01  0.92093071250E-01  0.51100000000E-03 0.  1.
</event>
<event>
 8    1  0.1074844E+005  0.1043930E+01  0.7957747E-01            NaN
         13   -1    0    0    0    0  0.00000000000E+00  0.00000000000E+00  0.74505805969E-08  0.10566000000E+00  0.10566000000E+00 0. -1.
     999900   -1    0    0    0    0 -0.00000000000E+00 -0.00000000000E+00 -0.74505805969E-08  0.93827000000E+00  0.93827000000E+00 0.  1.
     999902    2    1    2    0    0 -0.42639319802E-02  0.22866066459E-01  0.30210704273E-02  0.10204744041E+01  0.10202048052E+01 0.  0.
     999903    2    3    3    0    0 -0.32376956862E-02 -0.31894689902E-02  0.12949318591E+00  0.13105035448E+00  0.19622813954E-01 0.  0.
         14    1    1    2    0    0  0.42639319802E-02 -0.22866066459E-01 -0.30210704273E-02  0.23455595873E-01  0.00000000000E+00 0. -1.
     999901    1    3    3    0    0 -0.10262362939E-02  0.26055535449E-01 -0.12647211548E+00  0.88942404964E+00  0.88000000000E+00 0.  1.
        -11    1    4    4    0    0 -0.25325347432E-02 -0.24452066515E-02  0.33007360925E-02  0.48527051782E-02  0.51100000000E-03 0. -1.
         11    1    4    4    0    0 -0.70516094303E-03 -0.74426233870E-03  0.12619244982E+00  0.12619764931E+00  0.51100000000E-03 0.  1.
</event>
<event>
 8    1  0.1074844E+005  0.1043930E+01  0.7957747E-01            NaN
         13   -1    0    0    0    0  0.00000000000E+00  0.00000000000E+00  0.74505805969E-08  0.10566000000E+00  0.10566000000E+00 0.  1.
     999900   -1    0    0    0    0 -0.00000000000E+00 -0.00000000000E+00 -0.74505805969E-08  0.93827000000E+00  0.93827000000E+00 0.  1.
     999902    2    1    2    0    0  0.12636035104E-02  0.13560192951E-01  0.20486201552E-01  0.10193300004E+01  0.10190331151E+01 0.  0.
     999903    2    3    3    0    0 -0.10151747483E+00  0.59838466034E-01 -0.50060840149E-01  0.12933982420E+00  0.18337466947E-01 0.  0.
         14    1    1    2    0    0 -0.12636035104E-02 -0.13560192951E-01 -0.20486201552E-01  0.24599999609E-01  0.00000000000E+00 0. -1.
     999901    1    3    3    0    0  0.10278107834E+00 -0.46278273083E-01  0.70547041701E-01  0.88999017619E+00  0.88000000000E+00 0. -1.
        -11    1    4    4    0    0 -0.44056886818E-01  0.30778724834E-01 -0.14008530234E-01  0.55541328926E-01  0.51100000000E-03 0. -1.
         11    1    4    4    0    0 -0.57460588013E-01  0.29059741200E-01 -0.36052309915E-01  0.73798495273E-01  0.51100000000E-03 0.  1.
</event>
<event>
 8    1  0.1074844E+005  0.1043930E+01  0.7957747E-01            NaN
         13   -1    0    0    0    0  0.00000000000E+00  0.00000000000E+00  0.74505805969E-08  0.10566000000E+00  0.10566000000E+00 0. -1.
     999900   -1    0    0    0    0 -0.00000000000E+00 -0.00000000000E+00 -0.74505805969E-08  0.93827000000E+00  0.93827000000E+00 0.  1.
     999902    2    1    2    0    0 -0.31712529835E-02 -0.10997148742E-01  0.20515455453E-01  0.10204379154E+01  0.10201674672E+01 0.  0.
     999903    2    3    3    0    0 -0.99305170991E-01 -0.62931184502E-01  0.58616650762E-01  0.13286224239E+00  0.19864861859E-01 0.  0.
         14    1    1    2    0    0  0.31712529835E-02  0.10997148742E-01 -0.20515455453E-01  0.23492084590E-01  0.00000000000E+00 0.  1.
     999901    1    3    3    0    0  0.96133918007E-01  0.51934035760E-01 -0.38101195309E-01  0.88757567302E+00  0.88000000000E+00 0.  1.
        -11    1    4    4    0    0 -0.75871210487E-01 -0.38169036186E-01  0.45291965132E-01  0.96254553817E-01  0.51100000000E-03 0. -1.
         11    1    4    4    0    0 -0.23433960504E-01 -0.24762148316E-01  0.13324685630E-01  0.36607688568E-01  0.51100000000E-03 0.  1.
</event>
<event>
 8    1  0.1074844E+005  0.1043930E+01  0.7957747E-01            NaN
         13   -1    0    0    0    0  0.00000000000E+00  0.00000000000E+00  0.74505805969E-08  0.10566000000E+00  0.10566000000E+00 0.  1.
     999900   -1    0    0    0    0 -0.00000000000E+00 -0.00000000000E+00 -0.74505805969E-08  0.93827000000E+00  0.93827000000E+00 0.  1.
     999902    2    1    2    0    0 -0.16648067477E-01 -0.20727501252E-01 -0.72289318256E-02  0.10163792302E+01  0.10160057553E+01 0.  0.
     999903    2    3    3    0    0  0.91580961037E-03 -0.87924084838E-01  0.91085447402E-01  0.12818466384E+00  0.20081481859E-01 0.  0.
         14    1    1    2    0    0  0.16648067477E-01  0.20727501252E-01  0.72289318256E-02  0.27550769757E-01  0.00000000000E+00 0. -1.
     999901    1    3    3    0    0 -0.17563877087E-01  0.67196583585E-01 -0.98314379228E-01  0.88819456640E+00  0.88000000000E+00 0.  1.
        -11    1    4    4    0    0 -0.73550021710E-02 -0.32418995223E-01  0.25728189238E-01  0.42039126426E-01  0.51100000000E-03 0.  1.
         11    1    4    4    0    0  0.82708117814E-02 -0.55505089615E-01  0.65357258164E-01  0.86145537415E-01  0.51100000000E-03 0. -1.
</event>
<event>
 7    1  0.1211820E+005  0.1043930E+01  0.7957747E-01            NaN
         13   -1    0    0    0    0  0.00000000000E+00  0.00000000000E+00  0.74505805969E-08  0.10566000000E+00  0.10566000000E+00 0. -1.
     999900   -1    0    0    0    0 -0.00000000000E+00 -0.00000000000E+00 -0.74505805969E-08  0.93827000000E+00  0.93827000000E+00 0.  1.
     999903    2    1    2    0    0  0.14468011594E-01 -0.59398482008E-01  0.14386143054E-01  0.66065477667E-01  0.20498370740E-01 0.  0.
         14    1    1    2    0    0  0.46472481291E-02 -0.62005295992E-01 -0.62316989695E-01  0.88032158050E-01  0.00000000000E+00 0.  1.
     999901    1    1    2    0    0 -0.19115259723E-01  0.12140377800E+00  0.47930846641E-01  0.88983236428E+00  0.88000000000E+00 0.  1.
        -11    1    3    3    0    0  0.78369604474E-02 -0.35651342211E-01  0.18721037084E-01  0.41026509734E-01  0.51100000000E-03 0.  1.
         11    1    3    3    0    0  0.66310511464E-02 -0.23747139797E-01 -0.43348940301E-02  0.25038967932E-01  0.51100000000E-03 0. -1.
</event>
<event>
 8    1  0.1074844E+005  0.1043930E+01  0.7957747E-01            NaN
         13   -1    0    0    0    0  0.00000000000E+00  0.00000000000E+00  0.74505805969E-08  0.10566000000E+00  0.10566000000E+00 0. -1.
     999900   -1    0    0    0    0 -0.00000000000E+00 -0.00000000000E+00 -0.74505805969E-08  0.93827000000E+00  0.93827000000E+00 0.  1.
     999902    2    1    2    0    0  0.79302128448E-02 -0.24047124413E-01 -0.45777314870E-02  0.10181985388E+01  0.10178733499E+01 0.  0.
     999903    2    3    3    0    0 -0.11458652337E+00 -0.48250077113E-01 -0.28538841623E-01  0.12905835395E+00  0.19581929526E-01 0.  0.
         14    1    1    2    0    0 -0.79302128448E-02  0.24047124413E-01  0.45777314870E-02  0.25731461169E-01  0.00000000000E+00 0. -1.
     999901    1    3    3    0    0  0.12251673621E+00  0.24202952700E-01  0.23961110136E-01  0.88914018488E+00  0.88000000000E+00 0. -1.
        -11    1    4    4    0    0 -0.51355640939E-01 -0.31047144548E-01 -0.18231601902E-01  0.62721443460E-01  0.51100000000E-03 0. -1.
         11    1    4    4    0    0 -0.63230882430E-01 -0.17202932566E-01 -0.10307239722E-01  0.66336910490E-01  0.51100000000E-03 0.  1.
</event>
<event>
 8    1  0.1074844E+005  0.1043930E+01  0.7957747E-01            NaN
         13   -1    0    0    0    0  0.00000000000E+00  0.00000000000E+00  0.74505805969E-08  0.10566000000E+00  0.10566000000E+00 0.  1.
     999900   -1    0    0    0    0 -0.00000000000E+00 -0.00000000000E+00 -0.74505805969E-08  0.93827000000E+00  0.93827000000E+00 0. -1.
     999902    2    1    2    0    0 -0.36735065179E-02  0.35575307525E-02 -0.23215050891E-01  0.10201583938E+01  0.10198813946E+01 0.  0.
     999903    2    3    3    0    0  0.37723902713E-01  0.11400743176E+00  0.42257499228E-01  0.12987777455E+00  0.25724555368E-01 0.  0.
         14    1    1    2    0    0  0.36735065179E-02 -0.35575307525E-02  0.23215050891E-01  0.23771606236E-01  0.00000000000E+00 0.  1.
     999901    1    3    3    0    0 -0.41397409231E-01 -0.11044990101E+00 -0.65472550119E-01  0.89028061921E+00  0.88000000000E+00 0. -1.
        -11    1    4    4    0    0  0.75816780327E-02  0.53399158921E-01  0.98533679687E-02  0.54829754664E-01  0.51100000000E-03 0.  1.
         11    1    4    4    0    0  0.30142224680E-01  0.60608272841E-01  0.32404131260E-01  0.75048019888E-01  0.51100000000E-03 0. -1.
</event>
<event>
 8    1  0.1074844E+005  0.1043930E+01  0.7957747E-01            NaN
         13   -1    0    0    0    0  0.00000000000E+00  0.00000000000E+00  0.74505805969E-08  0.10566000000E+00  0.10566000000E+00 0.  1.
     999900   -1    0    0    0    0 -0.00000000000E+00 -0.00000000000E+00 -0.74505805969E-08  0.93827000000E+00  0.93827000000E+00 0.  1.
     999902    2    1    2    0    0 -0.14245838667E-01  0.11260198649E-01 -0.16675077838E-01  0.10192765172E+01  0.10189783238E+01 0.  0.
     999903    2    3    3    0    0  0.11230332955E+00 -0.22089076259E-02  0.56208004149E-01  0.12713972700E+00  0.19704145521E-01 0.  0.
         14    1    1    2    0    0  0.14245838667E-01 -0.11260198649E-01  0.16675077838E-01  0.24653482794E-01  0.00000000000E+00 0. -1.
     999901    1    3    3    0    0 -0.12654916822E+00  0.13469106275E-01 -0.72883081988E-01  0.89213679021E+00  0.88000000000E+00 0.  1.
        -11    1    4    4    0    0  0.40777281395E-01  0.20406297859E-02  0.10539930585E-01  0.42169919440E-01  0.51100000000E-03 0. -1.
         11    1    4    4    0    0  0.71526048153E-01 -0.42495374119E-02  0.45668073564E-01  0.84969807559E-01  0.51100000000E-03 0.  1.
</event>
<event>
 8    1  0.1074844E+005  0.1043930E+01  0.7957747E-01            NaN
         13   -1    0    0    0    0  0.00000000000E+00  0.00000000000E+00  0.74505805969E-08  0.10566000000E+00  0.10566000000E+00 0. -1.
     999900   -1    0    0    0    0 -0.00000000000E+00 -0.00000000000E+00 -0.74505805969E-08  0.93827000000E+00  0.93827000000E+00 0. -1.
     999902    2    1    2    0    0 -0.15355330489E-02 -0.17174474779E-01  0.13592562897E-01  0.10219737204E+01  0.10217378368E+01 0.  0.
     999903    2    3    3    0    0  0.10085543158E-01  0.12820255637E+00 -0.81605301038E-02  0.12970541570E+00  0.14808341238E-01 0.  0.
         14    1    1    2    0    0  0.15355330489E-02  0.17174474779E-01 -0.13592562897E-01  0.21956279553E-01  0.00000000000E+00 0.  1.
     999901    1    3    3    0    0 -0.11621076207E-01 -0.14537703115E+00  0.21753093001E-01  0.89226830475E+00  0.88000000000E+00 0. -1.
        -11    1    4    4    0    0 -0.16851099263E-02  0.62283913215E-01 -0.55145876014E-03  0.62311240307E-01  0.51100000000E-03 0.  1.
         11    1    4    4    0    0  0.11770653084E-01  0.65918643155E-01 -0.76090713437E-02  0.67394175395E-01  0.51100000000E-03 0. -1.
</event>
<event>
 8    1  0.1074844E+005  0.1043930E+01  0.7957747E-01            NaN
         13   -1    0    0    0    0  0.00000000000E+00  0.00000000000E+00  0.74505805969E-08  0.10566000000E+00  0.10566000000E+00 0. -1.
     999900   -1    0    0    0    0 -0.00000000000E+00 -0.00000000000E+00 -0.74505805969E-08  0.93827000000E+00  0.93827000000E+00 0.  1.
     999902    2    1    2    0    0 -0.19676685956E-02 -0.22034301371E-01 -0.10012912969E-01  0.10196474840E+01  0.10193583036E+01 0.  0.
     999903    2    3    3    0    0  0.41384575906E-01 -0.11965128958E+00  0.32499383210E-01  0.13217027934E+00  0.19587205253E-01 0.  0.
         14    1    1    2    0    0  0.19676685956E-02  0.22034301371E-01  0.10012912969E-01  0.24282515989E-01  0.00000000000E+00 0. -1.
     999901    1    3    3    0    0 -0.43352244502E-01  0.97616988210E-01 -0.42512296178E-01  0.88747720467E+00  0.88000000000E+00 0.  1.
        -11    1    4    4    0    0  0.31467628190E-01 -0.10694979010E+00  0.24380679300E-01  0.11411900749E+00  0.51100000000E-03 0. -1.
         11    1    4    4    0    0  0.99169477165E-02 -0.12701499476E-01  0.81187039098E-02  0.18051271842E-01  0.51100000000E-03 0.  1.
</event>
<event>
 8    1  0.1074844E+005  0.1043930E+01  0.7957747E-01            NaN
         13   -1    0    0    0    0  0.00000000000E+00  0.00000000000E+00  0.74505805969E-08  0.10566000000E+00  0.10566000000E+00 0. -1.
     999900   -1    0    0    0    0 -0.00000000000E+00 -0.00000000000E+00 -0.74505805969E-08  0.93827000000E+00  0.93827000000E+00 0.  1.
     999902    2    1    2    0    0  0.11434694570E-01  0.50884694869E-02  0.20581911299E-01  0.10198414169E+01  0.10195568919E+01 0.  0.
     999903    2    3    3    0    0  0.67229785654E-01  0.10407088592E+00  0.41984262250E-01  0.13227808309E+00  0.19601520701E-01 0.  0.
         14    1    1    2    0    0 -0.11434694570E-01 -0.50884694869E-02 -0.20581911299E-01  0.24088583071E-01  0.00000000000E+00 0.  1.
     999901    1    3    3    0    0 -0.55795091084E-01 -0.98982416433E-01 -0.21402350951E-01  0.88756333384E+00  0.88000000000E+00 0. -1.
        -11    1    4    4    0    0  0.40168044572E-01  0.78269531443E-01  0.27458700262E-01  0.92161991613E-01  0.51100000000E-03 0. -1.
         11    1    4    4    0    0  0.27061741082E-01  0.25801354477E-01  0.14525561988E-01  0.40116091476E-01  0.51100000000E-03 0.  1.
</event>
<event>
 8    1  0.1074844E+005  0.1043930E+01  0.7957747E-01            NaN
         13   -1    0    0    0    0  0.00000000000E+00  0.00000000000E+00  0.74505805969E-08  0.10566000000E+00  0.10566000000E+00 0.  1.
     999900   -1    0    0    0    0 -0.00000000000E+00 -0.00000000000E+00 -0.74505805969E-08  0.93827000000E+00  0.93827000000E+00 0. -1.
     999902    2    1    2    0    0  0.10289846477E-01  0.15268518176E-01 -0.14291558713E-01  0.10206221207E+01  0.10203559457E+01 0.  0.
     999903    2    3    3    0    0 -0.51642574232E-01 -0.11491844868E+00 -0.18835728098E-01  0.12887948934E+00  0.19543101080E-01 0.  0.
         14    1    1    2    0    0 -0.10289846477E-01 -0.15268518176E-01  0.14291558713E-01  0.23307879317E-01  0.00000000000E+00 0.  1.
     999901    1    3    3    0    0  0.61932420709E-01  0.13018696686E+00  0.45441693851E-02  0.89174263134E+00  0.88000000000E+00 0.  1.
        -11    1    4    4    0    0 -0.11687838787E-01 -0.44679178317E-01 -0.12360436768E-01  0.47810836310E-01  0.51100000000E-03 0. -1.
         11    1    4    4    0    0 -0.39954735445E-01 -0.70239270364E-01 -0.64752913298E-02  0.81068653033E-01  0.51100000000E-03 0.  1.
</event>
<event>
 8    1  0.1074844E+005  0.1043930E+01  0.7957747E-01            NaN
         13   -1    0    0    0    0  0.00000000000E+00  0.00000000000E+00  0.74505805969E-08  0.10566000000E+00  0.10566000000E+00 0. -1.
     999900   -1    0    0    0    0 -0.00000000000E+00 -0.00000000000E+00 -0.74505805969E-08  0.93827000000E+00  0.93827000000E+00 0. -1.
     999902    2    1    2    0    0 -0.30870040410E-02 -0.91046838769E-02  0.16320771776E-01  0.10249881824E+01  0.10248131447E+01 0.  0.
     999903    2    3    3    0    0 -0.69470586431E-01 -0.96901506385E-01  0.64119001277E-01  0.13684420039E+00  0.19975598505E-01 0.  0.
         14    1    1    2    0    0  0.30870040410E-02  0.91046838769E-02 -0.16320771776E-01  0.18941817595E-01  0.00000000000E+00 0.  1.
     999901    1    3    3    0    0  0.66383582390E-01  0.87796822508E-01 -0.47798229501E-01  0.88814398202E+00  0.88000000000E+00 0.  1.
        -11    1    4    4    0    0 -0.52803960093E-01 -0.64989815859E-01  0.53242358287E-01  0.99231770134E-01  0.51100000000E-03 0. -1.
         11    1    4    4    0    0 -0.16666626337E-01 -0.31911690526E-01  0.10876642991E-01  0.37612430252E-01  0.51100000000E-03 0.  1.
</event>
<event>
 8    1  0.1074844E+005  0.1043930E+01  0.7957747E-01            NaN
         13   -1    0    0    0    0  0.00000000000E+00  0.00000000000E+00  0.74505805969E-08  0.10566000000E+00  0.10566000000E+00 0. -1.
     999900   -1    0    0    0    0 -0.00000000000E+00 -0.00000000000E+00 -0.74505805969E-08  0.93827000000E+00  0.93827000000E+00 0. -1.
     999902    2    1    2    0    0  0.26907908379E-01 -0.64013743479E-02  0.19707439488E-01  0.10099683113E+01  0.10093971436E+01 0.  0.
     999903    2    3    3    0    0  0.69813922107E-01  0.68889443762E-01 -0.68511552397E-01  0.12132202407E+00  0.20136075383E-01 0.  0.
         14    1    1    2    0    0 -0.26907908379E-01  0.64013743479E-02 -0.19707439488E-01  0.33961688681E-01  0.00000000000E+00 0.  1.
     999901    1    3    3    0    0 -0.42906013728E-01 -0.75290818109E-01  0.88218991885E-01  0.88864628725E+00  0.88000000000E+00 0.  1.
        -11    1    4    4    0    0  0.46391324022E-01  0.43960020097E-01 -0.55741903723E-01  0.84806009593E-01  0.51100000000E-03 0.  1.
         11    1    4    4    0    0  0.23422598085E-01  0.24929423665E-01 -0.12769648673E-01  0.36516014481E-01  0.51100000000E-03 0. -1.
</event>
<event>
 8    1  0.1074844E+005  0.1043930E+01  0.7957747E-01            NaN
         13   -1    0    0    0    0  0.00000000000E+00  0.00000000000E+00  0.74505805969E-08  0.10566000000E+00  0.10566000000E+00 0. -1.
     999900   -1    0    0    0    0 -0.00000000000E+00 -0.00000000000E+00 -0.74505805969E-08  0.93827000000E+00  0.93827000000E+00 0.  1.
     999902    2    1    2    0    0  0.19587906141E-01  0.75916731882E-02  0.15050842240E-01  0.10180872559E+01  0.10177592118E+01 0.  0.
     999903    2    3    3    0    0  0.11804824819E+00  0.41583028300E-01  0.35949983768E-01  0.13169759822E+00  0.19680419239E-01 0.  0.
         14    1    1    2    0    0 -0.19587906141E-01 -0.75916731882E-02 -0.15050842240E-01  0.25842744067E-01  0.00000000000E+00 0.  1.
     999901    1    3    3    0    0 -0.98460342049E-01 -0.33991355112E-01 -0.20899141528E-01  0.88638965771E+00  0.88000000000E+00 0. -1.
        -11    1    4    4    0    0  0.28305969487E-01  0.16359175078E-01  0.15839941414E-01  0.36332015948E-01  0.51100000000E-03 0. -1.
         11    1    4    4    0    0  0.89742278703E-01  0.25223853222E-01  0.20110042354E-01  0.95365582275E-01  0.51100000000E-03 0.  1.
</event>
<event>
 8    1  0.1074844E+005  0.1043930E+01  0.7957747E-01            NaN
         13   -1    0    0    0    0  0.00000000000E+00  0.00000000000E+00  0.74505805969E-08  0.10566000000E+00  0.10566000000E+00 0. -1.
     999900   -1    0    0    0    0 -0.00000000000E+00 -0.00000000000E+00 -0.74505805969E-08  0.93827000000E+00  0.93827000000E+00 0.  1.
     999902    2    1    2    0    0  0.11552838504E-01 -0.99706086817E-02 -0.20644020157E-01  0.10182579007E+01  0.10179342295E+01 0.  0.
     999903    2    3    3    0    0 -0.58791767596E-01  0.34996768690E-01 -0.10855608990E+00  0.12994547781E+00  0.20497726528E-01 0.  0.
         14    1    1    2    0    0 -0.11552838504E-01  0.99706086817E-02  0.20644020157E-01  0.25672099315E-01  0.00000000000E+00 0. -1.
     999901    1    3    3    0    0  0.70344606100E-01 -0.44967377372E-01  0.87912069740E-01  0.88831242288E+00  0.88000000000E+00 0.  1.
        -11    1    4    4    0    0 -0.33936177702E-01  0.84113306728E-02 -0.55827975437E-01  0.65874415391E-01  0.51100000000E-03 0.  1.
         11    1    4    4    0    0 -0.24855589894E-01  0.26585438017E-01 -0.52728114460E-01  0.64071062415E-01  0.51100000000E-03 0. -1.
</event>
<event>
 8    1  0.1074844E+005  0.1043930E+01  0.7957747E-01            NaN
         13   -1    0    0    0    0  0.00000000000E+00  0.00000000000E+00  0.74505805969E-08  0.10566000000E+00  0.10566000000E+00 0.  1.
     999900   -1    0    0    0    0 -0.00000000000E+00 -0.00000000000E+00 -0.74505805969E-08  0.93827000000E+00  0.93827000000E+00 0. -1.
     999902    2    1    2    0    0  0.66644718424E-04 -0.39815238474E-02  0.23014471062E-01  0.10205735694E+01  0.10203062715E+01 0.  0.
     999903    2    3    3    0    0 -0.47827071769E-02  0.12088286426E+00  0.47315655128E-01  0.13141375292E+00  0.19881199104E-01 0.  0.
         14    1    1    2    0    0 -0.66644718424E-04  0.39815238474E-02 -0.23014471062E-01  0.23356430634E-01  0.00000000000E+00 0. -1.
     999901    1    3    3    0    0  0.48493518953E-02 -0.12486438811E+00 -0.24301184065E-01  0.88915981644E+00  0.88000000000E+00 0. -1.
        -11    1    4    4    0    0  0.45729021821E-02  0.94273425697E-02  0.17290609236E-02  0.10631885767E-01  0.51100000000E-03 0.  1.
         11    1    4    4    0    0 -0.93556093590E-02  0.11145552169E+00  0.45586594204E-01  0.12078186716E+00  0.51100000000E-03 0. -1.
</event>
<event>
 8    1  0.1074844E+005  0.1043930E+01  0.7957747E-01            NaN
         13   -1    0    0    0    0  0.00000000000E+00  0.00000000000E+00  0.74505805969E-08  0.10566000000E+00  0.10566000000E+00 0. -1.
     999900   -1    0    0    0    0 -0.00000000000E+00 -0.00000000000E+00 -0.74505805969E-08  0.93827000000E+00  0.93827000000E+00 0. -1.
     999902    2    1    2    0    0  0.19070498773E-01  0.32818283494E-02 -0.15285972708E-01  0.10192700064E+01  0.10189716536E+01 0.  0.
     999903    2    3    3    0    0 -0.11071747526E-01  0.10201814521E+00 -0.78907737538E-01  0.13095410304E+00  0.19805567759E-01 0.  0.
         14    1    1    2    0    0 -0.19070498773E-01 -0.32818283494E-02  0.15285972708E-01  0.24659993560E-01  0.00000000000E+00 0. -1.
     999901    1    3    3    0    0  0.30142246298E-01 -0.98736316857E-01  0.63621764830E-01  0.88831590340E+00  0.88000000000E+00 0. -1.
        -11    1    4    4    0    0 -0.76276694456E-02  0.76264149935E-01 -0.47430854045E-01  0.90135170399E-01  0.51100000000E-03 0.  1.
         11    1    4    4    0    0 -0.34440780800E-02  0.25753995272E-01 -0.31476883493E-01  0.40818932638E-01  0.51100000000E-03 0. -1.
</event>
<event>
 8    1  0.1074844E+005  0.1043930E+01  0.7957747E-01            NaN
         13   -1    0    0    0    0  0.00000000000E+00  0.00000000000E+00  0.74505805969E-08  0.10566000000E+00  0.10566000000E+00 0. -1.
     999900   -1    0    0    0    0 -0.00000000000E+00 -0.00000000000E+00 -0.74505805969E-08  0.93827000000E+00  0.93827000000E+00 0.  1.
     999902    2    1    2    0    0 -0.23652905426E-01  0.11241101394E-01 -0.55098734882E-02  0.10171684417E+01  0.10168163344E+01 0.  0.
     999903    2    3    3    0    0 -0.35519798793E-01 -0.12046839071E+00 -0.29861303259E-02  0.12728385215E+00  0.20444382552E-01 0.  0.
         14    1    1    2    0    0  0.23652905426E-01 -0.11241101394E-01  0.55098734882E-02  0.26761558279E-01  0.00000000000E+00 0.  1.
     999901    1    3    3    0    0  0.11866893367E-01  0.13170949211E+00 -0.25237431623E-02  0.88988458957E+00  0.88000000000E+00 0.  1.
        -11    1    4    4    0    0 -0.52163978984E-02 -0.39635576439E-01  0.62388969916E-02  0.40464486693E-01  0.51100000000E-03 0.  1.
         11    1    4    4    0    0 -0.30303400895E-01 -0.80832814273E-01 -0.92250273175E-02  0.86819365461E-01  0.51100000000E-03 0. -1.
</event>
<event>
 8    1  0.1074844E+005  0.1043930E+01  0.7957747E-01            NaN
         13   -1    0    0    0    0  0.00000000000E+00  0.00000000000E+00  0.74505805969E-08  0.10566000000E+00  0.10566000000E+00 0. -1.
     999900   -1    0    0    0    0 -0.00000000000E+00 -0.00000000000E+00 -0.74505805969E-08  0.93827000000E+00  0.93827000000E+00 0. -1.
     999902    2    1    2    0    0  0.22460240280E-01 -0.71122152700E-02  0.11310689386E-02  0.10203434505E+01  0.10200707974E+01 0.  0.
     999903    2    3    3    0    0 -0.77762032034E-01  0.65417830105E-01 -0.75832184273E-01  0.12836337580E+00  0.20005248150E-01 0.  0.
         14    1    1    2    0    0 -0.22460240280E-01  0.71122152700E-02 -0.11310689386E-02  0.23586549481E-01  0.00000000000E+00 0. -1.
     999901    1    3    3    0    0  0.10022227231E+00 -0.72530045374E-01  0.76963253212E-01  0.89198007472E+00  0.88000000000E+00 0.  1.
        -11    1    4    4    0    0 -0.46853478402E-01  0.38881134108E-01 -0.33020116131E-01  0.69264566830E-01  0.51100000000E-03 0. -1.
         11    1    4    4    0    0 -0.30908553632E-01  0.26536695997E-01 -0.42812068143E-01  0.59098808970E-01  0.51100000000E-03 0.  1.
</event>
<event>
 8    1  0.1074844E+005  0.1043930E+01  0.7957747E-01            NaN
         13   -1    0    0    0    0  0.00000000000E+00  0.00000000000E+00  0.74505805969E-08  0.10566000000E+00  0.10566000000E+00 0.  1.
     999900   -1    0    0    0    0 -0.00000000000E+00 -0.00000000000E+00 -0.74505805969E-08  0.93827000000E+00  0.93827000000E+00 0.  1.
     999902    2    1    2    0    0 -0.17232511683E-01 -0.14444112901E-01 -0.45931785072E-02  0.10209802910E+01  0.10207223253E+01 0.  0.
     999903    2    3    3    0    0  0.31609636162E-01 -0.12001254459E+00  0.40944105652E-01  0.13215865900E+00  0.19680228775E-01 0.  0.
         14    1    1    2    0    0  0.17232511683E-01  0.14444112901E-01  0.45931785072E-02  0.22949709044E-01  0.00000000000E+00 0. -1.
     999901    1    3    3    0    0 -0.48842147846E-01  0.10556843169E+00 -0.45537284159E-01  0.88882163195E+00  0.88000000000E+00 0.  1.
        -11    1    4    4    0    0  0.11805566116E-01 -0.16781691772E-01  0.58859228561E-02  0.21351856568E-01  0.51100000000E-03 0.  1.
         11    1    4    4    0    0  0.19804070047E-01 -0.10323085282E+00  0.35058182796E-01  0.11080680244E+00  0.51100000000E-03 0. -1.
</event>
<event>
 8    1  0.1074844E+005  0.1043930E+01  0.7957747E-01            NaN
         13   -1    0    0    0    0  0.00000000000E+00  0.00000000000E+00  0.74505805969E-08  0.10566000000E+00  0.10566000000E+00 0.  1.
     999900   -1    0    0    0    0 -0.00000000000E+00 -0.00000000000E+00 -0.74505805969E-08  0.93827000000E+00  0.93827000000E+00 0.  1.
     999902    2    1    2    0    0 -0.20633628358E-01  0.14052299260E-01 -0.11128907859E-02  0.10189409572E+01  0.10186344889E+01 0.  0.
     999903    2    3    3    0    0 -0.11417777185E+00 -0.61003427236E-01 -0.19602969962E-02  0.13080550191E+00  0.18661587430E-01 0.  0.
         14    1    1    2    0    0  0.20633628358E-01 -0.14052299260E-01  0.11128907859E-02  0.24989042791E-01  0.00000000000E+00 0.  1.
     999901    1    3    3    0    0  0.93544143497E-01  0.75055726496E-01  0.84740621033E-03  0.88813545530E+00  0.88000000000E+00 0.  1.
        -11    1    4    4    0    0 -0.39391161536E-01 -0.29178107290E-01 -0.62165768436E-02  0.49415913437E-01  0.51100000000E-03 0. -1.
         11    1    4    4    0    0 -0.74786610319E-01 -0.31825319946E-01  0.42562798474E-02  0.81389588473E-01  0.51100000000E-03 0.  1.
</event>
<event>
 8    1  0.1074844E+005  0.1043930E+01  0.7957747E-01            NaN
         13   -1    0    0    0    0  0.00000000000E+00  0.00000000000E+00  0.74505805969E-08  0.10566000000E+00  0.10566000000E+00 0.  1.
     999900   -1    0    0    0    0 -0.00000000000E+00 -0.00000000000E+00 -0.74505805969E-08  0.93827000000E+00  0.93827000000E+00 0. -1.
     999902    2    1    2    0    0 -0.18065052477E-01 -0.71762282735E-03 -0.15623676113E-01  0.10200352232E+01  0.10197553119E+01 0.  0.
     999903    2    3    3    0    0  0.94678529115E-01 -0.50014558216E-01 -0.70675614245E-01  0.12977008351E+00  0.19487232169E-01 0.  0.
         14    1    1    2    0    0  0.18065052477E-01  0.71762282735E-03  0.15623676113E-01  0.23894776810E-01  0.00000000000E+00 0.  1.
     999901    1    3    3    0    0 -0.11274358159E+00  0.49296935389E-01  0.55051938131E-01  0.89026513968E+00  0.88000000000E+00 0. -1.
        -11    1    4    4    0    0  0.62011997484E-01 -0.41890985179E-01 -0.53361741346E-01  0.91913432271E-01  0.51100000000E-03 0.  1.
         11    1    4    4    0    0  0.32666531630E-01 -0.81235730367E-02 -0.17313872898E-01  0.37856651244E-01  0.51100000000E-03 0. -1.
</event>
<event>
 8    1  0.1074844E+005  0.1043930E+01  0.7957747E-01            NaN
         13   -1    0    0    0    0  0.00000000000E+00  0.00000000000E+00  0.74505805969E-08  0.10566000000E+00  0.10566000000E+00 0. -1.
     999900   -1    0    0    0    0 -0.00000000000E+00 -0.00000000000E+00 -0.74505805969E-08  0.93827000000E+00  0.93827000000E+00 0.  1.
     999902    2    1    2    0    0  0.78896354492E-02  0.21264526082E-02 -0.20949233247E-01  0.10214435925E+01  0.10211960508E+01 0.  0.
     999903    2    3    3    0    0  0.17917450180E-01  0.68549877825E-01  0.10655523623E+00  0.12972053111E+00  0.21290304214E-01 0.  0.
         14    1    1    2    0    0 -0.78896354492E-02 -0.21264526082E-02  0.20949233247E-01  0.22486407491E-01  0.00000000000E+00 0. -1.
     999901    1    3    3    0    0 -0.10027814731E-01 -0.66423425217E-01 -0.12750446948E+00  0.89172306139E+00  0.88000000000E+00 0. -1.
        -11    1    4    4    0    0  0.17220805142E-01  0.28646986979E-01  0.40158005994E-01  0.52250670418E-01  0.51100000000E-03 0. -1.
         11    1    4    4    0    0  0.69664503857E-03  0.39902890845E-01  0.66397230238E-01  0.77469860696E-01  0.51100000000E-03 0.  1.
</event>
<event>
 8    1  0.1074844E+005  0.1043930E+01  0.7957747E-01            NaN
         13   -1    0    0    0    0  0.00000000000E+00  0.00000000000E+00  0.74505805969E-08  0.10566000000E+00  0.10566000000E+00 0. -1.
     999900   -1    0    0    0    0 -0.00000000000E+00 -0.00000000000E+00 -0.74505805969E-08  0.93827000000E+00  0.93827000000E+00 0. -1.
     999902    2    1    2    0    0  0.98749432260E-02 -0.19257734132E-01  0.84845150363E-02  0.10206843160E+01  0.10204195760E+01 0.  0.
     999903    2    3    3    0    0 -0.32783969262E-01 -0.10688734770E+00  0.68878625839E-01  0.13324632913E+00  0.22597021687E-01 0.  0.
         14    1    1    2    0    0 -0.98749432260E-02  0.19257734132E-01 -0.84845150363E-02  0.23245683965E-01  0.00000000000E+00 0.  1.
     999901    1    3    3    0    0  0.42658912488E-01  0.87629613569E-01 -0.60394110803E-01  0.88743798691E+00  0.88000000000E+00 0. -1.
        -11    1    4    4    0    0 -0.26861883627E-01 -0.49378702875E-01  0.35563248587E-01  0.66519342005E-01  0.51100000000E-03 0. -1.
         11    1    4    4    0    0 -0.59220856348E-02 -0.57508644825E-01  0.33315377252E-01  0.66726987122E-01  0.51100000000E-03 0.  1.
</event>
<event>
 8    1  0.1074844E+005  0.1043930E+01  0.7957747E-01            NaN
         13   -1    0    0    0    0  0.00000000000E+00  0.00000000000E+00  0.74505805969E-08  0.10566000000E+00  0.10566000000E+00 0. -1.
     999900   -1    0    0    0    0 -0.00000000000E+00 -0.00000000000E+00 -0.74505805969E-08  0.93827000000E+00  0.93827000000E+00 0.  1.
     999902    2    1    2    0    0 -0.13889379123E-02  0.92061675657E-02  0.22750453106E-01  0.10193481818E+01  0.10190517406E+01 0.  0.
     999903    2    3    3    0    0  0.37955320994E-01 -0.11063572992E+00  0.51266180416E-01  0.12989711636E+00  0.23752230574E-01 0.  0.
         14    1    1    2    0    0  0.13889379123E-02 -0.92061675657E-02 -0.22750453106E-01  0.24581818206E-01  0.00000000000E+00 0.  1.
     999901    1    3    3    0    0 -0.39344258907E-01  0.11984189748E+00 -0.28515727310E-01  0.88945106544E+00  0.88000000000E+00 0.  1.
        -11    1    4    4    0    0  0.11947883012E-01 -0.49877803079E-01  0.34164958546E-01  0.61628343008E-01  0.51100000000E-03 0.  1.
         11    1    4    4    0    0  0.26007437983E-01 -0.60757926840E-01  0.17101221870E-01  0.68268773350E-01  0.51100000000E-03 0. -1.
</event>
<event>
 8    1  0.1074844E+005  0.1043930E+01  0.7957747E-01            NaN
         13   -1    0    0    0    0  0.00000000000E+00  0.00000000000E+00  0.74505805969E-08  0.10566000000E+00  0.10566000000E+00 0.  1.
     999900   -1    0    0    0    0 -0.00000000000E+00 -0.00000000000E+00 -0.74505805969E-08  0.93827000000E+00  0.93827000000E+00 0.  1.
     999902    2    1    2    0    0 -0.13412295640E-01  0.26984093242E-02 -0.18400297007E-01  0.10210009351E+01  0.10207434386E+01 0.  0.
     999903    2    3    3    0    0  0.86342130973E-02 -0.12892967354E+00 -0.46790400852E-02  0.13083225803E+00  0.19944321766E-01 0.  0.
         14    1    1    2    0    0  0.13412295640E-01 -0.26984093242E-02  0.18400297007E-01  0.22929064899E-01  0.00000000000E+00 0.  1.
     999901    1    3    3    0    0 -0.22046508738E-01  0.13162808286E+00 -0.13721256922E-01  0.89016867707E+00  0.88000000000E+00 0. -1.
        -11    1    4    4    0    0  0.30819109617E-02 -0.11789847909E+00 -0.10291455330E-02  0.11794435048E+00  0.51100000000E-03 0.  1.
         11    1    4    4    0    0  0.55523021356E-02 -0.11031194445E-01 -0.36498945523E-02  0.12887907554E-01  0.51100000000E-03 0. -1.
</event>
<event>
 8    1  0.1074844E+005  0.1043930E+01  0.7957747E-01            NaN
         13   -1    0    0    0    0  0.00000000000E+00  0.00000000000E+00  0.74505805969E-08  0.10566000000E+00  0.10566000000E+00 0.  1.
     999900   -1    0    0    0    0 -0.00000000000E+00 -0.00000000000E+00 -0.74505805969E-08  0.93827000000E+00  0.93827000000E+00 0.  1.
     999902    2    1    2    0    0  0.81319782340E-02  0.15748004958E-01 -0.10312160146E-01  0.10234246500E+01  0.10232192067E+01 0.  0.
     999903    2    3    3    0    0 -0.11089499461E-01  0.78149806721E-01  0.10575522031E+00  0.13340493853E+00  0.19553560077E-01 0.  0.
         14    1    1    2    0    0 -0.81319782340E-02 -0.15748004958E-01  0.10312160146E-01  0.20505349961E-01  0.00000000000E+00 0.  1.
     999901    1    3    3    0    0  0.19221477695E-01 -0.62401801763E-01 -0.11606738046E+00  0.89001971151E+00  0.88000000000E+00 0.  1.
        -11    1    4    4    0    0  0.49817738936E-02  0.28636518715E-01  0.42321060505E-01  0.51343953476E-01  0.51100000000E-03 0.  1.
         11    1    4    4    0    0 -0.16071273354E-01  0.49513288006E-01  0.63434159808E-01  0.82060985053E-01  0.51100000000E-03 0. -1.
</event>
<event>
 8    1  0.1074844E+005  0.1043930E+01  0.7957747E-01            NaN
         13   -1    0    0    0    0  0.00000000000E+00  0.00000000000E+00  0.74505805969E-08  0.10566000000E+00  0.10566000000E+00 0. -1.
     999900   -1    0    0    0    0 -0.00000000000E+00 -0.00000000000E+00 -0.74505805969E-08  0.93827000000E+00  0.93827000000E+00 0. -1.
     999902    2    1    2    0    0 -0.89667805382E-02 -0.13417135002E-01 -0.18104516560E-01  0.10196772438E+01  0.10193887802E+01 0.  0.
     999903    2    3    3    0    0 -0.66843946529E-01  0.10418083719E+00  0.24999786981E-01  0.12892641981E+00  0.25986002963E-01 0.  0.
         14    1    1    2    0    0  0.89667805382E-02  0.13417135002E-01  0.18104516560E-01  0.24252756231E-01  0.00000000000E+00 0. -1.
     999901    1    3    3    0    0  0.57877165991E-01 -0.11759797219E+00 -0.43104303541E-01  0.89075082396E+00  0.88000000000E+00 0.  1.
        -11    1    4    4    0    0 -0.43076170892E-01  0.49237997654E-01  0.42282880498E-02  0.65559716691E-01  0.51100000000E-03 0. -1.
         11    1    4    4    0    0 -0.23767775636E-01  0.54942839536E-01  0.20771498931E-01  0.63366703116E-01  0.51100000000E-03 0.  1.
</event>
<event>
 7    1  0.1074844E+005  0.1043930E+01  0.7957747E-01            NaN
         13   -1    0    0    0    0  0.00000000000E+00  0.00000000000E+00  0.74505805969E-08  0.10566000000E+00  0.10566000000E+00 0.  1.
     999900   -1    0    0    0    0 -0.00000000000E+00 -0.00000000000E+00 -0.74505805969E-08  0.93827000000E+00  0.93827000000E+00 0.  1.
     999903    2    1    2    0    0 -0.69296423250E-01 -0.74184137575E-01  0.59368318988E-01  0.11925337392E+00  0.19786089802E-01 0.  0.
         14    1    1    2    0    0  0.85991496344E-02  0.35894966360E-01 -0.17272949763E-01  0.40752285554E-01  0.00000000000E+00 0. -1.
     999901    1    1    2    0    0  0.60697273616E-01  0.38289171215E-01 -0.42095369225E-01  0.88392434052E+00  0.88000000000E+00 0.  1.
        -11    1    3    3    0    0 -0.41501846657E-01 -0.34941442255E-01  0.22859151355E-01  0.58873674800E-01  0.51100000000E-03 0.  1.
         11    1    3    3    0    0 -0.27794576594E-01 -0.39242695320E-01  0.36509167634E-01  0.60379699124E-01  0.51100000000E-03 0. -1.
</event>
<event>
 8    1  0.1074844E+005  0.1043930E+01  0.7957747E-01            NaN
         13   -1    0    0    0    0  0.00000000000E+00  0.00000000000E+00  0.74505805969E-08  0.10566000000E+00  0.10566000000E+00 0. -1.
     999900   -1    0    0    0    0 -0.00000000000E+00 -0.00000000000E+00 -0.74505805969E-08  0.93827000000E+00  0.93827000000E+00 0.  1.
     999902    2    1    2    0    0 -0.17087507034E-01  0.81615774698E-02 -0.14336968424E-01  0.10201783073E+01  0.10199017775E+01 0.  0.
     999903    2    3    3    0    0 -0.30954711143E-02 -0.10937196641E+00  0.64740409818E-01  0.12873950245E+00  0.20266471074E-01 0.  0.
         14    1    1    2    0    0  0.17087507034E-01 -0.81615774698E-02  0.14336968424E-01  0.23751692719E-01  0.00000000000E+00 0. -1.
     999901    1    3    3    0    0 -0.13992035920E-01  0.11753354388E+00 -0.79077378242E-01  0.89143880483E+00  0.88000000000E+00 0.  1.
        -11    1    4    4    0    0  0.47977563016E-02 -0.85353402764E-01  0.54929070928E-01  0.10161538163E+00  0.51100000000E-03 0.  1.
         11    1    4    4    0    0 -0.78932274159E-02 -0.24018563648E-01  0.98113388897E-02  0.27124120826E-01  0.51100000000E-03 0. -1.
</event>
<event>
 8    1  0.1074844E+005  0.1043930E+01  0.7957747E-01            NaN
         13   -1    0    0    0    0  0.00000000000E+00  0.00000000000E+00  0.74505805969E-08  0.10566000000E+00  0.10566000000E+00 0. -1.
     999900   -1    0    0    0    0 -0.00000000000E+00 -0.00000000000E+00 -0.74505805969E-08  0.93827000000E+00  0.93827000000E+00 0. -1.
     999902    2    1    2    0    0 -0.20671101673E-01  0.54230732855E-02 -0.93886127804E-02  0.10205879731E+01  0.10203210086E+01 0.  0.
     999903    2    3    3    0    0 -0.82432300387E-01  0.19922009578E-01 -0.10117134591E+00  0.13354302787E+00  0.20152628759E-01 0.  0.
         14    1    1    2    0    0  0.20671101673E-01 -0.54230732855E-02  0.93886127804E-02  0.23342026865E-01  0.00000000000E+00 0. -1.
     999901    1    3    3    0    0  0.61761198714E-01 -0.14498936292E-01  0.91782733133E-01  0.88704494527E+00  0.88000000000E+00 0.  1.
        -11    1    4    4    0    0 -0.17802691793E-01 -0.10454610160E-02 -0.31646336321E-01  0.36328784006E-01  0.51100000000E-03 0.  1.
         11    1    4    4    0    0 -0.64629608594E-01  0.20967470594E-01 -0.69525009592E-01  0.97214243863E-01  0.51100000000E-03 0. -1.
</event>
<event>
 8    1  0.1074844E+005  0.1043930E+01  0.7957747E-01            NaN
         13   -1    0    0    0    0  0.00000000000E+00  0.00000000000E+00  0.74505805969E-08  0.10566000000E+00  0.10566000000E+00 0.  1.
     999900   -1    0    0    0    0 -0.00000000000E+00 -0.00000000000E+00 -0.74505805969E-08  0.93827000000E+00  0.93827000000E+00 0. -1.
     999902    2    1    2    0    0  0.13398491543E-01 -0.11637187070E-01  0.16012879724E-01  0.10200269455E+01  0.10197468379E+01 0.  0.
     999903    2    3    3    0    0 -0.49418800055E-01 -0.59717806547E-01 -0.10102510428E+00  0.12876062849E+00  0.19099569026E-01 0.  0.
         14    1    1    2    0    0 -0.13398491543E-01  0.11637187070E-01 -0.16012879724E-01  0.23903054524E-01  0.00000000000E+00 0. -1.
     999901    1    3    3    0    0  0.62817291598E-01  0.48080619477E-01  0.11703798400E+00  0.89126631699E+00  0.88000000000E+00 0.  1.
        -11    1    4    4    0    0 -0.88975739505E-02 -0.14784124693E-01 -0.36074648947E-01  0.39992231531E-01  0.51100000000E-03 0. -1.
         11    1    4    4    0    0 -0.40521226104E-01 -0.44933681855E-01 -0.64950455332E-01  0.88768396960E-01  0.51100000000E-03 0.  1.
</event>
<event>
 8    1  0.1074844E+005  0.1043930E+01  0.7957747E-01            NaN
         13   -1    0    0    0    0  0.00000000000E+00  0.00000000000E+00  0.74505805969E-08  0.10566000000E+00  0.10566000000E+00 0.  1.
     999900   -1    0    0    0    0 -0.00000000000E+00 -0.00000000000E+00 -0.74505805969E-08  0.93827000000E+00  0.93827000000E+00 0.  1.
     999902    2    1    2    0    0  0.13612088991E-01 -0.39670808493E-02  0.19009939375E-01  0.10202149311E+01  0.10199392635E+01 0.  0.
     999903    2    3    3    0    0  0.52212828077E-01 -0.54852747958E-01  0.10803118175E+00  0.13342062026E+00  0.19882713709E-01 0.  0.
         14    1    1    2    0    0 -0.13612088991E-01  0.39670808493E-02 -0.19009939375E-01  0.23715068885E-01  0.00000000000E+00 0. -1.
     999901    1    3    3    0    0 -0.38600739085E-01  0.50885667108E-01 -0.89021242378E-01  0.88679431086E+00  0.88000000000E+00 0. -1.
        -11    1    4    4    0    0  0.20708428826E-02 -0.10899538849E-01  0.10574861347E-01  0.15335486653E-01  0.51100000000E-03 0.  1.
         11    1    4    4    0    0  0.50141985194E-01 -0.43953209108E-01  0.97456320407E-01  0.11808513360E+00  0.51100000000E-03 0. -1.
</event>
<event>
 8    1  0.1074844E+005  0.1043930E+01  0.7957747E-01            NaN
         13   -1    0    0    0    0  0.00000000000E+00  0.00000000000E+00  0.74505805969E-08  0.10566000000E+00  0.10566000000E+00 0.  1.
     999900   -1    0    0    0    0 -0.00000000000E+00 -0.00000000000E+00 -0.74505805969E-08  0.93827000000E+00  0.93827000000E+00 0.  1.
     999902    2    1    2    0    0 -0.23092152670E-01  0.54732811979E-02  0.63346601694E-03  0.10201896209E+01  0.10199133576E+01 0.  0.
     999903    2    3    3    0    0  0.48527018753E-01  0.74644783933E-02  0.11830023741E+00  0.12947151750E+00  0.18903377665E-01 0.  0.
         14    1    1    2    0    0  0.23092152670E-01 -0.54732811979E-02 -0.63346601694E-03  0.23740379129E-01  0.00000000000E+00 0. -1.
     999901    1    3    3    0    0 -0.71619171423E-01 -0.19911971954E-02 -0.11766677139E+00  0.89071810337E+00  0.88000000000E+00 0.  1.
        -11    1    4    4    0    0  0.16365178415E-01 -0.62994641880E-02  0.42953897604E-01  0.46398283955E-01  0.51100000000E-03 0. -1.
         11    1    4    4    0    0  0.32161840338E-01  0.13763942581E-01  0.75346339801E-01  0.83073233546E-01  0.51100000000E-03 0.  1.
</event>
<event>
 8    1  0.1074844E+005  0.1043930E+01  0.7957747E-01            NaN
         13   -1    0    0    0    0  0.00000000000E+00  0.00000000000E+00  0.74505805969E-08  0.10566000000E+00  0.10566000000E+00 0. -1.
     999900   -1    0    0    0    0 -0.00000000000E+00 -0.00000000000E+00 -0.74505805969E-08  0.93827000000E+00  0.93827000000E+00 0.  1.
     999902    2    1    2    0    0  0.77290201183E-02  0.61975746535E-02 -0.21418858326E-01  0.10203309497E+01  0.10200580041E+01 0.  0.
     999903    2    3    3    0    0 -0.75603813744E-01  0.76967181592E-01  0.67976980820E-01  0.12907099069E+00  0.19964143373E-01 0.  0.
         14    1    1    2    0    0 -0.77290201183E-02 -0.61975746535E-02  0.21418858326E-01  0.23599050310E-01  0.00000000000E+00 0. -1.
     999901    1    3    3    0    0  0.83332833863E-01 -0.70769606938E-01 -0.89395839145E-01  0.89125995900E+00  0.88000000000E+00 0.  1.
        -11    1    4    4    0    0 -0.26814507967E-01  0.37675271021E-01  0.36770246246E-01  0.59082620237E-01  0.51100000000E-03 0. -1.
         11    1    4    4    0    0 -0.48789305777E-01  0.39291910571E-01  0.31206734573E-01  0.69988370450E-01  0.51100000000E-03 0.  1.
</event>
<event>
 8    1  0.1074844E+005  0.1043930E+01  0.7957747E-01            NaN
         13   -1    0    0    0    0  0.00000000000E+00  0.00000000000E+00  0.74505805969E-08  0.10566000000E+00  0.10566000000E+00 0. -1.
     999900   -1    0    0    0    0 -0.00000000000E+00 -0.00000000000E+00 -0.74505805969E-08  0.93827000000E+00  0.93827000000E+00 0. -1.
     999902    2    1    2    0    0  0.11236426387E-01 -0.19336905360E-01  0.92028976701E-02  0.10197459864E+01  0.10194591754E+01 0.  0.
     999903    2    3    3    0    0  0.11335959576E+00  0.59046562132E-01  0.15126753570E-01  0.13035956773E+00  0.20685835145E-01 0.  0.
         14    1    1    2    0    0 -0.11236426387E-01  0.19336905360E-01 -0.92028976701E-02  0.24184013571E-01  0.00000000000E+00 0. -1.
     999901    1    3    3    0    0 -0.10212316937E+00 -0.78383467492E-01 -0.59238558997E-02  0.88938641870E+00  0.88000000000E+00 0. -1.
        -11    1    4    4    0    0  0.56764221015E-01  0.29236654514E-01  0.17953092342E-01  0.66328978586E-01  0.51100000000E-03 0.  1.
         11    1    4    4    0    0  0.56595374741E-01  0.29809907618E-01 -0.28263387727E-02  0.64030589144E-01  0.51100000000E-03 0. -1.
</event>
<event>
 8    1  0.1074844E+005  0.1043930E+01  0.7957747E-01            NaN
         13   -1    0    0    0    0  0.00000000000E+00  0.00000000000E+00  0.74505805969E-08  0.10566000000E+00  0.10566000000E+00 0.  1.
     999900   -1    0    0    0    0 -0.00000000000E+00 -0.00000000000E+00 -0.74505805969E-08  0.93827000000E+00  0.93827000000E+00 0. -1.
     999902    2    1    2    0    0 -0.21600791337E-01 -0.11969298091E-01  0.20512121093E-02  0.10191496498E+01  0.10188483415E+01 0.  0.
     999903    2    3    3    0    0  0.76434367667E-01 -0.76540906119E-01  0.67214205333E-01  0.12896618523E+00  0.20342189288E-01 0.  0.
         14    1    1    2    0    0  0.21600791337E-01  0.11969298091E-01 -0.20512121093E-02  0.24780350165E-01  0.00000000000E+00 0. -1.
     999901    1    3    3    0    0 -0.98035159004E-01  0.64571608028E-01 -0.65162993224E-01  0.89018346460E+00  0.88000000000E+00 0.  1.
        -11    1    4    4    0    0  0.42174836911E-01 -0.30387539071E-01  0.25221264079E-01  0.57779690913E-01  0.51100000000E-03 0. -1.
         11    1    4    4    0    0  0.34259530756E-01 -0.46153367048E-01  0.41992941254E-01  0.71186494321E-01  0.51100000000E-03 0.  1.
</event>
<event>
 8    1  0.1887142E+005  0.1043930E+01  0.7957747E-01            NaN
         13   -1    0    0    0    0  0.00000000000E+00  0.00000000000E+00  0.74505805969E-08  0.10566000000E+00  0.10566000000E+00 0.  1.
     999900   -1    0    0    0    0 -0.00000000000E+00 -0.00000000000E+00 -0.74505805969E-08  0.93827000000E+00  0.93827000000E+00 0.  1.
     999902    2    1    2    0    0  0.11100662888E-01 -0.19989838672E-01  0.70159765625E-02  0.10200125943E+01  0.10197321464E+01 0.  0.
     999903    2    3    3    0    0  0.30056014889E-01 -0.13320711228E-02 -0.12563697845E+00  0.12967320728E+00  0.11196065710E-01 0.  0.
         14    1    1    2    0    0 -0.11100662888E-01  0.19989838672E-01 -0.70159765625E-02  0.23917405667E-01  0.00000000000E+00 0. -1.
     999901    1    3    3    0    0 -0.18955352001E-01 -0.18657767550E-01  0.13265295502E+00  0.89033938705E+00  0.88000000000E+00 0. -1.
        -11    1    4    4    0    0  0.25909691389E-01  0.51313540734E-03 -0.87342302457E-01  0.91107158529E-01  0.51100000000E-03 0.  1.
         11    1    4    4    0    0  0.41463235003E-02 -0.18452065301E-02 -0.38294675997E-01  0.38566048753E-01  0.51100000000E-03 0. -1.
</event>
<event>
 8    1  0.1074844E+005  0.1043930E+01  0.7957747E-01            NaN
         13   -1    0    0    0    0  0.00000000000E+00  0.00000000000E+00  0.74505805969E-08  0.10566000000E+00  0.10566000000E+00 0.  1.
     999900   -1    0    0    0    0 -0.00000000000E+00 -0.00000000000E+00 -0.74505805969E-08  0.93827000000E+00  0.93827000000E+00 0.  1.
     999902    2    1    2    0    0  0.18189803459E-01 -0.15931322324E-01 -0.20163004853E-02  0.10196660051E+01  0.10193772709E+01 0.  0.
     999903    2    3    3    0    0 -0.42369082195E-01  0.69508020385E-01 -0.97075571138E-01  0.12837282951E+00  0.20722278372E-01 0.  0.
         14    1    1    2    0    0 -0.18189803459E-01  0.15931322324E-01  0.20163004853E-02  0.24263994901E-01  0.00000000000E+00 0.  1.
     999901    1    3    3    0    0  0.60558885654E-01 -0.85439342709E-01  0.95059270653E-01  0.89129317559E+00  0.88000000000E+00 0. -1.
        -11    1    4    4    0    0 -0.10620736223E-01  0.51856456576E-02 -0.18685851169E-01  0.22115901829E-01  0.51100000000E-03 0.  1.
         11    1    4    4    0    0 -0.31748345972E-01  0.64322374727E-01 -0.78389719969E-01  0.10625692768E+00  0.51100000000E-03 0. -1.
</event>
<event>
 8    1  0.1074844E+005  0.1043930E+01  0.7957747E-01            NaN
         13   -1    0    0    0    0  0.00000000000E+00  0.00000000000E+00  0.74505805969E-08  0.10566000000E+00  0.10566000000E+00 0.  1.
     999900   -1    0    0    0    0 -0.00000000000E+00 -0.00000000000E+00 -0.74505805969E-08  0.93827000000E+00  0.93827000000E+00 0.  1.
     999902    2    1    2    0    0  0.15059857484E-01  0.11479314008E-01  0.15188553020E-01  0.10196551962E+01  0.10193662016E+01 0.  0.
     999903    2    3    3    0    0  0.17597235602E-01 -0.12542191465E+00  0.14966491947E-01  0.12906638309E+00  0.19844797455E-01 0.  0.
         14    1    1    2    0    0 -0.15059857484E-01 -0.11479314008E-01 -0.15188553020E-01  0.24274803818E-01  0.00000000000E+00 0.  1.
     999901    1    3    3    0    0 -0.25373781175E-02  0.13690122866E+00  0.22206107255E-03  0.89058881309E+00  0.88000000000E+00 0.  1.
        -11    1    4    4    0    0  0.22029219211E-01 -0.10255913306E+00  0.12532032723E-01  0.10564551689E+00  0.51100000000E-03 0. -1.
         11    1    4    4    0    0 -0.44319836094E-02 -0.22862781591E-01  0.24344592239E-02  0.23420866199E-01  0.51100000000E-03 0.  1.
</event>
<event>
 8    1  0.1074844E+005  0.1043930E+01  0.7957747E-01            NaN
         13   -1    0    0    0    0  0.00000000000E+00  0.00000000000E+00  0.74505805969E-08  0.10566000000E+00  0.10566000000E+00 0. -1.
     999900   -1    0    0    0    0 -0.00000000000E+00 -0.00000000000E+00 -0.74505805969E-08  0.93827000000E+00  0.93827000000E+00 0. -1.
     999902    2    1    2    0    0 -0.14157051450E-01  0.11821813162E-01 -0.15159615142E-01  0.10200555094E+01  0.10197760788E+01 0.  0.
     999903    2    3    3    0    0 -0.10874452738E+00  0.43221508926E-01 -0.60489119859E-01  0.13327058871E+00  0.20214972785E-01 0.  0.
         14    1    1    2    0    0  0.14157051450E-01 -0.11821813162E-01  0.15159615142E-01  0.23874490643E-01  0.00000000000E+00 0. -1.
     999901    1    3    3    0    0  0.94587475926E-01 -0.31399695763E-01  0.45329504718E-01  0.88678492065E+00  0.88000000000E+00 0. -1.
        -11    1    4    4    0    0 -0.84246060246E-01  0.28584866657E-01 -0.53756976053E-01  0.10394501847E+00  0.51100000000E-03 0. -1.
         11    1    4    4    0    0 -0.24498467130E-01  0.14636642268E-01 -0.67321438060E-02  0.29325570239E-01  0.51100000000E-03 0.  1.
</event>
<event>
 8    1  0.1074844E+005  0.1043930E+01  0.7957747E-01            NaN
         13   -1    0    0    0    0  0.00000000000E+00  0.00000000000E+00  0.74505805969E-08  0.10566000000E+00  0.10566000000E+00 0.  1.
     999900   -1    0    0    0    0 -0.00000000000E+00 -0.00000000000E+00 -0.74505805969E-08  0.93827000000E+00  0.93827000000E+00 0.  1.
     999902    2    1    2    0    0 -0.14733726938E-01  0.17550683044E-01  0.43565035328E-02  0.10206042994E+01  0.10203377126E+01 0.  0.
     999903    2    3    3    0    0 -0.29903086847E-01  0.19172263528E-01  0.12571574463E+00  0.13214450606E+00  0.19898536226E-01 0.  0.
         14    1    1    2    0    0  0.14733726938E-01 -0.17550683044E-01 -0.43565035328E-02  0.23325700586E-01  0.00000000000E+00 0. -1.
     999901    1    3    3    0    0  0.15169359909E-01 -0.16215804839E-02 -0.12135924109E+00  0.88845979335E+00  0.88000000000E+00 0.  1.
        -11    1    4    4    0    0 -0.22669225342E-01  0.15303446227E-01  0.60308519423E-01  0.66222865236E-01  0.51100000000E-03 0. -1.
         11    1    4    4    0    0 -0.72338615051E-02  0.38688173013E-02  0.65407225203E-01  0.65921640827E-01  0.51100000000E-03 0.  1.
</event>
<event>
 8    1  0.1074844E+005  0.1043930E+01  0.7957747E-01            NaN
         13   -1    0    0    0    0  0.00000000000E+00  0.00000000000E+00  0.74505805969E-08  0.10566000000E+00  0.10566000000E+00 0. -1.
     999900   -1    0    0    0    0 -0.00000000000E+00 -0.00000000000E+00 -0.74505805969E-08  0.93827000000E+00  0.93827000000E+00 0.  1.
     999902    2    1    2    0    0 -0.19014252361E-01  0.75164747802E-02 -0.12347447199E-01  0.10200448867E+01  0.10197652044E+01 0.  0.
     999903    2    3    3    0    0  0.11135882597E+00  0.60867127415E-01  0.77260967435E-02  0.12861548462E+00  0.19407601423E-01 0.  0.
         14    1    1    2    0    0  0.19014252361E-01 -0.75164747802E-02  0.12347447199E-01  0.23885113320E-01  0.00000000000E+00 0.  1.
     999901    1    3    3    0    0 -0.13037307833E+00 -0.53350652635E-01 -0.20073543942E-01  0.89142940206E+00  0.88000000000E+00 0.  1.
        -11    1    4    4    0    0  0.10885169723E+00  0.57053278168E-01  0.10337295606E-01  0.12333243427E+00  0.51100000000E-03 0. -1.
         11    1    4    4    0    0  0.25071287324E-02  0.38138492466E-02 -0.26111988622E-02  0.52830503551E-02  0.51100000000E-03 0.  1.
</event>
<event>
 8    1  0.1074844E+005  0.1043930E+01  0.7957747E-01            NaN
         13   -1    0    0    0    0  0.00000000000E+00  0.00000000000E+00  0.74505805969E-08  0.10566000000E+00  0.10566000000E+00 0.  1.
     999900   -1    0    0    0    0 -0.00000000000E+00 -0.00000000000E+00 -0.74505805969E-08  0.93827000000E+00  0.93827000000E+00 0.  1.
     999902    2    1    2    0    0  0.11183025320E-01 -0.15874301597E-01  0.23591152324E-01  0.10133751972E+01  0.10129144556E+01 0.  0.
     999903    2    3    3    0    0  0.57024232492E-02 -0.30126207954E-01 -0.11641561960E+00  0.12217653807E+00  0.20842359078E-01 0.  0.
         14    1    1    2    0    0 -0.11183025320E-01  0.15874301597E-01 -0.23591152324E-01  0.30554802805E-01  0.00000000000E+00 0. -1.
     999901    1    3    3    0    0  0.54806020709E-02  0.14251906358E-01  0.14000677193E+00  0.89119865912E+00  0.88000000000E+00 0. -1.
        -11    1    4    4    0    0  0.98920715378E-03 -0.30027851442E-01 -0.80064738339E-01  0.85517681443E-01  0.51100000000E-03 0. -1.
         11    1    4    4    0    0  0.47132160954E-02 -0.98356512019E-04 -0.36350881262E-01  0.36658856631E-01  0.51100000000E-03 0.  1.
</event>
<event>
 8    1  0.1074844E+005  0.1043930E+01  0.7957747E-01            NaN
         13   -1    0    0    0    0  0.00000000000E+00  0.00000000000E+00  0.74505805969E-08  0.10566000000E+00  0.10566000000E+00 0. -1.
     999900   -1    0    0    0    0 -0.00000000000E+00 -0.00000000000E+00 -0.74505805969E-08  0.93827000000E+00  0.93827000000E+00 0.  1.
     999902    2    1    2    0    0  0.68070200714E-02 -0.86769214036E-02  0.20001186050E-01  0.10210898614E+01  0.10208343809E+01 0.  0.
     999903    2    3    3    0    0  0.65392303227E-01 -0.83236008750E-01  0.79582514237E-01  0.13399278241E+00  0.20403497041E-01 0.  0.
         14    1    1    2    0    0 -0.68070200714E-02  0.86769214036E-02 -0.20001186050E-01  0.22840138587E-01  0.00000000000E+00 0.  1.
     999901    1    3    3    0    0 -0.58585283156E-01  0.74559087346E-01 -0.59581328187E-01  0.88709707900E+00  0.88000000000E+00 0. -1.
        -11    1    4    4    0    0  0.34661906201E-01 -0.53101177270E-01  0.57562622749E-01  0.85644027390E-01  0.51100000000E-03 0.  1.
         11    1    4    4    0    0  0.30730397026E-01 -0.30134831480E-01  0.22019891488E-01  0.48348755019E-01  0.51100000000E-03 0. -1.
</event>
<event>
 8    1  0.1074844E+005  0.1043930E+01  0.7957747E-01            NaN
         13   -1    0    0    0    0  0.00000000000E+00  0.00000000000E+00  0.74505805969E-08  0.10566000000E+00  0.10566000000E+00 0.  1.
     999900   -1    0    0    0    0 -0.00000000000E+00 -0.00000000000E+00 -0.74505805969E-08  0.93827000000E+00  0.93827000000E+00 0.  1.
     999902    2    1    2    0    0  0.17783743034E-01 -0.95467703237E-02  0.13915885210E-01  0.10194135932E+01  0.10191187467E+01 0.  0.
     999903    2    3    3    0    0  0.49182351154E-01  0.11312285079E+00 -0.32476028881E-01  0.12914064731E+00  0.20172538241E-01 0.  0.
         14    1    1    2    0    0 -0.17783743034E-01  0.95467703237E-02 -0.13915885210E-01  0.24516406774E-01  0.00000000000E+00 0. -1.
     999901    1    3    3    0    0 -0.31398608120E-01 -0.12266962112E+00  0.46391914091E-01  0.89027294592E+00  0.88000000000E+00 0. -1.
        -11    1    4    4    0    0  0.30460162430E-01  0.53131375777E-01 -0.83070197476E-02  0.61806409742E-01  0.51100000000E-03 0. -1.
         11    1    4    4    0    0  0.18722188725E-01  0.59991475017E-01 -0.24169009133E-01  0.67334237568E-01  0.51100000000E-03 0.  1.
</event>
<event>
 8    1  0.1074844E+005  0.1043930E+01  0.7957747E-01            NaN
         13   -1    0    0    0    0  0.00000000000E+00  0.00000000000E+00  0.74505805969E-08  0.10566000000E+00  0.10566000000E+00 0. -1.
     999900   -1    0    0    0    0 -0.00000000000E+00 -0.00000000000E+00 -0.74505805969E-08  0.93827000000E+00  0.93827000000E+00 0. -1.
     999902    2    1    2    0    0 -0.17928785904E-01  0.15333236634E-01  0.24448923348E-02  0.10202123482E+01  0.10199366198E+01 0.  0.
     999903    2    3    3    0    0  0.11051822405E+00 -0.34237972070E-01 -0.50698995068E-01  0.12792303866E+00  0.20184130927E-01 0.  0.
         14    1    1    2    0    0  0.17928785904E-01 -0.15333236634E-01 -0.24448923348E-02  0.23717651827E-01  0.00000000000E+00 0. -1.
     999901    1    3    3    0    0 -0.12844700995E+00  0.49571208704E-01  0.53143887402E-01  0.89228930951E+00  0.88000000000E+00 0.  1.
        -11    1    4    4    0    0  0.15917811592E-01 -0.12821977574E-01 -0.93128793376E-02  0.22467102113E-01  0.51100000000E-03 0.  1.
         11    1    4    4    0    0  0.94600412458E-01 -0.21415994496E-01 -0.41386115730E-01  0.10545593655E+00  0.51100000000E-03 0. -1.
</event>
<event>
 8    1  0.1074844E+005  0.1043930E+01  0.7957747E-01            NaN
         13   -1    0    0    0    0  0.00000000000E+00  0.00000000000E+00  0.74505805969E-08  0.10566000000E+00  0.10566000000E+00 0. -1.
     999900   -1    0    0    0    0 -0.00000000000E+00 -0.00000000000E+00 -0.74505805969E-08  0.93827000000E+00  0.93827000000E+00 0. -1.
     999902    2    1    2    0    0  0.22266406569E-01 -0.88326550370E-02 -0.16445168059E-02  0.10199193130E+01  0.10196366470E+01 0.  0.
     999903    2    3    3    0    0  0.33968757959E-01 -0.12345514897E+00 -0.25763707859E-01  0.13208092873E+00  0.19660945234E-01 0.  0.
         14    1    1    2    0    0 -0.22266406569E-01  0.88326550370E-02  0.16445168059E-02  0.24010687038E-01  0.00000000000E+00 0. -1.
     999901    1    3    3    0    0 -0.11702351391E-01  0.11462249393E+00  0.24119191053E-01  0.88783838423E+00  0.88000000000E+00 0.  1.
        -11    1    4    4    0    0  0.16079816341E-01 -0.35705165284E-01 -0.14758914642E-01  0.41850997646E-01  0.51100000000E-03 0.  1.
         11    1    4    4    0    0  0.17888941619E-01 -0.87749983682E-01 -0.11004793217E-01  0.90229931082E-01  0.51100000000E-03 0. -1.
</event>
<event>
 8    1  0.1074844E+005  0.1043930E+01  0.7957747E-01            NaN
         13   -1    0    0    0    0  0.00000000000E+00  0.00000000000E+00  0.74505805969E-08  0.10566000000E+00  0.10566000000E+00 0. -1.
     999900   -1    0    0    0    0 -0.00000000000E+00 -0.00000000000E+00 -0.74505805969E-08  0.93827000000E+00  0.93827000000E+00 0. -1.
     999902    2    1    2    0    0  0.25054141307E-01 -0.20850729975E-01  0.11588728525E-03  0.10113343505E+01  0.10108089296E+01 0.  0.
     999903    2    3    3    0    0 -0.11720616052E-01  0.10176460282E+00 -0.59344971157E-01  0.12008663167E+00  0.20138676122E-01 0.  0.
         14    1    1    2    0    0 -0.25054141307E-01  0.20850729975E-01 -0.11588728525E-03  0.32595649510E-01  0.00000000000E+00 0.  1.
     999901    1    3    3    0    0  0.36774757358E-01 -0.12261533280E+00  0.59460858443E-01  0.89124771882E+00  0.88000000000E+00 0.  1.
        -11    1    4    4    0    0 -0.13136936577E-01  0.53657640729E-01 -0.23309672535E-01  0.59961016218E-01  0.51100000000E-03 0. -1.
         11    1    4    4    0    0  0.14163205248E-02  0.48106962093E-01 -0.36035298622E-01  0.60125615452E-01  0.51100000000E-03 0.  1.
</event>
<event>
 8    1  0.1074844E+005  0.1043930E+01  0.7957747E-01            NaN
         13   -1    0    0    0    0  0.00000000000E+00  0.00000000000E+00  0.74505805969E-08  0.10566000000E+00  0.10566000000E+00 0.  1.
     999900   -1    0    0    0    0 -0.00000000000E+00 -0.00000000000E+00 -0.74505805969E-08  0.93827000000E+00  0.93827000000E+00 0. -1.
     999902    2    1    2    0    0  0.90819605129E-02  0.21381706321E-01  0.92678127363E-02  0.10189189679E+01  0.10186119533E+01 0.  0.
     999903    2    3    3    0    0  0.68894391918E-01 -0.76116197505E-01  0.75554159767E-01  0.12904411831E+00  0.20095786900E-01 0.  0.
         14    1    1    2    0    0 -0.90819605129E-02 -0.21381706321E-01 -0.92678127363E-02  0.25011032064E-01  0.00000000000E+00 0. -1.
     999901    1    3    3    0    0 -0.59812431405E-01  0.97497903826E-01 -0.66286347030E-01  0.88987484963E+00  0.88000000000E+00 0. -1.
        -11    1    4    4    0    0  0.33594583096E-01 -0.22978285233E-01  0.26530074860E-01  0.48587072341E-01  0.51100000000E-03 0.  1.
         11    1    4    4    0    0  0.35299808822E-01 -0.53137912272E-01  0.49024084907E-01  0.80457045965E-01  0.51100000000E-03 0. -1.
</event>
<event>
 8    1  0.1074844E+005  0.1043930E+01  0.7957747E-01            NaN
         13   -1    0    0    0    0  0.00000000000E+00  0.00000000000E+00  0.74505805969E-08  0.10566000000E+00  0.10566000000E+00 0. -1.
     999900   -1    0    0    0    0 -0.00000000000E+00 -0.00000000000E+00 -0.74505805969E-08  0.93827000000E+00  0.93827000000E+00 0.  1.
     999902    2    1    2    0    0  0.51021832640E-02 -0.22355831819E-01  0.23507082168E-01  0.10110910231E+01  0.10105575979E+01 0.  0.
     999903    2    3    3    0    0 -0.75778948051E-01  0.59189698785E-01 -0.67272431959E-01  0.11899666088E+00  0.19716890934E-01 0.  0.
         14    1    1    2    0    0 -0.51021832640E-02  0.22355831819E-01 -0.23507082168E-01  0.32838976879E-01  0.00000000000E+00 0. -1.
     999901    1    3    3    0    0  0.80881131315E-01 -0.81545530604E-01  0.90779514127E-01  0.89209436225E+00  0.88000000000E+00 0. -1.
        -11    1    4    4    0    0 -0.62027513309E-01  0.44295828896E-01 -0.43540543787E-01  0.87781392898E-01  0.51100000000E-03 0.  1.
         11    1    4    4    0    0 -0.13751434741E-01  0.14893869889E-01 -0.23731888172E-01  0.31215267978E-01  0.51100000000E-03 0. -1.
</event>
<event>
 8    1  0.1074844E+005  0.1043930E+01  0.7957747E-01            NaN
         13   -1    0    0    0    0  0.00000000000E+00  0.00000000000E+00  0.74505805969E-08  0.10566000000E+00  0.10566000000E+00 0. -1.
     999900   -1    0    0    0    0 -0.00000000000E+00 -0.00000000000E+00 -0.74505805969E-08  0.93827000000E+00  0.93827000000E+00 0. -1.
     999902    2    1    2    0    0 -0.21425440218E-01 -0.89760336544E-02 -0.10563762051E-01  0.10184111494E+01  0.10180913797E+01 0.  0.
     999903    2    3    3    0    0  0.66166209021E-01 -0.57376613380E-01  0.89969565939E-01  0.12705159051E+00  0.19430411142E-01 0.  0.
         14    1    1    2    0    0  0.21425440218E-01  0.89760336544E-02  0.10563762051E-01  0.25518850628E-01  0.00000000000E+00 0. -1.
     999901    1    3    3    0    0 -0.87591649239E-01  0.48400579726E-01 -0.10053332799E+00  0.89135955886E+00  0.88000000000E+00 0. -1.
        -11    1    4    4    0    0  0.43513528227E-01 -0.47334655749E-01  0.57934609000E-01  0.86548696204E-01  0.51100000000E-03 0.  1.
         11    1    4    4    0    0  0.22652680793E-01 -0.10041957631E-01  0.32034956940E-01  0.40502894308E-01  0.51100000000E-03 0. -1.
</event>
<event>
 8    1  0.1074844E+005  0.1043930E+01  0.7957747E-01            NaN
         13   -1    0    0    0    0  0.00000000000E+00  0.00000000000E+00  0.74505805969E-08  0.10566000000E+00  0.10566000000E+00 0. -1.
     999900   -1    0    0    0    0 -0.00000000000E+00 -0.00000000000E+00 -0.74505805969E-08  0.93827000000E+00  0.93827000000E+00 0. -1.
     999902    2    1    2    0    0 -0.63076218408E-02  0.20504729490E-01 -0.11551456014E-01  0.10195647345E+01  0.10192735559E+01 0.  0.
     999903    2    3    3    0    0 -0.20471559903E-01 -0.95084791956E-01 -0.82596023128E-01  0.12905427131E+00  0.19305426203E-01 0.  0.
         14    1    1    2    0    0  0.63076218408E-02 -0.20504729490E-01  0.11551456014E-01  0.24365265457E-01  0.00000000000E+00 0.  1.
     999901    1    3    3    0    0  0.14163938063E-01  0.11558952145E+00  0.71044567114E-01  0.89051046323E+00  0.88000000000E+00 0. -1.
        -11    1    4    4    0    0 -0.35276754092E-02 -0.58878112584E-01 -0.45212602504E-01  0.74320368550E-01  0.51100000000E-03 0.  1.
         11    1    4    4    0    0 -0.16943884494E-01 -0.36206679372E-01 -0.37383420624E-01  0.54733902761E-01  0.51100000000E-03 0. -1.
</event>
<event>
 8    1  0.1074844E+005  0.1043930E+01  0.7957747E-01            NaN
         13   -1    0    0    0    0  0.00000000000E+00  0.00000000000E+00  0.74505805969E-08  0.10566000000E+00  0.10566000000E+00 0.  1.
     999900   -1    0    0    0    0 -0.00000000000E+00 -0.00000000000E+00 -0.74505805969E-08  0.93827000000E+00  0.93827000000E+00 0. -1.
     999902    2    1    2    0    0  0.20222102470E-01  0.86763797623E-02  0.93109586841E-02  0.10200363409E+01  0.10197564561E+01 0.  0.
     999903    2    3    3    0    0  0.63979368262E-01  0.88575780453E-01 -0.70856757144E-01  0.13170899402E+00  0.19686305541E-01 0.  0.
         14    1    1    2    0    0 -0.20222102470E-01 -0.86763797623E-02 -0.93109586841E-02  0.23893659111E-01  0.00000000000E+00 0. -1.
     999901    1    3    3    0    0 -0.43757265792E-01 -0.79899400691E-01  0.80167715828E-01  0.88832734687E+00  0.88000000000E+00 0.  1.
        -11    1    4    4    0    0  0.35532206010E-01  0.32939837525E-01 -0.33460721817E-01  0.58885070991E-01  0.51100000000E-03 0.  1.
         11    1    4    4    0    0  0.28447162253E-01  0.55635942928E-01 -0.37396035327E-01  0.72823923026E-01  0.51100000000E-03 0. -1.
</event>
<event>
 8    1  0.1074844E+005  0.1043930E+01  0.7957747E-01            NaN
         13   -1    0    0    0    0  0.00000000000E+00  0.00000000000E+00  0.74505805969E-08  0.10566000000E+00  0.10566000000E+00 0. -1.
     999900   -1    0    0    0    0 -0.00000000000E+00 -0.00000000000E+00 -0.74505805969E-08  0.93827000000E+00  0.93827000000E+00 0. -1.
     999902    2    1    2    0    0  0.18499935977E-02 -0.10517516945E-01  0.20089697310E-01  0.10211783720E+01  0.10209248899E+01 0.  0.
     999903    2    3    3    0    0 -0.50550683989E-01 -0.93578555509E-01  0.78828460839E-01  0.13376910368E+00  0.19181479591E-01 0.  0.
         14    1    1    2    0    0 -0.18499935977E-02  0.10517516945E-01 -0.20089697310E-01  0.22751628008E-01  0.00000000000E+00 0.  1.
     999901    1    3    3    0    0  0.52400677587E-01  0.83061038564E-01 -0.58738763529E-01  0.88740926831E+00  0.88000000000E+00 0.  1.
        -11    1    4    4    0    0 -0.25588274567E-01 -0.30710223039E-01  0.35284611281E-01  0.53321126288E-01  0.51100000000E-03 0. -1.
         11    1    4    4    0    0 -0.24962409422E-01 -0.62868332470E-01  0.43543849558E-01  0.80447977396E-01  0.51100000000E-03 0.  1.
</event>
<event>
 7    1  0.1074844E+005  0.1043930E+01  0.7957747E-01            NaN
         13   -1    0    0    0    0  0.00000000000E+00  0.00000000000E+00  0.74505805969E-08  0.10566000000E+00  0.10566000000E+00 0.  1.
     999900   -1    0    0    0    0 -0.00000000000E+00 -0.00000000000E+00 -0.74505805969E-08  0.93827000000E+00  0.93827000000E+00 0. -1.
     999902    2    1    2    0    0  0.13253773570E-01 -0.82101753652E-02  0.19041294393E-01  0.10193202380E+01  0.10190231142E+01 0.  0.
         14    1    1    2    0    0 -0.13253773570E-01  0.82101753652E-02 -0.19041294393E-01  0.24609761997E-01  0.00000000000E+00 0. -1.
     999901    1    3    3    0    0  0.40913702810E-01 -0.63755019103E-02  0.13727900588E+00  0.89160535191E+00  0.88000000000E+00 0.  1.
        -11    1    3    3    0    0 -0.27736885733E-01  0.72204872816E-02 -0.11427770653E+00  0.11781818874E+00  0.51100000000E-03 0. -1.
         11    1    3    3    0    0  0.76956492909E-04 -0.90551607365E-02 -0.39600049535E-02  0.98966973531E-02  0.51100000000E-03 0.  1.
</event>
<event>
 8    1  0.1074844E+005  0.1043930E+01  0.7957747E-01            NaN
         13   -1    0    0    0    0  0.00000000000E+00  0.00000000000E+00  0.74505805969E-08  0.10566000000E+00  0.10566000000E+00 0. -1.
     999900   -1    0    0    0    0 -0.00000000000E+00 -0.00000000000E+00 -0.74505805969E-08  0.93827000000E+00  0.93827000000E+00 0.  1.
     999902    2    1    2    0    0  0.10415314322E-01 -0.16207204124E-01 -0.14455804540E-01  0.10198442672E+01  0.10195598104E+01 0.  0.
     999903    2    3    3    0    0  0.52138102609E-01  0.92456306448E-01 -0.72653339203E-01  0.13027386382E+00  0.20645133845E-01 0.  0.
         14    1    1    2    0    0 -0.10415314322E-01  0.16207204124E-01  0.14455804540E-01  0.24085732765E-01  0.00000000000E+00 0.  1.
     999901    1    3    3    0    0 -0.41722788287E-01 -0.10866351057E+00  0.58197534663E-01  0.88957040342E+00  0.88000000000E+00 0. -1.
        -11    1    4    4    0    0  0.22043347592E-01  0.41774327560E-01 -0.44708846689E-01  0.65039570335E-01  0.51100000000E-03 0.  1.
         11    1    4    4    0    0  0.30094755017E-01  0.50681978888E-01 -0.27944492514E-01  0.65234293485E-01  0.51100000000E-03 0. -1.
</event>
<event>
 8    1  0.1074844E+005  0.1043930E+01  0.7957747E-01            NaN
         13   -1    0    0    0    0  0.00000000000E+00  0.00000000000E+00  0.74505805969E-08  0.10566000000E+00  0.10566000000E+00 0.  1.
     999900   -1    0    0    0    0 -0.00000000000E+00 -0.00000000000E+00 -0.74505805969E-08  0.93827000000E+00  0.93827000000E+00 0. -1.
     999902    2    1    2    0    0 -0.11039202167E-01 -0.21237694287E-01 -0.17393185147E-02  0.10199314819E+01  0.10196491057E+01 0.  0.
     999903    2    3    3    0    0 -0.86226707701E-01 -0.49110527046E-01 -0.85336052123E-01  0.13234009522E+00  0.19615555666E-01 0.  0.
         14    1    1    2    0    0  0.11039202167E-01  0.21237694287E-01  0.17393185147E-02  0.23998518122E-01  0.00000000000E+00 0. -1.
     999901    1    3    3    0    0  0.75187505534E-01  0.27872832758E-01  0.83596733609E-01  0.88759138666E+00  0.88000000000E+00 0.  1.
        -11    1    4    4    0    0 -0.47025173178E-01 -0.37778256524E-01 -0.52161325849E-01  0.79747279663E-01  0.51100000000E-03 0.  1.
         11    1    4    4    0    0 -0.39201534523E-01 -0.11332270522E-01 -0.33174726274E-01  0.52592815560E-01  0.51100000000E-03 0. -1.
</event>
<event>
 8    1  0.1074844E+005  0.1043930E+01  0.7957747E-01            NaN
         13   -1    0    0    0    0  0.00000000000E+00  0.00000000000E+00  0.74505805969E-08  0.10566000000E+00  0.10566000000E+00 0. -1.
     999900   -1    0    0    0    0 -0.00000000000E+00 -0.00000000000E+00 -0.74505805969E-08  0.93827000000E+00  0.93827000000E+00 0. -1.
     999902    2    1    2    0    0 -0.60166825469E-02  0.22931276775E-01 -0.12270706883E-01  0.10172351658E+01  0.10168848354E+01 0.  0.
     999903    2    3    3    0    0  0.88939334796E-01  0.67137463139E-01  0.59989867933E-01  0.12808252269E+00  0.19715580997E-01 0.  0.
         14    1    1    2    0    0  0.60166825469E-02 -0.22931276775E-01  0.12270706883E-01  0.26694834160E-01  0.00000000000E+00 0. -1.
     999901    1    3    3    0    0 -0.94956017343E-01 -0.44206186364E-01 -0.72260574816E-01  0.88915264315E+00  0.88000000000E+00 0. -1.
        -11    1    4    4    0    0  0.25267908459E-01  0.30805823151E-01  0.21907360762E-01  0.45471524215E-01  0.51100000000E-03 0.  1.
         11    1    4    4    0    0  0.63671426338E-01  0.36331639988E-01  0.38082507171E-01  0.82610998478E-01  0.51100000000E-03 0. -1.
</event>
<event>
 8    1  0.1074844E+005  0.1043930E+01  0.7957747E-01            NaN
         13   -1    0    0    0    0  0.00000000000E+00  0.00000000000E+00  0.74505805969E-08  0.10566000000E+00  0.10566000000E+00 0.  1.
     999900   -1    0    0    0    0 -0.00000000000E+00 -0.00000000000E+00 -0.74505805969E-08  0.93827000000E+00  0.93827000000E+00 0.  1.
     999902    2    1    2    0    0 -0.18045857877E-01  0.24784113630E-02  0.39602004231E-02  0.10252892195E+01  0.10251197515E+01 0.  0.
     999903    2    3    3    0    0  0.24507664323E-01 -0.18118304140E-01  0.13016642361E+00  0.13502912398E+00  0.18991259412E-01 0.  0.
         14    1    1    2    0    0  0.18045857877E-01 -0.24784113630E-02 -0.39602004231E-02  0.18640780477E-01  0.00000000000E+00 0. -1.
     999901    1    3    3    0    0 -0.42553522200E-01  0.20596715503E-01 -0.12620622318E+00  0.89026009554E+00  0.88000000000E+00 0.  1.
        -11    1    4    4    0    0  0.18643465629E-02 -0.29353170548E-03  0.46432349473E-01  0.46473499412E-01  0.51100000000E-03 0. -1.
         11    1    4    4    0    0  0.22643317760E-01 -0.17824772434E-01  0.83734074132E-01  0.88555624571E-01  0.51100000000E-03 0.  1.
</event>
<event>
 8    1  0.1074844E+005  0.1043930E+01  0.7957747E-01            NaN
         13   -1    0    0    0    0  0.00000000000E+00  0.00000000000E+00  0.74505805969E-08  0.10566000000E+00  0.10566000000E+00 0.  1.
     999900   -1    0    0    0    0 -0.00000000000E+00 -0.00000000000E+00 -0.74505805969E-08  0.93827000000E+00  0.93827000000E+00 0. -1.
     999902    2    1    2    0    0  0.19888150396E-01 -0.12196460137E-01  0.35461549662E-02  0.10203319623E+01  0.10200590405E+01 0.  0.
     999903    2    3    3    0    0  0.13011291296E+00 -0.92228910354E-03 -0.19306550091E-01  0.13308968915E+00  0.20246030352E-01 0.  0.
         14    1    1    2    0    0 -0.19888150396E-01  0.12196460137E-01 -0.35461549662E-02  0.23598037653E-01  0.00000000000E+00 0.  1.
     999901    1    3    3    0    0 -0.11022476257E+00 -0.11274171034E-01  0.22852705057E-01  0.88724227319E+00  0.88000000000E+00 0. -1.
        -11    1    4    4    0    0  0.44971403463E-01 -0.99339112445E-02 -0.62033791078E-02  0.46474216028E-01  0.51100000000E-03 0. -1.
         11    1    4    4    0    0  0.85141509500E-01  0.90116221410E-02 -0.13103170983E-01  0.86615473123E-01  0.51100000000E-03 0.  1.
</event>
<event>
 8    1  0.1074844E+005  0.1043930E+01  0.7957747E-01            NaN
         13   -1    0    0    0    0  0.00000000000E+00  0.00000000000E+00  0.74505805969E-08  0.10566000000E+00  0.10566000000E+00 0. -1.
     999900   -1    0    0    0    0 -0.00000000000E+00 -0.00000000000E+00 -0.74505805969E-08  0.93827000000E+00  0.93827000000E+00 0.  1.
     999902    2    1    2    0    0  0.15969429152E-01 -0.22857086549E-01 -0.17433088164E-02  0.10159924232E+01  0.10156082393E+01 0.  0.
     999903    2    3    3    0    0 -0.34602234695E-01  0.47969168429E-01 -0.10861107605E+00  0.12526543288E+00  0.19917506559E-01 0.  0.
         14    1    1    2    0    0 -0.15969429152E-01  0.22857086549E-01  0.17433088164E-02  0.27937576820E-01  0.00000000000E+00 0. -1.
     999901    1    3    3    0    0  0.50571663847E-01 -0.70826254978E-01  0.10686776723E+00  0.89072699030E+00  0.88000000000E+00 0. -1.
        -11    1    4    4    0    0 -0.17371229763E-01  0.38833002223E-01 -0.80443918821E-01  0.91001356481E-01  0.51100000000E-03 0.  1.
         11    1    4    4    0    0 -0.17231004932E-01  0.91361662054E-02 -0.28167157230E-01  0.34264076397E-01  0.51100000000E-03 0. -1.
</event>
<event>
 8    1  0.1074844E+005  0.1043930E+01  0.7957747E-01            NaN
         13   -1    0    0    0    0  0.00000000000E+00  0.00000000000E+00  0.74505805969E-08  0.10566000000E+00  0.10566000000E+00 0.  1.
     999900   -1    0    0    0    0 -0.00000000000E+00 -0.00000000000E+00 -0.74505805969E-08  0.93827000000E+00  0.93827000000E+00 0.  1.
     999902    2    1    2    0    0  0.14057141931E-01 -0.15191028938E-01  0.11260757328E-01  0.10203678427E+01  0.10200957598E+01 0.  0.
     999903    2    3    3    0    0 -0.59626933704E-01  0.11039671050E+00  0.18724832330E-01  0.12837157833E+00  0.19642755995E-01 0.  0.
         14    1    1    2    0    0 -0.14057141931E-01  0.15191028938E-01 -0.11260757328E-01  0.23562157266E-01  0.00000000000E+00 0. -1.
     999901    1    3    3    0    0  0.73684075635E-01 -0.12558773944E+00 -0.74640750021E-02  0.89199626441E+00  0.88000000000E+00 0.  1.
        -11    1    4    4    0    0 -0.10502493168E-01  0.38144142448E-01  0.40201364635E-02  0.39770599493E-01  0.51100000000E-03 0. -1.
         11    1    4    4    0    0 -0.49124440536E-01  0.72252568057E-01  0.14704695866E-01  0.88600978834E-01  0.51100000000E-03 0.  1.
</event>
<event>
 8    1  0.1074844E+005  0.1043930E+01  0.7957747E-01            NaN
         13   -1    0    0    0    0  0.00000000000E+00  0.00000000000E+00  0.74505805969E-08  0.10566000000E+00  0.10566000000E+00 0.  1.
     999900   -1    0    0    0    0 -0.00000000000E+00 -0.00000000000E+00 -0.74505805969E-08  0.93827000000E+00  0.93827000000E+00 0.  1.
     999902    2    1    2    0    0 -0.15374293140E-02 -0.22048701071E-01 -0.78661640390E-02  0.10204697049E+01  0.10201999967E+01 0.  0.
     999903    2    3    3    0    0 -0.86107702514E-02 -0.12271667284E+00  0.46481988900E-01  0.13303644298E+00  0.20114490094E-01 0.  0.
         14    1    1    2    0    0  0.15374293140E-02  0.22048701071E-01  0.78661640390E-02  0.23460295064E-01  0.00000000000E+00 0.  1.
     999901    1    3    3    0    0  0.70733409373E-02  0.10066797177E+00 -0.54348152939E-01  0.88743326195E+00  0.88000000000E+00 0.  1.
        -11    1    4    4    0    0 -0.14292301363E-01 -0.67096056102E-01  0.28698537830E-01  0.74364089568E-01  0.51100000000E-03 0.  1.
         11    1    4    4    0    0  0.56815311115E-02 -0.55620616740E-01  0.17783451070E-01  0.58672353415E-01  0.51100000000E-03 0. -1.
</event>
<event>
 8    1  0.1074844E+005  0.1043930E+01  0.7957747E-01            NaN
         13   -1    0    0    0    0  0.00000000000E+00  0.00000000000E+00  0.74505805969E-08  0.10566000000E+00  0.10566000000E+00 0.  1.
     999900   -1    0    0    0    0 -0.00000000000E+00 -0.00000000000E+00 -0.74505805969E-08  0.93827000000E+00  0.93827000000E+00 0. -1.
     999902    2    1    2    0    0  0.12112117171E-01  0.20778219608E-01 -0.73017587427E-03  0.10198681848E+01  0.10195842993E+01 0.  0.
     999903    2    3    3    0    0 -0.92964983583E-01  0.50343392407E-02  0.87249323226E-01  0.12912161081E+00  0.19801849154E-01 0.  0.
         14    1    1    2    0    0 -0.12112117171E-01 -0.20778219608E-01  0.73017587427E-03  0.24061815169E-01  0.00000000000E+00 0.  1.
     999901    1    3    3    0    0  0.10507710075E+00  0.15743880368E-01 -0.87979499100E-01  0.89074657402E+00  0.88000000000E+00 0. -1.
        -11    1    4    4    0    0 -0.84845541374E-01 -0.11601870126E-02  0.75924983799E-01  0.11386384945E+00  0.51100000000E-03 0.  1.
         11    1    4    4    0    0 -0.81194422099E-02  0.61945262533E-02  0.11324339426E-01  0.15257761361E-01  0.51100000000E-03 0. -1.
</event>
<event>
 8    1  0.1074844E+005  0.1043930E+01  0.7957747E-01            NaN
         13   -1    0    0    0    0  0.00000000000E+00  0.00000000000E+00  0.74505805969E-08  0.10566000000E+00  0.10566000000E+00 0.  1.
     999900   -1    0    0    0    0 -0.00000000000E+00 -0.00000000000E+00 -0.74505805969E-08  0.93827000000E+00  0.93827000000E+00 0. -1.
     999902    2    1    2    0    0  0.26573623390E-02 -0.19457442543E-02 -0.22817420537E-01  0.10208761028E+01  0.10206157627E+01 0.  0.
     999903    2    3    3    0    0 -0.25602979317E-01  0.11096790988E+00  0.58538800493E-01  0.12949123931E+00  0.19282124390E-01 0.  0.
         14    1    1    2    0    0 -0.26573623390E-02  0.19457442543E-02  0.22817420537E-01  0.23053897181E-01  0.00000000000E+00 0.  1.
     999901    1    3    3    0    0  0.28260341656E-01 -0.11291365413E+00 -0.81356221030E-01  0.89138486351E+00  0.88000000000E+00 0. -1.
        -11    1    4    4    0    0 -0.23517262644E-01  0.10147180247E+00  0.46669561983E-01  0.11413981547E+00  0.51100000000E-03 0.  1.
         11    1    4    4    0    0 -0.20857166729E-02  0.94961074056E-02  0.11869238510E-01  0.15351423833E-01  0.51100000000E-03 0. -1.
</event>
<event>
 8    1  0.1074844E+005  0.1043930E+01  0.7957747E-01            NaN
         13   -1    0    0    0    0  0.00000000000E+00  0.00000000000E+00  0.74505805969E-08  0.10566000000E+00  0.10566000000E+00 0. -1.
     999900   -1    0    0    0    0 -0.00000000000E+00 -0.00000000000E+00 -0.74505805969E-08  0.93827000000E+00  0.93827000000E+00 0. -1.
     999902    2    1    2    0    0 -0.13357887580E-01  0.18146460271E-01  0.19045535537E-02  0.10213168511E+01  0.10210664796E+01 0.  0.
     999903    2    3    3    0    0 -0.67758375792E-01 -0.42486595936E-01 -0.10227977040E+00  0.13143474989E+00  0.20436088652E-01 0.  0.
         14    1    1    2    0    0  0.13357887580E-01 -0.18146460271E-01 -0.19045535537E-02  0.22613148945E-01  0.00000000000E+00 0.  1.
     999901    1    3    3    0    0  0.54400488212E-01  0.60633056207E-01  0.10418432396E+00  0.88988210117E+00  0.88000000000E+00 0.  1.
        -11    1    4    4    0    0 -0.43939662555E-01 -0.18414908360E-01 -0.69789426896E-01  0.84502236792E-01  0.51100000000E-03 0. -1.
         11    1    4    4    0    0 -0.23818713237E-01 -0.24071687576E-01 -0.32490343509E-01  0.46932513094E-01  0.51100000000E-03 0.  1.
</event>
<event>
 8    1  0.1074844E+005  0.1043930E+01  0.7957747E-01            NaN
         13   -1    0    0    0    0  0.00000000000E+00  0.00000000000E+00  0.74505805969E-08  0.10566000000E+00  0.10566000000E+00 0.  1.
     999900   -1    0    0    0    0 -0.00000000000E+00 -0.00000000000E+00 -0.74505805969E-08  0.93827000000E+00  0.93827000000E+00 0.  1.
     999902    2    1    2    0    0 -0.12328448319E-01 -0.19652015820E-01 -0.28818940879E-02  0.10205527102E+01  0.10202849292E+01 0.  0.
     999903    2    3    3    0    0  0.86573012486E-01 -0.90540427651E-01  0.35121422220E-01  0.13136717394E+00  0.18203421677E-01 0.  0.
         14    1    1    2    0    0  0.12328448319E-01  0.19652015820E-01  0.28818940879E-02  0.23377289776E-01  0.00000000000E+00 0.  1.
     999901    1    3    3    0    0 -0.98901460806E-01  0.70888411831E-01 -0.38003316308E-01  0.88918553628E+00  0.88000000000E+00 0.  1.
        -11    1    4    4    0    0  0.37713572717E-01 -0.34996727163E-01  0.57500508896E-02  0.51772663496E-01  0.51100000000E-03 0.  1.
         11    1    4    4    0    0  0.48859439769E-01 -0.55543700488E-01  0.29371371331E-01  0.79594510447E-01  0.51100000000E-03 0. -1.
</event>
<event>
 8    1  0.1074844E+005  0.1043930E+01  0.7957747E-01            NaN
         13   -1    0    0    0    0  0.00000000000E+00  0.00000000000E+00  0.74505805969E-08  0.10566000000E+00  0.10566000000E+00 0.  1.
     999900   -1    0    0    0    0 -0.00000000000E+00 -0.00000000000E+00 -0.74505805969E-08  0.93827000000E+00  0.93827000000E+00 0. -1.
     999902    2    1    2    0    0  0.59676577522E-02  0.19587711592E-01  0.11877004937E-01  0.10202581891E+01  0.10199835380E+01 0.  0.
     999903    2    3    3    0    0 -0.10037049153E+00 -0.54781811023E-01 -0.54626643911E-01  0.12825966714E+00  0.19778513600E-01 0.  0.
         14    1    1    2    0    0 -0.59676577522E-02 -0.19587711592E-01 -0.11877004937E-01  0.23671810888E-01  0.00000000000E+00 0. -1.
     999901    1    3    3    0    0  0.10633814929E+00  0.74369522615E-01  0.66503648848E-01  0.89199852197E+00  0.88000000000E+00 0.  1.
        -11    1    4    4    0    0 -0.53077071679E-01 -0.31522719671E-01 -0.18812292832E-01  0.64536972939E-01  0.51100000000E-03 0. -1.
         11    1    4    4    0    0 -0.47293419856E-01 -0.23259091352E-01 -0.35814351079E-01  0.63722694202E-01  0.51100000000E-03 0.  1.
</event>
<event>
 8    1  0.1074844E+005  0.1043930E+01  0.7957747E-01            NaN
         13   -1    0    0    0    0  0.00000000000E+00  0.00000000000E+00  0.74505805969E-08  0.10566000000E+00  0.10566000000E+00 0. -1.
     999900   -1    0    0    0    0 -0.00000000000E+00 -0.00000000000E+00 -0.74505805969E-08  0.93827000000E+00  0.93827000000E+00 0.  1.
     999902    2    1    2    0    0 -0.96632660235E-02  0.20466623301E-01  0.45946983055E-02  0.10208351384E+01  0.10205738617E+01 0.  0.
     999903    2    3    3    0    0 -0.40812074615E-01  0.94506737264E-02  0.12376972278E+00  0.13218769094E+00  0.19992515888E-01 0.  0.
         14    1    1    2    0    0  0.96632660235E-02 -0.20466623301E-01 -0.45946983055E-02  0.23094861595E-01  0.00000000000E+00 0.  1.
     999901    1    3    3    0    0  0.31148808592E-01  0.11015949575E-01 -0.11917502447E+00  0.88864744746E+00  0.88000000000E+00 0.  1.
        -11    1    4    4    0    0 -0.55123993489E-02 -0.53302971657E-02  0.14525650799E-01  0.16433327922E-01  0.51100000000E-03 0.  1.
         11    1    4    4    0    0 -0.35299675266E-01  0.14780970892E-01  0.10924407198E+00  0.11575436302E+00  0.51100000000E-03 0. -1.
</event>
<event>
 8    1  0.1074844E+005  0.1043930E+01  0.7957747E-01            NaN
         13   -1    0    0    0    0  0.00000000000E+00  0.00000000000E+00  0.74505805969E-08  0.10566000000E+00  0.10566000000E+00 0. -1.
     999900   -1    0    0    0    0 -0.00000000000E+00 -0.00000000000E+00 -0.74505805969E-08  0.93827000000E+00  0.93827000000E+00 0.  1.
     999902    2    1    2    0    0  0.96519408390E-03  0.10495948851E-01  0.21208152352E-01  0.10202470469E+01  0.10199721341E+01 0.  0.
     999903    2    3    3    0    0  0.91868424418E-01 -0.73683937759E-01  0.54129899289E-01  0.13095885287E+00  0.18736196513E-01 0.  0.
         14    1    1    2    0    0 -0.96519408390E-03 -0.10495948851E-01 -0.21208152352E-01  0.23682953111E-01  0.00000000000E+00 0.  1.
     999901    1    3    3    0    0 -0.90903230334E-01  0.84179886611E-01 -0.32921746938E-01  0.88928819402E+00  0.88000000000E+00 0.  1.
        -11    1    4    4    0    0  0.60035870715E-01 -0.41792006973E-01  0.25022764865E-01  0.77312854700E-01  0.51100000000E-03 0.  1.
         11    1    4    4    0    0  0.31832553704E-01 -0.31891930786E-01  0.29107134424E-01  0.53645998173E-01  0.51100000000E-03 0. -1.
</event>
<event>
 8    1  0.1074844E+005  0.1043930E+01  0.7957747E-01            NaN
         13   -1    0    0    0    0  0.00000000000E+00  0.00000000000E+00  0.74505805969E-08  0.10566000000E+00  0.10566000000E+00 0.  1.
     999900   -1    0    0    0    0 -0.00000000000E+00 -0.00000000000E+00 -0.74505805969E-08  0.93827000000E+00  0.93827000000E+00 0. -1.
     999902    2    1    2    0    0  0.31302517661E-02 -0.10250843897E-01 -0.14628992024E-01  0.10257947943E+01  0.10256344741E+01 0.  0.
     999903    2    3    3    0    0  0.81272304333E-01  0.10534852759E+00  0.13507961168E-02  0.13465802106E+00  0.20675063912E-01 0.  0.
         14    1    1    2    0    0 -0.31302517661E-02  0.10250843897E-01  0.14628992024E-01  0.18135205661E-01  0.00000000000E+00 0.  1.
     999901    1    3    3    0    0 -0.78142052567E-01 -0.11559937149E+00 -0.15979788141E-01  0.89113677328E+00  0.88000000000E+00 0.  1.
        -11    1    4    4    0    0  0.21524828022E-01  0.29365118354E-01  0.95642831794E-02  0.37647908721E-01  0.51100000000E-03 0.  1.
         11    1    4    4    0    0  0.59747476311E-01  0.75983409237E-01 -0.82134870626E-02  0.97010112336E-01  0.51100000000E-03 0. -1.
</event>
<event>
 8    1  0.1074844E+005  0.1043930E+01  0.7957747E-01            NaN
         13   -1    0    0    0    0  0.00000000000E+00  0.00000000000E+00  0.74505805969E-08  0.10566000000E+00  0.10566000000E+00 0.  1.
     999900   -1    0    0    0    0 -0.00000000000E+00 -0.00000000000E+00 -0.74505805969E-08  0.93827000000E+00  0.93827000000E+00 0.  1.
     999902    2    1    2    0    0 -0.17613165725E-01  0.88506297962E-02  0.13416283824E-01  0.10200856311E+01  0.10198069136E+01 0.  0.
     999903    2    3    3    0    0 -0.86277084912E-01  0.92285705952E-01  0.37117543534E-01  0.13315953758E+00  0.19833393710E-01 0.  0.
         14    1    1    2    0    0  0.17613165725E-01 -0.88506297962E-02 -0.13416283824E-01  0.23844368859E-01  0.00000000000E+00 0. -1.
     999901    1    3    3    0    0  0.68663919187E-01 -0.83435076156E-01 -0.23701259710E-01  0.88692609356E+00  0.88000000000E+00 0.  1.
        -11    1    4    4    0    0 -0.31434123074E-01  0.24053841118E-01  0.18337206143E-01  0.43625744877E-01  0.51100000000E-03 0.  1.
         11    1    4    4    0    0 -0.54842961838E-01  0.68231864834E-01  0.18780337391E-01  0.89533792701E-01  0.51100000000E-03 0. -1.
</event>
<event>
 7    1  0.1074844E+005  0.1043930E+01  0.7957747E-01            NaN
         13   -1    0    0    0    0  0.00000000000E+00  0.00000000000E+00  0.74505805969E-08  0.10566000000E+00  0.10566000000E+00 0.  1.
     999900   -1    0    0    0    0 -0.00000000000E+00 -0.00000000000E+00 -0.74505805969E-08  0.93827000000E+00  0.93827000000E+00 0. -1.
     999903    2    1    2    0    0  0.94681603711E-01  0.51666261919E-01  0.26423380259E-01  0.11282449669E+00  0.19928957001E-01 0.  0.
         14    1    1    2    0    0 -0.89412163375E-02 -0.30863111981E-01 -0.33836766868E-01  0.46662659834E-01  0.00000000000E+00 0.  1.
     999901    1    1    2    0    0 -0.85740387374E-01 -0.20803149938E-01  0.74133866087E-02  0.88444284348E+00  0.88000000000E+00 0.  1.
        -11    1    3    3    0    0  0.36990434064E-01  0.10977884829E-01  0.14521190777E-01  0.41230234903E-01  0.51100000000E-03 0. -1.
         11    1    3    3    0    0  0.57691169647E-01  0.40688377089E-01  0.11902189482E-01  0.71594261787E-01  0.51100000000E-03 0.  1.
</event>
<event>
 8    1  0.1074844E+005  0.1043930E+01  0.7957747E-01            NaN
         13   -1    0    0    0    0  0.00000000000E+00  0.00000000000E+00  0.74505805969E-08  0.10566000000E+00  0.10566000000E+00 0. -1.
     999900   -1    0    0    0    0 -0.00000000000E+00 -0.00000000000E+00 -0.74505805969E-08  0.93827000000E+00  0.93827000000E+00 0. -1.
     999902    2    1    2    0    0  0.59329073995E-02  0.19437408187E-01 -0.11905426287E-01  0.10203768388E+01  0.10201049661E+01 0.  0.
     999903    2    3    3    0    0 -0.11358560350E+00  0.25121598341E-01  0.53682159872E-01  0.12986085584E+00  0.21196310149E-01 0.  0.
         14    1    1    2    0    0 -0.59329073995E-02 -0.19437408187E-01  0.11905426287E-01  0.23553161195E-01  0.00000000000E+00 0. -1.
     999901    1    3    3    0    0  0.11951851090E+00 -0.56841901542E-02 -0.65587586159E-01  0.89051598297E+00  0.88000000000E+00 0. -1.
        -11    1    4    4    0    0 -0.77224838238E-01  0.23560412249E-01  0.28593681379E-01  0.85654120753E-01  0.51100000000E-03 0. -1.
         11    1    4    4    0    0 -0.36360765263E-01  0.15611860919E-02  0.25088478493E-01  0.44206735082E-01  0.51100000000E-03 0.  1.
</event>
<event>
 8    1  0.1074844E+005  0.1043930E+01  0.7957747E-01            NaN
         13   -1    0    0    0    0  0.00000000000E+00  0.00000000000E+00  0.74505805969E-08  0.10566000000E+00  0.10566000000E+00 0.  1.
     999900   -1    0    0    0    0 -0.00000000000E+00 -0.00000000000E+00 -0.74505805969E-08  0.93827000000E+00  0.93827000000E+00 0.  1.
     999902    2    1    2    0    0  0.10836972860E-01  0.47673107498E-02 -0.20219155905E-01  0.10204996458E+01  0.10202306335E+01 0.  0.
     999903    2    3    3    0    0  0.40076955718E-03  0.77993419237E-01  0.10121873280E+00  0.12908608402E+00  0.18298938702E-01 0.  0.
         14    1    1    2    0    0 -0.10836972860E-01 -0.47673107498E-02  0.20219155905E-01  0.23430354203E-01  0.00000000000E+00 0.  1.
     999901    1    3    3    0    0  0.10436203303E-01 -0.73226108487E-01 -0.12143788871E+00  0.89141356178E+00  0.88000000000E+00 0.  1.
        -11    1    4    4    0    0  0.76558349300E-02  0.29880518665E-01  0.31737582706E-01  0.44260507015E-01  0.51100000000E-03 0. -1.
         11    1    4    4    0    0 -0.72550653728E-02  0.48112900571E-01  0.69481150095E-01  0.84825577006E-01  0.51100000000E-03 0.  1.
</event>
<event>
 8    1  0.1074844E+005  0.1043930E+01  0.7957747E-01            NaN
         13   -1    0    0    0    0  0.00000000000E+00  0.00000000000E+00  0.74505805969E-08  0.10566000000E+00  0.10566000000E+00 0.  1.
     999900   -1    0    0    0    0 -0.00000000000E+00 -0.00000000000E+00 -0.74505805969E-08  0.93827000000E+00  0.93827000000E+00 0.  1.
     999902    2    1    2    0    0  0.10162031421E-01 -0.97453521882E-03  0.20941198816E-01  0.10206329957E+01  0.10203670719E+01 0.  0.
     999903    2    3    3    0    0  0.68980552877E-01  0.76940586333E-01 -0.76039996835E-01  0.12993903202E+00  0.20588842177E-01 0.  0.
         14    1    1    2    0    0 -0.10162031421E-01  0.97453521882E-03 -0.20941198816E-01  0.23297004300E-01  0.00000000000E+00 0. -1.
     999901    1    3    3    0    0 -0.58818521456E-01 -0.77915121552E-01  0.96981195651E-01  0.89069396368E+00  0.88000000000E+00 0. -1.
        -11    1    4    4    0    0  0.60632129061E-01  0.58646441628E-01 -0.54305663398E-01  0.10032460510E+00  0.51100000000E-03 0. -1.
         11    1    4    4    0    0  0.83484238156E-02  0.18294144706E-01 -0.21734333437E-01  0.29614426918E-01  0.51100000000E-03 0.  1.
</event>
<event>
 8    1  0.1074844E+005  0.1043930E+01  0.7957747E-01            NaN
         13   -1    0    0    0    0  0.00000000000E+00  0.00000000000E+00  0.74505805969E-08  0.10566000000E+00  0.10566000000E+00 0.  1.
     999900   -1    0    0    0    0 -0.00000000000E+00 -0.00000000000E+00 -0.74505805969E-08  0.93827000000E+00  0.93827000000E+00 0.  1.
     999902    2    1    2    0    0 -0.19557993061E-01  0.21275368603E-02 -0.12877513229E-01  0.10204167728E+01  0.10201458319E+01 0.  0.
     999903    2    3    3    0    0  0.87808367351E-01 -0.91505598935E-01  0.97951387558E-02  0.12867199508E+00  0.19415291959E-01 0.  0.
         14    1    1    2    0    0  0.19557993061E-01 -0.21275368603E-02  0.12877513229E-01  0.23513227184E-01  0.00000000000E+00 0.  1.
     999901    1    3    3    0    0 -0.10736636041E+00  0.93633135796E-01 -0.22672651985E-01  0.89174477773E+00  0.88000000000E+00 0. -1.
        -11    1    4    4    0    0  0.61347820072E-01 -0.65038333652E-01 -0.19935931904E-02  0.89430282381E-01  0.51100000000E-03 0.  1.
         11    1    4    4    0    0  0.26460547278E-01 -0.26467265283E-01  0.11788731946E-01  0.39241712702E-01  0.51100000000E-03 0. -1.
</event>
<event>
 8    1  0.1074844E+005  0.1043930E+01  0.7957747E-01            NaN
         13   -1    0    0    0    0  0.00000000000E+00  0.00000000000E+00  0.74505805969E-08  0.10566000000E+00  0.10566000000E+00 0.  1.
     999900   -1    0    0    0    0 -0.00000000000E+00 -0.00000000000E+00 -0.74505805969E-08  0.93827000000E+00  0.93827000000E+00 0. -1.
     999902    2    1    2    0    0 -0.26425440989E-02 -0.19033900593E-01 -0.17408746608E-01  0.10180005405E+01  0.10176702627E+01 0.  0.
     999903    2    3    3    0    0 -0.97467043111E-01  0.80857682957E-01 -0.81899019234E-02  0.12723962917E+00  0.92227626472E-02 0.  0.
         14    1    1    2    0    0  0.26425440989E-02  0.19033900593E-01  0.17408746608E-01  0.25929459492E-01  0.00000000000E+00 0. -1.
     999901    1    3    3    0    0  0.94824499012E-01 -0.99891583549E-01 -0.92188446848E-02  0.89076091134E+00  0.88000000000E+00 0.  1.
        -11    1    4    4    0    0 -0.46129069842E-01  0.37342064096E-01  0.68816088814E-03  0.59355332717E-01  0.51100000000E-03 0.  1.
         11    1    4    4    0    0 -0.51337973269E-01  0.43515618860E-01 -0.88780628115E-02  0.67884296450E-01  0.51100000000E-03 0. -1.
</event>
<event>
 8    1  0.1074844E+005  0.1043930E+01  0.7957747E-01            NaN
         13   -1    0    0    0    0  0.00000000000E+00  0.00000000000E+00  0.74505805969E-08  0.10566000000E+00  0.10566000000E+00 0. -1.
     999900   -1    0    0    0    0 -0.00000000000E+00 -0.00000000000E+00 -0.74505805969E-08  0.93827000000E+00  0.93827000000E+00 0. -1.
     999902    2    1    2    0    0  0.57388532229E-02  0.11513533299E-01  0.20242412396E-01  0.10199456062E+01  0.10196635663E+01 0.  0.
     999903    2    3    3    0    0 -0.95513669051E-01  0.61346588732E-01  0.63865167813E-01  0.13166729878E+00  0.19267926291E-01 0.  0.
         14    1    1    2    0    0 -0.57388532229E-02 -0.11513533299E-01 -0.20242412396E-01  0.23984393779E-01  0.00000000000E+00 0.  1.
     999901    1    3    3    0    0  0.10125252227E+00 -0.49833055432E-01 -0.43622755417E-01  0.88827830744E+00  0.88000000000E+00 0. -1.
        -11    1    4    4    0    0 -0.91774502684E-01  0.54292645574E-01  0.55976692138E-01  0.12043214641E+00  0.51100000000E-03 0.  1.
         11    1    4    4    0    0 -0.37391663673E-02  0.70539431579E-02  0.78884756752E-02  0.11235152365E-01  0.51100000000E-03 0. -1.
</event>
<event>
 8    1  0.1074844E+005  0.1043930E+01  0.7957747E-01            NaN
         13   -1    0    0    0    0  0.00000000000E+00  0.00000000000E+00  0.74505805969E-08  0.10566000000E+00  0.10566000000E+00 0. -1.
     999900   -1    0    0    0    0 -0.00000000000E+00 -0.00000000000E+00 -0.74505805969E-08  0.93827000000E+00  0.93827000000E+00 0.  1.
     999902    2    1    2    0    0 -0.22783613840E-01 -0.62498227836E-02  0.66946338097E-02  0.10193745227E+01  0.10190787242E+01 0.  0.
     999903    2    3    3    0    0  0.65471065935E-01  0.95614739536E-01 -0.48711226554E-01  0.12739072971E+00  0.20663386292E-01 0.  0.
         14    1    1    2    0    0  0.22783613840E-01  0.62498227836E-02 -0.66946338097E-02  0.24555477317E-01  0.00000000000E+00 0. -1.
     999901    1    3    3    0    0 -0.88254679775E-01 -0.10186456232E+00  0.55405860363E-01  0.89198379297E+00  0.88000000000E+00 0. -1.
        -11    1    4    4    0    0  0.35388793111E-01  0.62542186173E-01 -0.38515470801E-01  0.81532780777E-01  0.51100000000E-03 0.  1.
         11    1    4    4    0    0  0.30082272824E-01  0.33072553363E-01 -0.10195755753E-01  0.45857948936E-01  0.51100000000E-03 0. -1.
</event>
<event>
 8    1  0.1074844E+005  0.1043930E+01  0.7957747E-01            NaN
         13   -1    0    0    0    0  0.00000000000E+00  0.00000000000E+00  0.74505805969E-08  0.10566000000E+00  0.10566000000E+00 0. -1.
     999900   -1    0    0    0    0 -0.00000000000E+00 -0.00000000000E+00 -0.74505805969E-08  0.93827000000E+00  0.93827000000E+00 0. -1.
     999902    2    1    2    0    0  0.13925196430E-01  0.13074575714E-01 -0.83551759188E-02  0.10230813888E+01  0.10228689376E+01 0.  0.
     999903    2    3    3    0    0 -0.29011653932E-01 -0.59229340804E-01  0.11166267912E+00  0.13096272234E+00  0.18245269483E-01 0.  0.
         14    1    1    2    0    0 -0.13925196430E-01 -0.13074575714E-01  0.83551759188E-02  0.20848611233E-01  0.00000000000E+00 0. -1.
     999901    1    3    3    0    0  0.42936850362E-01  0.72303916519E-01 -0.12001785504E+00  0.89211866643E+00  0.88000000000E+00 0. -1.
        -11    1    4    4    0    0 -0.84137496344E-02 -0.26702098805E-01  0.62743331010E-01  0.68707932371E-01  0.51100000000E-03 0. -1.
         11    1    4    4    0    0 -0.20597904298E-01 -0.32527241999E-01  0.48919348108E-01  0.62254789967E-01  0.51100000000E-03 0.  1.
</event>
<event>
 8    1  0.1074844E+005  0.1043930E+01  0.7957747E-01            NaN
         13   -1    0    0    0    0  0.00000000000E+00  0.00000000000E+00  0.74505805969E-08  0.10566000000E+00  0.10566000000E+00 0. -1.
     999900   -1    0    0    0    0 -0.00000000000E+00 -0.00000000000E+00 -0.74505805969E-08  0.93827000000E+00  0.93827000000E+00 0. -1.
     999902    2    1    2    0    0 -0.88071263559E-02 -0.13956545921E-02 -0.23079385651E-01  0.10191879029E+01  0.10188875355E+01 0.  0.
     999903    2    3    3    0    0 -0.79109276465E-01 -0.61942673350E-01  0.77657618686E-01  0.12859468610E+00  0.20266108356E-01 0.  0.
         14    1    1    2    0    0  0.88071263559E-02  0.13956545921E-02  0.23079385651E-01  0.24742097090E-01  0.00000000000E+00 0. -1.
     999901    1    3    3    0    0  0.70302150109E-01  0.60547018758E-01 -0.10073700434E+00  0.89059321681E+00  0.88000000000E+00 0. -1.
        -11    1    4    4    0    0 -0.63726428562E-01 -0.58570213114E-01  0.68404696952E-01  0.11032221557E+00  0.51100000000E-03 0. -1.
         11    1    4    4    0    0 -0.15382847904E-01 -0.33724602352E-02  0.92529217341E-02  0.18272470530E-01  0.51100000000E-03 0.  1.
</event>
<event>
 8    1  0.1074844E+005  0.1043930E+01  0.7957747E-01            NaN
         13   -1    0    0    0    0  0.00000000000E+00  0.00000000000E+00  0.74505805969E-08  0.10566000000E+00  0.10566000000E+00 0. -1.
     999900   -1    0    0    0    0 -0.00000000000E+00 -0.00000000000E+00 -0.74505805969E-08  0.93827000000E+00  0.93827000000E+00 0. -1.
     999902    2    1    2    0    0 -0.83001903897E-02  0.17727939797E-01 -0.12763183390E-01  0.10205618195E+01  0.10202942495E+01 0.  0.
     999903    2    3    3    0    0  0.97634686359E-01 -0.39393598579E-01 -0.73918545291E-01  0.13026689839E+00  0.20521352004E-01 0.  0.
         14    1    1    2    0    0  0.83001903897E-02 -0.17727939797E-01  0.12763183390E-01  0.23368180507E-01  0.00000000000E+00 0. -1.
     999901    1    3    3    0    0 -0.10593487675E+00  0.57121538376E-01  0.61155361901E-01  0.89029492111E+00  0.88000000000E+00 0.  1.
        -11    1    4    4    0    0  0.31197024047E-01 -0.13011052429E-01 -0.35855056802E-01  0.49278677072E-01  0.51100000000E-03 0. -1.
         11    1    4    4    0    0  0.66437662311E-01 -0.26382546150E-01 -0.38063488489E-01  0.80988221315E-01  0.51100000000E-03 0.  1.
</event>
<event>
 8    1  0.1074844E+005  0.1043930E+01  0.7957747E-01            NaN
         13   -1    0    0    0    0  0.00000000000E+00  0.00000000000E+00  0.74505805969E-08  0.10566000000E+00  0.10566000000E+00 0. -1.
     999900   -1    0    0    0    0 -0.00000000000E+00 -0.00000000000E+00 -0.74505805969E-08  0.93827000000E+00  0.93827000000E+00 0. -1.
     999902    2    1    2    0    0 -0.11843562962E-01  0.18598217719E-01  0.61955204345E-02  0.10210269836E+01  0.10207700785E+01 0.  0.
     999903    2    3    3    0    0  0.59693535317E-01 -0.98338210060E-01 -0.52977699444E-01  0.12845028970E+00  0.21427052280E-01 0.  0.
         14    1    1    2    0    0  0.11843562962E-01 -0.18598217719E-01 -0.61955204345E-02  0.22903016383E-01  0.00000000000E+00 0.  1.
     999901    1    3    3    0    0 -0.71537098279E-01  0.11693642778E+00  0.59173219879E-01  0.89257669392E+00  0.88000000000E+00 0.  1.
        -11    1    4    4    0    0  0.31995693384E-01 -0.34873057958E-01 -0.27004064390E-01  0.54491606519E-01  0.51100000000E-03 0. -1.
         11    1    4    4    0    0  0.27697841933E-01 -0.63465152101E-01 -0.25973635055E-01  0.73958683181E-01  0.51100000000E-03 0.  1.
</event>
<event>
 8    1  0.1074844E+005  0.1043930E+01  0.7957747E-01            NaN
         13   -1    0    0    0    0  0.00000000000E+00  0.00000000000E+00  0.74505805969E-08  0.10566000000E+00  0.10566000000E+00 0. -1.
     999900   -1    0    0    0    0 -0.00000000000E+00 -0.00000000000E+00 -0.74505805969E-08  0.93827000000E+00  0.93827000000E+00 0. -1.
     999902    2    1    2    0    0  0.97689183222E-03 -0.20993182034E-01  0.12007557888E-01  0.10197256728E+01  0.10194383739E+01 0.  0.
     999903    2    3    3    0    0  0.22866792456E-01 -0.55797896175E-02 -0.12492796013E+00  0.12873292505E+00  0.20276748269E-01 0.  0.
         14    1    1    2    0    0 -0.97689183222E-03  0.20993182034E-01 -0.12007557888E-01  0.24204327216E-01  0.00000000000E+00 0.  1.
     999901    1    3    3    0    0 -0.21889900624E-01 -0.15413392417E-01  0.13693551802E+00  0.89099274773E+00  0.88000000000E+00 0.  1.
        -11    1    4    4    0    0  0.20041632329E-01  0.10914320942E-02 -0.11298441137E+00  0.11475450573E+00  0.51100000000E-03 0.  1.
         11    1    4    4    0    0  0.28251601269E-02 -0.66712217117E-02 -0.11943548760E-01  0.13978419326E-01  0.51100000000E-03 0. -1.
</event>
<event>
 7    1  0.1074844E+005  0.1043930E+01  0.7957747E-01            NaN
         13   -1    0    0    0    0  0.00000000000E+00  0.00000000000E+00  0.74505805969E-08  0.10566000000E+00  0.10566000000E+00 0.  1.
     999900   -1    0    0    0    0 -0.00000000000E+00 -0.00000000000E+00 -0.74505805969E-08  0.93827000000E+00  0.93827000000E+00 0. -1.
     999903    2    1    2    0    0  0.14150727033E-01 -0.93718149931E-01  0.66475497795E-01  0.11747540681E+00  0.19953563478E-01 0.  0.
         14    1    1    2    0    0 -0.17928113123E-01  0.29595782132E-01  0.19864853416E-01  0.39899122313E-01  0.00000000000E+00 0. -1.
     999901    1    1    2    0    0  0.37773860903E-02  0.64122367800E-01 -0.86340351211E-01  0.88655547088E+00  0.88000000000E+00 0. -1.
        -11    1    3    3    0    0  0.41086238880E-02 -0.48228625688E-01  0.22382403308E-01  0.53330237435E-01  0.51100000000E-03 0.  1.
         11    1    3    3    0    0  0.10042103145E-01 -0.45489524243E-01  0.44093094487E-01  0.64145169373E-01  0.51100000000E-03 0. -1.
</event>
<event>
 8    1  0.1074844E+005  0.1043930E+01  0.7957747E-01            NaN
         13   -1    0    0    0    0  0.00000000000E+00  0.00000000000E+00  0.74505805969E-08  0.10566000000E+00  0.10566000000E+00 0.  1.
     999900   -1    0    0    0    0 -0.00000000000E+00 -0.00000000000E+00 -0.74505805969E-08  0.93827000000E+00  0.93827000000E+00 0.  1.
     999902    2    1    2    0    0  0.13840797838E-01  0.17437006953E-01 -0.77080460518E-02  0.10203709068E+01  0.10200988955E+01 0.  0.
     999903    2    3    3    0    0 -0.64157556710E-01 -0.41696980621E-01 -0.10293180494E+00  0.12983840544E+00  0.20204573350E-01 0.  0.
         14    1    1    2    0    0 -0.13840797838E-01 -0.17437006953E-01  0.77080460518E-02  0.23559093153E-01  0.00000000000E+00 0.  1.
     999901    1    3    3    0    0  0.77998354548E-01  0.59133987574E-01  0.95223758888E-01  0.89053250140E+00  0.88000000000E+00 0.  1.
        -11    1    4    4    0    0 -0.28881037404E-01 -0.13774498510E-01 -0.58054420931E-01  0.66290482283E-01  0.51100000000E-03 0.  1.
         11    1    4    4    0    0 -0.35276519306E-01 -0.27922482111E-01 -0.44877384008E-01  0.63547923161E-01  0.51100000000E-03 0. -1.
</event>
<event>
 8    1  0.1074844E+005  0.1043930E+01  0.7957747E-01            NaN
         13   -1    0    0    0    0  0.00000000000E+00  0.00000000000E+00  0.74505805969E-08  0.10566000000E+00  0.10566000000E+00 0. -1.
     999900   -1    0    0    0    0 -0.00000000000E+00 -0.00000000000E+00 -0.74505805969E-08  0.93827000000E+00  0.93827000000E+00 0. -1.
     999902    2    1    2    0    0  0.15870236863E-01 -0.16707753789E-01  0.11870898301E-02  0.10208557148E+01  0.10205949088E+01 0.  0.
     999903    2    3    3    0    0  0.13167022964E+00 -0.11042582076E-01  0.56557516737E-02  0.13323997507E+00  0.16183801659E-01 0.  0.
         14    1    1    2    0    0 -0.15870236863E-01  0.16707753789E-01 -0.11870898301E-02  0.23074285190E-01  0.00000000000E+00 0. -1.
     999901    1    3    3    0    0 -0.11579999278E+00 -0.56651717129E-02 -0.44686618436E-02  0.88761573974E+00  0.88000000000E+00 0.  1.
        -11    1    4    4    0    0  0.84446805162E-01 -0.11872637349E-01 -0.24599981155E-02  0.85314331337E-01  0.51100000000E-03 0. -1.
         11    1    4    4    0    0  0.47223424481E-01  0.83005527347E-03  0.81157497892E-02  0.47925643732E-01  0.51100000000E-03 0.  1.
</event>
<event>
 8    1  0.1074844E+005  0.1043930E+01  0.7957747E-01            NaN
         13   -1    0    0    0    0  0.00000000000E+00  0.00000000000E+00  0.74505805969E-08  0.10566000000E+00  0.10566000000E+00 0.  1.
     999900   -1    0    0    0    0 -0.00000000000E+00 -0.00000000000E+00 -0.74505805969E-08  0.93827000000E+00  0.93827000000E+00 0. -1.
     999902    2    1    2    0    0  0.19605210127E-01 -0.10336310773E-01 -0.99324670829E-02  0.10196430182E+01  0.10193537301E+01 0.  0.
     999903    2    3    3    0    0 -0.11124671953E+00 -0.53464020265E-01  0.28099858321E-01  0.12811136724E+00  0.19715128948E-01 0.  0.
         14    1    1    2    0    0 -0.19605210127E-01  0.10336310773E-01  0.99324670829E-02  0.24286981840E-01  0.00000000000E+00 0.  1.
     999901    1    3    3    0    0  0.13085192965E+00  0.43127709493E-01 -0.38032325404E-01  0.89153165092E+00  0.88000000000E+00 0. -1.
        -11    1    4    4    0    0 -0.90312048947E-01 -0.35192381341E-01  0.18285191459E-01  0.98637615731E-01  0.51100000000E-03 0. -1.
         11    1    4    4    0    0 -0.20934670581E-01 -0.18271638924E-01  0.98146668617E-02  0.29473751507E-01  0.51100000000E-03 0.  1.
</event>
<event>
 8    1  0.1074844E+005  0.1043930E+01  0.7957747E-01            NaN
         13   -1    0    0    0    0  0.00000000000E+00  0.00000000000E+00  0.74505805969E-08  0.10566000000E+00  0.10566000000E+00 0. -1.
     999900   -1    0    0    0    0 -0.00000000000E+00 -0.00000000000E+00 -0.74505805969E-08  0.93827000000E+00  0.93827000000E+00 0. -1.
     999902    2    1    2    0    0  0.12028647622E-01 -0.19925166508E-01  0.29566543639E-02  0.10204684905E+01  0.10201987540E+01 0.  0.
     999903    2    3    3    0    0  0.63245413199E-01  0.83700886173E-01  0.74196203236E-01  0.13005477248E+00  0.20083491584E-01 0.  0.
         14    1    1    2    0    0 -0.12028647622E-01  0.19925166508E-01 -0.29566543639E-02  0.23461509522E-01  0.00000000000E+00 0.  1.
     999901    1    3    3    0    0 -0.51216765577E-01 -0.10362605268E+00 -0.71239548872E-01  0.89041371800E+00  0.88000000000E+00 0.  1.
        -11    1    4    4    0    0  0.36187748342E-01  0.52404759665E-01  0.56191891166E-01  0.84932924826E-01  0.51100000000E-03 0.  1.
         11    1    4    4    0    0  0.27057664857E-01  0.31296126508E-01  0.18004312069E-01  0.45121847658E-01  0.51100000000E-03 0. -1.
</event>
<event>
 8    1  0.1074844E+005  0.1043930E+01  0.7957747E-01            NaN
         13   -1    0    0    0    0  0.00000000000E+00  0.00000000000E+00  0.74505805969E-08  0.10566000000E+00  0.10566000000E+00 0.  1.
     999900   -1    0    0    0    0 -0.00000000000E+00 -0.00000000000E+00 -0.74505805969E-08  0.93827000000E+00  0.93827000000E+00 0.  1.
     999902    2    1    2    0    0 -0.16068879584E-01 -0.12757623625E-01 -0.11034046647E-01  0.10206337334E+01  0.10203678267E+01 0.  0.
     999903    2    3    3    0    0 -0.15521603783E-01 -0.62835730314E-01 -0.11337556216E+00  0.13328830908E+00  0.26879472739E-01 0.  0.
         14    1    1    2    0    0  0.16068879584E-01  0.12757623625E-01  0.11034046647E-01  0.23296266590E-01  0.00000000000E+00 0.  1.
     999901    1    3    3    0    0 -0.54727580170E-03  0.50078106689E-01  0.10234151551E+00  0.88734542433E+00  0.88000000000E+00 0. -1.
        -11    1    4    4    0    0 -0.45959831386E-02 -0.22516114508E-01 -0.18103436863E-01  0.29259084415E-01  0.51100000000E-03 0. -1.
         11    1    4    4    0    0 -0.10925620644E-01 -0.40319615806E-01 -0.95272125296E-01  0.10402922467E+00  0.51100000000E-03 0.  1.
</event>
<event>
 8    1  0.1074844E+005  0.1043930E+01  0.7957747E-01            NaN
         13   -1    0    0    0    0  0.00000000000E+00  0.00000000000E+00  0.74505805969E-08  0.10566000000E+00  0.10566000000E+00 0.  1.
     999900   -1    0    0    0    0 -0.00000000000E+00 -0.00000000000E+00 -0.74505805969E-08  0.93827000000E+00  0.93827000000E+00 0.  1.
     999902    2    1    2    0    0 -0.18842084797E-01  0.60407930828E-02  0.12482972712E-01  0.10205347024E+01  0.10202665039E+01 0.  0.
     999903    2    3    3    0    0 -0.73294523668E-01 -0.71717349409E-01 -0.78360183770E-01  0.13077974971E+00  0.21155593268E-01 0.  0.
         14    1    1    2    0    0  0.18842084797E-01 -0.60407930828E-02 -0.12482972712E-01  0.23395297568E-01  0.00000000000E+00 0. -1.
     999901    1    3    3    0    0  0.54452438872E-01  0.77758142491E-01  0.90843156482E-01  0.88975495273E+00  0.88000000000E+00 0.  1.
        -11    1    4    4    0    0 -0.35085051916E-01 -0.45388951757E-01 -0.51890898128E-01  0.77356604366E-01  0.51100000000E-03 0.  1.
         11    1    4    4    0    0 -0.38209471753E-01 -0.26328397651E-01 -0.26469285642E-01  0.53423145339E-01  0.51100000000E-03 0. -1.
</event>
<event>
 8    1  0.1074844E+005  0.1043930E+01  0.7957747E-01            NaN
         13   -1    0    0    0    0  0.00000000000E+00  0.00000000000E+00  0.74505805969E-08  0.10566000000E+00  0.10566000000E+00 0. -1.
     999900   -1    0    0    0    0 -0.00000000000E+00 -0.00000000000E+00 -0.74505805969E-08  0.93827000000E+00  0.93827000000E+00 0.  1.
     999902    2    1    2    0    0  0.16327527591E-01 -0.75923517311E-02  0.15666631511E-01  0.10200621282E+01  0.10197828544E+01 0.  0.
     999903    2    3    3    0    0 -0.62777389620E-01  0.90892317388E-01 -0.61434482462E-01  0.12770491285E+00  0.18219086806E-01 0.  0.
         14    1    1    2    0    0 -0.16327527591E-01  0.75923517311E-02 -0.15666631511E-01  0.23867871814E-01  0.00000000000E+00 0.  1.
     999901    1    3    3    0    0  0.79104917211E-01 -0.98484669119E-01  0.77101113973E-01  0.89235721533E+00  0.88000000000E+00 0.  1.
        -11    1    4    4    0    0 -0.39452115982E-01  0.41463215140E-01 -0.29290371583E-01  0.64295059326E-01  0.51100000000E-03 0.  1.
         11    1    4    4    0    0 -0.23325273638E-01  0.49429102248E-01 -0.32144110878E-01  0.63409853528E-01  0.51100000000E-03 0. -1.
</event>
<event>
 8    1  0.1074844E+005  0.1043930E+01  0.7957747E-01            NaN
         13   -1    0    0    0    0  0.00000000000E+00  0.00000000000E+00  0.74505805969E-08  0.10566000000E+00  0.10566000000E+00 0. -1.
     999900   -1    0    0    0    0 -0.00000000000E+00 -0.00000000000E+00 -0.74505805969E-08  0.93827000000E+00  0.93827000000E+00 0.  1.
     999902    2    1    2    0    0  0.20481269380E-01  0.50022581757E-02  0.97931121873E-02  0.10206832792E+01  0.10204185153E+01 0.  0.
     999903    2    3    3    0    0  0.49872309440E-01 -0.50636987268E-01  0.11031094604E+00  0.13272866673E+00  0.19925923486E-01 0.  0.
         14    1    1    2    0    0 -0.20481269380E-01 -0.50022581757E-02 -0.97931121873E-02  0.23246720814E-01  0.00000000000E+00 0.  1.
     999901    1    3    3    0    0 -0.29391040060E-01  0.55639245444E-01 -0.10051783385E+00  0.88795461246E+00  0.88000000000E+00 0.  1.
        -11    1    4    4    0    0  0.14003066319E-01 -0.25622281143E-01  0.34430589312E-01  0.45147688298E-01  0.51100000000E-03 0. -1.
         11    1    4    4    0    0  0.35869243121E-01 -0.25014706125E-01  0.75880356725E-01  0.87580978427E-01  0.51100000000E-03 0.  1.
</event>
<event>
 8    1  0.1074844E+005  0.1043930E+01  0.7957747E-01            NaN
         13   -1    0    0    0    0  0.00000000000E+00  0.00000000000E+00  0.74505805969E-08  0.10566000000E+00  0.10566000000E+00 0. -1.
     999900   -1    0    0    0    0 -0.00000000000E+00 -0.00000000000E+00 -0.74505805969E-08  0.93827000000E+00  0.93827000000E+00 0.  1.
     999902    2    1    2    0    0 -0.13047972073E-02  0.27340150739E-01 -0.93979957724E-02  0.10149902581E+01  0.10145776044E+01 0.  0.
     999903    2    3    3    0    0  0.56452266710E-01 -0.11079812904E-01  0.10866439013E+00  0.12440017335E+00  0.18916468436E-01 0.  0.
         14    1    1    2    0    0  0.13047972073E-02 -0.27340150739E-01  0.93979957724E-02  0.28939741925E-01  0.00000000000E+00 0. -1.
     999901    1    3    3    0    0 -0.57757063918E-01  0.38419963642E-01 -0.11806238590E+00  0.89059008472E+00  0.88000000000E+00 0.  1.
        -11    1    4    4    0    0  0.15286926518E-01 -0.10907183628E-01  0.26305599099E-01  0.32324950766E-01  0.51100000000E-03 0.  1.
         11    1    4    4    0    0  0.41165340192E-01 -0.17262927548E-03  0.82358791028E-01  0.92075222588E-01  0.51100000000E-03 0. -1.
</event>
<event>
 8    1  0.1074844E+005  0.1043930E+01  0.7957747E-01            NaN
         13   -1    0    0    0    0  0.00000000000E+00  0.00000000000E+00  0.74505805969E-08  0.10566000000E+00  0.10566000000E+00 0. -1.
     999900   -1    0    0    0    0 -0.00000000000E+00 -0.00000000000E+00 -0.74505805969E-08  0.93827000000E+00  0.93827000000E+00 0.  1.
     999902    2    1    2    0    0 -0.54293740490E-04 -0.23607278984E-01 -0.25032122509E-02  0.10201903151E+01  0.10199140681E+01 0.  0.
     999903    2    3    3    0    0 -0.84506167371E-01 -0.44668958182E-01 -0.88533312579E-01  0.13172146843E+00  0.19385294962E-01 0.  0.
         14    1    1    2    0    0  0.54293740490E-04  0.23607278984E-01  0.25032122509E-02  0.23739684926E-01  0.00000000000E+00 0.  1.
     999901    1    3    3    0    0  0.84451873631E-01  0.21061679198E-01  0.86030100328E-01  0.88846884664E+00  0.88000000000E+00 0. -1.
        -11    1    4    4    0    0 -0.18495455267E-01 -0.10564459789E-01 -0.97616327482E-02  0.23435875726E-01  0.51100000000E-03 0. -1.
         11    1    4    4    0    0 -0.66010712105E-01 -0.34104498393E-01 -0.78771679831E-01  0.10828559271E+00  0.51100000000E-03 0.  1.
</event>
<event>
 8    1  0.1074844E+005  0.1043930E+01  0.7957747E-01            NaN
         13   -1    0    0    0    0  0.00000000000E+00  0.00000000000E+00  0.74505805969E-08  0.10566000000E+00  0.10566000000E+00 0.  1.
     999900   -1    0    0    0    0 -0.00000000000E+00 -0.00000000000E+00 -0.74505805969E-08  0.93827000000E+00  0.93827000000E+00 0.  1.
     999902    2    1    2    0    0 -0.47352793124E-02  0.10872711073E-01 -0.19466133519E-01  0.10211359422E+01  0.10208815031E+01 0.  0.
     999903    2    3    3    0    0  0.20192602053E-01  0.12347170189E+00  0.32443569475E-01  0.13209457688E+00  0.27265173699E-01 0.  0.
         14    1    1    2    0    0  0.47352793124E-02 -0.10872711073E-01  0.19466133519E-01  0.22794057787E-01  0.00000000000E+00 0.  1.
     999901    1    3    3    0    0 -0.24927881366E-01 -0.11259899082E+00 -0.51909702993E-01  0.88904136533E+00  0.88000000000E+00 0.  1.
        -11    1    4    4    0    0  0.92416739653E-02  0.11115624261E+00  0.27490341995E-01  0.11487862652E+00  0.51100000000E-03 0. -1.
         11    1    4    4    0    0  0.10950928088E-01  0.12315459283E-01  0.49532274800E-02  0.17215950360E-01  0.51100000000E-03 0.  1.
</event>
<event>
 8    1  0.1074844E+005  0.1043930E+01  0.7957747E-01            NaN
         13   -1    0    0    0    0  0.00000000000E+00  0.00000000000E+00  0.74505805969E-08  0.10566000000E+00  0.10566000000E+00 0.  1.
     999900   -1    0    0    0    0 -0.00000000000E+00 -0.00000000000E+00 -0.74505805969E-08  0.93827000000E+00  0.93827000000E+00 0. -1.
     999902    2    1    2    0    0  0.84063312151E-02  0.64451785359E-02  0.20338235219E-01  0.10209985687E+01  0.10207410184E+01 0.  0.
     999903    2    3    3    0    0 -0.44259750191E-02  0.11554548506E+00 -0.57655892616E-01  0.13074544234E+00  0.19995508703E-01 0.  0.
         14    1    1    2    0    0 -0.84063312151E-02 -0.64451785359E-02 -0.20338235219E-01  0.22931431326E-01  0.00000000000E+00 0. -1.
     999901    1    3    3    0    0  0.12832306234E-01 -0.10910030652E+00  0.77994127834E-01  0.89025312633E+00  0.88000000000E+00 0. -1.
        -11    1    4    4    0    0 -0.70305705561E-03  0.49579857165E-01 -0.13903019157E-01  0.51499627071E-01  0.51100000000E-03 0. -1.
         11    1    4    4    0    0 -0.37229179635E-02  0.65965627891E-01 -0.43752873458E-01  0.79245815272E-01  0.51100000000E-03 0.  1.
</event>
<event>
 8    1  0.1074844E+005  0.1043930E+01  0.7957747E-01            NaN
         13   -1    0    0    0    0  0.00000000000E+00  0.00000000000E+00  0.74505805969E-08  0.10566000000E+00  0.10566000000E+00 0.  1.
     999900   -1    0    0    0    0 -0.00000000000E+00 -0.00000000000E+00 -0.74505805969E-08  0.93827000000E+00  0.93827000000E+00 0. -1.
     999902    2    1    2    0    0  0.12946054621E-01  0.68408679504E-02 -0.21810039943E-01  0.10176607091E+01  0.10173216026E+01 0.  0.
     999903    2    3    3    0    0  0.11808011412E+00 -0.38247956099E-01 -0.33582632076E-01  0.13017844644E+00  0.20317855297E-01 0.  0.
         14    1    1    2    0    0 -0.12946054621E-01 -0.68408679504E-02  0.21810039943E-01  0.26269290948E-01  0.00000000000E+00 0.  1.
     999901    1    3    3    0    0 -0.10513405950E+00  0.45088824050E-01  0.11772592133E-01  0.88748226261E+00  0.88000000000E+00 0.  1.
        -11    1    4    4    0    0  0.92002744461E-01 -0.23748357109E-01 -0.32116780777E-01  0.10030073869E+00  0.51100000000E-03 0.  1.
         11    1    4    4    0    0  0.26077369662E-01 -0.14499598990E-01 -0.14658512994E-02  0.29877707750E-01  0.51100000000E-03 0. -1.
</event>
<event>
 8    1  0.1074844E+005  0.1043930E+01  0.7957747E-01            NaN
         13   -1    0    0    0    0  0.00000000000E+00  0.00000000000E+00  0.74505805969E-08  0.10566000000E+00  0.10566000000E+00 0. -1.
     999900   -1    0    0    0    0 -0.00000000000E+00 -0.00000000000E+00 -0.74505805969E-08  0.93827000000E+00  0.93827000000E+00 0.  1.
     999902    2    1    2    0    0 -0.34733953963E-02 -0.17571733101E-01  0.14368953553E-01  0.10209670493E+01  0.10207087825E+01 0.  0.
     999903    2    3    3    0    0 -0.26901366636E-01  0.49115212999E-01 -0.11427193990E+00  0.12880983326E+00  0.19947662033E-01 0.  0.
         14    1    1    2    0    0  0.34733953963E-02  0.17571733101E-01 -0.14368953553E-01  0.22962950724E-01  0.00000000000E+00 0.  1.
     999901    1    3    3    0    0  0.23427971240E-01 -0.66686946101E-01  0.12864089346E+00  0.89215721601E+00  0.88000000000E+00 0. -1.
        -11    1    4    4    0    0 -0.14564241317E-01  0.43505395094E-01 -0.88735847725E-01  0.99895687194E-01  0.51100000000E-03 0. -1.
         11    1    4    4    0    0 -0.12337125319E-01  0.56098179055E-02 -0.25536092179E-01  0.28914146068E-01  0.51100000000E-03 0.  1.
</event>
<event>
 8    1  0.1074844E+005  0.1043930E+01  0.7957747E-01            NaN
         13   -1    0    0    0    0  0.00000000000E+00  0.00000000000E+00  0.74505805969E-08  0.10566000000E+00  0.10566000000E+00 0.  1.
     999900   -1    0    0    0    0 -0.00000000000E+00 -0.00000000000E+00 -0.74505805969E-08  0.93827000000E+00  0.93827000000E+00 0.  1.
     999902    2    1    2    0    0  0.42120502829E-02  0.20160288829E-01  0.12476104589E-01  0.10198503032E+01  0.10195659906E+01 0.  0.
     999903    2    3    3    0    0  0.28042215840E-01  0.53053680412E-01  0.11676399008E+00  0.13276191127E+00  0.19769593598E-01 0.  0.
         14    1    1    2    0    0 -0.42120502829E-02 -0.20160288829E-01 -0.12476104589E-01  0.24079696820E-01  0.00000000000E+00 0. -1.
     999901    1    3    3    0    0 -0.23830165557E-01 -0.32893391583E-01 -0.10428788549E+00  0.88708839191E+00  0.88000000000E+00 0.  1.
        -11    1    4    4    0    0  0.66758503375E-02  0.12908272051E-01  0.49298264055E-01  0.51398155852E-01  0.51100000000E-03 0. -1.
         11    1    4    4    0    0  0.21366365502E-01  0.40145408361E-01  0.67465726022E-01  0.81363755419E-01  0.51100000000E-03 0.  1.
</event>
<event>
 8    1  0.1074844E+005  0.1043930E+01  0.7957747E-01            NaN
         13   -1    0    0    0    0  0.00000000000E+00  0.00000000000E+00  0.74505805969E-08  0.10566000000E+00  0.10566000000E+00 0.  1.
     999900   -1    0    0    0    0 -0.00000000000E+00 -0.00000000000E+00 -0.74505805969E-08  0.93827000000E+00  0.93827000000E+00 0. -1.
     999902    2    1    2    0    0 -0.51370683883E-02  0.95924605626E-02 -0.20426440375E-01  0.10207860108E+01  0.10205236085E+01 0.  0.
     999903    2    3    3    0    0  0.55729226638E-01  0.10917371087E+00  0.41551837626E-01  0.13091948245E+00  0.19715725390E-01 0.  0.
         14    1    1    2    0    0  0.51370683883E-02 -0.95924605626E-02  0.20426440375E-01  0.23143989234E-01  0.00000000000E+00 0.  1.
     999901    1    3    3    0    0 -0.60866295026E-01 -0.99581250303E-01 -0.61978278001E-01  0.88986652832E+00  0.88000000000E+00 0. -1.
        -11    1    4    4    0    0  0.14586549355E-01  0.24979085029E-01  0.13868250815E-02  0.28963882954E-01  0.51100000000E-03 0.  1.
         11    1    4    4    0    0  0.41142677283E-01  0.84194625837E-01  0.40165012544E-01  0.10195559949E+00  0.51100000000E-03 0. -1.
</event>
<event>
 8    1  0.1074844E+005  0.1043930E+01  0.7957747E-01            NaN
         13   -1    0    0    0    0  0.00000000000E+00  0.00000000000E+00  0.74505805969E-08  0.10566000000E+00  0.10566000000E+00 0. -1.
     999900   -1    0    0    0    0 -0.00000000000E+00 -0.00000000000E+00 -0.74505805969E-08  0.93827000000E+00  0.93827000000E+00 0.  1.
     999902    2    1    2    0    0  0.14244976579E-01  0.35322199782E-02 -0.62352225287E-02  0.10279840307E+01  0.10278603473E+01 0.  0.
     999903    2    3    3    0    0 -0.19390049362E-02  0.83571914581E-01 -0.10853620363E+00  0.13830219733E+00  0.18956941755E-01 0.  0.
         14    1    1    2    0    0 -0.14244976579E-01 -0.35322199782E-02  0.62352225287E-02  0.15945969262E-01  0.00000000000E+00 0. -1.
     999901    1    3    3    0    0  0.16183981515E-01 -0.80039694603E-01  0.10230098110E+00  0.88968183341E+00  0.88000000000E+00 0. -1.
        -11    1    4    4    0    0 -0.26672877812E-02  0.18383119575E-02 -0.85493212186E-02  0.91567368237E-02  0.51100000000E-03 0.  1.
         11    1    4    4    0    0  0.72828284502E-03  0.81733602624E-01 -0.99986882408E-01  0.12914546050E+00  0.51100000000E-03 0. -1.
</event>
<event>
 8    1  0.1074844E+005  0.1043930E+01  0.7957747E-01            NaN
         13   -1    0    0    0    0  0.00000000000E+00  0.00000000000E+00  0.74505805969E-08  0.10566000000E+00  0.10566000000E+00 0.  1.
     999900   -1    0    0    0    0 -0.00000000000E+00 -0.00000000000E+00 -0.74505805969E-08  0.93827000000E+00  0.93827000000E+00 0.  1.
     999902    2    1    2    0    0 -0.82970325221E-02 -0.42651152431E-02 -0.21697173084E-01  0.10203122254E+01  0.10200388414E+01 0.  0.
     999903    2    3    3    0    0 -0.95220969819E-01 -0.97726872925E-03 -0.91177332720E-01  0.13329809171E+00  0.19674529295E-01 0.  0.
         14    1    1    2    0    0  0.82970325221E-02  0.42651152431E-02  0.21697173084E-01  0.23617774589E-01  0.00000000000E+00 0.  1.
     999901    1    3    3    0    0  0.86923937297E-01 -0.32878465138E-02  0.69480159636E-01  0.88701413371E+00  0.88000000000E+00 0. -1.
        -11    1    4    4    0    0 -0.49891923538E-01 -0.60481297486E-02 -0.36629341957E-01  0.62191267241E-01  0.51100000000E-03 0. -1.
         11    1    4    4    0    0 -0.45329046281E-01  0.50708610193E-02 -0.54547990763E-01  0.71106824465E-01  0.51100000000E-03 0.  1.
</event>
<event>
 8    1  0.1074844E+005  0.1043930E+01  0.7957747E-01            NaN
         13   -1    0    0    0    0  0.00000000000E+00  0.00000000000E+00  0.74505805969E-08  0.10566000000E+00  0.10566000000E+00 0.  1.
     999900   -1    0    0    0    0 -0.00000000000E+00 -0.00000000000E+00 -0.74505805969E-08  0.93827000000E+00  0.93827000000E+00 0.  1.
     999902    2    1    2    0    0 -0.18062410433E-01 -0.10072929901E-01  0.12596639172E-01  0.10197145110E+01  0.10194269440E+01 0.  0.
     999903    2    3    3    0    0  0.26898082276E-01  0.77624244140E-01  0.98806616622E-01  0.13002670037E+00  0.19878762818E-01 0.  0.
         14    1    1    2    0    0  0.18062410433E-01  0.10072929901E-01 -0.12596639172E-01  0.24215488967E-01  0.00000000000E+00 0. -1.
     999901    1    3    3    0    0 -0.44960492710E-01 -0.87697174041E-01 -0.86209977450E-01  0.88968781067E+00  0.88000000000E+00 0.  1.
        -11    1    4    4    0    0  0.19914759563E-01  0.37435027518E-01  0.61786237077E-01  0.74938502433E-01  0.51100000000E-03 0. -1.
         11    1    4    4    0    0  0.69833227136E-02  0.40189216622E-01  0.37020379545E-01  0.55088197933E-01  0.51100000000E-03 0.  1.
</event>
<event>
 8    1  0.1074844E+005  0.1043930E+01  0.7957747E-01            NaN
         13   -1    0    0    0    0  0.00000000000E+00  0.00000000000E+00  0.74505805969E-08  0.10566000000E+00  0.10566000000E+00 0.  1.
     999900   -1    0    0    0    0 -0.00000000000E+00 -0.00000000000E+00 -0.74505805969E-08  0.93827000000E+00  0.93827000000E+00 0.  1.
     999902    2    1    2    0    0 -0.65575875432E-02  0.15131903502E-01  0.17559702877E-01  0.10198401759E+01  0.10195556213E+01 0.  0.
     999903    2    3    3    0    0 -0.90367758034E-01 -0.84137288134E-01 -0.31475023122E-01  0.12895133807E+00  0.19807967185E-01 0.  0.
         14    1    1    2    0    0  0.65575875432E-02 -0.15131903502E-01 -0.17559702877E-01  0.24089824057E-01  0.00000000000E+00 0. -1.
     999901    1    3    3    0    0  0.83810170490E-01  0.99269191636E-01  0.49034725999E-01  0.89088883787E+00  0.88000000000E+00 0. -1.
        -11    1    4    4    0    0 -0.70562677090E-01 -0.73823464599E-01 -0.20907055669E-01  0.10424184103E+00  0.51100000000E-03 0.  1.
         11    1    4    4    0    0 -0.19805080943E-01 -0.10313823535E-01 -0.10567967453E-01  0.24709497044E-01  0.51100000000E-03 0. -1.
</event>
<event>
 8    1  0.1074844E+005  0.1043930E+01  0.7957747E-01            NaN
         13   -1    0    0    0    0  0.00000000000E+00  0.00000000000E+00  0.74505805969E-08  0.10566000000E+00  0.10566000000E+00 0.  1.
     999900   -1    0    0    0    0 -0.00000000000E+00 -0.00000000000E+00 -0.74505805969E-08  0.93827000000E+00  0.93827000000E+00 0. -1.
     999902    2    1    2    0    0 -0.22726450503E-01 -0.19255753189E-02  0.37789848575E-03  0.10211189895E+01  0.10208641675E+01 0.  0.
     999903    2    3    3    0    0  0.10854723278E+00  0.65213112449E-01  0.11468865106E-01  0.12878307021E+00  0.20452200982E-01 0.  0.
         14    1    1    2    0    0  0.22726450503E-01  0.19255753189E-02 -0.37789848575E-03  0.22811010501E-01  0.00000000000E+00 0.  1.
     999901    1    3    3    0    0 -0.13127368329E+00 -0.67138687768E-01 -0.11090966621E-01  0.89233591929E+00  0.88000000000E+00 0. -1.
        -11    1    4    4    0    0  0.51272231909E-01  0.39365415182E-01 -0.13148051323E-02  0.64656534944E-01  0.51100000000E-03 0.  1.
         11    1    4    4    0    0  0.57275000874E-01  0.25847697267E-01  0.12783670239E-01  0.64126535263E-01  0.51100000000E-03 0. -1.
</event>
<event>
 8    1  0.1074844E+005  0.1043930E+01  0.7957747E-01            NaN
         13   -1    0    0    0    0  0.00000000000E+00  0.00000000000E+00  0.74505805969E-08  0.10566000000E+00  0.10566000000E+00 0.  1.
     999900   -1    0    0    0    0 -0.00000000000E+00 -0.00000000000E+00 -0.74505805969E-08  0.93827000000E+00  0.93827000000E+00 0. -1.
     999902    2    1    2    0    0 -0.13576613184E-01  0.12472620698E-01 -0.15397259641E-01  0.10199098772E+01  0.10196269864E+01 0.  0.
     999903    2    3    3    0    0  0.49126590678E-02  0.63924002183E-01 -0.11446560025E+00  0.13266490884E+00  0.19677198072E-01 0.  0.
         14    1    1    2    0    0  0.13576613184E-01 -0.12472620698E-01  0.15397259641E-01  0.24020122754E-01  0.00000000000E+00 0.  1.
     999901    1    3    3    0    0 -0.18489272252E-01 -0.51451381485E-01  0.99068340608E-01  0.88724496840E+00  0.88000000000E+00 0.  1.
        -11    1    4    4    0    0  0.34731268442E-02  0.15812243901E-01 -0.47561201983E-01  0.50243593844E-01  0.51100000000E-03 0.  1.
         11    1    4    4    0    0  0.14395322236E-02  0.48111758282E-01 -0.66904398266E-01  0.82421315000E-01  0.51100000000E-03 0. -1.
</event>
<event>
 8    1  0.1074844E+005  0.1043930E+01  0.7957747E-01            NaN
         13   -1    0    0    0    0  0.00000000000E+00  0.00000000000E+00  0.74505805969E-08  0.10566000000E+00  0.10566000000E+00 0.  1.
     999900   -1    0    0    0    0 -0.00000000000E+00 -0.00000000000E+00 -0.74505805969E-08  0.93827000000E+00  0.93827000000E+00 0.  1.
     999902    2    1    2    0    0  0.15665276992E-02 -0.23838761560E-01 -0.13423053570E-03  0.10200394458E+01  0.10197596346E+01 0.  0.
     999903    2    3    3    0    0 -0.97708755910E-01 -0.68474035009E-01 -0.53279280024E-01  0.13174203736E+00  0.16780592238E-01 0.  0.
         14    1    1    2    0    0 -0.15665276992E-02  0.23838761560E-01  0.13423053570E-03  0.23890554192E-01  0.00000000000E+00 0. -1.
     999901    1    3    3    0    0  0.99275283609E-01  0.44635273449E-01  0.53145049488E-01  0.88829740845E+00  0.88000000000E+00 0. -1.
        -11    1    4    4    0    0 -0.60159590281E-01 -0.47030526707E-01 -0.41553161685E-01  0.86936603984E-01  0.51100000000E-03 0.  1.
         11    1    4    4    0    0 -0.37549165629E-01 -0.21443508302E-01 -0.11726118339E-01  0.44805433376E-01  0.51100000000E-03 0. -1.
</event>
<event>
 8    1  0.1074844E+005  0.1043930E+01  0.7957747E-01            NaN
         13   -1    0    0    0    0  0.00000000000E+00  0.00000000000E+00  0.74505805969E-08  0.10566000000E+00  0.10566000000E+00 0. -1.
     999900   -1    0    0    0    0 -0.00000000000E+00 -0.00000000000E+00 -0.74505805969E-08  0.93827000000E+00  0.93827000000E+00 0. -1.
     999902    2    1    2    0    0 -0.10167602534E-01  0.12446068238E-01  0.17996076229E-01  0.10198023496E+01  0.10195168898E+01 0.  0.
     999903    2    3    3    0    0  0.15114831715E-01  0.55021946076E-01 -0.11353224740E+00  0.12865050685E+00  0.20137254673E-01 0.  0.
         14    1    1    2    0    0  0.10167602534E-01 -0.12446068238E-01 -0.17996076229E-01  0.24127650435E-01  0.00000000000E+00 0.  1.
     999901    1    3    3    0    0 -0.25282434249E-01 -0.42575877838E-01  0.13152832363E+00  0.89115184271E+00  0.88000000000E+00 0.  1.
        -11    1    4    4    0    0  0.57280963668E-02  0.26324772010E-01 -0.75009772029E-01  0.79702771158E-01  0.51100000000E-03 0.  1.
         11    1    4    4    0    0  0.93867353478E-02  0.28697174066E-01 -0.38522475370E-01  0.48947735693E-01  0.51100000000E-03 0. -1.
</event>
<event>
 8    1  0.1074844E+005  0.1043930E+01  0.7957747E-01            NaN
         13   -1    0    0    0    0  0.00000000000E+00  0.00000000000E+00  0.74505805969E-08  0.10566000000E+00  0.10566000000E+00 0.  1.
     999900   -1    0    0    0    0 -0.00000000000E+00 -0.00000000000E+00 -0.74505805969E-08  0.93827000000E+00  0.93827000000E+00 0. -1.
     999902    2    1    2    0    0  0.19757740268E-01  0.46935163479E-02  0.15389260023E-01  0.10184500722E+01  0.10181312896E+01 0.  0.
     999903    2    3    3    0    0 -0.44763951244E-01  0.11854261724E+00  0.40850370008E-02  0.12870153925E+00  0.22163827353E-01 0.  0.
         14    1    1    2    0    0 -0.19757740268E-01 -0.46935163479E-02 -0.15389260023E-01  0.25479927791E-01  0.00000000000E+00 0. -1.
     999901    1    3    3    0    0  0.64521691512E-01 -0.11384910090E+00  0.11304223022E-01  0.88974853296E+00  0.88000000000E+00 0. -1.
        -11    1    4    4    0    0 -0.31131703223E-01  0.87111157280E-01 -0.67785787199E-02  0.92756384787E-01  0.51100000000E-03 0.  1.
         11    1    4    4    0    0 -0.13632248021E-01  0.31431459964E-01  0.10863615721E-01  0.35945154460E-01  0.51100000000E-03 0. -1.
</event>
<event>
 8    1  0.1074844E+005  0.1043930E+01  0.7957747E-01            NaN
         13   -1    0    0    0    0  0.00000000000E+00  0.00000000000E+00  0.74505805969E-08  0.10566000000E+00  0.10566000000E+00 0.  1.
     999900   -1    0    0    0    0 -0.00000000000E+00 -0.00000000000E+00 -0.74505805969E-08  0.93827000000E+00  0.93827000000E+00 0. -1.
     999902    2    1    2    0    0  0.11624538392E-01 -0.19932483728E-01 -0.33354480821E-02  0.10206156479E+01  0.10203493234E+01 0.  0.
     999903    2    3    3    0    0  0.10391696108E+00  0.70685102077E-01 -0.29826454121E-01  0.13076666545E+00  0.20376088269E-01 0.  0.
         14    1    1    2    0    0 -0.11624538392E-01  0.19932483728E-01  0.33354480821E-02  0.23314352110E-01  0.00000000000E+00 0.  1.
     999901    1    3    3    0    0 -0.92292422685E-01 -0.90617585805E-01  0.26491006039E-01  0.88984898244E+00  0.88000000000E+00 0.  1.
        -11    1    4    4    0    0  0.49366339812E-01  0.23489184997E-01 -0.18680627267E-01  0.57775464294E-01  0.51100000000E-03 0.  1.
         11    1    4    4    0    0  0.54550621265E-01  0.47195917080E-01 -0.11145826854E-01  0.72991201160E-01  0.51100000000E-03 0. -1.
</event>
<event>
 8    1  0.1074844E+005  0.1043930E+01  0.7957747E-01            NaN
         13   -1    0    0    0    0  0.00000000000E+00  0.00000000000E+00  0.74505805969E-08  0.10566000000E+00  0.10566000000E+00 0.  1.
     999900   -1    0    0    0    0 -0.00000000000E+00 -0.00000000000E+00 -0.74505805969E-08  0.93827000000E+00  0.93827000000E+00 0.  1.
     999902    2    1    2    0    0 -0.20213173239E-01  0.12263334618E-01  0.17372306588E-01  0.10145913091E+01  0.10141670305E+01 0.  0.
     999903    2    3    3    0    0  0.14845781430E-01 -0.28016506372E-01  0.12111263943E+00  0.12688997837E+00  0.20675428044E-01 0.  0.
         14    1    1    2    0    0  0.20213173239E-01 -0.12263334618E-01 -0.17372306588E-01  0.29338690914E-01  0.00000000000E+00 0.  1.
     999901    1    3    3    0    0 -0.35058954669E-01  0.40279840990E-01 -0.10374033285E+00  0.88770133071E+00  0.88000000000E+00 0.  1.
        -11    1    4    4    0    0  0.13623504761E-01 -0.25609656938E-01  0.70955763614E-01  0.76657914931E-01  0.51100000000E-03 0.  1.
         11    1    4    4    0    0  0.12222766685E-02 -0.24068494335E-02  0.50156875821E-01  0.50232063441E-01  0.51100000000E-03 0. -1.
</event>
<event>
 8    1  0.1074844E+005  0.1043930E+01  0.7957747E-01            NaN
         13   -1    0    0    0    0  0.00000000000E+00  0.00000000000E+00  0.74505805969E-08  0.10566000000E+00  0.10566000000E+00 0.  1.
     999900   -1    0    0    0    0 -0.00000000000E+00 -0.00000000000E+00 -0.74505805969E-08  0.93827000000E+00  0.93827000000E+00 0.  1.
     999902    2    1    2    0    0  0.18184035341E-01  0.13205088156E-01 -0.66608734289E-02  0.10204907012E+01  0.10202214811E+01 0.  0.
     999903    2    3    3    0    0  0.41840034768E-01  0.12144985830E+00  0.27789990729E-01  0.13287400540E+00  0.19559170160E-01 0.  0.
         14    1    1    2    0    0 -0.18184035341E-01 -0.13205088156E-01  0.66608734289E-02  0.23439298824E-01  0.00000000000E+00 0.  1.
     999901    1    3    3    0    0 -0.23655999427E-01 -0.10824477014E+00 -0.34450864158E-01  0.88761669577E+00  0.88000000000E+00 0. -1.
        -11    1    4    4    0    0  0.15605710713E-01  0.54545620522E-01  0.28651796601E-02  0.56808743169E-01  0.51100000000E-03 0.  1.
         11    1    4    4    0    0  0.26234324055E-01  0.66904237777E-01  0.24924811069E-01  0.76065262236E-01  0.51100000000E-03 0. -1.
</event>
<event>
 8    1  0.1074844E+005  0.1043930E+01  0.7957747E-01            NaN
         13   -1    0    0    0    0  0.00000000000E+00  0.00000000000E+00  0.74505805969E-08  0.10566000000E+00  0.10566000000E+00 0. -1.
     999900   -1    0    0    0    0 -0.00000000000E+00 -0.00000000000E+00 -0.74505805969E-08  0.93827000000E+00  0.93827000000E+00 0. -1.
     999902    2    1    2    0    0 -0.15759735360E-01 -0.94192201598E-02  0.14747050015E-01  0.10203807654E+01  0.10201089843E+01 0.  0.
     999903    2    3    3    0    0 -0.41109493046E-01  0.10215597891E+00  0.68518794346E-01  0.13134587532E+00  0.20762450187E-01 0.  0.
         14    1    1    2    0    0  0.15759735360E-01  0.94192201598E-02 -0.14747050015E-01  0.23549234620E-01  0.00000000000E+00 0.  1.
     999901    1    3    3    0    0  0.25349757685E-01 -0.11157519907E+00 -0.53771744331E-01  0.88903489006E+00  0.88000000000E+00 0. -1.
        -11    1    4    4    0    0 -0.27771183599E-01  0.76480929600E-01  0.39816370393E-01  0.90587944580E-01  0.51100000000E-03 0.  1.
         11    1    4    4    0    0 -0.13338309447E-01  0.25675049313E-01  0.28702423952E-01  0.40757930736E-01  0.51100000000E-03 0. -1.
</event>
<event>
 8    1  0.1074844E+005  0.1043930E+01  0.7957747E-01            NaN
         13   -1    0    0    0    0  0.00000000000E+00  0.00000000000E+00  0.74505805969E-08  0.10566000000E+00  0.10566000000E+00 0. -1.
     999900   -1    0    0    0    0 -0.00000000000E+00 -0.00000000000E+00 -0.74505805969E-08  0.93827000000E+00  0.93827000000E+00 0.  1.
     999902    2    1    2    0    0 -0.17458560092E-01 -0.89562556145E-02 -0.13609339565E-01  0.10200505118E+01  0.10197709628E+01 0.  0.
     999903    2    3    3    0    0 -0.93684427053E-02 -0.41280159218E-01 -0.12482534516E+00  0.13242486734E+00  0.12773387615E-01 0.  0.
         14    1    1    2    0    0  0.17458560092E-01  0.89562556145E-02  0.13609339565E-01  0.23879488238E-01  0.00000000000E+00 0. -1.
     999901    1    3    3    0    0 -0.80901173867E-02  0.32323903604E-01  0.11121600559E+00  0.88762564443E+00  0.88000000000E+00 0. -1.
        -11    1    4    4    0    0 -0.19093025058E-02 -0.16541968047E-01 -0.67800552450E-01  0.69817320032E-01  0.51100000000E-03 0. -1.
         11    1    4    4    0    0 -0.74591401996E-02 -0.24738191172E-01 -0.57024792707E-01  0.62607547303E-01  0.51100000000E-03 0.  1.
</event>
<event>
 8    1  0.1074844E+005  0.1043930E+01  0.7957747E-01            NaN
         13   -1    0    0    0    0  0.00000000000E+00  0.00000000000E+00  0.74505805969E-08  0.10566000000E+00  0.10566000000E+00 0.  1.
     999900   -1    0    0    0    0 -0.00000000000E+00 -0.00000000000E+00 -0.74505805969E-08  0.93827000000E+00  0.93827000000E+00 0.  1.
     999902    2    1    2    0    0  0.84678072874E-02 -0.22145713223E-01 -0.38793553463E-02  0.10199053091E+01  0.10196223094E+01 0.  0.
     999903    2    3    3    0    0 -0.88233177468E-01 -0.49866963781E-01 -0.80479557259E-01  0.13086811129E+00  0.19434395594E-01 0.  0.
         14    1    1    2    0    0 -0.84678072874E-02  0.22145713223E-01  0.38793553463E-02  0.24024690889E-01  0.00000000000E+00 0.  1.
     999901    1    3    3    0    0  0.96700984755E-01  0.27721250558E-01  0.76600201912E-01  0.88903719783E+00  0.88000000000E+00 0. -1.
        -11    1    4    4    0    0 -0.21889291874E-01 -0.83952569944E-02 -0.97488413324E-02  0.25395323724E-01  0.51100000000E-03 0. -1.
         11    1    4    4    0    0 -0.66343885594E-01 -0.41471706786E-01 -0.70730715926E-01  0.10547278756E+00  0.51100000000E-03 0.  1.
</event>
<event>
 8    1  0.1074844E+005  0.1043930E+01  0.7957747E-01            NaN
         13   -1    0    0    0    0  0.00000000000E+00  0.00000000000E+00  0.74505805969E-08  0.10566000000E+00  0.10566000000E+00 0. -1.
     999900   -1    0    0    0    0 -0.00000000000E+00 -0.00000000000E+00 -0.74505805969E-08  0.93827000000E+00  0.93827000000E+00 0. -1.
     999902    2    1    2    0    0 -0.16689564235E-02 -0.20935428273E-01 -0.11122513205E-01  0.10201647339E+01  0.10198878842E+01 0.  0.
     999903    2    3    3    0    0 -0.10566871159E+00 -0.73274590918E-01  0.20782836286E-01  0.13192305038E+00  0.20897910274E-01 0.  0.
         14    1    1    2    0    0  0.16689564235E-02  0.20935428273E-01  0.11122513205E-01  0.23765266094E-01  0.00000000000E+00 0.  1.
     999901    1    3    3    0    0  0.10399975517E+00  0.52339162645E-01 -0.31905349492E-01  0.88824168352E+00  0.88000000000E+00 0.  1.
        -11    1    4    4    0    0 -0.39461538587E-01 -0.16768551216E-01  0.23157994999E-02  0.42942070116E-01  0.51100000000E-03 0.  1.
         11    1    4    4    0    0 -0.66207173008E-01 -0.56506039702E-01  0.18467036786E-01  0.88980980267E-01  0.51100000000E-03 0. -1.
</event>
<event>
 8    1  0.1074844E+005  0.1043930E+01  0.7957747E-01            NaN
         13   -1    0    0    0    0  0.00000000000E+00  0.00000000000E+00  0.74505805969E-08  0.10566000000E+00  0.10566000000E+00 0. -1.
     999900   -1    0    0    0    0 -0.00000000000E+00 -0.00000000000E+00 -0.74505805969E-08  0.93827000000E+00  0.93827000000E+00 0.  1.
     999902    2    1    2    0    0  0.20048267077E-01  0.11601714417E-01 -0.16488540351E-03  0.10207662357E+01  0.10205033797E+01 0.  0.
     999903    2    3    3    0    0 -0.10103415525E+00 -0.76000003419E-01 -0.41870520671E-02  0.12815703128E+00  0.20561911732E-01 0.  0.
         14    1    1    2    0    0 -0.20048267077E-01 -0.11601714417E-01  0.16488540351E-03  0.23163764318E-01  0.00000000000E+00 0.  1.
     999901    1    3    3    0    0  0.12108242233E+00  0.87601717836E-01  0.40221666636E-02  0.89260920441E+00  0.88000000000E+00 0. -1.
        -11    1    4    4    0    0 -0.75355553298E-01 -0.45714868799E-01  0.74361113422E-03  0.88142627149E-01  0.51100000000E-03 0.  1.
         11    1    4    4    0    0 -0.25678601950E-01 -0.30285134620E-01 -0.49306632014E-02  0.40014404127E-01  0.51100000000E-03 0. -1.
</event>
<event>
 8    1  0.1074844E+005  0.1043930E+01  0.7957747E-01            NaN
         13   -1    0    0    0    0  0.00000000000E+00  0.00000000000E+00  0.74505805969E-08  0.10566000000E+00  0.10566000000E+00 0.  1.
     999900   -1    0    0    0    0 -0.00000000000E+00 -0.00000000000E+00 -0.74505805969E-08  0.93827000000E+00  0.93827000000E+00 0. -1.
     999902    2    1    2    0    0  0.17441056236E-01  0.73854370168E-02 -0.14383299302E-01  0.10201473504E+01  0.10198700908E+01 0.  0.
     999903    2    3    3    0    0  0.10043898198E+00  0.83458187020E-01  0.14327976352E-01  0.13251000537E+00  0.17330681887E-01 0.  0.
         14    1    1    2    0    0 -0.17441056236E-01 -0.73854370168E-02  0.14383299302E-01  0.23782649587E-01  0.00000000000E+00 0. -1.
     999901    1    3    3    0    0 -0.82997925741E-01 -0.76072750004E-01 -0.28711275655E-01  0.88763734505E+00  0.88000000000E+00 0.  1.
        -11    1    4    4    0    0  0.70052283433E-01  0.67128562597E-01  0.13834258960E-01  0.98006194562E-01  0.51100000000E-03 0. -1.
         11    1    4    4    0    0  0.30386698544E-01  0.16329624423E-01  0.49371739294E-03  0.34503810805E-01  0.51100000000E-03 0.  1.
</event>
<event>
 8    1  0.1074844E+005  0.1043930E+01  0.7957747E-01            NaN
         13   -1    0    0    0    0  0.00000000000E+00  0.00000000000E+00  0.74505805969E-08  0.10566000000E+00  0.10566000000E+00 0.  1.
     999900   -1    0    0    0    0 -0.00000000000E+00 -0.00000000000E+00 -0.74505805969E-08  0.93827000000E+00  0.93827000000E+00 0.  1.
     999902    2    1    2    0    0 -0.13494410912E-02 -0.20479942591E-01 -0.13282457391E-01  0.10194826543E+01  0.10191894866E+01 0.  0.
     999903    2    3    3    0    0  0.44527879935E-01  0.35433086008E-01  0.11253634108E+00  0.12759624590E+00  0.19445776628E-01 0.  0.
         14    1    1    2    0    0  0.13494410912E-02  0.20479942591E-01  0.13282457391E-01  0.24447345748E-01  0.00000000000E+00 0. -1.
     999901    1    3    3    0    0 -0.45877321027E-01 -0.55913028599E-01 -0.12581879847E+00  0.89188640835E+00  0.88000000000E+00 0.  1.
        -11    1    4    4    0    0  0.13838463273E-01  0.22880480478E-01  0.55833629256E-01  0.61908599803E-01  0.51100000000E-03 0. -1.
         11    1    4    4    0    0  0.30689416662E-01  0.12552605530E-01  0.56702711825E-01  0.65687646098E-01  0.51100000000E-03 0.  1.
</event>
<event>
 8    1  0.1074844E+005  0.1043930E+01  0.7957747E-01            NaN
         13   -1    0    0    0    0  0.00000000000E+00  0.00000000000E+00  0.74505805969E-08  0.10566000000E+00  0.10566000000E+00 0. -1.
     999900   -1    0    0    0    0 -0.00000000000E+00 -0.00000000000E+00 -0.74505805969E-08  0.93827000000E+00  0.93827000000E+00 0. -1.
     999902    2    1    2    0    0  0.35250041094E-03 -0.28065077992E-02 -0.22895811758E-01  0.10208601292E+01  0.10205994241E+01 0.  0.
     999903    2    3    3    0    0 -0.86372646864E-01 -0.75039215260E-01 -0.64092349976E-01  0.13269574692E+00  0.20229037830E-01 0.  0.
         14    1    1    2    0    0 -0.35250041094E-03  0.28065077992E-02  0.22895811758E-01  0.23069870798E-01  0.00000000000E+00 0. -1.
     999901    1    3    3    0    0  0.86725147275E-01  0.72232707461E-01  0.41196538218E-01  0.88816438228E+00  0.88000000000E+00 0.  1.
        -11    1    4    4    0    0 -0.13026180498E-01 -0.41505495411E-02 -0.11803000967E-01  0.18068768433E-01  0.51100000000E-03 0. -1.
         11    1    4    4    0    0 -0.73346466365E-01 -0.70888665719E-01 -0.52289349009E-01  0.11462697848E+00  0.51100000000E-03 0.  1.
</event>
<event>
 8    1  0.1074844E+005  0.1043930E+01  0.7957747E-01            NaN
         13   -1    0    0    0    0  0.00000000000E+00  0.00000000000E+00  0.74505805969E-08  0.10566000000E+00  0.10566000000E+00 0.  1.
     999900   -1    0    0    0    0 -0.00000000000E+00 -0.00000000000E+00 -0.74505805969E-08  0.93827000000E+00  0.93827000000E+00 0.  1.
     999902    2    1    2    0    0  0.76266173929E-02 -0.14771368241E-01 -0.12756109430E-01  0.10229758372E+01  0.10227612070E+01 0.  0.
     999903    2    3    3    0    0  0.46878941533E-01 -0.13786857042E-02  0.12205739029E+00  0.13174366281E+00  0.16088823170E-01 0.  0.
         14    1    1    2    0    0 -0.76266173929E-02  0.14771368241E-01  0.12756109430E-01  0.20954162841E-01  0.00000000000E+00 0.  1.
     999901    1    3    3    0    0 -0.39252324140E-01 -0.13392682537E-01 -0.13481349972E+00  0.89123217435E+00  0.88000000000E+00 0.  1.
        -11    1    4    4    0    0  0.45068504454E-01 -0.38038750504E-02  0.10375481760E+00  0.11318552405E+00  0.51100000000E-03 0. -1.
         11    1    4    4    0    0  0.18104370791E-02  0.24251893462E-02  0.18302572693E-01  0.18558138753E-01  0.51100000000E-03 0.  1.
</event>
<event>
 8    1  0.1074844E+005  0.1043930E+01  0.7957747E-01            NaN
         13   -1    0    0    0    0  0.00000000000E+00  0.00000000000E+00  0.74505805969E-08  0.10566000000E+00  0.10566000000E+00 0. -1.
     999900   -1    0    0    0    0 -0.00000000000E+00 -0.00000000000E+00 -0.74505805969E-08  0.93827000000E+00  0.93827000000E+00 0.  1.
     999902    2    1    2    0    0  0.87927217285E-02 -0.11037766639E-01 -0.18862037503E-01  0.10203732450E+01  0.10201012883E+01 0.  0.
     999903    2    3    3    0    0 -0.49949498514E-01  0.50180783000E-01  0.10413876213E+00  0.12777728042E+00  0.21658444743E-01 0.  0.
         14    1    1    2    0    0 -0.87927217285E-02  0.11037766639E-01  0.18862037503E-01  0.23556755009E-01  0.00000000000E+00 0.  1.
     999901    1    3    3    0    0  0.58742220242E-01 -0.61218549639E-01 -0.12300079964E+00  0.89259596457E+00  0.88000000000E+00 0. -1.
        -11    1    4    4    0    0 -0.24806253227E-01  0.11242006656E-01  0.31927541596E-01  0.41968582847E-01  0.51100000000E-03 0. -1.
         11    1    4    4    0    0 -0.25143245286E-01  0.38938776344E-01  0.72211220537E-01  0.85808697573E-01  0.51100000000E-03 0.  1.
</event>
<event>
 8    1  0.1074844E+005  0.1043930E+01  0.7957747E-01            NaN
         13   -1    0    0    0    0  0.00000000000E+00  0.00000000000E+00  0.74505805969E-08  0.10566000000E+00  0.10566000000E+00 0. -1.
     999900   -1    0    0    0    0 -0.00000000000E+00 -0.00000000000E+00 -0.74505805969E-08  0.93827000000E+00  0.93827000000E+00 0. -1.
     999902    2    1    2    0    0  0.39955787661E-02 -0.20345067069E-01 -0.13619734425E-01  0.10191230742E+01  0.10188211112E+01 0.  0.
     999903    2    3    3    0    0 -0.11106347289E+00 -0.62377710619E-01  0.17460978807E-01  0.13009476234E+00  0.19841562809E-01 0.  0.
         14    1    1    2    0    0 -0.39955787661E-02  0.20345067069E-01  0.13619734425E-01  0.24806925838E-01  0.00000000000E+00 0. -1.
     999901    1    3    3    0    0  0.11505905165E+00  0.42032643550E-01 -0.31080713232E-01  0.88902831182E+00  0.88000000000E+00 0. -1.
        -11    1    4    4    0    0 -0.77535764642E-01 -0.51855413536E-01  0.17732597508E-01  0.94949907041E-01  0.51100000000E-03 0.  1.
         11    1    4    4    0    0 -0.33527708246E-01 -0.10522297083E-01 -0.27161870052E-03  0.35144855297E-01  0.51100000000E-03 0. -1.
</event>
<event>
 8    1  0.1074844E+005  0.1043930E+01  0.7957747E-01            NaN
         13   -1    0    0    0    0  0.00000000000E+00  0.00000000000E+00  0.74505805969E-08  0.10566000000E+00  0.10566000000E+00 0.  1.
     999900   -1    0    0    0    0 -0.00000000000E+00 -0.00000000000E+00 -0.74505805969E-08  0.93827000000E+00  0.93827000000E+00 0.  1.
     999902    2    1    2    0    0 -0.21475468501E-01  0.90289627212E-03  0.13870485171E-01  0.10183487309E+01  0.10180273751E+01 0.  0.
     999903    2    3    3    0    0 -0.82304272910E-01  0.51071215429E-01  0.87011759530E-01  0.13180112943E+00  0.20450648819E-01 0.  0.
         14    1    1    2    0    0  0.21475468501E-01 -0.90289627212E-03 -0.13870485171E-01  0.25581269083E-01  0.00000000000E+00 0. -1.
     999901    1    3    3    0    0  0.60828804409E-01 -0.50168319157E-01 -0.73141274359E-01  0.88654760149E+00  0.88000000000E+00 0.  1.
        -11    1    4    4    0    0 -0.42904028118E-01  0.36724358050E-01  0.56940737307E-01  0.80199393944E-01  0.51100000000E-03 0.  1.
         11    1    4    4    0    0 -0.39400244792E-01  0.14346857379E-01  0.30071022223E-01  0.51601735483E-01  0.51100000000E-03 0. -1.
</event>
<event>
 8    1  0.1074844E+005  0.1043930E+01  0.7957747E-01            NaN
         13   -1    0    0    0    0  0.00000000000E+00  0.00000000000E+00  0.74505805969E-08  0.10566000000E+00  0.10566000000E+00 0. -1.
     999900   -1    0    0    0    0 -0.00000000000E+00 -0.00000000000E+00 -0.74505805969E-08  0.93827000000E+00  0.93827000000E+00 0. -1.
     999902    2    1    2    0    0 -0.12698628062E-01 -0.12355931781E-01  0.15133541999E-01  0.10206287490E+01  0.10203627272E+01 0.  0.
     999903    2    3    3    0    0 -0.12652835933E+00 -0.30793096772E-01 -0.14948766254E-01  0.13259604575E+00  0.20015124572E-01 0.  0.
         14    1    1    2    0    0  0.12698628062E-01  0.12355931781E-01 -0.15133541999E-01  0.23301251002E-01  0.00000000000E+00 0.  1.
     999901    1    3    3    0    0  0.11382973127E+00  0.18437164991E-01  0.30082308253E-01  0.88803270325E+00  0.88000000000E+00 0. -1.
        -11    1    4    4    0    0 -0.87865778198E-01 -0.30364596640E-01 -0.13090981582E-01  0.93883111513E-01  0.51100000000E-03 0.  1.
         11    1    4    4    0    0 -0.38662581132E-01 -0.42850013169E-03 -0.18577846725E-02  0.38712934234E-01  0.51100000000E-03 0. -1.
</event>
<event>
 8    1  0.1074844E+005  0.1043930E+01  0.7957747E-01            NaN
         13   -1    0    0    0    0  0.00000000000E+00  0.00000000000E+00  0.74505805969E-08  0.10566000000E+00  0.10566000000E+00 0.  1.
     999900   -1    0    0    0    0 -0.00000000000E+00 -0.00000000000E+00 -0.74505805969E-08  0.93827000000E+00  0.93827000000E+00 0.  1.
     999902    2    1    2    0    0  0.17926645915E-01  0.13520326160E-01 -0.83143131606E-02  0.10199864903E+01  0.10197054225E+01 0.  0.
     999903    2    3    3    0    0  0.68330297699E-01  0.10753020758E+00  0.30774263508E-01  0.13268366559E+00  0.20642787952E-01 0.  0.
         14    1    1    2    0    0 -0.17926645915E-01 -0.13520326160E-01  0.83143131606E-02  0.23943509696E-01  0.00000000000E+00 0.  1.
     999901    1    3    3    0    0 -0.50403651785E-01 -0.94009881420E-01 -0.39088576669E-01  0.88730282471E+00  0.88000000000E+00 0.  1.
        -11    1    4    4    0    0  0.16543185199E-01  0.44335300421E-01  0.97751679588E-02  0.48322984899E-01  0.51100000000E-03 0.  1.
         11    1    4    4    0    0  0.51787112501E-01  0.63194907159E-01  0.20999095549E-01  0.84360680693E-01  0.51100000000E-03 0. -1.
</event>
<event>
 8    1  0.1074844E+005  0.1043930E+01  0.7957747E-01            NaN
         13   -1    0    0    0    0  0.00000000000E+00  0.00000000000E+00  0.74505805969E-08  0.10566000000E+00  0.10566000000E+00 0. -1.
     999900   -1    0    0    0    0 -0.00000000000E+00 -0.00000000000E+00 -0.74505805969E-08  0.93827000000E+00  0.93827000000E+00 0.  1.
     999902    2    1    2    0    0  0.20712501525E-01  0.69342843819E-02  0.94677227998E-02  0.10201239127E+01  0.10198460999E+01 0.  0.
     999903    2    3    3    0    0  0.50694134655E-01 -0.35549614676E-01  0.11527262905E+00  0.13226217895E+00  0.19283012758E-01 0.  0.
         14    1    1    2    0    0 -0.20712501525E-01 -0.69342843819E-02 -0.94677227998E-02  0.23806087338E-01  0.00000000000E+00 0.  1.
     999901    1    3    3    0    0 -0.29981633130E-01  0.42483899058E-01 -0.10580490625E+00  0.88786173371E+00  0.88000000000E+00 0.  1.
        -11    1    4    4    0    0  0.43149059901E-01 -0.20090221217E-01  0.82568283324E-01  0.95306038062E-01  0.51100000000E-03 0.  1.
         11    1    4    4    0    0  0.75450747536E-02 -0.15459393459E-01  0.32704345723E-01  0.36956140888E-01  0.51100000000E-03 0. -1.
</event>
<event>
 8    1  0.1074844E+005  0.1043930E+01  0.7957747E-01            NaN
         13   -1    0    0    0    0  0.00000000000E+00  0.00000000000E+00  0.74505805969E-08  0.10566000000E+00  0.10566000000E+00 0. -1.
     999900   -1    0    0    0    0 -0.00000000000E+00 -0.00000000000E+00 -0.74505805969E-08  0.93827000000E+00  0.93827000000E+00 0. -1.
     999902    2    1    2    0    0  0.18303315912E-01  0.13112467717E-01 -0.79953711028E-02  0.10200370273E+01  0.10197571588E+01 0.  0.
     999903    2    3    3    0    0  0.28066067964E-01  0.46827978257E-01  0.11624458668E+00  0.13061720854E+00  0.23821996464E-01 0.  0.
         14    1    1    2    0    0 -0.18303315912E-01 -0.13112467717E-01  0.79953711028E-02  0.23892972651E-01  0.00000000000E+00 0.  1.
     999901    1    3    3    0    0 -0.97627520525E-02 -0.33715510539E-01 -0.12423995779E+00  0.88941981881E+00  0.88000000000E+00 0. -1.
        -11    1    4    4    0    0  0.11640642509E-01  0.72609688818E-02  0.48972017583E-01  0.50860061485E-01  0.51100000000E-03 0. -1.
         11    1    4    4    0    0  0.16425425455E-01  0.39567009375E-01  0.67272569099E-01  0.79757147056E-01  0.51100000000E-03 0.  1.
</event>
<event>
 8    1  0.1074844E+005  0.1043930E+01  0.7957747E-01            NaN
         13   -1    0    0    0    0  0.00000000000E+00  0.00000000000E+00  0.74505805969E-08  0.10566000000E+00  0.10566000000E+00 0. -1.
     999900   -1    0    0    0    0 -0.00000000000E+00 -0.00000000000E+00 -0.74505805969E-08  0.93827000000E+00  0.93827000000E+00 0.  1.
     999902    2    1    2    0    0 -0.32737497492E-02  0.76308175760E-02 -0.22096254309E-01  0.10203251007E+01  0.10200520183E+01 0.  0.
     999903    2    3    3    0    0 -0.10312693875E+00 -0.61711252857E-01  0.43983581723E-01  0.12951337720E+00  0.19892591260E-01 0.  0.
         14    1    1    2    0    0  0.32737497492E-02 -0.76308175760E-02  0.22096254309E-01  0.23604899254E-01  0.00000000000E+00 0. -1.
     999901    1    3    3    0    0  0.99853188998E-01  0.69342070433E-01 -0.66079836032E-01  0.89081172355E+00  0.88000000000E+00 0. -1.
        -11    1    4    4    0    0 -0.78776933389E-01 -0.41611539872E-01  0.40085083354E-01  0.97695447760E-01  0.51100000000E-03 0. -1.
         11    1    4    4    0    0 -0.24350005358E-01 -0.20099712985E-01  0.38984983690E-02  0.31817929435E-01  0.51100000000E-03 0.  1.
</event>
<event>
 8    1  0.1074844E+005  0.1043930E+01  0.7957747E-01            NaN
         13   -1    0    0    0    0  0.00000000000E+00  0.00000000000E+00  0.74505805969E-08  0.10566000000E+00  0.10566000000E+00 0. -1.
     999900   -1    0    0    0    0 -0.00000000000E+00 -0.00000000000E+00 -0.74505805969E-08  0.93827000000E+00  0.93827000000E+00 0. -1.
     999902    2    1    2    0    0  0.10834725452E-01 -0.12165967913E-01 -0.18796051451E-01  0.10190564478E+01  0.10187528405E+01 0.  0.
     999903    2    3    3    0    0 -0.86547185383E-01  0.26312569925E-01 -0.91267570732E-01  0.12989057148E+00  0.18947940748E-01 0.  0.
         14    1    1    2    0    0 -0.10834725452E-01  0.12165967913E-01  0.18796051451E-01  0.24873552240E-01  0.00000000000E+00 0. -1.
     999901    1    3    3    0    0  0.97381910835E-01 -0.38478537837E-01  0.72471519280E-01  0.88916587628E+00  0.88000000000E+00 0.  1.
        -11    1    4    4    0    0 -0.32998169416E-01  0.19704576865E-01 -0.36422404190E-01  0.52952829785E-01  0.51100000000E-03 0. -1.
         11    1    4    4    0    0 -0.53549015967E-01  0.66079930600E-02 -0.54845166541E-01  0.76937741696E-01  0.51100000000E-03 0.  1.
</event>
<event>
 8    1  0.1074844E+005  0.1043930E+01  0.7957747E-01            NaN
         13   -1    0    0    0    0  0.00000000000E+00  0.00000000000E+00  0.74505805969E-08  0.10566000000E+00  0.10566000000E+00 0. -1.
     999900   -1    0    0    0    0 -0.00000000000E+00 -0.00000000000E+00 -0.74505805969E-08  0.93827000000E+00  0.93827000000E+00 0. -1.
     999902    2    1    2    0    0 -0.14748941728E-01 -0.12546377855E-01  0.14773085162E-01  0.10195745709E+01  0.10192836302E+01 0.  0.
     999903    2    3    3    0    0  0.17917765157E-01  0.72040202998E-01  0.10294028848E+00  0.13053269390E+00  0.30516291198E-01 0.  0.
         14    1    1    2    0    0  0.14748941728E-01  0.12546377855E-01 -0.14773085162E-01  0.24355429058E-01  0.00000000000E+00 0. -1.
     999901    1    3    3    0    0 -0.32666706885E-01 -0.84586580853E-01 -0.88167203313E-01  0.88904187704E+00  0.88000000000E+00 0. -1.
        -11    1    4    4    0    0  0.25863403729E-01  0.46886104943E-01  0.74378185261E-01  0.91649321071E-01  0.51100000000E-03 0.  1.
         11    1    4    4    0    0 -0.79456385720E-02  0.25154098055E-01  0.28562103215E-01  0.38883372826E-01  0.51100000000E-03 0. -1.
</event>
<event>
 8    1  0.1074844E+005  0.1043930E+01  0.7957747E-01            NaN
         13   -1    0    0    0    0  0.00000000000E+00  0.00000000000E+00  0.74505805969E-08  0.10566000000E+00  0.10566000000E+00 0. -1.
     999900   -1    0    0    0    0 -0.00000000000E+00 -0.00000000000E+00 -0.74505805969E-08  0.93827000000E+00  0.93827000000E+00 0. -1.
     999902    2    1    2    0    0  0.49107887600E-02 -0.13298448129E-01  0.19174023302E-01  0.10200845028E+01  0.10198057585E+01 0.  0.
     999903    2    3    3    0    0  0.39719361993E-01 -0.11436171967E+00 -0.46586466020E-01  0.13118076018E+00  0.19541299411E-01 0.  0.
         14    1    1    2    0    0 -0.49107887600E-02  0.13298448129E-01 -0.19174023302E-01  0.23845497236E-01  0.00000000000E+00 0.  1.
     999901    1    3    3    0    0 -0.34808573233E-01  0.10106327154E+00  0.65760489321E-01  0.88890374258E+00  0.88000000000E+00 0.  1.
        -11    1    4    4    0    0  0.73105968316E-02 -0.47360747734E-01 -0.13974091504E-01  0.49920152307E-01  0.51100000000E-03 0. -1.
         11    1    4    4    0    0  0.32408765162E-01 -0.67000971933E-01 -0.32612374516E-01  0.81260607873E-01  0.51100000000E-03 0.  1.
</event>
<event>
 8    1  0.1074844E+005  0.1043930E+01  0.7957747E-01            NaN
         13   -1    0    0    0    0  0.00000000000E+00  0.00000000000E+00  0.74505805969E-08  0.10566000000E+00  0.10566000000E+00 0.  1.
     999900   -1    0    0    0    0 -0.00000000000E+00 -0.00000000000E+00 -0.74505805969E-08  0.93827000000E+00  0.93827000000E+00 0. -1.
     999902    2    1    2    0    0 -0.10451484940E-01 -0.17518356078E-03  0.14685257170E-01  0.10259044347E+01  0.10257460641E+01 0.  0.
     999903    2    3    3    0    0  0.12705250096E+00  0.10071576499E-02 -0.36412368873E-01  0.13376111018E+00  0.20562626844E-01 0.  0.
         14    1    1    2    0    0  0.10451484940E-01  0.17518356078E-03 -0.14685257170E-01  0.18025565314E-01  0.00000000000E+00 0. -1.
     999901    1    3    3    0    0 -0.13750398590E+00 -0.11823412107E-02  0.51097626043E-01  0.89214332450E+00  0.88000000000E+00 0. -1.
        -11    1    4    4    0    0  0.17964853255E-01  0.66061413726E-02 -0.89116175321E-02  0.21120016675E-01  0.51100000000E-03 0.  1.
         11    1    4    4    0    0  0.10908764771E+00 -0.55989837227E-02 -0.27500751341E-01  0.11264109351E+00  0.51100000000E-03 0. -1.
</event>
<event>
 8    1  0.1074844E+005  0.1043930E+01  0.7957747E-01            NaN
         13   -1    0    0    0    0  0.00000000000E+00  0.00000000000E+00  0.74505805969E-08  0.10566000000E+00  0.10566000000E+00 0.  1.
     999900   -1    0    0    0    0 -0.00000000000E+00 -0.00000000000E+00 -0.74505805969E-08  0.93827000000E+00  0.93827000000E+00 0.  1.
     999902    2    1    2    0    0 -0.54949302947E-03  0.70863854952E-02  0.22520798977E-01  0.10203142174E+01  0.10200408801E+01 0.  0.
     999903    2    3    3    0    0 -0.26695272195E-01 -0.12022160056E+00  0.38441087411E-01  0.13062641784E+00  0.20485922905E-01 0.  0.
         14    1    1    2    0    0  0.54949302947E-03 -0.70863854952E-02 -0.22520798977E-01  0.23615782615E-01  0.00000000000E+00 0. -1.
     999901    1    3    3    0    0  0.26145779166E-01  0.12730798605E+00 -0.15920288434E-01  0.88968779955E+00  0.88000000000E+00 0.  1.
        -11    1    4    4    0    0 -0.23492440818E-01 -0.92146553898E-01  0.20904749088E-01  0.97366071227E-01  0.51100000000E-03 0.  1.
         11    1    4    4    0    0 -0.32028313775E-02 -0.28075046660E-01  0.17536338323E-01  0.33260346609E-01  0.51100000000E-03 0. -1.
</event>
<event>
 8    1  0.1074844E+005  0.1043930E+01  0.7957747E-01            NaN
         13   -1    0    0    0    0  0.00000000000E+00  0.00000000000E+00  0.74505805969E-08  0.10566000000E+00  0.10566000000E+00 0.  1.
     999900   -1    0    0    0    0 -0.00000000000E+00 -0.00000000000E+00 -0.74505805969E-08  0.93827000000E+00  0.93827000000E+00 0. -1.
     999902    2    1    2    0    0 -0.18969435508E-01 -0.11300992262E-02 -0.13310803289E-01  0.10207288343E+01  0.10204651189E+01 0.  0.
     999903    2    3    3    0    0  0.70680151131E-01 -0.10566877585E+00 -0.18033330724E-01  0.13000570917E+00  0.20364416164E-01 0.  0.
         14    1    1    2    0    0  0.18969435508E-01  0.11300992262E-02  0.13310803289E-01  0.23201165745E-01  0.00000000000E+00 0.  1.
     999901    1    3    3    0    0 -0.89649586639E-01  0.10453867663E+00  0.47225274353E-02  0.89072312508E+00  0.88000000000E+00 0.  1.
        -11    1    4    4    0    0  0.71350823370E-01 -0.10006278690E+00 -0.18645428189E-01  0.12430371850E+00  0.51100000000E-03 0. -1.
         11    1    4    4    0    0 -0.67067223872E-03 -0.56059889475E-02  0.61209746512E-03  0.57019906733E-02  0.51100000000E-03 0.  1.
</event>
<event>
 8    1  0.1074844E+005  0.1043930E+01  0.7957747E-01            NaN
         13   -1    0    0    0    0  0.00000000000E+00  0.00000000000E+00  0.74505805969E-08  0.10566000000E+00  0.10566000000E+00 0.  1.
     999900   -1    0    0    0    0 -0.00000000000E+00 -0.00000000000E+00 -0.74505805969E-08  0.93827000000E+00  0.93827000000E+00 0. -1.
     999902    2    1    2    0    0 -0.18878866915E-02 -0.46767807372E-02 -0.23572101692E-01  0.10198243913E+01  0.10195394591E+01 0.  0.
     999903    2    3    3    0    0 -0.11107476500E+00 -0.55302392875E-01  0.32460761359E-01  0.12986685928E+00  0.20389753127E-01 0.  0.
         14    1    1    2    0    0  0.18878866915E-02  0.46767807372E-02  0.23572101692E-01  0.24105608733E-01  0.00000000000E+00 0.  1.
     999901    1    3    3    0    0  0.10918687831E+00  0.50625612138E-01 -0.56032863051E-01  0.88995753199E+00  0.88000000000E+00 0. -1.
        -11    1    4    4    0    0 -0.48212585891E-01 -0.32591539451E-01  0.21978173267E-01  0.62209027506E-01  0.51100000000E-03 0.  1.
         11    1    4    4    0    0 -0.62862179114E-01 -0.22710853424E-01  0.10482588092E-01  0.67657831773E-01  0.51100000000E-03 0. -1.
</event>
<event>
 8    1  0.1074844E+005  0.1043930E+01  0.7957747E-01            NaN
         13   -1    0    0    0    0  0.00000000000E+00  0.00000000000E+00  0.74505805969E-08  0.10566000000E+00  0.10566000000E+00 0.  1.
     999900   -1    0    0    0    0 -0.00000000000E+00 -0.00000000000E+00 -0.74505805969E-08  0.93827000000E+00  0.93827000000E+00 0.  1.
     999902    2    1    2    0    0  0.20415357389E-01 -0.11359907201E-01 -0.37705373323E-02  0.10202645978E+01  0.10199900972E+01 0.  0.
     999903    2    3    3    0    0  0.11910710302E-01 -0.26513271710E-01  0.12573559172E+00  0.13061647021E+00  0.20159480910E-01 0.  0.
         14    1    1    2    0    0 -0.20415357389E-01  0.11359907201E-01  0.37705373323E-02  0.23665402188E-01  0.00000000000E+00 0. -1.
     999901    1    3    3    0    0  0.85046470870E-02  0.15153364509E-01 -0.12950612905E+00  0.88964812760E+00  0.88000000000E+00 0.  1.
        -11    1    4    4    0    0  0.10533342380E-01 -0.29884284133E-01  0.11197908437E+00  0.11637696592E+00  0.51100000000E-03 0.  1.
         11    1    4    4    0    0  0.13773679220E-02  0.33710124231E-02  0.13756507347E-01  0.14239504294E-01  0.51100000000E-03 0. -1.
</event>
<event>
 8    1  0.1074844E+005  0.1043930E+01  0.7957747E-01            NaN
         13   -1    0    0    0    0  0.00000000000E+00  0.00000000000E+00  0.74505805969E-08  0.10566000000E+00  0.10566000000E+00 0.  1.
     999900   -1    0    0    0    0 -0.00000000000E+00 -0.00000000000E+00 -0.74505805969E-08  0.93827000000E+00  0.93827000000E+00 0.  1.
     999902    2    1    2    0    0  0.42421040647E-02 -0.17841055114E-01  0.13114236334E-01  0.10213848921E+01  0.10211360419E+01 0.  0.
     999903    2    3    3    0    0  0.58326688220E-01 -0.10247680223E-01 -0.11469963845E+00  0.13047570025E+00  0.18996941461E-01 0.  0.
         14    1    1    2    0    0 -0.42421040647E-02  0.17841055114E-01 -0.13114236334E-01  0.22545107875E-01  0.00000000000E+00 0.  1.
     999901    1    3    3    0    0 -0.54084584155E-01 -0.75933748907E-02  0.12781387479E+00  0.89090919188E+00  0.88000000000E+00 0. -1.
        -11    1    4    4    0    0  0.44478779564E-01 -0.28016677337E-02 -0.97280624092E-01  0.10700463597E+00  0.51100000000E-03 0.  1.
         11    1    4    4    0    0  0.13847908655E-01 -0.74460124893E-02 -0.17419014362E-01  0.23471064280E-01  0.51100000000E-03 0. -1.
</event>
<event>
 7    1  0.1074844E+005  0.1043930E+01  0.7957747E-01            NaN
         13   -1    0    0    0    0  0.00000000000E+00  0.00000000000E+00  0.74505805969E-08  0.10566000000E+00  0.10566000000E+00 0.  1.
     999900   -1    0    0    0    0 -0.00000000000E+00 -0.00000000000E+00 -0.74505805969E-08  0.93827000000E+00  0.93827000000E+00 0. -1.
     999902    2    1    2    0    0 -0.81264802666E-02 -0.95920296683E-02 -0.18917543701E-01  0.10212161237E+01  0.10209634916E+01 0.  0.
         14    1    1    2    0    0  0.81264802666E-02  0.95920296683E-02  0.18917543701E-01  0.22713876251E-01  0.00000000000E+00 0.  1.
     999901    1    3    3    0    0 -0.53748460289E-01 -0.94194207154E-01 -0.95555180141E-01  0.89179158894E+00  0.88000000000E+00 0. -1.
        -11    1    3    3    0    0  0.19534632193E-01  0.42325870433E-01  0.62118781353E-01  0.77666500376E-01  0.51100000000E-03 0. -1.
         11    1    3    3    0    0  0.26087347830E-01  0.42276307053E-01  0.14518855087E-01  0.51758034437E-01  0.51100000000E-03 0.  1.
</event>
<event>
 8    1  0.1074844E+005  0.1043930E+01  0.7957747E-01            NaN
         13   -1    0    0    0    0  0.00000000000E+00  0.00000000000E+00  0.74505805969E-08  0.10566000000E+00  0.10566000000E+00 0.  1.
     999900   -1    0    0    0    0 -0.00000000000E+00 -0.00000000000E+00 -0.74505805969E-08  0.93827000000E+00  0.93827000000E+00 0. -1.
     999902    2    1    2    0    0  0.19538614649E-01 -0.80227399095E-02  0.87691909244E-02  0.10210603579E+01  0.10208042095E+01 0.  0.
     999903    2    3    3    0    0  0.13343777546E-01 -0.75154989034E-01 -0.10488717550E+00  0.13119357887E+00  0.19598642182E-01 0.  0.
         14    1    1    2    0    0 -0.19538614649E-01  0.80227399095E-02 -0.87691909244E-02  0.22869642051E-01  0.00000000000E+00 0. -1.
     999901    1    3    3    0    0  0.61948371036E-02  0.67132249124E-01  0.11365636643E+00  0.88986677908E+00  0.88000000000E+00 0.  1.
        -11    1    4    4    0    0  0.14540836125E-01 -0.28474206848E-01 -0.38945465554E-01  0.50390741005E-01  0.51100000000E-03 0. -1.
         11    1    4    4    0    0 -0.11970585791E-02 -0.46680782186E-01 -0.65941709951E-01  0.80802837864E-01  0.51100000000E-03 0.  1.
</event>
<event>
 8    1  0.1074844E+005  0.1043930E+01  0.7957747E-01            NaN
         13   -1    0    0    0    0  0.00000000000E+00  0.00000000000E+00  0.74505805969E-08  0.10566000000E+00  0.10566000000E+00 0. -1.
     999900   -1    0    0    0    0 -0.00000000000E+00 -0.00000000000E+00 -0.74505805969E-08  0.93827000000E+00  0.93827000000E+00 0.  1.
     999902    2    1    2    0    0  0.15912115662E-01  0.15932941467E-01 -0.61336432659E-02  0.10205917133E+01  0.10203248353E+01 0.  0.
     999903    2    3    3    0    0 -0.88539304859E-01  0.88399752567E-01 -0.33362686118E-01  0.13103960194E+00  0.20114265919E-01 0.  0.
         14    1    1    2    0    0 -0.15912115662E-01 -0.15932941467E-01  0.61336432659E-02  0.23338286748E-01  0.00000000000E+00 0.  1.
     999901    1    3    3    0    0  0.10445142052E+00 -0.72466811100E-01  0.27229042852E-01  0.88955211131E+00  0.88000000000E+00 0. -1.
        -11    1    4    4    0    0 -0.82386697079E-01  0.76548398017E-01 -0.34485068274E-01  0.11762952924E+00  0.51100000000E-03 0. -1.
         11    1    4    4    0    0 -0.61526077808E-02  0.11851354550E-01  0.11223821567E-02  0.13410072702E-01  0.51100000000E-03 0.  1.
</event>
<event>
 8    1  0.1074844E+005  0.1043930E+01  0.7957747E-01            NaN
         13   -1    0    0    0    0  0.00000000000E+00  0.00000000000E+00  0.74505805969E-08  0.10566000000E+00  0.10566000000E+00 0. -1.
     999900   -1    0    0    0    0 -0.00000000000E+00 -0.00000000000E+00 -0.74505805969E-08  0.93827000000E+00  0.93827000000E+00 0.  1.
     999902    2    1    2    0    0  0.11451225988E-01 -0.21318491673E-01  0.20742532073E-03  0.10197297585E+01  0.10194425578E+01 0.  0.
     999903    2    3    3    0    0  0.39942201174E-01 -0.49551869660E-01 -0.11333767454E+00  0.13152857126E+00  0.20089035926E-01 0.  0.
         14    1    1    2    0    0 -0.11451225988E-01  0.21318491673E-01 -0.20742532073E-03  0.24200241509E-01  0.00000000000E+00 0.  1.
     999901    1    3    3    0    0 -0.28490975187E-01  0.28233377988E-01  0.11354509987E+00  0.88820118723E+00  0.88000000000E+00 0. -1.
        -11    1    4    4    0    0  0.35920251770E-01 -0.45204262090E-01 -0.86228511569E-01  0.10377527223E+00  0.51100000000E-03 0.  1.
         11    1    4    4    0    0  0.40219494041E-02 -0.43476075704E-02 -0.27109162975E-01  0.27753299026E-01  0.51100000000E-03 0. -1.
</event>
<event>
 8    1  0.1074844E+005  0.1043930E+01  0.7957747E-01            NaN
         13   -1    0    0    0    0  0.00000000000E+00  0.00000000000E+00  0.74505805969E-08  0.10566000000E+00  0.10566000000E+00 0. -1.
     999900   -1    0    0    0    0 -0.00000000000E+00 -0.00000000000E+00 -0.74505805969E-08  0.93827000000E+00  0.93827000000E+00 0.  1.
     999902    2    1    2    0    0  0.57369843927E-03  0.65231383141E-02  0.22170984592E-01  0.10208121926E+01  0.10205503904E+01 0.  0.
     999903    2    3    3    0    0  0.27149179142E-01 -0.12212825175E+00  0.33309438885E-01  0.13099114228E+00  0.19919157492E-01 0.  0.
         14    1    1    2    0    0 -0.57369843927E-03 -0.65231383141E-02 -0.22170984592E-01  0.23117807447E-01  0.00000000000E+00 0.  1.
     999901    1    3    3    0    0 -0.26575480703E-01  0.12865139006E+00 -0.11138454292E-01  0.88982105027E+00  0.88000000000E+00 0.  1.
        -11    1    4    4    0    0  0.10470835721E-01 -0.88738426249E-01  0.23885660800E-01  0.92492878681E-01  0.51100000000E-03 0. -1.
         11    1    4    4    0    0  0.16678343421E-01 -0.33389825498E-01  0.94237780844E-02  0.38498263602E-01  0.51100000000E-03 0.  1.
</event>
<event>
 8    1  0.1074844E+005  0.1043930E+01  0.7957747E-01            NaN
         13   -1    0    0    0    0  0.00000000000E+00  0.00000000000E+00  0.74505805969E-08  0.10566000000E+00  0.10566000000E+00 0.  1.
     999900   -1    0    0    0    0 -0.00000000000E+00 -0.00000000000E+00 -0.74505805969E-08  0.93827000000E+00  0.93827000000E+00 0.  1.
     999902    2    1    2    0    0 -0.69693695992E-02  0.14394470717E-01 -0.17130383086E-01  0.10204944944E+01  0.10202253624E+01 0.  0.
     999903    2    3    3    0    0  0.14128305126E-01 -0.95139335163E-01  0.82052751478E-01  0.12792513533E+00  0.19521376025E-01 0.  0.
         14    1    1    2    0    0  0.69693695992E-02 -0.14394470717E-01  0.17130383086E-01  0.23435505638E-01  0.00000000000E+00 0.  1.
     999901    1    3    3    0    0 -0.21097674725E-01  0.10953380588E+00 -0.99183134564E-01  0.89256935904E+00  0.88000000000E+00 0.  1.
        -11    1    4    4    0    0  0.13127360666E-01 -0.52850944468E-01  0.56646815636E-01  0.78579086098E-01  0.51100000000E-03 0. -1.
         11    1    4    4    0    0  0.10009444594E-02 -0.42288390695E-01  0.25405935842E-01  0.49346049228E-01  0.51100000000E-03 0.  1.
</event>
<event>
 8    1  0.1074844E+005  0.1043930E+01  0.7957747E-01            NaN
         13   -1    0    0    0    0  0.00000000000E+00  0.00000000000E+00  0.74505805969E-08  0.10566000000E+00  0.10566000000E+00 0.  1.
     999900   -1    0    0    0    0 -0.00000000000E+00 -0.00000000000E+00 -0.74505805969E-08  0.93827000000E+00  0.93827000000E+00 0.  1.
     999902    2    1    2    0    0 -0.25350771707E-02  0.15787921880E-01 -0.18796966729E-01  0.10192518507E+01  0.10189530530E+01 0.  0.
     999903    2    3    3    0    0  0.82316852476E-01 -0.60174692373E-01 -0.78171095195E-01  0.12992881838E+00  0.19331836883E-01 0.  0.
         14    1    1    2    0    0  0.25350771707E-02 -0.15787921880E-01  0.18796966729E-01  0.24678149277E-01  0.00000000000E+00 0. -1.
     999901    1    3    3    0    0 -0.84851929646E-01  0.75962614253E-01  0.59374128467E-01  0.88932303235E+00  0.88000000000E+00 0. -1.
        -11    1    4    4    0    0  0.52882863782E-01 -0.49184952009E-01 -0.51356660339E-01  0.88620113225E-01  0.51100000000E-03 0.  1.
         11    1    4    4    0    0  0.29433988694E-01 -0.10989740364E-01 -0.26814434856E-01  0.41308705152E-01  0.51100000000E-03 0. -1.
</event>
<event>
 8    1  0.1074844E+005  0.1043930E+01  0.7957747E-01            NaN
         13   -1    0    0    0    0  0.00000000000E+00  0.00000000000E+00  0.74505805969E-08  0.10566000000E+00  0.10566000000E+00 0.  1.
     999900   -1    0    0    0    0 -0.00000000000E+00 -0.00000000000E+00 -0.74505805969E-08  0.93827000000E+00  0.93827000000E+00 0. -1.
     999902    2    1    2    0    0 -0.21492111189E-03 -0.17790753314E-01 -0.16162471924E-01  0.10198928913E+01  0.10196095955E+01 0.  0.
     999903    2    3    3    0    0 -0.37820219716E-01 -0.10929609989E+00  0.58601220941E-01  0.13119890761E+00  0.20075950558E-01 0.  0.
         14    1    1    2    0    0  0.21492111189E-03  0.17790753314E-01  0.16162471924E-01  0.24037108671E-01  0.00000000000E+00 0.  1.
     999901    1    3    3    0    0  0.37605298604E-01  0.91505346575E-01 -0.74763692865E-01  0.88869398372E+00  0.88000000000E+00 0. -1.
        -11    1    4    4    0    0 -0.18805978646E-01 -0.61082135748E-01  0.21404843876E-01  0.67402675041E-01  0.51100000000E-03 0. -1.
         11    1    4    4    0    0 -0.19014241069E-01 -0.48213964141E-01  0.37196377064E-01  0.63796232564E-01  0.51100000000E-03 0.  1.
</event>
<event>
 8    1  0.1074844E+005  0.1043930E+01  0.7957747E-01            NaN
         13   -1    0    0    0    0  0.00000000000E+00  0.00000000000E+00  0.74505805969E-08  0.10566000000E+00  0.10566000000E+00 0.  1.
     999900   -1    0    0    0    0 -0.00000000000E+00 -0.00000000000E+00 -0.74505805969E-08  0.93827000000E+00  0.93827000000E+00 0.  1.
     999902    2    1    2    0    0 -0.20965909647E-01  0.12359646313E-01 -0.13325253161E-02  0.10195557134E+01  0.10192643165E+01 0.  0.
     999903    2    3    3    0    0 -0.46959191666E-01 -0.63288076295E-01  0.10139102233E+00  0.12997696145E+00  0.20082948415E-01 0.  0.
         14    1    1    2    0    0  0.20965909647E-01 -0.12359646313E-01  0.13325253161E-02  0.24374286615E-01  0.00000000000E+00 0.  1.
     999901    1    3    3    0    0  0.25993282020E-01  0.75647722608E-01 -0.10272354764E+00  0.88957875193E+00  0.88000000000E+00 0.  1.
        -11    1    4    4    0    0 -0.40164792614E-01 -0.52217998490E-01  0.94687713372E-01  0.11535143743E+00  0.51100000000E-03 0. -1.
         11    1    4    4    0    0 -0.67943990519E-02 -0.11070077805E-01  0.67033089563E-02  0.14625524026E-01  0.51100000000E-03 0.  1.
</event>
<event>
 8    1  0.1074844E+005  0.1043930E+01  0.7957747E-01            NaN
         13   -1    0    0    0    0  0.00000000000E+00  0.00000000000E+00  0.74505805969E-08  0.10566000000E+00  0.10566000000E+00 0.  1.
     999900   -1    0    0    0    0 -0.00000000000E+00 -0.00000000000E+00 -0.74505805969E-08  0.93827000000E+00  0.93827000000E+00 0.  1.
     999902    2    1    2    0    0  0.15165759046E-01 -0.15908140659E-01  0.99506980240E-02  0.10198035502E+01  0.10195181193E+01 0.  0.
     999903    2    3    3    0    0  0.11823773523E+00 -0.10135867408E-01  0.56785136670E-01  0.13253210584E+00  0.16040869418E-01 0.  0.
         14    1    1    2    0    0 -0.15165759046E-01  0.15908140659E-01 -0.99506980240E-02  0.24126449756E-01  0.00000000000E+00 0. -1.
     999901    1    3    3    0    0 -0.10307197618E+00 -0.57722732512E-02 -0.46834438646E-01  0.88727144440E+00  0.88000000000E+00 0. -1.
        -11    1    4    4    0    0  0.58197185200E-01 -0.10262935845E-01  0.21487770607E-01  0.62882633723E-01  0.51100000000E-03 0. -1.
         11    1    4    4    0    0  0.60040550028E-01  0.12706843672E-03  0.35297366063E-01  0.69649472116E-01  0.51100000000E-03 0.  1.
</event>
<event>
 8    1  0.1074844E+005  0.1043930E+01  0.7957747E-01            NaN
         13   -1    0    0    0    0  0.00000000000E+00  0.00000000000E+00  0.74505805969E-08  0.10566000000E+00  0.10566000000E+00 0. -1.
     999900   -1    0    0    0    0 -0.00000000000E+00 -0.00000000000E+00 -0.74505805969E-08  0.93827000000E+00  0.93827000000E+00 0. -1.
     999902    2    1    2    0    0 -0.76367786685E-02 -0.12179259008E-01  0.17375112728E-01  0.10213789628E+01  0.10211299801E+01 0.  0.
     999903    2    3    3    0    0 -0.11770273835E+00  0.20297478156E-01 -0.50837853321E-01  0.13131027851E+00  0.19798476690E-01 0.  0.
         14    1    1    2    0    0  0.76367786685E-02  0.12179259008E-01 -0.17375112728E-01  0.22551037242E-01  0.00000000000E+00 0.  1.
     999901    1    3    3    0    0  0.11006595968E+00 -0.32476737164E-01  0.68212966049E-01  0.89006868424E+00  0.88000000000E+00 0.  1.
        -11    1    4    4    0    0 -0.81070339461E-01  0.23065567853E-01 -0.36953735997E-01  0.92034015917E-01  0.51100000000E-03 0. -1.
         11    1    4    4    0    0 -0.36632398884E-01 -0.27680896967E-02 -0.13884117324E-01  0.39276262595E-01  0.51100000000E-03 0.  1.
</event>
<event>
 8    1  0.1074844E+005  0.1043930E+01  0.7957747E-01            NaN
         13   -1    0    0    0    0  0.00000000000E+00  0.00000000000E+00  0.74505805969E-08  0.10566000000E+00  0.10566000000E+00 0. -1.
     999900   -1    0    0    0    0 -0.00000000000E+00 -0.00000000000E+00 -0.74505805969E-08  0.93827000000E+00  0.93827000000E+00 0. -1.
     999902    2    1    2    0    0 -0.10828859080E-01 -0.20994522435E-01  0.41344293336E-03  0.10203036356E+01  0.10200300504E+01 0.  0.
     999903    2    3    3    0    0  0.80204794677E-01 -0.24718861349E-01 -0.97675122904E-01  0.13017872098E+00  0.19032565952E-01 0.  0.
         14    1    1    2    0    0  0.10828859080E-01  0.20994522435E-01 -0.41344293336E-03  0.23626364433E-01  0.00000000000E+00 0. -1.
     999901    1    3    3    0    0 -0.91033653756E-01  0.37243389134E-02  0.98088565837E-01  0.89012491458E+00  0.88000000000E+00 0.  1.
        -11    1    4    4    0    0  0.51917329428E-02  0.29907641597E-02 -0.83057538179E-02  0.10254044504E-01  0.51100000000E-03 0.  1.
         11    1    4    4    0    0  0.75013061734E-01 -0.27709625509E-01 -0.89369369086E-01  0.11992467648E+00  0.51100000000E-03 0. -1.
</event>
<event>
 8    1  0.1074844E+005  0.1043930E+01  0.7957747E-01            NaN
         13   -1    0    0    0    0  0.00000000000E+00  0.00000000000E+00  0.74505805969E-08  0.10566000000E+00  0.10566000000E+00 0. -1.
     999900   -1    0    0    0    0 -0.00000000000E+00 -0.00000000000E+00 -0.74505805969E-08  0.93827000000E+00  0.93827000000E+00 0.  1.
     999902    2    1    2    0    0  0.14619037129E-01 -0.18498070055E-01 -0.87739430299E-03  0.10203362580E+01  0.10200634366E+01 0.  0.
     999903    2    3    3    0    0  0.11052707070E+00 -0.19399347081E-01 -0.66918588930E-01  0.13266480828E+00  0.23006211928E-01 0.  0.
         14    1    1    2    0    0 -0.14619037129E-01  0.18498070055E-01  0.87739430299E-03  0.23593742033E-01  0.00000000000E+00 0. -1.
     999901    1    3    3    0    0 -0.95908033569E-01  0.90127702575E-03  0.66041194627E-01  0.88767144969E+00  0.88000000000E+00 0.  1.
        -11    1    4    4    0    0  0.52825622078E-01 -0.93822743208E-02 -0.18757627460E-01  0.56839098588E-01  0.51100000000E-03 0. -1.
         11    1    4    4    0    0  0.57701448619E-01 -0.10017072760E-01 -0.48160961470E-01  0.75825709691E-01  0.51100000000E-03 0.  1.
</event>
<event>
 8    1  0.1074844E+005  0.1043930E+01  0.7957747E-01            NaN
         13   -1    0    0    0    0  0.00000000000E+00  0.00000000000E+00  0.74505805969E-08  0.10566000000E+00  0.10566000000E+00 0.  1.
     999900   -1    0    0    0    0 -0.00000000000E+00 -0.00000000000E+00 -0.74505805969E-08  0.93827000000E+00  0.93827000000E+00 0. -1.
     999902    2    1    2    0    0  0.17392253046E-01  0.13274377702E-02 -0.15986411802E-01  0.10202695283E+01  0.10199951434E+01 0.  0.
     999903    2    3    3    0    0  0.81743268686E-01  0.64589875705E-01 -0.80609393397E-01  0.13329753384E+00  0.20409414626E-01 0.  0.
         14    1    1    2    0    0 -0.17392253046E-01 -0.13274377702E-02  0.15986411802E-01  0.23660471664E-01  0.00000000000E+00 0.  1.
     999901    1    3    3    0    0 -0.64351015640E-01 -0.63262437934E-01  0.64622981595E-01  0.88697199449E+00  0.88000000000E+00 0.  1.
        -11    1    4    4    0    0  0.70500817365E-01  0.56150952976E-01 -0.77551394783E-01  0.11890237476E+00  0.51100000000E-03 0. -1.
         11    1    4    4    0    0  0.11242451320E-01  0.84389227284E-02 -0.30579986141E-02  0.14395159083E-01  0.51100000000E-03 0.  1.
</event>
<event>
 8    1  0.1074844E+005  0.1043930E+01  0.7957747E-01            NaN
         13   -1    0    0    0    0  0.00000000000E+00  0.00000000000E+00  0.74505805969E-08  0.10566000000E+00  0.10566000000E+00 0. -1.
     999900   -1    0    0    0    0 -0.00000000000E+00 -0.00000000000E+00 -0.74505805969E-08  0.93827000000E+00  0.93827000000E+00 0.  1.
     999902    2    1    2    0    0  0.29438395885E-02 -0.66517304309E-02 -0.24050666882E-01  0.10188033948E+01  0.10184935007E+01 0.  0.
     999903    2    3    3    0    0  0.40589878728E-01  0.13282877790E-01 -0.12346950629E+00  0.13218131160E+00  0.20080016289E-01 0.  0.
         14    1    1    2    0    0 -0.29438395885E-02  0.66517304309E-02  0.24050666882E-01  0.25126605157E-01  0.00000000000E+00 0. -1.
     999901    1    3    3    0    0 -0.37646039139E-01 -0.19934608220E-01  0.99418839411E-01  0.88662208324E+00  0.88000000000E+00 0. -1.
        -11    1    4    4    0    0  0.34788942227E-01  0.10233033447E-01 -0.75445064068E-01  0.83709045437E-01  0.51100000000E-03 0. -1.
         11    1    4    4    0    0  0.58009365009E-02  0.30498443431E-02 -0.48024442224E-01  0.48472266161E-01  0.51100000000E-03 0.  1.
</event>
<event>
 8    1  0.1074844E+005  0.1043930E+01  0.7957747E-01            NaN
         13   -1    0    0    0    0  0.00000000000E+00  0.00000000000E+00  0.74505805969E-08  0.10566000000E+00  0.10566000000E+00 0. -1.
     999900   -1    0    0    0    0 -0.00000000000E+00 -0.00000000000E+00 -0.74505805969E-08  0.93827000000E+00  0.93827000000E+00 0.  1.
     999902    2    1    2    0    0  0.13105198426E-01  0.22099211502E-02 -0.16089043668E-01  0.10230616674E+01  0.10228488100E+01 0.  0.
     999903    2    3    3    0    0  0.30050156983E-01 -0.53715819527E-01 -0.11868762580E+00  0.13517581378E+00  0.19933562425E-01 0.  0.
         14    1    1    2    0    0 -0.13105198426E-01 -0.22099211502E-02  0.16089043668E-01  0.20868332550E-01  0.00000000000E+00 0. -1.
     999901    1    3    3    0    0 -0.16944958557E-01  0.55925740677E-01  0.10259858213E+00  0.88788585367E+00  0.88000000000E+00 0. -1.
        -11    1    4    4    0    0 -0.39288618708E-03 -0.86733680023E-03 -0.13813021880E-01  0.13855227430E-01  0.51100000000E-03 0. -1.
         11    1    4    4    0    0  0.30443043170E-01 -0.52848482727E-01 -0.10487460392E+00  0.12132058635E+00  0.51100000000E-03 0.  1.
</event>
<event>
 8    1  0.1074844E+005  0.1043930E+01  0.7957747E-01            NaN
         13   -1    0    0    0    0  0.00000000000E+00  0.00000000000E+00  0.74505805969E-08  0.10566000000E+00  0.10566000000E+00 0.  1.
     999900   -1    0    0    0    0 -0.00000000000E+00 -0.00000000000E+00 -0.74505805969E-08  0.93827000000E+00  0.93827000000E+00 0. -1.
     999902    2    1    2    0    0 -0.81596627723E-02 -0.12000252458E-01  0.18463128503E-01  0.10204465320E+01  0.10201762845E+01 0.  0.
     999903    2    3    3    0    0 -0.12255498954E+00 -0.29833009932E-01  0.35811440342E-01  0.13269360355E+00  0.20381344973E-01 0.  0.
         14    1    1    2    0    0  0.81596627723E-02  0.12000252458E-01 -0.18463128503E-01  0.23483468009E-01  0.00000000000E+00 0. -1.
     999901    1    3    3    0    0  0.11439532676E+00  0.17832757474E-01 -0.17348311840E-01  0.88775292844E+00  0.88000000000E+00 0.  1.
        -11    1    4    4    0    0 -0.80512359068E-01 -0.12482172315E-01  0.30069694540E-01  0.86847522930E-01  0.51100000000E-03 0.  1.
         11    1    4    4    0    0 -0.42042630468E-01 -0.17350837617E-01  0.57417458024E-02  0.45846080624E-01  0.51100000000E-03 0. -1.
</event>
<event>
 8    1  0.1074844E+005  0.1043930E+01  0.7957747E-01            NaN
         13   -1    0    0    0    0  0.00000000000E+00  0.00000000000E+00  0.74505805969E-08  0.10566000000E+00  0.10566000000E+00 0. -1.
     999900   -1    0    0    0    0 -0.00000000000E+00 -0.00000000000E+00 -0.74505805969E-08  0.93827000000E+00  0.93827000000E+00 0.  1.
     999902    2    1    2    0    0 -0.13162617227E-01  0.38690829909E-03 -0.19064655616E-01  0.10207596464E+01  0.10204966392E+01 0.  0.
     999903    2    3    3    0    0 -0.97711431951E-01  0.21592385070E-01 -0.86519481867E-01  0.13388404755E+00  0.20629164306E-01 0.  0.
         14    1    1    2    0    0  0.13162617227E-01 -0.38690829909E-03  0.19064655616E-01  0.23170353559E-01  0.00000000000E+00 0. -1.
     999901    1    3    3    0    0  0.84548814724E-01 -0.21205476771E-01  0.67454826251E-01  0.88687559889E+00  0.88000000000E+00 0. -1.
        -11    1    4    4    0    0 -0.61477794644E-01  0.33606747094E-02 -0.50409173728E-01  0.79574865917E-01  0.51100000000E-03 0.  1.
         11    1    4    4    0    0 -0.36233637307E-01  0.18231710361E-01 -0.36110308139E-01  0.54309181637E-01  0.51100000000E-03 0. -1.
</event>
<event>
 8    1  0.1074844E+005  0.1043930E+01  0.7957747E-01            NaN
         13   -1    0    0    0    0  0.00000000000E+00  0.00000000000E+00  0.74505805969E-08  0.10566000000E+00  0.10566000000E+00 0.  1.
     999900   -1    0    0    0    0 -0.00000000000E+00 -0.00000000000E+00 -0.74505805969E-08  0.93827000000E+00  0.93827000000E+00 0. -1.
     999902    2    1    2    0    0  0.18459035881E-01 -0.68109667819E-02 -0.18925847152E-01  0.10166295794E+01  0.10162629526E+01 0.  0.
     999903    2    3    3    0    0  0.72212092588E-01 -0.58156648208E-01  0.84766260414E-01  0.12742891405E+00  0.21354792989E-01 0.  0.
         14    1    1    2    0    0 -0.18459035881E-01  0.68109667819E-02  0.18925847152E-01  0.27300420594E-01  0.00000000000E+00 0.  1.
     999901    1    3    3    0    0 -0.53753056706E-01  0.51345681427E-01 -0.10369210757E+00  0.88920066536E+00  0.88000000000E+00 0. -1.
        -11    1    4    4    0    0  0.65915505017E-01 -0.59340479388E-01  0.79769992795E-01  0.11928813506E+00  0.51100000000E-03 0.  1.
         11    1    4    4    0    0  0.62965875709E-02  0.11838311800E-02  0.49962676190E-02  0.81407789813E-02  0.51100000000E-03 0. -1.
</event>
<event>
 8    1  0.1074844E+005  0.1043930E+01  0.7957747E-01            NaN
         13   -1    0    0    0    0  0.00000000000E+00  0.00000000000E+00  0.74505805969E-08  0.10566000000E+00  0.10566000000E+00 0.  1.
     999900   -1    0    0    0    0 -0.00000000000E+00 -0.00000000000E+00 -0.74505805969E-08  0.93827000000E+00  0.93827000000E+00 0.  1.
     999902    2    1    2    0    0 -0.22435453263E-01  0.89897054181E-02  0.20042542342E-02  0.10196775485E+01  0.10193890924E+01 0.  0.
     999903    2    3    3    0    0 -0.10054125210E-01 -0.20108045518E-01 -0.12632059228E+00  0.12980832072E+00  0.19694902057E-01 0.  0.
         14    1    1    2    0    0  0.22435453263E-01 -0.89897054181E-02 -0.20042542342E-02  0.24252451456E-01  0.00000000000E+00 0.  1.
     999901    1    3    3    0    0 -0.12381328053E-01  0.29097750937E-01  0.12832484651E+00  0.88986922782E+00  0.88000000000E+00 0. -1.
        -11    1    4    4    0    0 -0.15314104940E-01 -0.95184155304E-02 -0.74263950185E-01  0.76423278276E-01  0.51100000000E-03 0.  1.
         11    1    4    4    0    0  0.52599797306E-02 -0.10589629988E-01 -0.52056642091E-01  0.53385042445E-01  0.51100000000E-03 0. -1.
</event>
<event>
 8    1  0.1074844E+005  0.1043930E+01  0.7957747E-01            NaN
         13   -1    0    0    0    0  0.00000000000E+00  0.00000000000E+00  0.74505805969E-08  0.10566000000E+00  0.10566000000E+00 0.  1.
     999900   -1    0    0    0    0 -0.00000000000E+00 -0.00000000000E+00 -0.74505805969E-08  0.93827000000E+00  0.93827000000E+00 0. -1.
     999902    2    1    2    0    0 -0.23773756270E-01 -0.34131004078E-03 -0.33119029047E-03  0.10201514873E+01  0.10198743253E+01 0.  0.
     999903    2    3    3    0    0  0.75756043690E-01 -0.10214524669E+00  0.18491227137E-02  0.12870604512E+00  0.19728081982E-01 0.  0.
         14    1    1    2    0    0  0.23773756270E-01  0.34131004078E-03  0.33119029047E-03  0.23778512711E-01  0.00000000000E+00 0. -1.
     999901    1    3    3    0    0 -0.99529799960E-01  0.10180393665E+00 -0.21803130042E-02  0.89144544217E+00  0.88000000000E+00 0. -1.
        -11    1    4    4    0    0  0.24154330722E-01 -0.20065521232E-01 -0.35268343487E-02  0.31603109285E-01  0.51100000000E-03 0.  1.
         11    1    4    4    0    0  0.51601712968E-01 -0.82079725459E-01  0.53759570624E-02  0.97102935836E-01  0.51100000000E-03 0. -1.
</event>
<event>
 8    1  0.1074844E+005  0.1043930E+01  0.7957747E-01            NaN
         13   -1    0    0    0    0  0.00000000000E+00  0.00000000000E+00  0.74505805969E-08  0.10566000000E+00  0.10566000000E+00 0.  1.
     999900   -1    0    0    0    0 -0.00000000000E+00 -0.00000000000E+00 -0.74505805969E-08  0.93827000000E+00  0.93827000000E+00 0.  1.
     999902    2    1    2    0    0  0.63276960921E-02  0.99615749646E-02 -0.20661011572E-01  0.10201360908E+01  0.10198585656E+01 0.  0.
     999903    2    3    3    0    0  0.11248095413E+00 -0.63257430547E-01  0.15819117388E-02  0.13045958526E+00  0.19071795378E-01 0.  0.
         14    1    1    2    0    0 -0.63276960921E-02 -0.99615749646E-02  0.20661011572E-01  0.23793909153E-01  0.00000000000E+00 0.  1.
     999901    1    3    3    0    0 -0.10615325804E+00  0.73219005511E-01 -0.22242923311E-01  0.88967650559E+00  0.88000000000E+00 0.  1.
        -11    1    4    4    0    0  0.48733860876E-01 -0.37472269855E-01  0.44101395938E-02  0.61634979161E-01  0.51100000000E-03 0.  1.
         11    1    4    4    0    0  0.63747093256E-01 -0.25785160692E-01 -0.28282278550E-02  0.68824606097E-01  0.51100000000E-03 0. -1.
</event>
<event>
 8    1  0.1074844E+005  0.1043930E+01  0.7957747E-01            NaN
         13   -1    0    0    0    0  0.00000000000E+00  0.00000000000E+00  0.74505805969E-08  0.10566000000E+00  0.10566000000E+00 0.  1.
     999900   -1    0    0    0    0 -0.00000000000E+00 -0.00000000000E+00 -0.74505805969E-08  0.93827000000E+00  0.93827000000E+00 0.  1.
     999902    2    1    2    0    0  0.15791841566E-02 -0.53153455964E-02 -0.23108953273E-01  0.10201651006E+01  0.10198882596E+01 0.  0.
     999903    2    3    3    0    0  0.26573205266E-01 -0.44257222110E-01  0.11541429207E+00  0.12812818415E+00  0.20773440070E-01 0.  0.
         14    1    1    2    0    0 -0.15791841566E-02  0.53153455964E-02  0.23108953273E-01  0.23764899385E-01  0.00000000000E+00 0.  1.
     999901    1    3    3    0    0 -0.24994021110E-01  0.38941876514E-01 -0.13852324534E+00  0.89203691647E+00  0.88000000000E+00 0.  1.
        -11    1    4    4    0    0  0.22559365931E-01 -0.35502895006E-01  0.10818280243E+00  0.11607394370E+00  0.51100000000E-03 0. -1.
         11    1    4    4    0    0  0.40138393353E-02 -0.87543271043E-02  0.72314896427E-02  0.12054240445E-01  0.51100000000E-03 0.  1.
</event>
<event>
 8    1  0.1074844E+005  0.1043930E+01  0.7957747E-01            NaN
         13   -1    0    0    0    0  0.00000000000E+00  0.00000000000E+00  0.74505805969E-08  0.10566000000E+00  0.10566000000E+00 0. -1.
     999900   -1    0    0    0    0 -0.00000000000E+00 -0.00000000000E+00 -0.74505805969E-08  0.93827000000E+00  0.93827000000E+00 0. -1.
     999902    2    1    2    0    0 -0.10576049227E-01 -0.70358149574E-02 -0.20118561793E-01  0.10201368910E+01  0.10198593845E+01 0.  0.
     999903    2    3    3    0    0  0.12525648974E+00 -0.22097718704E-01  0.71721584967E-02  0.12916993141E+00  0.21352609401E-01 0.  0.
         14    1    1    2    0    0  0.10576049227E-01  0.70358149574E-02  0.20118561793E-01  0.23793109044E-01  0.00000000000E+00 0. -1.
     999901    1    3    3    0    0 -0.13583253897E+00  0.15061903747E-01 -0.27290720290E-01  0.89096695955E+00  0.88000000000E+00 0. -1.
        -11    1    4    4    0    0  0.33328855487E-01 -0.15574995560E-01  0.30333910040E-02  0.36916875230E-01  0.51100000000E-03 0. -1.
         11    1    4    4    0    0  0.91927634256E-01 -0.65227231439E-02  0.41387674927E-02  0.92253056180E-01  0.51100000000E-03 0.  1.
</event>
<event>
 8    1  0.1074844E+005  0.1043930E+01  0.7957747E-01            NaN
         13   -1    0    0    0    0  0.00000000000E+00  0.00000000000E+00  0.74505805969E-08  0.10566000000E+00  0.10566000000E+00 0. -1.
     999900   -1    0    0    0    0 -0.00000000000E+00 -0.00000000000E+00 -0.74505805969E-08  0.93827000000E+00  0.93827000000E+00 0. -1.
     999902    2    1    2    0    0  0.46460382383E-02  0.47688484572E-02 -0.22910319795E-01  0.10200718706E+01  0.10197928274E+01 0.  0.
     999903    2    3    3    0    0 -0.51882999637E-03  0.93693678235E-01 -0.92026372473E-01  0.13287892089E+00  0.20228194712E-01 0.  0.
         14    1    1    2    0    0 -0.46460382383E-02 -0.47688484572E-02  0.22910319795E-01  0.23858129432E-01  0.00000000000E+00 0. -1.
     999901    1    3    3    0    0  0.51648682347E-02 -0.88924829778E-01  0.69116052678E-01  0.88719294967E+00  0.88000000000E+00 0.  1.
        -11    1    4    4    0    0  0.71788132184E-02  0.42919939170E-01 -0.32853604842E-01  0.54527763659E-01  0.51100000000E-03 0.  1.
         11    1    4    4    0    0 -0.76976432148E-02  0.50773739065E-01 -0.59172767631E-01  0.78351157234E-01  0.51100000000E-03 0. -1.
</event>
<event>
 8    1  0.1074844E+005  0.1043930E+01  0.7957747E-01            NaN
         13   -1    0    0    0    0  0.00000000000E+00  0.00000000000E+00  0.74505805969E-08  0.10566000000E+00  0.10566000000E+00 0.  1.
     999900   -1    0    0    0    0 -0.00000000000E+00 -0.00000000000E+00 -0.74505805969E-08  0.93827000000E+00  0.93827000000E+00 0. -1.
     999902    2    1    2    0    0  0.84514924424E-02 -0.21951003836E-01 -0.48797461072E-02  0.10199073812E+01  0.10196244308E+01 0.  0.
     999903    2    3    3    0    0  0.38291212794E-02  0.46770553512E-01  0.11805867862E+00  0.12869591634E+00  0.20558220716E-01 0.  0.
         14    1    1    2    0    0 -0.84514924424E-02  0.21951003836E-01  0.48797461072E-02  0.24022618841E-01  0.00000000000E+00 0. -1.
     999901    1    3    3    0    0  0.46223711630E-02 -0.68721557348E-01 -0.12293842472E+00  0.89121146482E+00  0.88000000000E+00 0. -1.
        -11    1    4    4    0    0 -0.59248127454E-02  0.13129935009E-01  0.51536272479E-01  0.53513989773E-01  0.51100000000E-03 0.  1.
         11    1    4    4    0    0  0.97539340248E-02  0.33640618503E-01  0.66522406138E-01  0.75181926562E-01  0.51100000000E-03 0. -1.
</event>
<event>
 8    1  0.1074844E+005  0.1043930E+01  0.7957747E-01            NaN
         13   -1    0    0    0    0  0.00000000000E+00  0.00000000000E+00  0.74505805969E-08  0.10566000000E+00  0.10566000000E+00 0.  1.
     999900   -1    0    0    0    0 -0.00000000000E+00 -0.00000000000E+00 -0.74505805969E-08  0.93827000000E+00  0.93827000000E+00 0.  1.
     999902    2    1    2    0    0 -0.73312541130E-02  0.12558331091E-01 -0.28906542684E-01  0.10115718916E+01  0.10110542245E+01 0.  0.
     999903    2    3    3    0    0  0.87831357166E-01 -0.35615125019E-01 -0.77677357084E-01  0.12379083936E+00  0.17538975827E-01 0.  0.
         14    1    1    2    0    0  0.73312541130E-02 -0.12558331091E-01  0.28906542684E-01  0.32358108359E-01  0.00000000000E+00 0.  1.
     999901    1    3    3    0    0 -0.95162611279E-01  0.48173456110E-01  0.48770814401E-01  0.88778105229E+00  0.88000000000E+00 0. -1.
        -11    1    4    4    0    0  0.44889916312E-01 -0.26845412378E-01 -0.46672238536E-01  0.70102351767E-01  0.51100000000E-03 0.  1.
         11    1    4    4    0    0  0.42941440854E-01 -0.87697126409E-02 -0.31005118548E-01  0.53688487589E-01  0.51100000000E-03 0. -1.
</event>
<event>
 8    1  0.1074844E+005  0.1043930E+01  0.7957747E-01            NaN
         13   -1    0    0    0    0  0.00000000000E+00  0.00000000000E+00  0.74505805969E-08  0.10566000000E+00  0.10566000000E+00 0.  1.
     999900   -1    0    0    0    0 -0.00000000000E+00 -0.00000000000E+00 -0.74505805969E-08  0.93827000000E+00  0.93827000000E+00 0. -1.
     999902    2    1    2    0    0 -0.21584279785E-01  0.73205100758E-02  0.53935030823E-02  0.10205086235E+01  0.10202398197E+01 0.  0.
     999903    2    3    3    0    0 -0.12261725513E+00 -0.30793653151E-01 -0.35749803464E-01  0.13295404872E+00  0.20383578992E-01 0.  0.
         14    1    1    2    0    0  0.21584279785E-01 -0.73205100758E-02 -0.53935030823E-02  0.23421376499E-01  0.00000000000E+00 0.  1.
     999901    1    3    3    0    0  0.10103297535E+00  0.38114163226E-01  0.41143306546E-01  0.88755457478E+00  0.88000000000E+00 0.  1.
        -11    1    4    4    0    0 -0.63469371555E-01 -0.91493002265E-02 -0.26090774827E-01  0.69231932461E-01  0.51100000000E-03 0.  1.
         11    1    4    4    0    0 -0.59147883576E-01 -0.21644352924E-01 -0.96590286366E-02  0.63722116256E-01  0.51100000000E-03 0. -1.
</event>
<event>
 8    1  0.1074844E+005  0.1043930E+01  0.7957747E-01            NaN
         13   -1    0    0    0    0  0.00000000000E+00  0.00000000000E+00  0.74505805969E-08  0.10566000000E+00  0.10566000000E+00 0. -1.
     999900   -1    0    0    0    0 -0.00000000000E+00 -0.00000000000E+00 -0.74505805969E-08  0.93827000000E+00  0.93827000000E+00 0.  1.
     999902    2    1    2    0    0  0.17842974969E-01  0.13717615296E-01  0.94508751394E-02  0.10195196791E+01  0.10192274095E+01 0.  0.
     999903    2    3    3    0    0 -0.21128779668E-01  0.94305463255E-01 -0.84575201209E-01  0.12999502969E+00  0.20144412455E-01 0.  0.
         14    1    1    2    0    0 -0.17842974969E-01 -0.13717615296E-01 -0.94508751394E-02  0.24410320892E-01  0.00000000000E+00 0.  1.
     999901    1    3    3    0    0  0.38971754637E-01 -0.80587847960E-01  0.94026076349E-01  0.88952464942E+00  0.88000000000E+00 0. -1.
        -11    1    4    4    0    0 -0.80988050608E-02  0.72013147319E-01 -0.67494066762E-01  0.99031278894E-01  0.51100000000E-03 0. -1.
         11    1    4    4    0    0 -0.13029974608E-01  0.22292315936E-01 -0.17081134447E-01  0.30963750791E-01  0.51100000000E-03 0.  1.
</event>
<event>
 8    1  0.1074844E+005  0.1043930E+01  0.7957747E-01            NaN
         13   -1    0    0    0    0  0.00000000000E+00  0.00000000000E+00  0.74505805969E-08  0.10566000000E+00  0.10566000000E+00 0. -1.
     999900   -1    0    0    0    0 -0.00000000000E+00 -0.00000000000E+00 -0.74505805969E-08  0.93827000000E+00  0.93827000000E+00 0.  1.
     999902    2    1    2    0    0 -0.18779171153E-01 -0.96691728271E-02  0.91046585598E-02  0.10209290222E+01  0.10206698895E+01 0.  0.
     999903    2    3    3    0    0 -0.54357912767E-01  0.87262753887E-01  0.80659052792E-01  0.13200738527E+00  0.18721540302E-01 0.  0.
         14    1    1    2    0    0  0.18779171153E-01  0.96691728271E-02 -0.91046585598E-02  0.23000977802E-01  0.00000000000E+00 0.  1.
     999901    1    3    3    0    0  0.35578741614E-01 -0.96931926715E-01 -0.71554394232E-01  0.88892163693E+00  0.88000000000E+00 0.  1.
        -11    1    4    4    0    0 -0.23307469044E-01  0.21244310717E-01  0.24130597031E-01  0.39712789944E-01  0.51100000000E-03 0. -1.
         11    1    4    4    0    0 -0.31050443723E-01  0.66018443171E-01  0.56528455760E-01  0.92294595322E-01  0.51100000000E-03 0.  1.
</event>
<event>
 8    1  0.1074844E+005  0.1043930E+01  0.7957747E-01            NaN
         13   -1    0    0    0    0  0.00000000000E+00  0.00000000000E+00  0.74505805969E-08  0.10566000000E+00  0.10566000000E+00 0. -1.
     999900   -1    0    0    0    0 -0.00000000000E+00 -0.00000000000E+00 -0.74505805969E-08  0.93827000000E+00  0.93827000000E+00 0.  1.
     999902    2    1    2    0    0 -0.18424101575E-01  0.13786389968E-01 -0.52033137695E-02  0.10203379136E+01  0.10200651309E+01 0.  0.
     999903    2    3    3    0    0  0.74275048859E-01  0.12885525068E-01  0.10202885590E+00  0.12899472364E+00  0.23386569918E-01 0.  0.
         14    1    1    2    0    0  0.18424101575E-01 -0.13786389968E-01  0.52033137695E-02  0.23592086415E-01  0.00000000000E+00 0.  1.
     999901    1    3    3    0    0 -0.92699150434E-01  0.90086489973E-03 -0.10723216967E+00  0.89134318994E+00  0.88000000000E+00 0.  1.
        -11    1    4    4    0    0  0.21718042510E-01  0.46253231651E-02  0.49373742277E-01  0.54139583784E-01  0.51100000000E-03 0.  1.
         11    1    4    4    0    0  0.52557006349E-01  0.82602019034E-02  0.52655113618E-01  0.74855139857E-01  0.51100000000E-03 0. -1.
</event>
<event>
 8    1  0.1074844E+005  0.1043930E+01  0.7957747E-01            NaN
         13   -1    0    0    0    0  0.00000000000E+00  0.00000000000E+00  0.74505805969E-08  0.10566000000E+00  0.10566000000E+00 0. -1.
     999900   -1    0    0    0    0 -0.00000000000E+00 -0.00000000000E+00 -0.74505805969E-08  0.93827000000E+00  0.93827000000E+00 0. -1.
     999902    2    1    2    0    0 -0.12061132535E-01 -0.93436233534E-03 -0.15501874471E-01  0.10242665297E+01  0.10240777665E+01 0.  0.
     999903    2    3    3    0    0  0.30452930427E-01  0.64388539692E-01 -0.11268877844E+00  0.13549219314E+00  0.24209679897E-01 0.  0.
         14    1    1    2    0    0  0.12061132535E-01  0.93436233534E-03  0.15501874471E-01  0.19663470271E-01  0.00000000000E+00 0. -1.
     999901    1    3    3    0    0 -0.42514062962E-01 -0.65322902027E-01  0.97186903966E-01  0.88877433659E+00  0.88000000000E+00 0.  1.
        -11    1    4    4    0    0  0.13097160453E-01  0.21306437539E-01 -0.20809964311E-01  0.32539447263E-01  0.51100000000E-03 0. -1.
         11    1    4    4    0    0  0.17355769975E-01  0.43082102153E-01 -0.91878814126E-01  0.10295274588E+00  0.51100000000E-03 0.  1.
</event>
<event>
 8    1  0.1074844E+005  0.1043930E+01  0.7957747E-01            NaN
         13   -1    0    0    0    0  0.00000000000E+00  0.00000000000E+00  0.74505805969E-08  0.10566000000E+00  0.10566000000E+00 0. -1.
     999900   -1    0    0    0    0 -0.00000000000E+00 -0.00000000000E+00 -0.74505805969E-08  0.93827000000E+00  0.93827000000E+00 0. -1.
     999902    2    1    2    0    0 -0.13387005998E-01 -0.18827225840E-01  0.14842917609E-02  0.10207809291E+01  0.10205184103E+01 0.  0.
     999903    2    3    3    0    0 -0.22294459903E-01  0.10866402856E+00 -0.63260502653E-01  0.12919512217E+00  0.19610567302E-01 0.  0.
         14    1    1    2    0    0  0.13387005998E-01  0.18827225840E-01 -0.14842917609E-02  0.23149070920E-01  0.00000000000E+00 0. -1.
     999901    1    3    3    0    0  0.89074539050E-02 -0.12749125440E+00  0.64744794414E-01  0.89158580691E+00  0.88000000000E+00 0.  1.
        -11    1    4    4    0    0 -0.13604403925E-01  0.24448698999E-01 -0.15751878396E-01  0.32112326028E-01  0.51100000000E-03 0.  1.
         11    1    4    4    0    0 -0.86900559783E-02  0.84215329565E-01 -0.47508624257E-01  0.97082796140E-01  0.51100000000E-03 0. -1.
</event>
<event>
 8    1  0.1074844E+005  0.1043930E+01  0.7957747E-01            NaN
         13   -1    0    0    0    0  0.00000000000E+00  0.00000000000E+00  0.74505805969E-08  0.10566000000E+00  0.10566000000E+00 0.  1.
     999900   -1    0    0    0    0 -0.00000000000E+00 -0.00000000000E+00 -0.74505805969E-08  0.93827000000E+00  0.93827000000E+00 0. -1.
     999902    2    1    2    0    0  0.20140945799E-01 -0.10565855906E-01  0.95835868669E-02  0.10192492353E+01  0.10189503734E+01 0.  0.
     999903    2    3    3    0    0  0.33917616152E-01 -0.12234669565E+00 -0.27213525140E-01  0.13130848265E+00  0.19550525362E-01 0.  0.
         14    1    1    2    0    0 -0.20140945799E-01  0.10565855906E-01 -0.95835868669E-02  0.24680764695E-01  0.00000000000E+00 0. -1.
     999901    1    3    3    0    0 -0.13776670353E-01  0.11178083975E+00  0.36797112007E-01  0.88794075266E+00  0.88000000000E+00 0.  1.
        -11    1    4    4    0    0  0.23557088500E-01 -0.76459659395E-01 -0.26418634588E-01  0.84256876918E-01  0.51100000000E-03 0. -1.
         11    1    4    4    0    0  0.10360527652E-01 -0.45887036256E-01 -0.79489055256E-03  0.47051605728E-01  0.51100000000E-03 0.  1.
</event>
<event>
 8    1  0.1074844E+005  0.1043930E+01  0.7957747E-01            NaN
         13   -1    0    0    0    0  0.00000000000E+00  0.00000000000E+00  0.74505805969E-08  0.10566000000E+00  0.10566000000E+00 0.  1.
     999900   -1    0    0    0    0 -0.00000000000E+00 -0.00000000000E+00 -0.74505805969E-08  0.93827000000E+00  0.93827000000E+00 0. -1.
     999902    2    1    2    0    0 -0.81685929774E-03  0.23732793850E-01  0.30323369099E-02  0.10199903294E+01  0.10197093528E+01 0.  0.
     999903    2    3    3    0    0  0.76364685947E-01 -0.98413034807E-01  0.20875330507E-01  0.12802902594E+00  0.20951405195E-01 0.  0.
         14    1    1    2    0    0  0.81685929774E-03 -0.23732793850E-01 -0.30323369099E-02  0.23939670636E-01  0.00000000000E+00 0. -1.
     999901    1    3    3    0    0 -0.77181545245E-01  0.12214582866E+00 -0.17842993597E-01  0.89196130342E+00  0.88000000000E+00 0.  1.
        -11    1    4    4    0    0  0.37374633591E-01 -0.59323598116E-01  0.19585011927E-01  0.72801005094E-01  0.51100000000E-03 0. -1.
         11    1    4    4    0    0  0.38990052356E-01 -0.39089436691E-01  0.12903185802E-02  0.55228020846E-01  0.51100000000E-03 0.  1.
</event>
<event>
 8    1  0.1074844E+005  0.1043930E+01  0.7957747E-01            NaN
         13   -1    0    0    0    0  0.00000000000E+00  0.00000000000E+00  0.74505805969E-08  0.10566000000E+00  0.10566000000E+00 0. -1.
     999900   -1    0    0    0    0 -0.00000000000E+00 -0.00000000000E+00 -0.74505805969E-08  0.93827000000E+00  0.93827000000E+00 0. -1.
     999902    2    1    2    0    0 -0.89603846313E-02  0.90609214752E-02 -0.18902213158E-01  0.10211334552E+01  0.10208789600E+01 0.  0.
     999903    2    3    3    0    0 -0.25569078053E-01 -0.57340239341E-01  0.11073812336E+00  0.12900589726E+00  0.20926269675E-01 0.  0.
         14    1    1    2    0    0  0.89603846313E-02 -0.90609214752E-02  0.18902213158E-01  0.22796544760E-01  0.00000000000E+00 0. -1.
     999901    1    3    3    0    0  0.16608693422E-01  0.66401160817E-01 -0.12964033652E+00  0.89212755798E+00  0.88000000000E+00 0. -1.
        -11    1    4    4    0    0 -0.56885597045E-02 -0.45569015975E-02  0.41237306189E-02  0.83899546422E-02  0.51100000000E-03 0. -1.
         11    1    4    4    0    0 -0.19880518348E-01 -0.52783337744E-01  0.10661439274E+00  0.12061594262E+00  0.51100000000E-03 0.  1.
</event>
<event>
 8    1  0.1074844E+005  0.1043930E+01  0.7957747E-01            NaN
         13   -1    0    0    0    0  0.00000000000E+00  0.00000000000E+00  0.74505805969E-08  0.10566000000E+00  0.10566000000E+00 0. -1.
     999900   -1    0    0    0    0 -0.00000000000E+00 -0.00000000000E+00 -0.74505805969E-08  0.93827000000E+00  0.93827000000E+00 0. -1.
     999902    2    1    2    0    0 -0.20944040467E-01 -0.77633087712E-02  0.63704088276E-02  0.10207027767E+01  0.10204384619E+01 0.  0.
     999903    2    3    3    0    0 -0.10666089517E+00  0.44541694761E-01 -0.61114709495E-01  0.13242498581E+00  0.20996666860E-01 0.  0.
         14    1    1    2    0    0  0.20944040467E-01  0.77633087712E-02 -0.63704088276E-02  0.23227223313E-01  0.00000000000E+00 0. -1.
     999901    1    3    3    0    0  0.85716854702E-01 -0.52305003532E-01  0.67485118323E-01  0.88827779088E+00  0.88000000000E+00 0.  1.
        -11    1    4    4    0    0 -0.53053188400E-01  0.15544977875E-01 -0.19502543340E-01  0.58625058246E-01  0.51100000000E-03 0. -1.
         11    1    4    4    0    0 -0.53607706769E-01  0.28996716885E-01 -0.41612166155E-01  0.73799927562E-01  0.51100000000E-03 0.  1.
</event>
<event>
 8    1  0.1074844E+005  0.1043930E+01  0.7957747E-01            NaN
         13   -1    0    0    0    0  0.00000000000E+00  0.00000000000E+00  0.74505805969E-08  0.10566000000E+00  0.10566000000E+00 0.  1.
     999900   -1    0    0    0    0 -0.00000000000E+00 -0.00000000000E+00 -0.74505805969E-08  0.93827000000E+00  0.93827000000E+00 0.  1.
     999902    2    1    2    0    0 -0.20581979431E-01  0.11472603280E-01  0.74012302092E-02  0.10192314836E+01  0.10189321864E+01 0.  0.
     999903    2    3    3    0    0 -0.19434736195E-02 -0.68432491476E-01 -0.10639834937E+00  0.12811838059E+00  0.20172449437E-01 0.  0.
         14    1    1    2    0    0  0.20581979431E-01 -0.11472603280E-01 -0.74012302092E-02  0.24698516391E-01  0.00000000000E+00 0. -1.
     999901    1    3    3    0    0 -0.18638505811E-01  0.79905094757E-01  0.11379957958E+00  0.89111310302E+00  0.88000000000E+00 0. -1.
        -11    1    4    4    0    0 -0.79421298748E-03 -0.48185399371E-02 -0.21329437992E-01  0.21887328467E-01  0.51100000000E-03 0.  1.
         11    1    4    4    0    0 -0.11492606321E-02 -0.63613951539E-01 -0.85068911377E-01  0.10623105212E+00  0.51100000000E-03 0. -1.
</event>
<event>
 8    1  0.1074844E+005  0.1043930E+01  0.7957747E-01            NaN
         13   -1    0    0    0    0  0.00000000000E+00  0.00000000000E+00  0.74505805969E-08  0.10566000000E+00  0.10566000000E+00 0. -1.
     999900   -1    0    0    0    0 -0.00000000000E+00 -0.00000000000E+00 -0.74505805969E-08  0.93827000000E+00  0.93827000000E+00 0. -1.
     999902    2    1    2    0    0 -0.13665001164E-01 -0.18284253426E-01  0.56577321979E-02  0.10204128549E+01  0.10201418227E+01 0.  0.
     999903    2    3    3    0    0 -0.78188683879E-01 -0.10599544117E+00 -0.37198937153E-02  0.13365217808E+00  0.22373271116E-01 0.  0.
         14    1    1    2    0    0  0.13665001164E-01  0.18284253426E-01 -0.56577321979E-02  0.23517145103E-01  0.00000000000E+00 0. -1.
     999901    1    3    3    0    0  0.64523682715E-01  0.87711187742E-01  0.93776259132E-02  0.88676067682E+00  0.88000000000E+00 0.  1.
        -11    1    4    4    0    0 -0.61976365774E-01 -0.67987325467E-01  0.14228625568E-02  0.92008869125E-01  0.51100000000E-03 0.  1.
         11    1    4    4    0    0 -0.16212318105E-01 -0.38008115701E-01 -0.51427562722E-02  0.41643308953E-01  0.51100000000E-03 0. -1.
</event>
<event>
 8    1  0.1074844E+005  0.1043930E+01  0.7957747E-01            NaN
         13   -1    0    0    0    0  0.00000000000E+00  0.00000000000E+00  0.74505805969E-08  0.10566000000E+00  0.10566000000E+00 0.  1.
     999900   -1    0    0    0    0 -0.00000000000E+00 -0.00000000000E+00 -0.74505805969E-08  0.93827000000E+00  0.93827000000E+00 0.  1.
     999902    2    1    2    0    0 -0.53584017778E-02  0.21326126335E-01 -0.84409919010E-02  0.10203765188E+01  0.10201046385E+01 0.  0.
     999903    2    3    3    0    0  0.68522846034E-01  0.51136462900E-02 -0.11007657620E+00  0.13130336357E+00  0.20054696482E-01 0.  0.
         14    1    1    2    0    0  0.53584017778E-02 -0.21326126335E-01  0.84409919010E-02  0.23553481236E-01  0.00000000000E+00 0.  1.
     999901    1    3    3    0    0 -0.73881247811E-01  0.16212480044E-01  0.10163558430E+00  0.88907315519E+00  0.88000000000E+00 0. -1.
        -11    1    4    4    0    0  0.23816671825E-01 -0.47099638771E-02 -0.51705902068E-01  0.57124242194E-01  0.51100000000E-03 0. -1.
         11    1    4    4    0    0  0.44706174208E-01  0.98236101671E-02 -0.58370674130E-01  0.74179121378E-01  0.51100000000E-03 0.  1.
</event>
<event>
 8    1  0.1074844E+005  0.1043930E+01  0.7957747E-01            NaN
         13   -1    0    0    0    0  0.00000000000E+00  0.00000000000E+00  0.74505805969E-08  0.10566000000E+00  0.10566000000E+00 0. -1.
     999900   -1    0    0    0    0 -0.00000000000E+00 -0.00000000000E+00 -0.74505805969E-08  0.93827000000E+00  0.93827000000E+00 0. -1.
     999902    2    1    2    0    0 -0.33389320185E-04  0.58823184260E-02 -0.23138680828E-01  0.10200552993E+01  0.10197758637E+01 0.  0.
     999903    2    3    3    0    0  0.11432935931E+00  0.32774335086E-01 -0.52340645650E-01  0.13176774808E+00  0.21859478617E-01 0.  0.
         14    1    1    2    0    0  0.33389320185E-04 -0.58823184260E-02  0.23138680828E-01  0.23874700739E-01  0.00000000000E+00 0. -1.
     999901    1    3    3    0    0 -0.11436274863E+00 -0.26892016660E-01  0.29201964821E-01  0.88828755118E+00  0.88000000000E+00 0.  1.
        -11    1    4    4    0    0  0.18346651300E-01  0.14084348379E-01 -0.95637972515E-02  0.25033893466E-01  0.51100000000E-03 0. -1.
         11    1    4    4    0    0  0.95982708013E-01  0.18689986707E-01 -0.42776848398E-01  0.10673385461E+00  0.51100000000E-03 0.  1.
</event>
<event>
 8    1  0.1074844E+005  0.1043930E+01  0.7957747E-01            NaN
         13   -1    0    0    0    0  0.00000000000E+00  0.00000000000E+00  0.74505805969E-08  0.10566000000E+00  0.10566000000E+00 0. -1.
     999900   -1    0    0    0    0 -0.00000000000E+00 -0.00000000000E+00 -0.74505805969E-08  0.93827000000E+00  0.93827000000E+00 0.  1.
     999902    2    1    2    0    0 -0.52863163042E-02  0.22996026664E-01  0.49608788820E-02  0.10198183285E+01  0.10195332513E+01 0.  0.
     999903    2    3    3    0    0  0.10448961261E+00 -0.14610287994E-01 -0.71594064166E-01  0.12890551080E+00  0.18957347681E-01 0.  0.
         14    1    1    2    0    0  0.52863163042E-02 -0.22996026664E-01 -0.49608788820E-02  0.24111671483E-01  0.00000000000E+00 0.  1.
     999901    1    3    3    0    0 -0.10977592892E+00  0.37606314658E-01  0.76554943048E-01  0.89091281772E+00  0.88000000000E+00 0. -1.
        -11    1    4    4    0    0  0.75058923624E-01 -0.14642657164E-01 -0.42376794831E-01  0.87431706409E-01  0.51100000000E-03 0.  1.
         11    1    4    4    0    0  0.29430688988E-01  0.32369169893E-04 -0.29217269335E-01  0.41473804389E-01  0.51100000000E-03 0. -1.
</event>
<event>
 8    1  0.1074844E+005  0.1043930E+01  0.7957747E-01            NaN
         13   -1    0    0    0    0  0.00000000000E+00  0.00000000000E+00  0.74505805969E-08  0.10566000000E+00  0.10566000000E+00 0. -1.
     999900   -1    0    0    0    0 -0.00000000000E+00 -0.00000000000E+00 -0.74505805969E-08  0.93827000000E+00  0.93827000000E+00 0. -1.
     999902    2    1    2    0    0  0.13492088565E-01 -0.97237834395E-02 -0.17101678444E-01  0.10200751090E+01  0.10197961425E+01 0.  0.
     999903    2    3    3    0    0  0.92581708062E-01  0.80717476143E-01 -0.42592944922E-01  0.13154565311E+00  0.20085225230E-01 0.  0.
         14    1    1    2    0    0 -0.13492088565E-01  0.97237834395E-02  0.17101678444E-01  0.23854890984E-01  0.00000000000E+00 0. -1.
     999901    1    3    3    0    0 -0.79089619497E-01 -0.90441259582E-01  0.25491266477E-01  0.88852945591E+00  0.88000000000E+00 0.  1.
        -11    1    4    4    0    0  0.31147477883E-01  0.39820107256E-01 -0.19882030070E-01  0.54326444400E-01  0.51100000000E-03 0. -1.
         11    1    4    4    0    0  0.61434230179E-01  0.40897368886E-01 -0.22710914851E-01  0.77219208710E-01  0.51100000000E-03 0.  1.
</event>
<event>
 8    1  0.1074844E+005  0.1043930E+01  0.7957747E-01            NaN
         13   -1    0    0    0    0  0.00000000000E+00  0.00000000000E+00  0.74505805969E-08  0.10566000000E+00  0.10566000000E+00 0.  1.
     999900   -1    0    0    0    0 -0.00000000000E+00 -0.00000000000E+00 -0.74505805969E-08  0.93827000000E+00  0.93827000000E+00 0.  1.
     999902    2    1    2    0    0  0.13776575123E-01  0.35042367496E-02  0.18574303858E-01  0.10205402916E+01  0.10202722226E+01 0.  0.
     999903    2    3    3    0    0  0.16540923525E-02  0.12595900812E+00  0.33501073816E-01  0.13185309457E+00  0.19862246932E-01 0.  0.
         14    1    1    2    0    0 -0.13776575123E-01 -0.35042367496E-02 -0.18574303858E-01  0.23389708444E-01  0.00000000000E+00 0. -1.
     999901    1    3    3    0    0  0.12122482771E-01 -0.12245477137E+00 -0.14926769958E-01  0.88868719698E+00  0.88000000000E+00 0. -1.
        -11    1    4    4    0    0  0.44127613709E-02  0.53641382423E-01  0.49473370033E-02  0.54051897613E-01  0.51100000000E-03 0. -1.
         11    1    4    4    0    0 -0.27586690184E-02  0.72317625699E-01  0.28553736812E-01  0.77801196960E-01  0.51100000000E-03 0.  1.
</event>
<event>
 8    1  0.1074844E+005  0.1043930E+01  0.7957747E-01            NaN
         13   -1    0    0    0    0  0.00000000000E+00  0.00000000000E+00  0.74505805969E-08  0.10566000000E+00  0.10566000000E+00 0. -1.
     999900   -1    0    0    0    0 -0.00000000000E+00 -0.00000000000E+00 -0.74505805969E-08  0.93827000000E+00  0.93827000000E+00 0. -1.
     999902    2    1    2    0    0  0.49640392817E-02  0.10089260607E-01  0.21543848856E-01  0.10196283069E+01  0.10193386640E+01 0.  0.
     999903    2    3    3    0    0  0.11107364217E+00 -0.88416199717E-02  0.67010371566E-01  0.13188688576E+00  0.22095983980E-01 0.  0.
         14    1    1    2    0    0 -0.49640392817E-02 -0.10089260607E-01 -0.21543848856E-01  0.24301693133E-01  0.00000000000E+00 0.  1.
     999901    1    3    3    0    0 -0.10610960289E+00  0.18930880578E-01 -0.45466522710E-01  0.88774142111E+00  0.88000000000E+00 0. -1.
        -11    1    4    4    0    0  0.24062881871E-01 -0.90667004373E-02  0.87341282171E-02  0.27161985522E-01  0.51100000000E-03 0.  1.
         11    1    4    4    0    0  0.87010760303E-01  0.22508046562E-03  0.58276243349E-01  0.10472490024E+00  0.51100000000E-03 0. -1.
</event>
<event>
 8    1  0.1074844E+005  0.1043930E+01  0.7957747E-01            NaN
         13   -1    0    0    0    0  0.00000000000E+00  0.00000000000E+00  0.74505805969E-08  0.10566000000E+00  0.10566000000E+00 0.  1.
     999900   -1    0    0    0    0 -0.00000000000E+00 -0.00000000000E+00 -0.74505805969E-08  0.93827000000E+00  0.93827000000E+00 0.  1.
     999902    2    1    2    0    0  0.90890655603E-02  0.22051715496E-01  0.20680599599E-02  0.10199891115E+01  0.10197081060E+01 0.  0.
     999903    2    3    3    0    0  0.83528201435E-01 -0.92535934409E-01  0.26288666470E-01  0.12911417516E+00  0.20964652405E-01 0.  0.
         14    1    1    2    0    0 -0.90890655603E-02 -0.22051715496E-01 -0.20680599599E-02  0.23940888477E-01  0.00000000000E+00 0. -1.
     999901    1    3    3    0    0 -0.74439135875E-01  0.11458764990E+00 -0.24220606510E-01  0.89087493636E+00  0.88000000000E+00 0.  1.
        -11    1    4    4    0    0  0.46353749586E-01 -0.62203868087E-01  0.23469560978E-01  0.81049816281E-01  0.51100000000E-03 0.  1.
         11    1    4    4    0    0  0.37174451849E-01 -0.30332066322E-01  0.28191054917E-02  0.48064358879E-01  0.51100000000E-03 0. -1.
</event>
<event>
 8    1  0.1074844E+005  0.1043930E+01  0.7957747E-01            NaN
         13   -1    0    0    0    0  0.00000000000E+00  0.00000000000E+00  0.74505805969E-08  0.10566000000E+00  0.10566000000E+00 0. -1.
     999900   -1    0    0    0    0 -0.00000000000E+00 -0.00000000000E+00 -0.74505805969E-08  0.93827000000E+00  0.93827000000E+00 0. -1.
     999902    2    1    2    0    0  0.13456423600E-02 -0.13306683999E-01 -0.19723257876E-01  0.10200996518E+01  0.10198212658E+01 0.  0.
     999903    2    3    3    0    0  0.63858759153E-01 -0.97805841350E-01  0.55403376719E-01  0.13066611942E+00  0.18978326823E-01 0.  0.
         14    1    1    2    0    0 -0.13456423600E-02  0.13306683999E-01  0.19723257876E-01  0.23830348164E-01  0.00000000000E+00 0. -1.
     999901    1    3    3    0    0 -0.62513116793E-01  0.84499157352E-01 -0.75126634595E-01  0.88943353242E+00  0.88000000000E+00 0. -1.
        -11    1    4    4    0    0  0.18561147904E-01 -0.44307639262E-01  0.26244214924E-01  0.54742150547E-01  0.51100000000E-03 0.  1.
         11    1    4    4    0    0  0.45297611249E-01 -0.53498202088E-01  0.29159161795E-01  0.75923968871E-01  0.51100000000E-03 0. -1.
</event>
<event>
 8    1  0.1074844E+005  0.1043930E+01  0.7957747E-01            NaN
         13   -1    0    0    0    0  0.00000000000E+00  0.00000000000E+00  0.74505805969E-08  0.10566000000E+00  0.10566000000E+00 0. -1.
     999900   -1    0    0    0    0 -0.00000000000E+00 -0.00000000000E+00 -0.74505805969E-08  0.93827000000E+00  0.93827000000E+00 0. -1.
     999902    2    1    2    0    0 -0.15302825194E-01 -0.30958534283E-01  0.74637619229E-02  0.10085984978E+01  0.10079794714E+01 0.  0.
     999903    2    3    3    0    0 -0.19213138867E-01  0.11339797831E+00  0.20056080701E-02  0.11681159238E+00  0.20314513536E-01 0.  0.
         14    1    1    2    0    0  0.15302825194E-01  0.30958534283E-01 -0.74637619229E-02  0.35331502175E-01  0.00000000000E+00 0. -1.
     999901    1    3    3    0    0  0.39103136725E-02 -0.14435651259E+00  0.54581538528E-02  0.89178690545E+00  0.88000000000E+00 0.  1.
        -11    1    4    4    0    0 -0.19391300692E-01  0.10489542521E+00 -0.33885787934E-02  0.10672776752E+00  0.51100000000E-03 0. -1.
         11    1    4    4    0    0  0.17816182524E-03  0.85025531021E-02  0.53941868634E-02  0.10083824860E-01  0.51100000000E-03 0.  1.
</event>
<event>
 8    1  0.1074844E+005  0.1043930E+01  0.7957747E-01            NaN
         13   -1    0    0    0    0  0.00000000000E+00  0.00000000000E+00  0.74505805969E-08  0.10566000000E+00  0.10566000000E+00 0.  1.
     999900   -1    0    0    0    0 -0.00000000000E+00 -0.00000000000E+00 -0.74505805969E-08  0.93827000000E+00  0.93827000000E+00 0. -1.
     999902    2    1    2    0    0 -0.34229823075E-02 -0.22947552447E-01 -0.35385326487E-02  0.10204602709E+01  0.10201903432E+01 0.  0.
     999903    2    3    3    0    0 -0.37319765472E-01 -0.10657725512E+00  0.67266557790E-01  0.13301659385E+00  0.20424207226E-01 0.  0.
         14    1    1    2    0    0  0.34229823075E-02  0.22947552447E-01  0.35385326487E-02  0.23469729110E-01  0.00000000000E+00 0. -1.
     999901    1    3    3    0    0  0.33896783164E-01  0.83629702669E-01 -0.70805090438E-01  0.88744367703E+00  0.88000000000E+00 0. -1.
        -11    1    4    4    0    0 -0.34014791002E-01 -0.92415231162E-01  0.50024998945E-01  0.11045516103E+00  0.51100000000E-03 0. -1.
         11    1    4    4    0    0 -0.33049744699E-02 -0.14162023954E-01  0.17241558844E-01  0.22561432825E-01  0.51100000000E-03 0.  1.
</event>
<event>
 8    1  0.1074844E+005  0.1043930E+01  0.7957747E-01            NaN
         13   -1    0    0    0    0  0.00000000000E+00  0.00000000000E+00  0.74505805969E-08  0.10566000000E+00  0.10566000000E+00 0.  1.
     999900   -1    0    0    0    0 -0.00000000000E+00 -0.00000000000E+00 -0.74505805969E-08  0.93827000000E+00  0.93827000000E+00 0.  1.
     999902    2    1    2    0    0  0.13500376635E-01  0.49153016104E-02  0.74155205322E-02  0.10277618120E+01  0.10276346296E+01 0.  0.
     999903    2    3    3    0    0  0.76383585426E-01  0.62620251991E-01  0.95890025240E-01  0.13921699193E+00  0.20753935041E-01 0.  0.
         14    1    1    2    0    0 -0.13500376635E-01 -0.49153016104E-02 -0.74155205322E-02  0.16168188024E-01  0.00000000000E+00 0. -1.
     999901    1    3    3    0    0 -0.62883208791E-01 -0.57704950381E-01 -0.88474504708E-01  0.88854482005E+00  0.88000000000E+00 0. -1.
        -11    1    4    4    0    0  0.54628079737E-01  0.34110134138E-01  0.69019105590E-01  0.94401411028E-01  0.51100000000E-03 0. -1.
         11    1    4    4    0    0  0.21755505689E-01  0.28510117853E-01  0.26870919650E-01  0.44815580903E-01  0.51100000000E-03 0.  1.
</event>
<event>
 8    1  0.1074844E+005  0.1043930E+01  0.7957747E-01            NaN
         13   -1    0    0    0    0  0.00000000000E+00  0.00000000000E+00  0.74505805969E-08  0.10566000000E+00  0.10566000000E+00 0. -1.
     999900   -1    0    0    0    0 -0.00000000000E+00 -0.00000000000E+00 -0.74505805969E-08  0.93827000000E+00  0.93827000000E+00 0. -1.
     999902    2    1    2    0    0  0.20323730330E-01  0.18762214313E-01 -0.96543274887E-02  0.10146335712E+01  0.10142105319E+01 0.  0.
     999903    2    3    3    0    0  0.61665453461E-01 -0.91877730143E-01 -0.55704835667E-01  0.12554921937E+00  0.20382156953E-01 0.  0.
         14    1    1    2    0    0 -0.20323730330E-01 -0.18762214313E-01  0.96543274887E-02  0.29296428787E-01  0.00000000000E+00 0. -1.
     999901    1    3    3    0    0 -0.41341723131E-01  0.11063994446E+00  0.46050508178E-01  0.88908435184E+00  0.88000000000E+00 0.  1.
        -11    1    4    4    0    0  0.25578145639E-01 -0.26420394383E-01 -0.26358123227E-01  0.45246994980E-01  0.51100000000E-03 0.  1.
         11    1    4    4    0    0  0.36087307822E-01 -0.65457335760E-01 -0.29346712440E-01  0.80302224394E-01  0.51100000000E-03 0. -1.
</event>
<event>
 8    1  0.1074844E+005  0.1043930E+01  0.7957747E-01            NaN
         13   -1    0    0    0    0  0.00000000000E+00  0.00000000000E+00  0.74505805969E-08  0.10566000000E+00  0.10566000000E+00 0.  1.
     999900   -1    0    0    0    0 -0.00000000000E+00 -0.00000000000E+00 -0.74505805969E-08  0.93827000000E+00  0.93827000000E+00 0. -1.
     999902    2    1    2    0    0 -0.69016217682E-02 -0.11609925340E-01 -0.21870734436E-01  0.10182249076E+01  0.10179003933E+01 0.  0.
     999903    2    3    3    0    0  0.82440875468E-01 -0.77059894577E-02  0.93242593356E-01  0.12623365163E+00  0.19618189694E-01 0.  0.
         14    1    1    2    0    0  0.69016217682E-02  0.11609925340E-01  0.21870734436E-01  0.25705092379E-01  0.00000000000E+00 0.  1.
     999901    1    3    3    0    0 -0.89342497236E-01 -0.39039358824E-02 -0.11511332779E+00  0.89199125599E+00  0.88000000000E+00 0. -1.
        -11    1    4    4    0    0  0.63036705005E-01 -0.42224479636E-02  0.57582537788E-01  0.85483712038E-01  0.51100000000E-03 0.  1.
         11    1    4    4    0    0  0.19404170463E-01 -0.34835414941E-02  0.35660055568E-01  0.40749939593E-01  0.51100000000E-03 0. -1.
</event>
<event>
 8    1  0.1074844E+005  0.1043930E+01  0.7957747E-01            NaN
         13   -1    0    0    0    0  0.00000000000E+00  0.00000000000E+00  0.74505805969E-08  0.10566000000E+00  0.10566000000E+00 0.  1.
     999900   -1    0    0    0    0 -0.00000000000E+00 -0.00000000000E+00 -0.74505805969E-08  0.93827000000E+00  0.93827000000E+00 0.  1.
     999902    2    1    2    0    0  0.20695886820E-01  0.37207979302E-02  0.45478352233E-02  0.10224161237E+01  0.10221897491E+01 0.  0.
     999903    2    3    3    0    0 -0.12231044488E+00  0.31159347991E-01  0.27363433676E-01  0.13015818090E+00  0.16175433834E-01 0.  0.
         14    1    1    2    0    0 -0.20695886820E-01 -0.37207979302E-02 -0.45478352233E-02  0.21513876307E-01  0.00000000000E+00 0. -1.
     999901    1    3    3    0    0  0.14300633170E+00 -0.27438550061E-01 -0.22815598453E-01  0.89225794279E+00  0.88000000000E+00 0.  1.
        -11    1    4    4    0    0 -0.24267939472E-01  0.10214673172E-02  0.13120489635E-02  0.24330204997E-01  0.51100000000E-03 0. -1.
         11    1    4    4    0    0 -0.98042505409E-01  0.30137880674E-01  0.26051384713E-01  0.10582797591E+00  0.51100000000E-03 0.  1.
</event>
<event>
 8    1  0.1074844E+005  0.1043930E+01  0.7957747E-01            NaN
         13   -1    0    0    0    0  0.00000000000E+00  0.00000000000E+00  0.74505805969E-08  0.10566000000E+00  0.10566000000E+00 0. -1.
     999900   -1    0    0    0    0 -0.00000000000E+00 -0.00000000000E+00 -0.74505805969E-08  0.93827000000E+00  0.93827000000E+00 0. -1.
     999902    2    1    2    0    0 -0.12434453405E-01  0.13863542182E-01 -0.14940995168E-01  0.10200543478E+01  0.10197748897E+01 0.  0.
     999903    2    3    3    0    0 -0.21908476782E-01 -0.11498800472E+00 -0.52057598077E-01  0.12984643920E+00  0.21163215043E-01 0.  0.
         14    1    1    2    0    0  0.12434453405E-01 -0.13863542182E-01  0.14940995168E-01  0.23875652240E-01  0.00000000000E+00 0. -1.
     999901    1    3    3    0    0  0.94740233774E-02  0.12885154690E+00  0.37116602910E-01  0.89020790856E+00  0.88000000000E+00 0.  1.
        -11    1    4    4    0    0 -0.87418662712E-02 -0.89878064319E-01 -0.43440398034E-01  0.10020886175E+00  0.51100000000E-03 0. -1.
         11    1    4    4    0    0 -0.13166610511E-01 -0.25109940397E-01 -0.86172000432E-02  0.29637577443E-01  0.51100000000E-03 0.  1.
</event>
<event>
 8    1  0.1074844E+005  0.1043930E+01  0.7957747E-01            NaN
         13   -1    0    0    0    0  0.00000000000E+00  0.00000000000E+00  0.74505805969E-08  0.10566000000E+00  0.10566000000E+00 0. -1.
     999900   -1    0    0    0    0 -0.00000000000E+00 -0.00000000000E+00 -0.74505805969E-08  0.93827000000E+00  0.93827000000E+00 0. -1.
     999902    2    1    2    0    0  0.16504984073E-01 -0.14674285546E-01 -0.45810334052E-02  0.10213748449E+01  0.10211257703E+01 0.  0.
     999903    2    3    3    0    0  0.63640639074E-01  0.31311805977E-01  0.10917064566E+00  0.13161311549E+00  0.19318958582E-01 0.  0.
         14    1    1    2    0    0 -0.16504984073E-01  0.14674285546E-01  0.45810334052E-02  0.22555155123E-01  0.00000000000E+00 0. -1.
     999901    1    3    3    0    0 -0.47135655001E-01 -0.45986091523E-01 -0.11375167907E+00  0.88976172938E+00  0.88000000000E+00 0. -1.
        -11    1    4    4    0    0  0.19692275515E-01  0.11213930654E-01  0.20190560545E-01  0.30355523580E-01  0.51100000000E-03 0.  1.
         11    1    4    4    0    0  0.43948363558E-01  0.20097875322E-01  0.88980085115E-01  0.10125759191E+00  0.51100000000E-03 0. -1.
</event>
<event>
 8    1  0.1074844E+005  0.1043930E+01  0.7957747E-01            NaN
         13   -1    0    0    0    0  0.00000000000E+00  0.00000000000E+00  0.74505805969E-08  0.10566000000E+00  0.10566000000E+00 0. -1.
     999900   -1    0    0    0    0 -0.00000000000E+00 -0.00000000000E+00 -0.74505805969E-08  0.93827000000E+00  0.93827000000E+00 0.  1.
     999902    2    1    2    0    0  0.56345521865E-02 -0.22195659639E-01  0.41496013855E-02  0.10206573835E+01  0.10203920227E+01 0.  0.
     999903    2    3    3    0    0  0.31964264400E-01  0.74699217455E-01 -0.98372740289E-01  0.12903375134E+00  0.19256834289E-01 0.  0.
         14    1    1    2    0    0 -0.56345521865E-02  0.22195659639E-01 -0.41496013855E-02  0.23272616458E-01  0.00000000000E+00 0.  1.
     999901    1    3    3    0    0 -0.26329712214E-01 -0.96894877093E-01  0.10252234167E+00  0.89162363220E+00  0.88000000000E+00 0. -1.
        -11    1    4    4    0    0  0.23740322459E-01  0.32133788893E-01 -0.42837110164E-01  0.58578685777E-01  0.51100000000E-03 0. -1.
         11    1    4    4    0    0  0.82239419410E-02  0.42565428562E-01 -0.55535630125E-01  0.70455065567E-01  0.51100000000E-03 0.  1.
</event>
<event>
 8    1  0.1074844E+005  0.1043930E+01  0.7957747E-01            NaN
         13   -1    0    0    0    0  0.00000000000E+00  0.00000000000E+00  0.74505805969E-08  0.10566000000E+00  0.10566000000E+00 0. -1.
     999900   -1    0    0    0    0 -0.00000000000E+00 -0.00000000000E+00 -0.74505805969E-08  0.93827000000E+00  0.93827000000E+00 0. -1.
     999902    2    1    2    0    0  0.18541635240E-01 -0.24377952061E-02 -0.13572448781E-01  0.10208227187E+01  0.10205611577E+01 0.  0.
     999903    2    3    3    0    0  0.85977933169E-01 -0.14467516888E-01 -0.99174366268E-01  0.13401943908E+00  0.22894127838E-01 0.  0.
         14    1    1    2    0    0 -0.18541635240E-01  0.24377952061E-02  0.13572448781E-01  0.23107281293E-01  0.00000000000E+00 0. -1.
     999901    1    3    3    0    0 -0.67436297929E-01  0.12029721682E-01  0.85601917487E-01  0.88680327963E+00  0.88000000000E+00 0.  1.
        -11    1    4    4    0    0  0.72922370944E-01 -0.45548109841E-02 -0.86894822618E-01  0.11353144853E+00  0.51100000000E-03 0. -1.
         11    1    4    4    0    0  0.13055562225E-01 -0.99127059044E-02 -0.12279543650E-01  0.20487990546E-01  0.51100000000E-03 0.  1.
</event>
<event>
 8    1  0.1074844E+005  0.1043930E+01  0.7957747E-01            NaN
         13   -1    0    0    0    0  0.00000000000E+00  0.00000000000E+00  0.74505805969E-08  0.10566000000E+00  0.10566000000E+00 0.  1.
     999900   -1    0    0    0    0 -0.00000000000E+00 -0.00000000000E+00 -0.74505805969E-08  0.93827000000E+00  0.93827000000E+00 0. -1.
     999902    2    1    2    0    0 -0.99638713492E-02  0.22024885627E-01 -0.11268561763E-01  0.10172587645E+01  0.10169090614E+01 0.  0.
     999903    2    3    3    0    0  0.84104320077E-03  0.68929745635E-01  0.10636380678E+00  0.12812762332E+00  0.18745967014E-01 0.  0.
         14    1    1    2    0    0  0.99638713492E-02 -0.22024885627E-01  0.11268561763E-01  0.26671235505E-01  0.00000000000E+00 0.  1.
     999901    1    3    3    0    0 -0.10804914550E-01 -0.46904860008E-01 -0.11763236854E+00  0.88913114117E+00  0.88000000000E+00 0. -1.
        -11    1    4    4    0    0  0.79828127395E-02  0.27941297156E-01  0.34735227455E-01  0.45290600938E-01  0.51100000000E-03 0.  1.
         11    1    4    4    0    0 -0.71417695387E-02  0.40988448479E-01  0.71628579323E-01  0.82837022386E-01  0.51100000000E-03 0. -1.
</event>
<event>
 8    1  0.1074844E+005  0.1043930E+01  0.7957747E-01            NaN
         13   -1    0    0    0    0  0.00000000000E+00  0.00000000000E+00  0.74505805969E-08  0.10566000000E+00  0.10566000000E+00 0. -1.
     999900   -1    0    0    0    0 -0.00000000000E+00 -0.00000000000E+00 -0.74505805969E-08  0.93827000000E+00  0.93827000000E+00 0. -1.
     999902    2    1    2    0    0  0.76277355199E-02 -0.19797439809E-01  0.90872154234E-02  0.10208497388E+01  0.10205887961E+01 0.  0.
     999903    2    3    3    0    0 -0.66987736195E-01  0.10133477076E+00  0.37976473163E-01  0.12895564742E+00  0.20766654094E-01 0.  0.
         14    1    1    2    0    0 -0.76277355199E-02  0.19797439809E-01 -0.90872154234E-02  0.23080261184E-01  0.00000000000E+00 0. -1.
     999901    1    3    3    0    0  0.74615471715E-01 -0.12113221057E+00 -0.28889257740E-01  0.89189409140E+00  0.88000000000E+00 0. -1.
        -11    1    4    4    0    0 -0.42397043031E-01  0.45529915800E-01  0.20754533443E-01  0.65585777955E-01  0.51100000000E-03 0.  1.
         11    1    4    4    0    0 -0.24590693164E-01  0.55804854959E-01  0.17221939720E-01  0.63369869465E-01  0.51100000000E-03 0. -1.
</event>
<event>
 7    1  0.1074844E+005  0.1043930E+01  0.7957747E-01            NaN
         13   -1    0    0    0    0  0.00000000000E+00  0.00000000000E+00  0.74505805969E-08  0.10566000000E+00  0.10566000000E+00 0.  1.
     999900   -1    0    0    0    0 -0.00000000000E+00 -0.00000000000E+00 -0.74505805969E-08  0.93827000000E+00  0.93827000000E+00 0.  1.
     999902    2    1    2    0    0  0.16468153967E-01  0.57366028229E-02 -0.15452318854E-01  0.10206301531E+01  0.10203641637E+01 0.  0.
         14    1    1    2    0    0 -0.16468153967E-01 -0.57366028229E-02  0.15452318854E-01  0.23299846888E-01  0.00000000000E+00 0.  1.
     999901    1    3    3    0    0  0.85493894903E-02  0.83707067355E-01  0.90708023264E-01  0.88865511346E+00  0.88000000000E+00 0. -1.
        -11    1    3    3    0    0  0.63986939017E-03 -0.12677700627E-01 -0.16859240278E-01  0.21109917806E-01  0.51100000000E-03 0.  1.
         11    1    3    3    0    0  0.72788950866E-02 -0.65292763905E-01 -0.89301101841E-01  0.11086512185E+00  0.51100000000E-03 0. -1.
</event>
<event>
 8    1  0.1074844E+005  0.1043930E+01  0.7957747E-01            NaN
         13   -1    0    0    0    0  0.00000000000E+00  0.00000000000E+00  0.74505805969E-08  0.10566000000E+00  0.10566000000E+00 0.  1.
     999900   -1    0    0    0    0 -0.00000000000E+00 -0.00000000000E+00 -0.74505805969E-08  0.93827000000E+00  0.93827000000E+00 0. -1.
     999902    2    1    2    0    0  0.34670003629E-01  0.87124873024E-02  0.63879173626E-02  0.10076157869E+01  0.10069611968E+01 0.  0.
     999903    2    3    3    0    0  0.86630680694E-02 -0.11486283596E+00 -0.17861236345E-01  0.11827038566E+00  0.20008511353E-01 0.  0.
         14    1    1    2    0    0 -0.34670003629E-01 -0.87124873024E-02 -0.63879173626E-02  0.36314213124E-01  0.00000000000E+00 0.  1.
     999901    1    3    3    0    0  0.26006935559E-01  0.12357532326E+00  0.24249153708E-01  0.88934540122E+00  0.88000000000E+00 0.  1.
        -11    1    4    4    0    0 -0.27029013539E-02 -0.83554418415E-01 -0.12415531422E-01  0.84516584490E-01  0.51100000000E-03 0. -1.
         11    1    4    4    0    0  0.11365969423E-01 -0.31308417543E-01 -0.54457049230E-02  0.33753801165E-01  0.51100000000E-03 0.  1.
</event>
<event>
 7    1  0.1074844E+005  0.1043930E+01  0.7957747E-01            NaN
         13   -1    0    0    0    0  0.00000000000E+00  0.00000000000E+00  0.74505805969E-08  0.10566000000E+00  0.10566000000E+00 0.  1.
     999900   -1    0    0    0    0 -0.00000000000E+00 -0.00000000000E+00 -0.74505805969E-08  0.93827000000E+00  0.93827000000E+00 0.  1.
     999903    2    1    2    0    0 -0.21945897767E-01 -0.15054605129E-01  0.73873375900E-01  0.80725363193E-01  0.18736195755E-01 0.  0.
         14    1    1    2    0    0  0.22342706832E-01  0.42008545355E-01  0.55757722063E-01  0.73299645300E-01  0.00000000000E+00 0.  1.
     999901    1    1    2    0    0 -0.39680906531E-03 -0.26953940226E-01 -0.12963109796E+00  0.88990499151E+00  0.88000000000E+00 0.  1.
        -11    1    3    3    0    0 -0.12917637665E-01 -0.11975350975E-01  0.23062781318E-01  0.29024599858E-01  0.51100000000E-03 0. -1.
         11    1    3    3    0    0 -0.90282601022E-02 -0.30792541538E-02  0.50810594582E-01  0.51700763334E-01  0.51100000000E-03 0.  1.
</event>
<event>
 8    1  0.1074844E+005  0.1043930E+01  0.7957747E-01            NaN
         13   -1    0    0    0    0  0.00000000000E+00  0.00000000000E+00  0.74505805969E-08  0.10566000000E+00  0.10566000000E+00 0.  1.
     999900   -1    0    0    0    0 -0.00000000000E+00 -0.00000000000E+00 -0.74505805969E-08  0.93827000000E+00  0.93827000000E+00 0. -1.
     999902    2    1    2    0    0 -0.53670018261E-02 -0.17052520993E-01 -0.18972408164E-01  0.10178619074E+01  0.10175280424E+01 0.  0.
     999903    2    3    3    0    0 -0.63336934994E-01 -0.68380568340E-01 -0.90555001624E-01  0.13156672559E+00  0.20545693029E-01 0.  0.
         14    1    1    2    0    0  0.53670018261E-02  0.17052520993E-01  0.18972408164E-01  0.26068092611E-01  0.00000000000E+00 0.  1.
     999901    1    3    3    0    0  0.57969933168E-01  0.51328047347E-01  0.71582593460E-01  0.88629518180E+00  0.88000000000E+00 0.  1.
        -11    1    4    4    0    0 -0.56962174511E-01 -0.50279291626E-01 -0.68190987323E-01  0.10209293984E+00  0.51100000000E-03 0.  1.
         11    1    4    4    0    0 -0.63747604833E-02 -0.18101276714E-01 -0.22364014301E-01  0.29473785752E-01  0.51100000000E-03 0. -1.
</event>
<event>
 8    1  0.1074844E+005  0.1043930E+01  0.7957747E-01            NaN
         13   -1    0    0    0    0  0.00000000000E+00  0.00000000000E+00  0.74505805969E-08  0.10566000000E+00  0.10566000000E+00 0. -1.
     999900   -1    0    0    0    0 -0.00000000000E+00 -0.00000000000E+00 -0.74505805969E-08  0.93827000000E+00  0.93827000000E+00 0. -1.
     999902    2    1    2    0    0  0.70657018055E-02 -0.24018638674E-01 -0.50946982269E-03  0.10188884604E+01  0.10185806871E+01 0.  0.
     999903    2    3    3    0    0  0.66180601829E-01 -0.10985933031E+00 -0.25815484938E-01  0.13237642431E+00  0.20202324992E-01 0.  0.
         14    1    1    2    0    0 -0.70657018055E-02  0.24018638674E-01  0.50946982269E-03  0.25041539595E-01  0.00000000000E+00 0.  1.
     999901    1    3    3    0    0 -0.59114900023E-01  0.85840691637E-01  0.25306015115E-01  0.88651203610E+00  0.88000000000E+00 0. -1.
        -11    1    4    4    0    0  0.44944401794E-01 -0.55315350243E-01 -0.12858606843E-01  0.72425079330E-01  0.51100000000E-03 0.  1.
         11    1    4    4    0    0  0.21236200035E-01 -0.54543980068E-01 -0.12956878095E-01  0.59951344977E-01  0.51100000000E-03 0. -1.
</event>
<event>
 8    1  0.1074844E+005  0.1043930E+01  0.7957747E-01            NaN
         13   -1    0    0    0    0  0.00000000000E+00  0.00000000000E+00  0.74505805969E-08  0.10566000000E+00  0.10566000000E+00 0.  1.
     999900   -1    0    0    0    0 -0.00000000000E+00 -0.00000000000E+00 -0.74505805969E-08  0.93827000000E+00  0.93827000000E+00 0.  1.
     999902    2    1    2    0    0  0.22679949084E-01 -0.22616500250E-01  0.18171531674E-01  0.10071048627E+01  0.10064313756E+01 0.  0.
     999903    2    3    3    0    0  0.22094344312E-01 -0.17789545276E-01 -0.11223363369E+00  0.11748182479E+00  0.20024051850E-01 0.  0.
         14    1    1    2    0    0 -0.22679949084E-01  0.22616500250E-01 -0.18171531674E-01  0.36825137304E-01  0.00000000000E+00 0.  1.
     999901    1    3    3    0    0  0.58560477247E-03 -0.48269549749E-02  0.13040516536E+00  0.88962303791E+00  0.88000000000E+00 0. -1.
        -11    1    4    4    0    0  0.10523955577E-01 -0.74565520780E-02 -0.86287422274E-01  0.87247545372E-01  0.51100000000E-03 0. -1.
         11    1    4    4    0    0  0.11570388735E-01 -0.10332993198E-01 -0.25946211415E-01  0.30234279414E-01  0.51100000000E-03 0.  1.
</event>
<event>
 8    1  0.1074844E+005  0.1043930E+01  0.7957747E-01            NaN
         13   -1    0    0    0    0  0.00000000000E+00  0.00000000000E+00  0.74505805969E-08  0.10566000000E+00  0.10566000000E+00 0.  1.
     999900   -1    0    0    0    0 -0.00000000000E+00 -0.00000000000E+00 -0.74505805969E-08  0.93827000000E+00  0.93827000000E+00 0.  1.
     999902    2    1    2    0    0 -0.12918085128E-01  0.23828062672E-01  0.50005572218E-02  0.10163680867E+01  0.10159943054E+01 0.  0.
     999903    2    3    3    0    0  0.51989680425E-01  0.11004833934E+00 -0.36650642546E-01  0.12879737028E+00  0.20782904801E-01 0.  0.
         14    1    1    2    0    0  0.12918085128E-01 -0.23828062672E-01 -0.50005572218E-02  0.27561913333E-01  0.00000000000E+00 0.  1.
     999901    1    3    3    0    0 -0.64907765553E-01 -0.86220276664E-01  0.41651199768E-01  0.88757071638E+00  0.88000000000E+00 0. -1.
        -11    1    4    4    0    0  0.15816026350E-01  0.36454524757E-01 -0.20567370017E-02  0.39794099473E-01  0.51100000000E-03 0.  1.
         11    1    4    4    0    0  0.36173654075E-01  0.73593814578E-01 -0.34593905544E-01  0.89003270811E-01  0.51100000000E-03 0. -1.
</event>
<event>
 8    1  0.1074844E+005  0.1043930E+01  0.7957747E-01            NaN
         13   -1    0    0    0    0  0.00000000000E+00  0.00000000000E+00  0.74505805969E-08  0.10566000000E+00  0.10566000000E+00 0.  1.
     999900   -1    0    0    0    0 -0.00000000000E+00 -0.00000000000E+00 -0.74505805969E-08  0.93827000000E+00  0.93827000000E+00 0. -1.
     999902    2    1    2    0    0 -0.69259815326E-02  0.48414035108E-02 -0.21777650938E-01  0.10205703234E+01  0.10203029504E+01 0.  0.
     999903    2    3    3    0    0 -0.11320706865E+00  0.23650557139E-01  0.56991710780E-01  0.13048377368E+00  0.20069151717E-01 0.  0.
         14    1    1    2    0    0  0.69259815326E-02 -0.48414035108E-02  0.21777650938E-01  0.23359676550E-01  0.00000000000E+00 0.  1.
     999901    1    3    3    0    0  0.10628108712E+00 -0.18809153628E-01 -0.78769361718E-01  0.89008654977E+00  0.88000000000E+00 0. -1.
        -11    1    4    4    0    0 -0.46412971411E-01  0.18165682483E-01  0.30381856907E-01  0.58373575232E-01  0.51100000000E-03 0. -1.
         11    1    4    4    0    0 -0.66794097237E-01  0.54848746561E-02  0.26609853873E-01  0.72110198446E-01  0.51100000000E-03 0.  1.
</event>
<event>
 8    1  0.1074844E+005  0.1043930E+01  0.7957747E-01            NaN
         13   -1    0    0    0    0  0.00000000000E+00  0.00000000000E+00  0.74505805969E-08  0.10566000000E+00  0.10566000000E+00 0. -1.
     999900   -1    0    0    0    0 -0.00000000000E+00 -0.00000000000E+00 -0.74505805969E-08  0.93827000000E+00  0.93827000000E+00 0.  1.
     999902    2    1    2    0    0 -0.23482496875E-01  0.17538390867E-02  0.52279216975E-02  0.10198087485E+01  0.10195234419E+01 0.  0.
     999903    2    3    3    0    0 -0.91675431035E-01  0.60367737961E-01 -0.70640029553E-01  0.13197891597E+00  0.19487740870E-01 0.  0.
         14    1    1    2    0    0  0.23482496875E-01 -0.17538390867E-02 -0.52279216975E-02  0.24121251549E-01  0.00000000000E+00 0.  1.
     999901    1    3    3    0    0  0.68192934161E-01 -0.58613898874E-01  0.75867951251E-01  0.88782983248E+00  0.88000000000E+00 0.  1.
        -11    1    4    4    0    0 -0.60286167205E-01  0.28516916176E-01 -0.40006317419E-01  0.77771479470E-01  0.51100000000E-03 0. -1.
         11    1    4    4    0    0 -0.31389263830E-01  0.31850821785E-01 -0.30633712134E-01  0.54207436503E-01  0.51100000000E-03 0.  1.
</event>
<event>
 8    1  0.1074844E+005  0.1043930E+01  0.7957747E-01            NaN
         13   -1    0    0    0    0  0.00000000000E+00  0.00000000000E+00  0.74505805969E-08  0.10566000000E+00  0.10566000000E+00 0. -1.
     999900   -1    0    0    0    0 -0.00000000000E+00 -0.00000000000E+00 -0.74505805969E-08  0.93827000000E+00  0.93827000000E+00 0.  1.
     999902    2    1    2    0    0 -0.13945377750E-01 -0.13557116894E-01 -0.12983138833E-01  0.10205455848E+01  0.10202776386E+01 0.  0.
     999903    2    3    3    0    0 -0.12488552041E+00 -0.36498524010E-01 -0.97208137434E-02  0.13327749333E+00  0.27200377684E-01 0.  0.
         14    1    1    2    0    0  0.13945377750E-01  0.13557116894E-01  0.12983138833E-01  0.23384415174E-01  0.00000000000E+00 0.  1.
     999901    1    3    3    0    0  0.11094014266E+00  0.22941407116E-01 -0.32623250894E-02  0.88726809149E+00  0.88000000000E+00 0. -1.
        -11    1    4    4    0    0 -0.26120867250E-01  0.30505175560E-02  0.11842900878E-02  0.26330002416E-01  0.51100000000E-03 0. -1.
         11    1    4    4    0    0 -0.98764653163E-01 -0.39549041566E-01 -0.10905103831E-01  0.10694749092E+00  0.51100000000E-03 0.  1.
</event>
<event>
 8    1  0.1219060E+005  0.1043930E+01  0.7957747E-01            NaN
         13   -1    0    0    0    0  0.00000000000E+00  0.00000000000E+00  0.74505805969E-08  0.10566000000E+00  0.10566000000E+00 0.  1.
     999900   -1    0    0    0    0 -0.00000000000E+00 -0.00000000000E+00 -0.74505805969E-08  0.93827000000E+00  0.93827000000E+00 0.  1.
     999902    2    1    2    0    0 -0.21503337370E-01  0.59712434261E-02  0.79029649733E-02  0.10202549895E+01  0.10199802633E+01 0.  0.
     999903    2    3    3    0    0 -0.12463212146E-01 -0.12684300351E+00 -0.14342217227E-01  0.12996503889E+00  0.20993640523E-01 0.  0.
         14    1    1    2    0    0  0.21503337370E-01 -0.59712434261E-02 -0.79029649733E-02  0.23675010485E-01  0.00000000000E+00 0. -1.
     999901    1    3    3    0    0 -0.90401252238E-02  0.13281424694E+00  0.22245182200E-01  0.89028995063E+00  0.88000000000E+00 0. -1.
        -11    1    4    4    0    0  0.39932931546E-02 -0.62920223768E-01 -0.97270668159E-02  0.63794810911E-01  0.51100000000E-03 0. -1.
         11    1    4    4    0    0 -0.16456505301E-01 -0.63922779741E-01 -0.46151504109E-02  0.66170227979E-01  0.51100000000E-03 0.  1.
</event>
<event>
 8    1  0.1074844E+005  0.1043930E+01  0.7957747E-01            NaN
         13   -1    0    0    0    0  0.00000000000E+00  0.00000000000E+00  0.74505805969E-08  0.10566000000E+00  0.10566000000E+00 0.  1.
     999900   -1    0    0    0    0 -0.00000000000E+00 -0.00000000000E+00 -0.74505805969E-08  0.93827000000E+00  0.93827000000E+00 0.  1.
     999902    2    1    2    0    0 -0.13366314068E-01  0.19502469544E-01 -0.10024460272E-01  0.10182493755E+01  0.10179254866E+01 0.  0.
     999903    2    3    3    0    0  0.23127910171E-02  0.12787742048E+00  0.19607866683E-01  0.13096754930E+00  0.20249613937E-01 0.  0.
         14    1    1    2    0    0  0.13366314068E-01 -0.19502469544E-01  0.10024460272E-01  0.25680624482E-01  0.00000000000E+00 0.  1.
     999901    1    3    3    0    0 -0.15679105085E-01 -0.10837495093E+00 -0.29632326955E-01  0.88728182621E+00  0.88000000000E+00 0. -1.
        -11    1    4    4    0    0  0.51867747618E-02  0.66446344903E-01  0.79889599575E-03  0.66655222896E-01  0.51100000000E-03 0. -1.
         11    1    4    4    0    0 -0.28739837448E-02  0.61431075575E-01  0.18808970687E-01  0.64312326409E-01  0.51100000000E-03 0.  1.
</event>
<event>
 8    1  0.1074844E+005  0.1043930E+01  0.7957747E-01            NaN
         13   -1    0    0    0    0  0.00000000000E+00  0.00000000000E+00  0.74505805969E-08  0.10566000000E+00  0.10566000000E+00 0.  1.
     999900   -1    0    0    0    0 -0.00000000000E+00 -0.00000000000E+00 -0.74505805969E-08  0.93827000000E+00  0.93827000000E+00 0.  1.
     999902    2    1    2    0    0  0.22976791164E-01 -0.49220568693E-02 -0.47350062342E-02  0.10199596045E+01  0.10196778977E+01 0.  0.
     999903    2    3    3    0    0  0.12107771048E+00 -0.51301301994E-01 -0.59055282773E-02  0.13329383046E+00  0.20993675567E-01 0.  0.
         14    1    1    2    0    0 -0.22976791164E-01  0.49220568693E-02  0.47350062342E-02  0.23970395493E-01  0.00000000000E+00 0.  1.
     999901    1    3    3    0    0 -0.98100919311E-01  0.46379245125E-01  0.11705220430E-02  0.88666577405E+00  0.88000000000E+00 0.  1.
        -11    1    4    4    0    0  0.91135829649E-01 -0.28535680785E-01 -0.26652518439E-02  0.95537370762E-01  0.51100000000E-03 0.  1.
         11    1    4    4    0    0  0.29941880826E-01 -0.22765621209E-01 -0.32402764333E-02  0.37756459697E-01  0.51100000000E-03 0. -1.
</event>
<event>
 8    1  0.1074844E+005  0.1043930E+01  0.7957747E-01            NaN
         13   -1    0    0    0    0  0.00000000000E+00  0.00000000000E+00  0.74505805969E-08  0.10566000000E+00  0.10566000000E+00 0.  1.
     999900   -1    0    0    0    0 -0.00000000000E+00 -0.00000000000E+00 -0.74505805969E-08  0.93827000000E+00  0.93827000000E+00 0.  1.
     999902    2    1    2    0    0 -0.21912957291E-01 -0.41136246294E-02 -0.66792316368E-02  0.10206552983E+01  0.10203898893E+01 0.  0.
     999903    2    3    3    0    0  0.12324576121E+00  0.16559171319E-01  0.23978475681E-01  0.12799729374E+00  0.18563838493E-01 0.  0.
         14    1    1    2    0    0  0.21912957291E-01  0.41136246294E-02  0.66792316368E-02  0.23274701719E-01  0.00000000000E+00 0.  1.
     999901    1    3    3    0    0 -0.14515871850E+00 -0.20672795949E-01 -0.30657707318E-01  0.89265800454E+00  0.88000000000E+00 0. -1.
        -11    1    4    4    0    0  0.37893675109E-01  0.53557670130E-02  0.16199493577E-01  0.41560793624E-01  0.51100000000E-03 0. -1.
         11    1    4    4    0    0  0.85352086097E-01  0.11203404306E-01  0.77789821039E-02  0.86436500118E-01  0.51100000000E-03 0.  1.
</event>
<event>
 8    1  0.1074844E+005  0.1043930E+01  0.7957747E-01            NaN
         13   -1    0    0    0    0  0.00000000000E+00  0.00000000000E+00  0.74505805969E-08  0.10566000000E+00  0.10566000000E+00 0.  1.
     999900   -1    0    0    0    0 -0.00000000000E+00 -0.00000000000E+00 -0.74505805969E-08  0.93827000000E+00  0.93827000000E+00 0. -1.
     999902    2    1    2    0    0  0.18702460878E-01 -0.15042214065E-01  0.24178324394E-02  0.10198074761E+01  0.10195221391E+01 0.  0.
     999903    2    3    3    0    0  0.12748007352E+00  0.22958171366E-01 -0.17606491040E-01  0.13207014339E+00  0.18822525637E-01 0.  0.
         14    1    1    2    0    0 -0.18702460878E-01  0.15042214065E-01 -0.24178324394E-02  0.24122523927E-01  0.00000000000E+00 0.  1.
     999901    1    3    3    0    0 -0.10877761264E+00 -0.38000385431E-01  0.20024323479E-01  0.88773733268E+00  0.88000000000E+00 0. -1.
        -11    1    4    4    0    0  0.10676604288E+00  0.15814408363E-01 -0.82743146271E-02  0.10824882830E+00  0.51100000000E-03 0.  1.
         11    1    4    4    0    0  0.20714030640E-01  0.71437630022E-02 -0.93321764124E-02  0.23821315093E-01  0.51100000000E-03 0. -1.
</event>
<event>
 8    1  0.1074844E+005  0.1043930E+01  0.7957747E-01            NaN
         13   -1    0    0    0    0  0.00000000000E+00  0.00000000000E+00  0.74505805969E-08  0.10566000000E+00  0.10566000000E+00 0.  1.
     999900   -1    0    0    0    0 -0.00000000000E+00 -0.00000000000E+00 -0.74505805969E-08  0.93827000000E+00  0.93827000000E+00 0. -1.
     999902    2    1    2    0    0 -0.68258288922E-02 -0.17055687047E-01  0.14211970742E-01  0.10207035385E+01  0.10204392412E+01 0.  0.
     999903    2    3    3    0    0 -0.26981988146E-01 -0.79814569774E-03 -0.12497251338E+00  0.12938827497E+00  0.19862826547E-01 0.  0.
         14    1    1    2    0    0  0.68258288922E-02  0.17055687047E-01 -0.14211970742E-01  0.23226461484E-01  0.00000000000E+00 0. -1.
     999901    1    3    3    0    0  0.20156159254E-01 -0.16257541349E-01  0.13918448412E+00  0.89131526354E+00  0.88000000000E+00 0.  1.
        -11    1    4    4    0    0 -0.26229635489E-01 -0.52831620128E-02 -0.83973359291E-01  0.88134509531E-01  0.51100000000E-03 0. -1.
         11    1    4    4    0    0 -0.75235265696E-03  0.44850163151E-02 -0.40999154090E-01  0.41253765440E-01  0.51100000000E-03 0.  1.
</event>
<event>
 8    1  0.1074844E+005  0.1043930E+01  0.7957747E-01            NaN
         13   -1    0    0    0    0  0.00000000000E+00  0.00000000000E+00  0.74505805969E-08  0.10566000000E+00  0.10566000000E+00 0. -1.
     999900   -1    0    0    0    0 -0.00000000000E+00 -0.00000000000E+00 -0.74505805969E-08  0.93827000000E+00  0.93827000000E+00 0.  1.
     999902    2    1    2    0    0 -0.84877889881E-02  0.17853709214E-01  0.11967721666E-01  0.10208210438E+01  0.10205594444E+01 0.  0.
     999903    2    3    3    0    0  0.10940609180E+00  0.10055985448E-02 -0.66085255482E-01  0.12937553610E+00  0.20001604895E-01 0.  0.
         14    1    1    2    0    0  0.84877889881E-02 -0.17853709214E-01 -0.11967721666E-01  0.23108956196E-01  0.00000000000E+00 0. -1.
     999901    1    3    3    0    0 -0.11789388079E+00  0.16848110669E-01  0.78052977148E-01  0.89144550770E+00  0.88000000000E+00 0. -1.
        -11    1    4    4    0    0  0.51057602596E-01  0.96323436240E-03 -0.19336027147E-01  0.54607230932E-01  0.51100000000E-03 0.  1.
         11    1    4    4    0    0  0.58348489203E-01  0.42364182367E-04 -0.46749228335E-01  0.74768305170E-01  0.51100000000E-03 0. -1.
</event>
<event>
 8    1  0.1074844E+005  0.1043930E+01  0.7957747E-01            NaN
         13   -1    0    0    0    0  0.00000000000E+00  0.00000000000E+00  0.74505805969E-08  0.10566000000E+00  0.10566000000E+00 0.  1.
     999900   -1    0    0    0    0 -0.00000000000E+00 -0.00000000000E+00 -0.74505805969E-08  0.93827000000E+00  0.93827000000E+00 0. -1.
     999902    2    1    2    0    0  0.21173144860E-03 -0.13575028813E-01  0.15201599695E-01  0.10235482712E+01  0.10233453222E+01 0.  0.
     999903    2    3    3    0    0  0.14444209015E-01  0.11903423615E+00  0.53345754362E-01  0.13268197529E+00  0.19518004741E-01 0.  0.
         14    1    1    2    0    0 -0.21173144860E-03  0.13575028813E-01 -0.15201599695E-01  0.20381728847E-01  0.00000000000E+00 0.  1.
     999901    1    3    3    0    0 -0.14232477567E-01 -0.13260926496E+00 -0.38144154667E-01  0.89086629586E+00  0.88000000000E+00 0. -1.
        -11    1    4    4    0    0 -0.34928139275E-03  0.58903611097E-01  0.32880254762E-01  0.67462060982E-01  0.51100000000E-03 0. -1.
         11    1    4    4    0    0  0.14793490408E-01  0.60130625050E-01  0.20465499600E-01  0.65219914307E-01  0.51100000000E-03 0.  1.
</event>
<event>
 8    1  0.1074844E+005  0.1043930E+01  0.7957747E-01            NaN
         13   -1    0    0    0    0  0.00000000000E+00  0.00000000000E+00  0.74505805969E-08  0.10566000000E+00  0.10566000000E+00 0. -1.
     999900   -1    0    0    0    0 -0.00000000000E+00 -0.00000000000E+00 -0.74505805969E-08  0.93827000000E+00  0.93827000000E+00 0.  1.
     999902    2    1    2    0    0 -0.19492449167E-01 -0.45535460730E-02  0.10907658588E-01  0.10211337860E+01  0.10208792982E+01 0.  0.
     999903    2    3    3    0    0  0.45085029690E-01 -0.11614820594E+00 -0.33652705229E-01  0.13062312077E+00  0.20170014020E-01 0.  0.
         14    1    1    2    0    0  0.19492449167E-01  0.45535460730E-02 -0.10907658588E-01  0.22796213989E-01  0.00000000000E+00 0.  1.
     999901    1    3    3    0    0 -0.64577478857E-01  0.11159465986E+00  0.44560363817E-01  0.89051066524E+00  0.88000000000E+00 0. -1.
        -11    1    4    4    0    0  0.37213579047E-01 -0.73143665531E-01 -0.16825106825E-01  0.83774647797E-01  0.51100000000E-03 0.  1.
         11    1    4    4    0    0  0.78714506433E-02 -0.43004540407E-01 -0.16827598404E-01  0.46848472973E-01  0.51100000000E-03 0. -1.
</event>
<event>
 8    1  0.1074844E+005  0.1043930E+01  0.7957747E-01            NaN
         13   -1    0    0    0    0  0.00000000000E+00  0.00000000000E+00  0.74505805969E-08  0.10566000000E+00  0.10566000000E+00 0. -1.
     999900   -1    0    0    0    0 -0.00000000000E+00 -0.00000000000E+00 -0.74505805969E-08  0.93827000000E+00  0.93827000000E+00 0.  1.
     999902    2    1    2    0    0  0.11994194408E-01  0.18093048852E-01  0.10243874744E-01  0.10199267484E+01  0.10196442596E+01 0.  0.
     999903    2    3    3    0    0 -0.12245049784E+00 -0.54388699583E-03 -0.33548857745E-01  0.12844454778E+00  0.19443656147E-01 0.  0.
         14    1    1    2    0    0 -0.11994194408E-01 -0.18093048852E-01 -0.10243874744E-01  0.24003251572E-01  0.00000000000E+00 0.  1.
     999901    1    3    3    0    0  0.13444469225E+00  0.18636935848E-01  0.43792732489E-01  0.89148220065E+00  0.88000000000E+00 0.  1.
        -11    1    4    4    0    0 -0.21033514756E-01  0.29736774742E-02  0.92657116227E-03  0.21269018685E-01  0.51100000000E-03 0.  1.
         11    1    4    4    0    0 -0.10141698308E+00 -0.35175644701E-02 -0.34475428907E-01  0.10717552910E+00  0.51100000000E-03 0. -1.
</event>
<event>
 7    1  0.1074844E+005  0.1043930E+01  0.7957747E-01            NaN
         13   -1    0    0    0    0  0.00000000000E+00  0.00000000000E+00  0.74505805969E-08  0.10566000000E+00  0.10566000000E+00 0.  1.
     999900   -1    0    0    0    0 -0.00000000000E+00 -0.00000000000E+00 -0.74505805969E-08  0.93827000000E+00  0.93827000000E+00 0.  1.
     999903    2    1    2    0    0 -0.27319893048E-02  0.67334300962E-01  0.76705836008E-01  0.10410770283E+00  0.20328715149E-01 0.  0.
         14    1    1    2    0    0 -0.25609631047E-01  0.19482359710E-01  0.35610841499E-01  0.47995287002E-01  0.00000000000E+00 0.  1.
     999901    1    1    2    0    0  0.28341620352E-01 -0.86816660672E-01 -0.11231667751E+00  0.89182701017E+00  0.88000000000E+00 0.  1.
        -11    1    3    3    0    0  0.32357050268E-02  0.50104288717E-01  0.66096167414E-01  0.83005264909E-01  0.51100000000E-03 0. -1.
         11    1    3    3    0    0 -0.59676943315E-02  0.17230012245E-01  0.10609668595E-01  0.21102437923E-01  0.51100000000E-03 0.  1.
</event>
<event>
 8    1  0.1074844E+005  0.1043930E+01  0.7957747E-01            NaN
         13   -1    0    0    0    0  0.00000000000E+00  0.00000000000E+00  0.74505805969E-08  0.10566000000E+00  0.10566000000E+00 0.  1.
     999900   -1    0    0    0    0 -0.00000000000E+00 -0.00000000000E+00 -0.74505805969E-08  0.93827000000E+00  0.93827000000E+00 0.  1.
     999902    2    1    2    0    0  0.24108273684E-01 -0.14625563293E-02  0.10735961682E-02  0.10197535540E+01  0.10194669246E+01 0.  0.
     999903    2    3    3    0    0  0.12778810336E+00 -0.27091684142E-02 -0.31473868535E-01  0.13306849236E+00  0.19480254212E-01 0.  0.
         14    1    1    2    0    0 -0.24108273684E-01  0.14625563293E-02 -0.10735961682E-02  0.24176445971E-01  0.00000000000E+00 0. -1.
     999901    1    3    3    0    0 -0.10367982968E+00  0.12466120849E-02  0.32547464703E-01  0.88668506167E+00  0.88000000000E+00 0.  1.
        -11    1    4    4    0    0  0.11237001630E-01  0.44103213994E-02  0.18383058487E-03  0.12083710323E-01  0.51100000000E-03 0.  1.
         11    1    4    4    0    0  0.11655110173E+00 -0.71194898135E-02 -0.31657699120E-01  0.12098478204E+00  0.51100000000E-03 0. -1.
</event>
<event>
 8    1  0.1074844E+005  0.1043930E+01  0.7957747E-01            NaN
         13   -1    0    0    0    0  0.00000000000E+00  0.00000000000E+00  0.74505805969E-08  0.10566000000E+00  0.10566000000E+00 0. -1.
     999900   -1    0    0    0    0 -0.00000000000E+00 -0.00000000000E+00 -0.74505805969E-08  0.93827000000E+00  0.93827000000E+00 0.  1.
     999902    2    1    2    0    0 -0.14544813940E-01  0.16278248090E-01  0.10651081682E-01  0.10196405267E+01  0.10193511785E+01 0.  0.
     999903    2    3    3    0    0 -0.40310792421E-01  0.69610178940E-01 -0.10072353790E+00  0.13064531500E+00  0.21270407776E-01 0.  0.
         14    1    1    2    0    0  0.14544813940E-01 -0.16278248090E-01 -0.10651081682E-01  0.24289473325E-01  0.00000000000E+00 0. -1.
     999901    1    3    3    0    0  0.25765978481E-01 -0.53331930850E-01  0.11137461958E+00  0.88899521168E+00  0.88000000000E+00 0. -1.
        -11    1    4    4    0    0 -0.70803326511E-02  0.31929589547E-01 -0.34812533786E-01  0.47768226142E-01  0.51100000000E-03 0.  1.
         11    1    4    4    0    0 -0.33230459770E-01  0.37680589393E-01 -0.65911004111E-01  0.82877088857E-01  0.51100000000E-03 0. -1.
</event>
<event>
 8    1  0.1074844E+005  0.1043930E+01  0.7957747E-01            NaN
         13   -1    0    0    0    0  0.00000000000E+00  0.00000000000E+00  0.74505805969E-08  0.10566000000E+00  0.10566000000E+00 0. -1.
     999900   -1    0    0    0    0 -0.00000000000E+00 -0.00000000000E+00 -0.74505805969E-08  0.93827000000E+00  0.93827000000E+00 0. -1.
     999902    2    1    2    0    0 -0.18616053872E-01 -0.13075315542E-01 -0.21489262134E-02  0.10210796341E+01  0.10208239221E+01 0.  0.
     999903    2    3    3    0    0 -0.12147224680E+00 -0.35224288798E-02  0.51316181059E-01  0.13342588867E+00  0.20030054404E-01 0.  0.
         14    1    1    2    0    0  0.18616053872E-01  0.13075315542E-01  0.21489262134E-02  0.22850365909E-01  0.00000000000E+00 0.  1.
     999901    1    3    3    0    0  0.10285619293E+00 -0.95528866623E-02 -0.53465107273E-01  0.88765374542E+00  0.88000000000E+00 0.  1.
        -11    1    4    4    0    0 -0.75141453058E-01 -0.30279296398E-02  0.42085311707E-01  0.86179121067E-01  0.51100000000E-03 0.  1.
         11    1    4    4    0    0 -0.46330793747E-01 -0.49449924002E-03  0.92308693528E-02  0.47246767601E-01  0.51100000000E-03 0. -1.
</event>
<event>
 8    1  0.1074844E+005  0.1043930E+01  0.7957747E-01            NaN
         13   -1    0    0    0    0  0.00000000000E+00  0.00000000000E+00  0.74505805969E-08  0.10566000000E+00  0.10566000000E+00 0. -1.
     999900   -1    0    0    0    0 -0.00000000000E+00 -0.00000000000E+00 -0.74505805969E-08  0.93827000000E+00  0.93827000000E+00 0.  1.
     999902    2    1    2    0    0 -0.17992723087E-01  0.60234278801E-02 -0.14092335040E-01  0.10202949905E+01  0.10200212027E+01 0.  0.
     999903    2    3    3    0    0  0.56059365387E-01  0.11544879790E+00 -0.12823420845E-01  0.13043026282E+00  0.19404534356E-01 0.  0.
         14    1    1    2    0    0  0.17992723087E-01 -0.60234278801E-02  0.14092335040E-01  0.23635009507E-01  0.00000000000E+00 0. -1.
     999901    1    3    3    0    0 -0.74052088473E-01 -0.10942537002E+00 -0.12689141947E-02  0.88986472767E+00  0.88000000000E+00 0.  1.
        -11    1    4    4    0    0  0.64451756446E-02  0.20492702755E-01 -0.87897948106E-02  0.23216648533E-01  0.51100000000E-03 0. -1.
         11    1    4    4    0    0  0.49614189742E-01  0.94956095144E-01 -0.40336260349E-02  0.10721361429E+00  0.51100000000E-03 0.  1.
</event>
<event>
 8    1  0.1074844E+005  0.1043930E+01  0.7957747E-01            NaN
         13   -1    0    0    0    0  0.00000000000E+00  0.00000000000E+00  0.74505805969E-08  0.10566000000E+00  0.10566000000E+00 0.  1.
     999900   -1    0    0    0    0 -0.00000000000E+00 -0.00000000000E+00 -0.74505805969E-08  0.93827000000E+00  0.93827000000E+00 0. -1.
     999902    2    1    2    0    0 -0.18393074566E-01 -0.23972360343E-02  0.13504356377E-01  0.10209861648E+01  0.10207283327E+01 0.  0.
     999903    2    3    3    0    0 -0.12703714608E+00  0.35453159294E-01  0.12407959246E-01  0.13349679090E+00  0.16494627545E-01 0.  0.
         14    1    1    2    0    0  0.18393074566E-01  0.23972360343E-02 -0.13504356377E-01  0.22943835202E-01  0.00000000000E+00 0. -1.
     999901    1    3    3    0    0  0.10864407152E+00 -0.37850395328E-01  0.10963971310E-02  0.88748937390E+00  0.88000000000E+00 0. -1.
        -11    1    4    4    0    0 -0.53012044419E-01  0.17790822361E-01 -0.23711743119E-02  0.55970293928E-01  0.51100000000E-03 0.  1.
         11    1    4    4    0    0 -0.74025101665E-01  0.17662336933E-01  0.14779133558E-01  0.77526496968E-01  0.51100000000E-03 0. -1.
</event>
<event>
 8    1  0.1074844E+005  0.1043930E+01  0.7957747E-01            NaN
         13   -1    0    0    0    0  0.00000000000E+00  0.00000000000E+00  0.74505805969E-08  0.10566000000E+00  0.10566000000E+00 0.  1.
     999900   -1    0    0    0    0 -0.00000000000E+00 -0.00000000000E+00 -0.74505805969E-08  0.93827000000E+00  0.93827000000E+00 0.  1.
     999902    2    1    2    0    0 -0.60392402641E-02 -0.19819729440E-01  0.11962772773E-01  0.10200050751E+01  0.10197244487E+01 0.  0.
     999903    2    3    3    0    0  0.10381240454E+00 -0.16601645370E-01 -0.72631419411E-01  0.12914374064E+00  0.18712367421E-01 0.  0.
         14    1    1    2    0    0  0.60392402641E-02  0.19819729440E-01 -0.11962772773E-01  0.23924924879E-01  0.00000000000E+00 0. -1.
     999901    1    3    3    0    0 -0.10985164480E+00 -0.32180840697E-02  0.84594192184E-01  0.89086133449E+00  0.88000000000E+00 0. -1.
        -11    1    4    4    0    0  0.95980427276E-01 -0.12856636838E-01 -0.60383779205E-01  0.11412272974E+00  0.51100000000E-03 0. -1.
         11    1    4    4    0    0  0.78319772628E-02 -0.37450085319E-02 -0.12247640206E-01  0.15021010897E-01  0.51100000000E-03 0.  1.
</event>
<event>
 8    1  0.1074844E+005  0.1043930E+01  0.7957747E-01            NaN
         13   -1    0    0    0    0  0.00000000000E+00  0.00000000000E+00  0.74505805969E-08  0.10566000000E+00  0.10566000000E+00 0.  1.
     999900   -1    0    0    0    0 -0.00000000000E+00 -0.00000000000E+00 -0.74505805969E-08  0.93827000000E+00  0.93827000000E+00 0.  1.
     999902    2    1    2    0    0  0.13413876092E-01 -0.12598073722E-01 -0.15281682717E-01  0.10200098545E+01  0.10197293415E+01 0.  0.
     999903    2    3    3    0    0 -0.49904664054E-01 -0.73599465477E-01 -0.95427435205E-01  0.13200436525E+00  0.20283003785E-01 0.  0.
         14    1    1    2    0    0 -0.13413876092E-01  0.12598073722E-01  0.15281682717E-01  0.23920145484E-01  0.00000000000E+00 0.  1.
     999901    1    3    3    0    0  0.63318540147E-01  0.61001391755E-01  0.80145752489E-01  0.88800548926E+00  0.88000000000E+00 0. -1.
        -11    1    4    4    0    0 -0.35399658335E-01 -0.61406496849E-01 -0.83839497316E-01  0.10978713994E+00  0.51100000000E-03 0. -1.
         11    1    4    4    0    0 -0.14505005719E-01 -0.12192968629E-01 -0.11587937889E-01  0.22217225309E-01  0.51100000000E-03 0.  1.
</event>
<event>
 8    1  0.1074844E+005  0.1043930E+01  0.7957747E-01            NaN
         13   -1    0    0    0    0  0.00000000000E+00  0.00000000000E+00  0.74505805969E-08  0.10566000000E+00  0.10566000000E+00 0. -1.
     999900   -1    0    0    0    0 -0.00000000000E+00 -0.00000000000E+00 -0.74505805969E-08  0.93827000000E+00  0.93827000000E+00 0. -1.
     999902    2    1    2    0    0  0.53839145879E-02 -0.24731222891E-01 -0.37898133741E-03  0.10186166923E+01  0.10183021173E+01 0.  0.
     999903    2    3    3    0    0 -0.72761410263E-01  0.44832747397E-01  0.92600914826E-01  0.12755491053E+00  0.19776949013E-01 0.  0.
         14    1    1    2    0    0 -0.53839145879E-02  0.24731222891E-01  0.37898133741E-03  0.25313307742E-01  0.00000000000E+00 0. -1.
     999901    1    3    3    0    0  0.78145324851E-01 -0.69563970288E-01 -0.92979896163E-01  0.89106178172E+00  0.88000000000E+00 0. -1.
        -11    1    4    4    0    0 -0.59930518987E-01  0.29639359954E-01  0.62833286194E-01  0.91752066677E-01  0.51100000000E-03 0.  1.
         11    1    4    4    0    0 -0.12830891276E-01  0.15193387443E-01  0.29767628632E-01  0.35802843857E-01  0.51100000000E-03 0. -1.
</event>
<event>
 8    1  0.1074844E+005  0.1043930E+01  0.7957747E-01            NaN
         13   -1    0    0    0    0  0.00000000000E+00  0.00000000000E+00  0.74505805969E-08  0.10566000000E+00  0.10566000000E+00 0.  1.
     999900   -1    0    0    0    0 -0.00000000000E+00 -0.00000000000E+00 -0.74505805969E-08  0.93827000000E+00  0.93827000000E+00 0. -1.
     999902    2    1    2    0    0 -0.13633488408E-01 -0.10884723168E-01  0.16123559600E-01  0.10201746137E+01  0.10198979969E+01 0.  0.
     999903    2    3    3    0    0 -0.12113173561E+00  0.46493551322E-01 -0.47334423785E-02  0.13153342960E+00  0.21073441515E-01 0.  0.
         14    1    1    2    0    0  0.13633488408E-01  0.10884723168E-01 -0.16123559600E-01  0.23755386311E-01  0.00000000000E+00 0. -1.
     999901    1    3    3    0    0  0.10749824720E+00 -0.57378274490E-01  0.20857001978E-01  0.88864118409E+00  0.88000000000E+00 0.  1.
        -11    1    4    4    0    0 -0.93251809660E-01  0.35955349996E-01  0.52879781950E-02  0.10008451945E+00  0.51100000000E-03 0.  1.
         11    1    4    4    0    0 -0.27879925953E-01  0.10538201326E-01 -0.10021420574E-01  0.31448910150E-01  0.51100000000E-03 0. -1.
</event>
<event>
 8    1  0.1074844E+005  0.1043930E+01  0.7957747E-01            NaN
         13   -1    0    0    0    0  0.00000000000E+00  0.00000000000E+00  0.74505805969E-08  0.10566000000E+00  0.10566000000E+00 0. -1.
     999900   -1    0    0    0    0 -0.00000000000E+00 -0.00000000000E+00 -0.74505805969E-08  0.93827000000E+00  0.93827000000E+00 0.  1.
     999902    2    1    2    0    0 -0.76945696618E-02 -0.11471083359E-01  0.20786322948E-01  0.10189727690E+01  0.10186670902E+01 0.  0.
     999903    2    3    3    0    0  0.37154485353E-01 -0.27940608924E-01 -0.11710848786E+00  0.12695390048E+00  0.15548681901E-01 0.  0.
         14    1    1    2    0    0  0.76945696618E-02  0.11471083359E-01 -0.20786322948E-01  0.24957230964E-01  0.00000000000E+00 0.  1.
     999901    1    3    3    0    0 -0.44849055015E-01  0.16469525565E-01  0.13789481081E+00  0.89201886855E+00  0.88000000000E+00 0. -1.
        -11    1    4    4    0    0  0.25595292687E-01 -0.15283541351E-01 -0.55481219271E-01  0.62985176484E-01  0.51100000000E-03 0. -1.
         11    1    4    4    0    0  0.11559192666E-01 -0.12657067573E-01 -0.61627268593E-01  0.63968723997E-01  0.51100000000E-03 0.  1.
</event>
<event>
 8    1  0.1074844E+005  0.1043930E+01  0.7957747E-01            NaN
         13   -1    0    0    0    0  0.00000000000E+00  0.00000000000E+00  0.74505805969E-08  0.10566000000E+00  0.10566000000E+00 0.  1.
     999900   -1    0    0    0    0 -0.00000000000E+00 -0.00000000000E+00 -0.74505805969E-08  0.93827000000E+00  0.93827000000E+00 0.  1.
     999902    2    1    2    0    0 -0.10367009700E-01  0.17804621749E-01  0.10608231138E-01  0.10207564372E+01  0.10204933562E+01 0.  0.
     999903    2    3    3    0    0  0.86921019388E-01 -0.90302366106E-01  0.21964130204E-01  0.12874688686E+00  0.19584609378E-01 0.  0.
         14    1    1    2    0    0  0.10367009700E-01 -0.17804621749E-01 -0.10608231138E-01  0.23173562817E-01  0.00000000000E+00 0. -1.
     999901    1    3    3    0    0 -0.97288029088E-01  0.10810698785E+00 -0.11355899066E-01  0.89200955032E+00  0.88000000000E+00 0. -1.
        -11    1    4    4    0    0  0.51756089439E-01 -0.45884329169E-01  0.20225242717E-01  0.72065151226E-01  0.51100000000E-03 0.  1.
         11    1    4    4    0    0  0.35164929949E-01 -0.44418036937E-01  0.17388874869E-02  0.56681735633E-01  0.51100000000E-03 0. -1.
</event>
<event>
 8    1  0.1074844E+005  0.1043930E+01  0.7957747E-01            NaN
         13   -1    0    0    0    0  0.00000000000E+00  0.00000000000E+00  0.74505805969E-08  0.10566000000E+00  0.10566000000E+00 0.  1.
     999900   -1    0    0    0    0 -0.00000000000E+00 -0.00000000000E+00 -0.74505805969E-08  0.93827000000E+00  0.93827000000E+00 0. -1.
     999902    2    1    2    0    0 -0.31865444868E-03 -0.49236460589E-02 -0.23392037468E-01  0.10200232803E+01  0.10197430858E+01 0.  0.
     999903    2    3    3    0    0 -0.12348996381E+00 -0.21684511396E-02 -0.39422279168E-01  0.13129625177E+00  0.20739245162E-01 0.  0.
         14    1    1    2    0    0  0.31865444868E-03  0.49236460589E-02  0.23392037468E-01  0.23906719726E-01  0.00000000000E+00 0.  1.
     999901    1    3    3    0    0  0.12317130937E+00 -0.27551949193E-02  0.16030241700E-01  0.88872702851E+00  0.88000000000E+00 0.  1.
        -11    1    4    4    0    0 -0.84610903503E-01  0.80224672278E-02 -0.28499119581E-01  0.89642768308E-01  0.51100000000E-03 0. -1.
         11    1    4    4    0    0 -0.38879060311E-01 -0.10190918367E-01 -0.10923159588E-01  0.41653483459E-01  0.51100000000E-03 0.  1.
</event>
<event>
 8    1  0.1074844E+005  0.1043930E+01  0.7957747E-01            NaN
         13   -1    0    0    0    0  0.00000000000E+00  0.00000000000E+00  0.74505805969E-08  0.10566000000E+00  0.10566000000E+00 0. -1.
     999900   -1    0    0    0    0 -0.00000000000E+00 -0.00000000000E+00 -0.74505805969E-08  0.93827000000E+00  0.93827000000E+00 0.  1.
     999902    2    1    2    0    0  0.67344842564E-02  0.70770909128E-02  0.21143941013E-01  0.10206382689E+01  0.10203724669E+01 0.  0.
     999903    2    3    3    0    0  0.17074242450E-01  0.72896924117E-01  0.10895624758E+00  0.13376163591E+00  0.20376949062E-01 0.  0.
         14    1    1    2    0    0 -0.67344842564E-02 -0.70770909128E-02 -0.21143941013E-01  0.23291731055E-01  0.00000000000E+00 0.  1.
     999901    1    3    3    0    0 -0.10339758194E-01 -0.65819833204E-01 -0.87812306567E-01  0.88687663304E+00  0.88000000000E+00 0.  1.
        -11    1    4    4    0    0  0.36157819391E-02  0.41522819255E-01  0.73777909323E-01  0.84738771664E-01  0.51100000000E-03 0. -1.
         11    1    4    4    0    0  0.13458460511E-01  0.31374104862E-01  0.35178338256E-01  0.49022864244E-01  0.51100000000E-03 0.  1.
</event>
<event>
 8    1  0.1074844E+005  0.1043930E+01  0.7957747E-01            NaN
         13   -1    0    0    0    0  0.00000000000E+00  0.00000000000E+00  0.74505805969E-08  0.10566000000E+00  0.10566000000E+00 0.  1.
     999900   -1    0    0    0    0 -0.00000000000E+00 -0.00000000000E+00 -0.74505805969E-08  0.93827000000E+00  0.93827000000E+00 0. -1.
     999902    2    1    2    0    0 -0.11371150923E-01 -0.10408878734E-01  0.17371298922E-01  0.10207048013E+01  0.10204405330E+01 0.  0.
     999903    2    3    3    0    0 -0.14681471547E-01 -0.31113530395E-01  0.12770766436E+00  0.13356684449E+00  0.18634833816E-01 0.  0.
         14    1    1    2    0    0  0.11371150923E-01  0.10408878734E-01 -0.17371298922E-01  0.23225198730E-01  0.00000000000E+00 0. -1.
     999901    1    3    3    0    0  0.33103206233E-02  0.20704651661E-01 -0.11033636543E+00  0.88713795678E+00  0.88000000000E+00 0. -1.
        -11    1    4    4    0    0 -0.88094640467E-02 -0.31954173191E-01  0.10660082820E+00  0.11163634505E+00  0.51100000000E-03 0.  1.
         11    1    4    4    0    0 -0.58720075000E-02  0.84064279593E-03  0.21106836155E-01  0.21930499444E-01  0.51100000000E-03 0. -1.
</event>
<event>
 8    1  0.1074844E+005  0.1043930E+01  0.7957747E-01            NaN
         13   -1    0    0    0    0  0.00000000000E+00  0.00000000000E+00  0.74505805969E-08  0.10566000000E+00  0.10566000000E+00 0. -1.
     999900   -1    0    0    0    0 -0.00000000000E+00 -0.00000000000E+00 -0.74505805969E-08  0.93827000000E+00  0.93827000000E+00 0.  1.
     999902    2    1    2    0    0 -0.21316890843E-03 -0.24840658431E-02  0.24467395413E-01  0.10193359059E+01  0.10190391649E+01 0.  0.
     999903    2    3    3    0    0  0.99865641349E-01 -0.77352539572E-01  0.26372495853E-01  0.13050257735E+00  0.19464132551E-01 0.  0.
         14    1    1    2    0    0  0.21316890843E-03  0.24840658431E-02 -0.24467395413E-01  0.24594094055E-01  0.00000000000E+00 0.  1.
     999901    1    3    3    0    0 -0.10007881026E+00  0.74868473729E-01 -0.19051004396E-02  0.88883332860E+00  0.88000000000E+00 0. -1.
        -11    1    4    4    0    0  0.35436691750E-01 -0.38902944104E-01  0.77355789601E-02  0.53191150439E-01  0.51100000000E-03 0.  1.
         11    1    4    4    0    0  0.64428949599E-01 -0.38449595469E-01  0.18636916893E-01  0.77311426907E-01  0.51100000000E-03 0. -1.
</event>
<event>
 8    1  0.1074844E+005  0.1043930E+01  0.7957747E-01            NaN
         13   -1    0    0    0    0  0.00000000000E+00  0.00000000000E+00  0.74505805969E-08  0.10566000000E+00  0.10566000000E+00 0.  1.
     999900   -1    0    0    0    0 -0.00000000000E+00 -0.00000000000E+00 -0.74505805969E-08  0.93827000000E+00  0.93827000000E+00 0.  1.
     999902    2    1    2    0    0 -0.17187052160E-01  0.11765069832E-01 -0.10917801547E-01  0.10204138349E+01  0.10201428255E+01 0.  0.
     999903    2    3    3    0    0 -0.87568859818E-01  0.46356327604E-01 -0.87425476630E-01  0.13361984625E+00  0.19845277279E-01 0.  0.
         14    1    1    2    0    0  0.17187052160E-01 -0.11765069832E-01  0.10917801547E-01  0.23516165094E-01  0.00000000000E+00 0.  1.
     999901    1    3    3    0    0  0.70381807658E-01 -0.34591257772E-01  0.76507675083E-01  0.88679398865E+00  0.88000000000E+00 0. -1.
        -11    1    4    4    0    0 -0.50114612604E-01  0.37174739185E-01 -0.56654960452E-01  0.84282152884E-01  0.51100000000E-03 0. -1.
         11    1    4    4    0    0 -0.37454247214E-01  0.91815884198E-02 -0.30770516178E-01  0.49337693370E-01  0.51100000000E-03 0.  1.
</event>
<event>
 8    1  0.1074844E+005  0.1043930E+01  0.7957747E-01            NaN
         13   -1    0    0    0    0  0.00000000000E+00  0.00000000000E+00  0.74505805969E-08  0.10566000000E+00  0.10566000000E+00 0. -1.
     999900   -1    0    0    0    0 -0.00000000000E+00 -0.00000000000E+00 -0.74505805969E-08  0.93827000000E+00  0.93827000000E+00 0.  1.
     999902    2    1    2    0    0 -0.14701800509E-01 -0.10052982877E-01 -0.27920699409E-01  0.10108124690E+01  0.10102698039E+01 0.  0.
     999903    2    3    3    0    0 -0.53315939740E-01 -0.17176394269E-01  0.10422213456E+00  0.12008045359E+00  0.20480333276E-01 0.  0.
         14    1    1    2    0    0  0.14701800509E-01  0.10052982877E-01  0.27920699409E-01  0.33117530983E-01  0.00000000000E+00 0. -1.
     999901    1    3    3    0    0  0.38614139231E-01  0.71234113922E-02 -0.13214283397E+00  0.89073201543E+00  0.88000000000E+00 0.  1.
        -11    1    4    4    0    0 -0.20435104052E-01 -0.54288887842E-03  0.54352402650E-01  0.58071791782E-01  0.51100000000E-03 0. -1.
         11    1    4    4    0    0 -0.32880835688E-01 -0.16633505391E-01  0.49869731912E-01  0.62008661807E-01  0.51100000000E-03 0.  1.
</event>
<event>
 8    1  0.1074844E+005  0.1043930E+01  0.7957747E-01            NaN
         13   -1    0    0    0    0  0.00000000000E+00  0.00000000000E+00  0.74505805969E-08  0.10566000000E+00  0.10566000000E+00 0.  1.
     999900   -1    0    0    0    0 -0.00000000000E+00 -0.00000000000E+00 -0.74505805969E-08  0.93827000000E+00  0.93827000000E+00 0.  1.
     999902    2    1    2    0    0  0.14381165482E-01 -0.30775519801E-02  0.19537998075E-01  0.10194754991E+01  0.10191821577E+01 0.  0.
     999903    2    3    3    0    0 -0.62071022586E-01  0.11013234674E+00 -0.10422411603E-01  0.12843170420E+00  0.20102993269E-01 0.  0.
         14    1    1    2    0    0 -0.14381165482E-01  0.30775519801E-02 -0.19537998075E-01  0.24454500927E-01  0.00000000000E+00 0. -1.
     999901    1    3    3    0    0  0.76452188068E-01 -0.11320989872E+00  0.29960409678E-01  0.89104379487E+00  0.88000000000E+00 0.  1.
        -11    1    4    4    0    0 -0.34399917489E-01  0.41035052554E-01 -0.56225231926E-02  0.53843325951E-01  0.51100000000E-03 0.  1.
         11    1    4    4    0    0 -0.27671105097E-01  0.69097294182E-01 -0.47998884104E-02  0.74588378252E-01  0.51100000000E-03 0. -1.
</event>
<event>
 8    1  0.1074844E+005  0.1043930E+01  0.7957747E-01            NaN
         13   -1    0    0    0    0  0.00000000000E+00  0.00000000000E+00  0.74505805969E-08  0.10566000000E+00  0.10566000000E+00 0. -1.
     999900   -1    0    0    0    0 -0.00000000000E+00 -0.00000000000E+00 -0.74505805969E-08  0.93827000000E+00  0.93827000000E+00 0. -1.
     999902    2    1    2    0    0  0.41633772270E-02 -0.62195737854E-02  0.21986857840E-01  0.10207041798E+01  0.10204398972E+01 0.  0.
     999903    2    3    3    0    0  0.11990888431E+00 -0.49692776836E-01 -0.78271751362E-02  0.13156087390E+00  0.19987152482E-01 0.  0.
         14    1    1    2    0    0 -0.41633772270E-02  0.62195737854E-02 -0.21986857840E-01  0.23225820237E-01  0.00000000000E+00 0.  1.
     999901    1    3    3    0    0 -0.11574550709E+00  0.43473203051E-01  0.29814032976E-01  0.88914330586E+00  0.88000000000E+00 0. -1.
        -11    1    4    4    0    0  0.92919104983E-01 -0.31258017832E-01 -0.39506019036E-03  0.98037956646E-01  0.51100000000E-03 0.  1.
         11    1    4    4    0    0  0.26989779330E-01 -0.18434759004E-01 -0.74321149458E-02  0.33522917257E-01  0.51100000000E-03 0. -1.
</event>
<event>
 8    1  0.1074844E+005  0.1043930E+01  0.7957747E-01            NaN
         13   -1    0    0    0    0  0.00000000000E+00  0.00000000000E+00  0.74505805969E-08  0.10566000000E+00  0.10566000000E+00 0.  1.
     999900   -1    0    0    0    0 -0.00000000000E+00 -0.00000000000E+00 -0.74505805969E-08  0.93827000000E+00  0.93827000000E+00 0. -1.
     999902    2    1    2    0    0 -0.26434843639E-02 -0.99031989664E-02  0.23315880048E-01  0.10184605748E+01  0.10181420582E+01 0.  0.
     999903    2    3    3    0    0  0.28356503535E-01  0.97025587195E-01 -0.73026502312E-01  0.12622931596E+00  0.19568196223E-01 0.  0.
         14    1    1    2    0    0  0.26434843639E-02  0.99031989664E-02 -0.23315880048E-01  0.25469425234E-01  0.00000000000E+00 0. -1.
     999901    1    3    3    0    0 -0.30999987899E-01 -0.10692878616E+00  0.96342382360E-01  0.89223125881E+00  0.88000000000E+00 0.  1.
        -11    1    4    4    0    0  0.14036298530E-01  0.77313014401E-01 -0.54910897551E-01  0.95863380198E-01  0.51100000000E-03 0.  1.
         11    1    4    4    0    0  0.14320205005E-01  0.19712572793E-01 -0.18115604762E-01  0.30365935757E-01  0.51100000000E-03 0. -1.
</event>
<event>
 8    1  0.1074844E+005  0.1043930E+01  0.7957747E-01            NaN
         13   -1    0    0    0    0  0.00000000000E+00  0.00000000000E+00  0.74505805969E-08  0.10566000000E+00  0.10566000000E+00 0.  1.
     999900   -1    0    0    0    0 -0.00000000000E+00 -0.00000000000E+00 -0.74505805969E-08  0.93827000000E+00  0.93827000000E+00 0.  1.
     999902    2    1    2    0    0  0.13551040550E-01  0.11640782016E-01  0.71985769586E-02  0.10246697296E+01  0.10244887001E+01 0.  0.
     999903    2    3    3    0    0  0.13428150633E+00 -0.96997137122E-02 -0.25906740778E-02  0.13611635947E+00  0.19883267662E-01 0.  0.
         14    1    1    2    0    0 -0.13551040550E-01 -0.11640782016E-01 -0.71985769586E-02  0.19260270407E-01  0.00000000000E+00 0. -1.
     999901    1    3    3    0    0 -0.12073046578E+00  0.21340495728E-01  0.97892510364E-02  0.88855337013E+00  0.88000000000E+00 0. -1.
        -11    1    4    4    0    0  0.99007577172E-01  0.49058948683E-03  0.25218698773E-02  0.99042223139E-01  0.51100000000E-03 0.  1.
         11    1    4    4    0    0  0.35273929162E-01 -0.10190303199E-01 -0.51125439550E-02  0.37074136328E-01  0.51100000000E-03 0. -1.
</event>
<event>
 8    1  0.1074844E+005  0.1043930E+01  0.7957747E-01            NaN
         13   -1    0    0    0    0  0.00000000000E+00  0.00000000000E+00  0.74505805969E-08  0.10566000000E+00  0.10566000000E+00 0.  1.
     999900   -1    0    0    0    0 -0.00000000000E+00 -0.00000000000E+00 -0.74505805969E-08  0.93827000000E+00  0.93827000000E+00 0. -1.
     999902    2    1    2    0    0 -0.11871730387E-01  0.13663188154E-01  0.14278158842E-01  0.10208760087E+01  0.10206156665E+01 0.  0.
     999903    2    3    3    0    0 -0.49644559944E-01 -0.28742948612E-01 -0.11465961056E+00  0.12966895342E+00  0.19402880202E-01 0.  0.
         14    1    1    2    0    0  0.11871730387E-01 -0.13663188154E-01 -0.14278158842E-01  0.23053991256E-01  0.00000000000E+00 0. -1.
     999901    1    3    3    0    0  0.37772829556E-01  0.42406136766E-01  0.12893776940E+00  0.89120705533E+00  0.88000000000E+00 0.  1.
        -11    1    4    4    0    0 -0.15395488097E-02 -0.60688101628E-02 -0.21483494548E-01  0.22383081252E-01  0.51100000000E-03 0. -1.
         11    1    4    4    0    0 -0.48105011134E-01 -0.22674138449E-01 -0.93176116008E-01  0.10728587216E+00  0.51100000000E-03 0.  1.
</event>
<event>
 8    1  0.1074844E+005  0.1043930E+01  0.7957747E-01            NaN
         13   -1    0    0    0    0  0.00000000000E+00  0.00000000000E+00  0.74505805969E-08  0.10566000000E+00  0.10566000000E+00 0. -1.
     999900   -1    0    0    0    0 -0.00000000000E+00 -0.00000000000E+00 -0.74505805969E-08  0.93827000000E+00  0.93827000000E+00 0.  1.
     999902    2    1    2    0    0 -0.28784870419E-02 -0.14906531752E-01  0.17525841799E-01  0.10207428159E+01  0.10204794220E+01 0.  0.
     999903    2    3    3    0    0 -0.10225303201E+00  0.22816574483E-01 -0.73828536650E-01  0.12965137535E+00  0.19558826148E-01 0.  0.
         14    1    1    2    0    0  0.28784870419E-02  0.14906531752E-01 -0.17525841799E-01  0.23187184117E-01  0.00000000000E+00 0.  1.
     999901    1    3    3    0    0  0.99374544965E-01 -0.37723106235E-01  0.91354378449E-01  0.89109144053E+00  0.88000000000E+00 0. -1.
        -11    1    4    4    0    0 -0.35602950610E-01  0.15887415824E-01 -0.20766077110E-01  0.44175458722E-01  0.51100000000E-03 0.  1.
         11    1    4    4    0    0 -0.66650081396E-01  0.69291586594E-02 -0.53062459540E-01  0.85475916627E-01  0.51100000000E-03 0. -1.
</event>
<event>
 8    1  0.1074844E+005  0.1043930E+01  0.7957747E-01            NaN
         13   -1    0    0    0    0  0.00000000000E+00  0.00000000000E+00  0.74505805969E-08  0.10566000000E+00  0.10566000000E+00 0.  1.
     999900   -1    0    0    0    0 -0.00000000000E+00 -0.00000000000E+00 -0.74505805969E-08  0.93827000000E+00  0.93827000000E+00 0.  1.
     999902    2    1    2    0    0 -0.11436509932E-01  0.10104404237E-01  0.18167947590E-01  0.10202030730E+01  0.10199271264E+01 0.  0.
     999903    2    3    3    0    0  0.68169665043E-01  0.90053188472E-01  0.65208890785E-01  0.13175397401E+00  0.18714439429E-01 0.  0.
         14    1    1    2    0    0  0.11436509932E-01 -0.10104404237E-01 -0.18167947590E-01  0.23726926983E-01  0.00000000000E+00 0. -1.
     999901    1    3    3    0    0 -0.79606174976E-01 -0.79948784236E-01 -0.47040943194E-01  0.88844909901E+00  0.88000000000E+00 0. -1.
        -11    1    4    4    0    0  0.61297267595E-02  0.44897560053E-02  0.98294131666E-02  0.12434224678E-01  0.51100000000E-03 0.  1.
         11    1    4    4    0    0  0.62039938284E-01  0.85563432467E-01  0.55379477618E-01  0.11931974933E+00  0.51100000000E-03 0. -1.
</event>
<event>
 8    1  0.1074844E+005  0.1043930E+01  0.7957747E-01            NaN
         13   -1    0    0    0    0  0.00000000000E+00  0.00000000000E+00  0.74505805969E-08  0.10566000000E+00  0.10566000000E+00 0. -1.
     999900   -1    0    0    0    0 -0.00000000000E+00 -0.00000000000E+00 -0.74505805969E-08  0.93827000000E+00  0.93827000000E+00 0.  1.
     999902    2    1    2    0    0  0.21352488773E-01  0.86576825942E-02 -0.48973041729E-02  0.10203743673E+01  0.10201024368E+01 0.  0.
     999903    2    3    3    0    0 -0.56410870238E-01 -0.41472922023E-01  0.10574977374E+00  0.12863281651E+00  0.21475504527E-01 0.  0.
         14    1    1    2    0    0 -0.21352488773E-01 -0.86576825942E-02  0.48973041729E-02  0.23555632720E-01  0.00000000000E+00 0.  1.
     999901    1    3    3    0    0  0.77763359011E-01  0.50130604617E-01 -0.11064707791E+00  0.89174155077E+00  0.88000000000E+00 0.  1.
        -11    1    4    4    0    0 -0.35576286158E-01 -0.18365301890E-01  0.44037361249E-01  0.59518961324E-01  0.51100000000E-03 0. -1.
         11    1    4    4    0    0 -0.20834584080E-01 -0.23107620133E-01  0.61712412490E-01  0.69113855183E-01  0.51100000000E-03 0.  1.
</event>
<event>
 8    1  0.1074844E+005  0.1043930E+01  0.7957747E-01            NaN
         13   -1    0    0    0    0  0.00000000000E+00  0.00000000000E+00  0.74505805969E-08  0.10566000000E+00  0.10566000000E+00 0.  1.
     999900   -1    0    0    0    0 -0.00000000000E+00 -0.00000000000E+00 -0.74505805969E-08  0.93827000000E+00  0.93827000000E+00 0. -1.
     999902    2    1    2    0    0  0.12318836477E-01 -0.14394592789E-01  0.13176185393E-01  0.10208525241E+01  0.10205916451E+01 0.  0.
     999903    2    3    3    0    0 -0.41352775426E-01 -0.56419254187E-01 -0.10798339406E+00  0.12993930844E+00  0.18183129729E-01 0.  0.
         14    1    1    2    0    0 -0.12318836477E-01  0.14394592789E-01 -0.13176185393E-01  0.23077475928E-01  0.00000000000E+00 0. -1.
     999901    1    3    3    0    0  0.53671611903E-01  0.42024661398E-01  0.12115957946E+00  0.89091321563E+00  0.88000000000E+00 0.  1.
        -11    1    4    4    0    0 -0.36552870582E-01 -0.38058567219E-01 -0.72173499132E-01  0.89408288120E-01  0.51100000000E-03 0.  1.
         11    1    4    4    0    0 -0.47999048444E-02 -0.18360686968E-01 -0.35809894931E-01  0.40531020323E-01  0.51100000000E-03 0. -1.
</event>
<event>
 8    1  0.1074844E+005  0.1043930E+01  0.7957747E-01            NaN
         13   -1    0    0    0    0  0.00000000000E+00  0.00000000000E+00  0.74505805969E-08  0.10566000000E+00  0.10566000000E+00 0. -1.
     999900   -1    0    0    0    0 -0.00000000000E+00 -0.00000000000E+00 -0.74505805969E-08  0.93827000000E+00  0.93827000000E+00 0. -1.
     999902    2    1    2    0    0 -0.83768611642E-02 -0.10977511932E-01  0.19726598997E-01  0.10198506254E+01  0.10195663205E+01 0.  0.
     999903    2    3    3    0    0 -0.10004787474E+00  0.78010999426E-01 -0.19096247796E-01  0.12977773892E+00  0.19552533525E-01 0.  0.
         14    1    1    2    0    0  0.83768611642E-02  0.10977511932E-01 -0.19726598997E-01  0.24079374560E-01  0.00000000000E+00 0.  1.
     999901    1    3    3    0    0  0.91671013580E-01 -0.88988511358E-01  0.38822846793E-01  0.89007288652E+00  0.88000000000E+00 0. -1.
        -11    1    4    4    0    0 -0.48904536721E-01  0.36964562385E-01  0.58697940161E-03  0.61307734015E-01  0.51100000000E-03 0. -1.
         11    1    4    4    0    0 -0.51143338023E-01  0.41046437041E-01 -0.19683227198E-01  0.68470004906E-01  0.51100000000E-03 0.  1.
</event>
<event>
 8    1  0.1074844E+005  0.1043930E+01  0.7957747E-01            NaN
         13   -1    0    0    0    0  0.00000000000E+00  0.00000000000E+00  0.74505805969E-08  0.10566000000E+00  0.10566000000E+00 0.  1.
     999900   -1    0    0    0    0 -0.00000000000E+00 -0.00000000000E+00 -0.74505805969E-08  0.93827000000E+00  0.93827000000E+00 0. -1.
     999902    2    1    2    0    0  0.58232607655E-02 -0.28741162108E-02 -0.15648473867E-01  0.10269875786E+01  0.10268478178E+01 0.  0.
     999903    2    3    3    0    0 -0.66627898991E-01 -0.79489455175E-01  0.84243683384E-01  0.13508089970E+00  0.19799011728E-01 0.  0.
         14    1    1    2    0    0 -0.58232607655E-02  0.28741162108E-02  0.15648473867E-01  0.16942421441E-01  0.00000000000E+00 0.  1.
     999901    1    3    3    0    0  0.72451159756E-01  0.76615338964E-01 -0.99892157251E-01  0.89190667886E+00  0.88000000000E+00 0.  1.
        -11    1    4    4    0    0 -0.56637271295E-01 -0.61596825901E-01  0.75815012164E-01  0.11291645873E+00  0.51100000000E-03 0. -1.
         11    1    4    4    0    0 -0.99906276957E-02 -0.17892629274E-01  0.84286712200E-02  0.22164440973E-01  0.51100000000E-03 0.  1.
</event>
<event>
 8    1  0.1074844E+005  0.1043930E+01  0.7957747E-01            NaN
         13   -1    0    0    0    0  0.00000000000E+00  0.00000000000E+00  0.74505805969E-08  0.10566000000E+00  0.10566000000E+00 0.  1.
     999900   -1    0    0    0    0 -0.00000000000E+00 -0.00000000000E+00 -0.74505805969E-08  0.93827000000E+00  0.93827000000E+00 0. -1.
     999902    2    1    2    0    0  0.14303697273E-01 -0.13168640233E-01 -0.12733266812E-01  0.10206889818E+01  0.10204243493E+01 0.  0.
     999903    2    3    3    0    0 -0.18194739428E-01  0.95101563675E-01  0.81859687148E-01  0.12842981973E+00  0.20441483766E-01 0.  0.
         14    1    1    2    0    0 -0.14303697273E-01  0.13168640233E-01  0.12733266812E-01  0.23241018157E-01  0.00000000000E+00 0.  1.
     999901    1    3    3    0    0  0.32498436701E-01 -0.10827020391E+00 -0.94592953960E-01  0.89225916212E+00  0.88000000000E+00 0. -1.
        -11    1    4    4    0    0 -0.33762471196E-02  0.14574233197E-01  0.23564792702E-01  0.27917161281E-01  0.51100000000E-03 0.  1.
         11    1    4    4    0    0 -0.14818492308E-01  0.80527330478E-01  0.58294894446E-01  0.10051265844E+00  0.51100000000E-03 0. -1.
</event>
<event>
 8    1  0.1074844E+005  0.1043930E+01  0.7957747E-01            NaN
         13   -1    0    0    0    0  0.00000000000E+00  0.00000000000E+00  0.74505805969E-08  0.10566000000E+00  0.10566000000E+00 0.  1.
     999900   -1    0    0    0    0 -0.00000000000E+00 -0.00000000000E+00 -0.74505805969E-08  0.93827000000E+00  0.93827000000E+00 0.  1.
     999902    2    1    2    0    0 -0.10838683239E-01 -0.48411009613E-03 -0.21211289670E-01  0.10201050084E+01  0.10198267489E+01 0.  0.
     999903    2    3    3    0    0  0.23020305482E-01  0.58151434108E-01 -0.11514179585E+00  0.13251980223E+00  0.19807601499E-01 0.  0.
         14    1    1    2    0    0  0.10838683239E-01  0.48411009613E-03  0.21211289670E-01  0.23824991635E-01  0.00000000000E+00 0.  1.
     999901    1    3    3    0    0 -0.33858988721E-01 -0.58635544204E-01  0.93930506183E-01  0.88758520614E+00  0.88000000000E+00 0. -1.
        -11    1    4    4    0    0  0.14728730303E-01  0.37889358987E-01 -0.92400582692E-01  0.10094883765E+00  0.51100000000E-03 0.  1.
         11    1    4    4    0    0  0.82915751791E-02  0.20262075121E-01 -0.22741213160E-01  0.31570964574E-01  0.51100000000E-03 0. -1.
</event>
<event>
 8    1  0.1074844E+005  0.1043930E+01  0.7957747E-01            NaN
         13   -1    0    0    0    0  0.00000000000E+00  0.00000000000E+00  0.74505805969E-08  0.10566000000E+00  0.10566000000E+00 0. -1.
     999900   -1    0    0    0    0 -0.00000000000E+00 -0.00000000000E+00 -0.74505805969E-08  0.93827000000E+00  0.93827000000E+00 0.  1.
     999902    2    1    2    0    0 -0.12284822968E-02 -0.22409957390E-01  0.55250844245E-02  0.10208163262E+01  0.10205546188E+01 0.  0.
     999903    2    3    3    0    0  0.12381295422E-01  0.58549882709E-01 -0.11271737116E+00  0.12912075030E+00  0.19636118633E-01 0.  0.
         14    1    1    2    0    0  0.12284822968E-02  0.22409957390E-01 -0.55250844245E-02  0.23113673808E-01  0.00000000000E+00 0.  1.
     999901    1    3    3    0    0 -0.13609777719E-01 -0.80959840099E-01  0.11824245559E+00  0.89169557589E+00  0.88000000000E+00 0. -1.
        -11    1    4    4    0    0 -0.49104182174E-02  0.21956145617E-01 -0.40855048929E-01  0.46643120408E-01  0.51100000000E-03 0. -1.
         11    1    4    4    0    0  0.17291713640E-01  0.36593737092E-01 -0.71862322235E-01  0.82477629894E-01  0.51100000000E-03 0.  1.
</event>
<event>
 8    1  0.1074844E+005  0.1043930E+01  0.7957747E-01            NaN
         13   -1    0    0    0    0  0.00000000000E+00  0.00000000000E+00  0.74505805969E-08  0.10566000000E+00  0.10566000000E+00 0. -1.
     999900   -1    0    0    0    0 -0.00000000000E+00 -0.00000000000E+00 -0.74505805969E-08  0.93827000000E+00  0.93827000000E+00 0. -1.
     999902    2    1    2    0    0 -0.13341508287E-01  0.18565934965E-01  0.51361452581E-02  0.10204977621E+01  0.10202287061E+01 0.  0.
     999903    2    3    3    0    0  0.25801730777E-01  0.12296604551E+00  0.38505220194E-01  0.13283506074E+00  0.19393909310E-01 0.  0.
         14    1    1    2    0    0  0.13341508287E-01 -0.18565934965E-01 -0.51361452581E-02  0.23432237891E-01  0.00000000000E+00 0. -1.
     999901    1    3    3    0    0 -0.39143239063E-01 -0.10440011055E+00 -0.33369074936E-01  0.88766270137E+00  0.88000000000E+00 0. -1.
        -11    1    4    4    0    0  0.20649739851E-01  0.51674474582E-01  0.16442358096E-01  0.58028228821E-01  0.51100000000E-03 0. -1.
         11    1    4    4    0    0  0.51519909252E-02  0.71291570931E-01  0.22062862098E-01  0.74806831915E-01  0.51100000000E-03 0.  1.
</event>
<event>
 8    1  0.1074844E+005  0.1043930E+01  0.7957747E-01            NaN
         13   -1    0    0    0    0  0.00000000000E+00  0.00000000000E+00  0.74505805969E-08  0.10566000000E+00  0.10566000000E+00 0.  1.
     999900   -1    0    0    0    0 -0.00000000000E+00 -0.00000000000E+00 -0.74505805969E-08  0.93827000000E+00  0.93827000000E+00 0. -1.
     999902    2    1    2    0    0 -0.36798540080E-02  0.59661506034E-02 -0.22918079944E-01  0.10199638850E+01  0.10196822800E+01 0.  0.
     999903    2    3    3    0    0 -0.21325239159E-01 -0.32014788153E-01 -0.12568215563E+00  0.13299468231E+00  0.20294550794E-01 0.  0.
         14    1    1    2    0    0  0.36798540080E-02 -0.59661506034E-02  0.22918079944E-01  0.23966114972E-01  0.00000000000E+00 0.  1.
     999901    1    3    3    0    0  0.17645385151E-01  0.37980938756E-01  0.10276407569E+00  0.88696920272E+00  0.88000000000E+00 0. -1.
        -11    1    4    4    0    0 -0.13499918985E-01 -0.39059210517E-02 -0.47756944937E-01  0.49784444785E-01  0.51100000000E-03 0. -1.
         11    1    4    4    0    0 -0.78253201745E-02 -0.28108867101E-01 -0.77925210694E-01  0.83210237521E-01  0.51100000000E-03 0.  1.
</event>
<event>
 8    1  0.1074844E+005  0.1043930E+01  0.7957747E-01            NaN
         13   -1    0    0    0    0  0.00000000000E+00  0.00000000000E+00  0.74505805969E-08  0.10566000000E+00  0.10566000000E+00 0.  1.
     999900   -1    0    0    0    0 -0.00000000000E+00 -0.00000000000E+00 -0.74505805969E-08  0.93827000000E+00  0.93827000000E+00 0.  1.
     999902    2    1    2    0    0  0.18828137429E-01 -0.12879394639E-01  0.70915263556E-02  0.10200413560E+01  0.10197615901E+01 0.  0.
     999903    2    3    3    0    0  0.11779766609E+00  0.60116146298E-02 -0.55162361670E-01  0.13210702038E+00  0.22292353886E-01 0.  0.
         14    1    1    2    0    0 -0.18828137429E-01  0.12879394639E-01 -0.70915263556E-02  0.23888643983E-01  0.00000000000E+00 0. -1.
     999901    1    3    3    0    0 -0.98969528659E-01 -0.18891009269E-01  0.62253888026E-01  0.88793433564E+00  0.88000000000E+00 0. -1.
        -11    1    4    4    0    0  0.85674014812E-01  0.14203633078E-01 -0.41408769395E-01  0.96211887574E-01  0.51100000000E-03 0. -1.
         11    1    4    4    0    0  0.32123651275E-01 -0.81920184482E-02 -0.13753592275E-01  0.35895132803E-01  0.51100000000E-03 0.  1.
</event>
<event>
 8    1  0.1074844E+005  0.1043930E+01  0.7957747E-01            NaN
         13   -1    0    0    0    0  0.00000000000E+00  0.00000000000E+00  0.74505805969E-08  0.10566000000E+00  0.10566000000E+00 0. -1.
     999900   -1    0    0    0    0 -0.00000000000E+00 -0.00000000000E+00 -0.74505805969E-08  0.93827000000E+00  0.93827000000E+00 0.  1.
     999902    2    1    2    0    0 -0.14697520870E-01 -0.16787302403E-02 -0.17455857088E-01  0.10210489554E+01  0.10207925485E+01 0.  0.
     999903    2    3    3    0    0 -0.92188918764E-01 -0.84653872071E-01  0.37054256122E-01  0.13208262120E+00  0.20192229380E-01 0.  0.
         14    1    1    2    0    0  0.14697520870E-01  0.16787302403E-02  0.17455857088E-01  0.22881044592E-01  0.00000000000E+00 0. -1.
     999901    1    3    3    0    0  0.77491397893E-01  0.82975141831E-01 -0.54510113210E-01  0.88896633421E+00  0.88000000000E+00 0. -1.
        -11    1    4    4    0    0 -0.40697159247E-01 -0.51020070517E-01  0.18337578502E-01  0.67792582726E-01  0.51100000000E-03 0. -1.
         11    1    4    4    0    0 -0.51491759517E-01 -0.33633801555E-01  0.18716677620E-01  0.64290038476E-01  0.51100000000E-03 0.  1.
</event>
<event>
 8    1  0.1074844E+005  0.1043930E+01  0.7957747E-01            NaN
         13   -1    0    0    0    0  0.00000000000E+00  0.00000000000E+00  0.74505805969E-08  0.10566000000E+00  0.10566000000E+00 0.  1.
     999900   -1    0    0    0    0 -0.00000000000E+00 -0.00000000000E+00 -0.74505805969E-08  0.93827000000E+00  0.93827000000E+00 0.  1.
     999902    2    1    2    0    0 -0.61797927779E-02 -0.29655022561E-02 -0.23488884092E-01  0.10194614136E+01  0.10191677302E+01 0.  0.
     999903    2    3    3    0    0  0.52920991724E-01 -0.82865930885E-01  0.79655988467E-01  0.12788088113E+00  0.18467522656E-01 0.  0.
         14    1    1    2    0    0  0.61797927779E-02  0.29655022561E-02  0.23488884092E-01  0.24468586357E-01  0.00000000000E+00 0.  1.
     999901    1    3    3    0    0 -0.59100784502E-01  0.79900428629E-01 -0.10314487256E+00  0.89158053251E+00  0.88000000000E+00 0. -1.
        -11    1    4    4    0    0  0.40114535196E-01 -0.74823406747E-01  0.66910681021E-01  0.10809726401E+00  0.51100000000E-03 0.  1.
         11    1    4    4    0    0  0.12806456528E-01 -0.80425241384E-02  0.12745307446E-01  0.19783617117E-01  0.51100000000E-03 0. -1.
</event>
<event>
 8    1  0.1074844E+005  0.1043930E+01  0.7957747E-01            NaN
         13   -1    0    0    0    0  0.00000000000E+00  0.00000000000E+00  0.74505805969E-08  0.10566000000E+00  0.10566000000E+00 0. -1.
     999900   -1    0    0    0    0 -0.00000000000E+00 -0.00000000000E+00 -0.74505805969E-08  0.93827000000E+00  0.93827000000E+00 0.  1.
     999902    2    1    2    0    0  0.13978427790E-01  0.19083017452E-01  0.13922110143E-02  0.10202340879E+01  0.10199588707E+01 0.  0.
     999903    2    3    3    0    0  0.12278464804E+00 -0.11307300896E-01  0.41040557347E-01  0.13212691172E+00  0.23859350528E-01 0.  0.
         14    1    1    2    0    0 -0.13978427790E-01 -0.19083017452E-01 -0.13922110143E-02  0.23695912096E-01  0.00000000000E+00 0.  1.
     999901    1    3    3    0    0 -0.10880622025E+00  0.30390318348E-01 -0.39648346333E-01  0.88810717618E+00  0.88000000000E+00 0. -1.
        -11    1    4    4    0    0  0.79138043893E-01  0.11138457521E-02  0.34245397702E-01  0.86238500847E-01  0.51100000000E-03 0.  1.
         11    1    4    4    0    0  0.43646604144E-01 -0.12421146648E-01  0.67951596455E-02  0.45888410878E-01  0.51100000000E-03 0. -1.
</event>
<event>
 8    1  0.1074844E+005  0.1043930E+01  0.7957747E-01            NaN
         13   -1    0    0    0    0  0.00000000000E+00  0.00000000000E+00  0.74505805969E-08  0.10566000000E+00  0.10566000000E+00 0.  1.
     999900   -1    0    0    0    0 -0.00000000000E+00 -0.00000000000E+00 -0.74505805969E-08  0.93827000000E+00  0.93827000000E+00 0.  1.
     999902    2    1    2    0    0  0.11432581843E-01  0.20468424084E-01  0.64251525711E-02  0.10196206829E+01  0.10193308561E+01 0.  0.
     999903    2    3    3    0    0  0.11951324393E+00 -0.46715091530E-01  0.11822798743E-01  0.13045017683E+00  0.20291742521E-01 0.  0.
         14    1    1    2    0    0 -0.11432581843E-01 -0.20468424084E-01 -0.64251525711E-02  0.24309317095E-01  0.00000000000E+00 0. -1.
     999901    1    3    3    0    0 -0.10808066208E+00  0.67183515613E-01 -0.53976461720E-02  0.88917050607E+00  0.88000000000E+00 0. -1.
        -11    1    4    4    0    0  0.21134504491E-01 -0.15714898892E-01 -0.18133318930E-02  0.26404064475E-01  0.51100000000E-03 0. -1.
         11    1    4    4    0    0  0.98378739437E-01 -0.31000192637E-01  0.13636130636E-01  0.10404611236E+00  0.51100000000E-03 0.  1.
</event>
<event>
 8    1  0.1074844E+005  0.1043930E+01  0.7957747E-01            NaN
         13   -1    0    0    0    0  0.00000000000E+00  0.00000000000E+00  0.74505805969E-08  0.10566000000E+00  0.10566000000E+00 0.  1.
     999900   -1    0    0    0    0 -0.00000000000E+00 -0.00000000000E+00 -0.74505805969E-08  0.93827000000E+00  0.93827000000E+00 0. -1.
     999902    2    1    2    0    0  0.61711914424E-02 -0.14155969659E-01 -0.17927878841E-01  0.10202681336E+01  0.10199937159E+01 0.  0.
     999903    2    3    3    0    0 -0.27521886324E-02 -0.16853584608E-01  0.12586941128E+00  0.12854813021E+00  0.19745764786E-01 0.  0.
         14    1    1    2    0    0 -0.61711914424E-02  0.14155969659E-01  0.17927878841E-01  0.23661866379E-01  0.00000000000E+00 0. -1.
     999901    1    3    3    0    0  0.89233800748E-02  0.26976149491E-02 -0.14379729012E+00  0.89172000341E+00  0.88000000000E+00 0. -1.
        -11    1    4    4    0    0  0.83144405681E-02 -0.44565346122E-02  0.48740901520E-01  0.49648033442E-01  0.51100000000E-03 0. -1.
         11    1    4    4    0    0 -0.11066629201E-01 -0.12397049996E-01  0.77128509763E-01  0.78900096766E-01  0.51100000000E-03 0.  1.
</event>
<event>
 8    1  0.1074844E+005  0.1043930E+01  0.7957747E-01            NaN
         13   -1    0    0    0    0  0.00000000000E+00  0.00000000000E+00  0.74505805969E-08  0.10566000000E+00  0.10566000000E+00 0.  1.
     999900   -1    0    0    0    0 -0.00000000000E+00 -0.00000000000E+00 -0.74505805969E-08  0.93827000000E+00  0.93827000000E+00 0.  1.
     999902    2    1    2    0    0 -0.15523675379E-02 -0.22937417825E-01 -0.66014155888E-02  0.10200111023E+01  0.10197306189E+01 0.  0.
     999903    2    3    3    0    0  0.91448723119E-02  0.92116271866E-01 -0.87651130760E-01  0.12876431333E+00  0.18124332554E-01 0.  0.
         14    1    1    2    0    0  0.15523675379E-02  0.22937417825E-01  0.66014155888E-02  0.23918897743E-01  0.00000000000E+00 0. -1.
     999901    1    3    3    0    0 -0.10697239850E-01 -0.11505368969E+00  0.81049715172E-01  0.89124678893E+00  0.88000000000E+00 0. -1.
        -11    1    4    4    0    0 -0.52785979893E-02  0.27630978141E-01 -0.23360746393E-01  0.36569388056E-01  0.51100000000E-03 0.  1.
         11    1    4    4    0    0  0.14423470301E-01  0.64485293724E-01 -0.64290384367E-01  0.92194925269E-01  0.51100000000E-03 0. -1.
</event>
<event>
 8    1  0.1074844E+005  0.1043930E+01  0.7957747E-01            NaN
         13   -1    0    0    0    0  0.00000000000E+00  0.00000000000E+00  0.74505805969E-08  0.10566000000E+00  0.10566000000E+00 0. -1.
     999900   -1    0    0    0    0 -0.00000000000E+00 -0.00000000000E+00 -0.74505805969E-08  0.93827000000E+00  0.93827000000E+00 0. -1.
     999902    2    1    2    0    0  0.94068389000E-03 -0.63601295985E-02  0.21491290401E-01  0.10214976194E+01  0.10212512790E+01 0.  0.
     999903    2    3    3    0    0 -0.10975344288E+00 -0.72163902104E-02  0.72052847563E-01  0.13312247686E+00  0.20786690261E-01 0.  0.
         14    1    1    2    0    0 -0.94068389000E-03  0.63601295985E-02 -0.21491290401E-01  0.22432380565E-01  0.00000000000E+00 0.  1.
     999901    1    3    3    0    0  0.11069412677E+00  0.85626061183E-03 -0.50561557162E-01  0.88837514258E+00  0.88000000000E+00 0. -1.
        -11    1    4    4    0    0 -0.45448753866E-01  0.63670966363E-02  0.34583266860E-01  0.57466447735E-01  0.51100000000E-03 0. -1.
         11    1    4    4    0    0 -0.64304689012E-01 -0.13583486847E-01  0.37469580703E-01  0.75656029124E-01  0.51100000000E-03 0.  1.
</event>
<event>
 8    1  0.1074844E+005  0.1043930E+01  0.7957747E-01            NaN
         13   -1    0    0    0    0  0.00000000000E+00  0.00000000000E+00  0.74505805969E-08  0.10566000000E+00  0.10566000000E+00 0.  1.
     999900   -1    0    0    0    0 -0.00000000000E+00 -0.00000000000E+00 -0.74505805969E-08  0.93827000000E+00  0.93827000000E+00 0.  1.
     999902    2    1    2    0    0  0.70540327495E-02  0.99903533441E-02 -0.22062629331E-01  0.10187044940E+01  0.10183921249E+01 0.  0.
     999903    2    3    3    0    0 -0.12238053604E+00 -0.16261013556E-01  0.26563234519E-01  0.12752161915E+00  0.17740962705E-01 0.  0.
         14    1    1    2    0    0 -0.70540327495E-02 -0.99903533441E-02  0.22062629331E-01  0.25225505961E-01  0.00000000000E+00 0.  1.
     999901    1    3    3    0    0  0.12943456879E+00  0.26251366900E-01 -0.48625863850E-01  0.89118287489E+00  0.88000000000E+00 0.  1.
        -11    1    4    4    0    0 -0.90414492009E-01 -0.12129438296E-01  0.11526895259E-01  0.91951259229E-01  0.51100000000E-03 0.  1.
         11    1    4    4    0    0 -0.31966044036E-01 -0.41315752601E-02  0.15036339260E-01  0.35570359920E-01  0.51100000000E-03 0. -1.
</event>
