<event>
 8    1  0.1092993E+005  0.1043930E+01  0.7957747E-01            NaN
         13   -1    0    0    0    0  0.00000000000E+00  0.00000000000E+00  0.74505805969E-08  0.10566000000E+00  0.10566000000E+00 0.  1.
     999900   -1    0    0    0    0 -0.00000000000E+00 -0.00000000000E+00 -0.74505805969E-08  0.93827000000E+00  0.93827000000E+00 0.  1.
     999902    2    1    2    0    0 -0.60694105386E-02 -0.23883376154E-01  0.71366345606E-02  0.10182748845E+01  0.10179516469E+01 0.  0.
     999903    2    3    3    0    0 -0.11732093120E+00 -0.46701996224E-01 -0.24793671360E-01  0.13040263311E+00  0.21091307068E-01 0.  0.
         14    1    1    2    0    0  0.60694105386E-02  0.23883376154E-01 -0.71366345606E-02  0.25655115546E-01  0.00000000000E+00 0.  1.
     999901    1    3    3    0    0  0.11125152066E+00  0.22818620070E-01  0.31930305920E-01  0.88787225134E+00  0.88000000000E+00 0. -1.
        -11    1    4    4    0    0 -0.49723135436E-01 -0.30774570544E-01 -0.13833856749E-01  0.60092437988E-01  0.51100000000E-03 0.  1.
         11    1    4    4    0    0 -0.67597795763E-01 -0.15927425680E-01 -0.10959814610E-01  0.70310195122E-01  0.51100000000E-03 0. -1.
</event>
<event>
 8    1  0.1092993E+005  0.1043930E+01  0.7957747E-01            NaN
         13   -1    0    0    0    0  0.00000000000E+00  0.00000000000E+00  0.74505805969E-08  0.10566000000E+00  0.10566000000E+00 0. -1.
     999900   -1    0    0    0    0 -0.00000000000E+00 -0.00000000000E+00 -0.74505805969E-08  0.93827000000E+00  0.93827000000E+00 0. -1.
     999902    2    1    2    0    0  0.87057521357E-03 -0.10184034591E-01  0.21894716269E-01  0.10197669898E+01  0.10194806827E+01 0.  0.
     999903    2    3    3    0    0  0.12820122155E+00 -0.88813568327E-02 -0.60522025613E-02  0.13016268408E+00  0.19780380838E-01 0.  0.
         14    1    1    2    0    0 -0.87057521357E-03  0.10184034591E-01 -0.21894716269E-01  0.24163010207E-01  0.00000000000E+00 0.  1.
     999901    1    3    3    0    0 -0.12733064634E+00 -0.13026777585E-02  0.27946918830E-01  0.88960430571E+00  0.88000000000E+00 0.  1.
        -11    1    4    4    0    0  0.10309031607E+00 -0.14547370123E-01 -0.22584916661E-02  0.10413741475E+00  0.51100000000E-03 0.  1.
         11    1    4    4    0    0  0.25110905477E-01  0.56660132907E-02 -0.37937108951E-02  0.26025269333E-01  0.51100000000E-03 0. -1.
</event>
<event>
 8    1  0.1092993E+005  0.1043930E+01  0.7957747E-01            NaN
         13   -1    0    0    0    0  0.00000000000E+00  0.00000000000E+00  0.74505805969E-08  0.10566000000E+00  0.10566000000E+00 0.  1.
     999900   -1    0    0    0    0 -0.00000000000E+00 -0.00000000000E+00 -0.74505805969E-08  0.93827000000E+00  0.93827000000E+00 0. -1.
     999902    2    1    2    0    0 -0.16871956437E-01 -0.11738305114E-02  0.14815831737E-01  0.10214455684E+01  0.10211980707E+01 0.  0.
     999903    2    3    3    0    0  0.48570014256E-01 -0.63186189645E-01 -0.10005339517E+00  0.12941242809E+00  0.19630430742E-01 0.  0.
         14    1    1    2    0    0  0.16871956437E-01  0.11738305114E-02 -0.14815831737E-01  0.22484431551E-01  0.00000000000E+00 0. -1.
     999901    1    3    3    0    0 -0.65441970694E-01  0.62012359134E-01  0.11486922691E+00  0.89203314036E+00  0.88000000000E+00 0.  1.
        -11    1    4    4    0    0  0.27171632130E-01 -0.36111882907E-01 -0.71654573136E-01  0.84717203991E-01  0.51100000000E-03 0.  1.
         11    1    4    4    0    0  0.21398382126E-01 -0.27074306738E-01 -0.28398822037E-01  0.44695224096E-01  0.51100000000E-03 0. -1.
</event>
<event>
 8    1  0.1092993E+005  0.1043930E+01  0.7957747E-01            NaN
         13   -1    0    0    0    0  0.00000000000E+00  0.00000000000E+00  0.74505805969E-08  0.10566000000E+00  0.10566000000E+00 0.  1.
     999900   -1    0    0    0    0 -0.00000000000E+00 -0.00000000000E+00 -0.74505805969E-08  0.93827000000E+00  0.93827000000E+00 0.  1.
     999902    2    1    2    0    0  0.35654260357E-03 -0.23051646196E-02  0.27537523005E-01  0.10162938628E+01  0.10159180378E+01 0.  0.
     999903    2    3    3    0    0  0.38513983755E-02  0.51224347336E-01 -0.11100375623E+00  0.12384145021E+00  0.19393397406E-01 0.  0.
         14    1    1    2    0    0 -0.35654260357E-03  0.23051646196E-02 -0.27537523005E-01  0.27636137208E-01  0.00000000000E+00 0. -1.
     999901    1    3    3    0    0 -0.34948557720E-02 -0.53529511956E-01  0.13854127924E+00  0.89245241258E+00  0.88000000000E+00 0. -1.
        -11    1    4    4    0    0  0.11060642641E-01  0.33635132336E-01 -0.64124265325E-01  0.73251911015E-01  0.51100000000E-03 0.  1.
         11    1    4    4    0    0 -0.72092442658E-02  0.17589215000E-01 -0.46879490909E-01  0.50589539196E-01  0.51100000000E-03 0. -1.
</event>
<event>
 8    1  0.1092993E+005  0.1043930E+01  0.7957747E-01            NaN
         13   -1    0    0    0    0  0.00000000000E+00  0.00000000000E+00  0.74505805969E-08  0.10566000000E+00  0.10566000000E+00 0.  1.
     999900   -1    0    0    0    0 -0.00000000000E+00 -0.00000000000E+00 -0.74505805969E-08  0.93827000000E+00  0.93827000000E+00 0. -1.
     999902    2    1    2    0    0  0.11375456966E-01 -0.38568924027E-02 -0.20466224055E-01  0.10201993665E+01  0.10199233326E+01 0.  0.
     999903    2    3    3    0    0  0.82495563108E-01  0.82133672641E-01 -0.60023141849E-01  0.13227076771E+00  0.18474856383E-01 0.  0.
         14    1    1    2    0    0 -0.11375456966E-01  0.38568924027E-02  0.20466224055E-01  0.23730633520E-01  0.00000000000E+00 0.  1.
     999901    1    3    3    0    0 -0.71120106142E-01 -0.85990565043E-01  0.39556917794E-01  0.88792859877E+00  0.88000000000E+00 0. -1.
        -11    1    4    4    0    0  0.19951826208E-01  0.11329431245E-01 -0.16429639371E-01  0.28224555838E-01  0.51100000000E-03 0.  1.
         11    1    4    4    0    0  0.62543736899E-01  0.70804241395E-01 -0.43593502478E-01  0.10404621187E+00  0.51100000000E-03 0. -1.
</event>
<event>
 8    1  0.1092993E+005  0.1043930E+01  0.7957747E-01            NaN
         13   -1    0    0    0    0  0.00000000000E+00  0.00000000000E+00  0.74505805969E-08  0.10566000000E+00  0.10566000000E+00 0.  1.
     999900   -1    0    0    0    0 -0.00000000000E+00 -0.00000000000E+00 -0.74505805969E-08  0.93827000000E+00  0.93827000000E+00 0. -1.
     999902    2    1    2    0    0 -0.33110991279E-02 -0.19251542874E-01  0.12915092059E-01  0.10205123809E+01  0.10202436644E+01 0.  0.
     999903    2    3    3    0    0  0.20977064492E-01 -0.12914576987E+00  0.15577981721E-01  0.13334061232E+00  0.20454297098E-01 0.  0.
         14    1    1    2    0    0  0.33110991279E-02  0.19251542874E-01 -0.12915092059E-01  0.23417619079E-01  0.00000000000E+00 0.  1.
     999901    1    3    3    0    0 -0.24288163620E-01  0.10989422700E+00 -0.26628896617E-02  0.88717176860E+00  0.88000000000E+00 0.  1.
        -11    1    4    4    0    0  0.94484694836E-02 -0.63594204135E-01 -0.25886037319E-02  0.64346393570E-01  0.51100000000E-03 0.  1.
         11    1    4    4    0    0  0.11528595008E-01 -0.65551565734E-01  0.18166585452E-01  0.68994218751E-01  0.51100000000E-03 0. -1.
</event>
<event>
 8    1  0.1092993E+005  0.1043930E+01  0.7957747E-01            NaN
         13   -1    0    0    0    0  0.00000000000E+00  0.00000000000E+00  0.74505805969E-08  0.10566000000E+00  0.10566000000E+00 0.  1.
     999900   -1    0    0    0    0 -0.00000000000E+00 -0.00000000000E+00 -0.74505805969E-08  0.93827000000E+00  0.93827000000E+00 0.  1.
     999902    2    1    2    0    0  0.18926607716E-01 -0.14209179156E-01  0.36723653109E-02  0.10199799787E+01  0.10196987562E+01 0.  0.
     999903    2    3    3    0    0  0.43286657171E-01  0.92418273062E-01  0.78238811149E-01  0.13007943349E+00  0.19608048386E-01 0.  0.
         14    1    1    2    0    0 -0.18926607716E-01  0.14209179156E-01 -0.36723653109E-02  0.23950021272E-01  0.00000000000E+00 0.  1.
     999901    1    3    3    0    0 -0.24360049454E-01 -0.10662745222E+00 -0.74566445838E-01  0.88990054524E+00  0.88000000000E+00 0.  1.
        -11    1    4    4    0    0  0.35685563636E-01  0.56087139020E-01  0.45249004924E-01  0.80417412188E-01  0.51100000000E-03 0.  1.
         11    1    4    4    0    0  0.76010935350E-02  0.36331134042E-01  0.32989806225E-01  0.49662021299E-01  0.51100000000E-03 0. -1.
</event>
<event>
 8    1  0.1092993E+005  0.1043930E+01  0.7957747E-01            NaN
         13   -1    0    0    0    0  0.00000000000E+00  0.00000000000E+00  0.74505805969E-08  0.10566000000E+00  0.10566000000E+00 0. -1.
     999900   -1    0    0    0    0 -0.00000000000E+00 -0.00000000000E+00 -0.74505805969E-08  0.93827000000E+00  0.93827000000E+00 0.  1.
     999902    2    1    2    0    0 -0.69244547785E-02  0.25931789872E-01  0.29622453678E-02  0.10169266540E+01  0.10165680690E+01 0.  0.
     999903    2    3    3    0    0  0.95553129144E-01  0.81260592459E-01  0.22686540604E-01  0.12903478023E+00  0.20040234754E-01 0.  0.
         14    1    1    2    0    0  0.69244547785E-02 -0.25931789872E-01 -0.29622453678E-02  0.27003346044E-01  0.00000000000E+00 0.  1.
     999901    1    3    3    0    0 -0.10247758392E+00 -0.55328802586E-01 -0.19724295236E-01  0.88789187372E+00  0.88000000000E+00 0. -1.
        -11    1    4    4    0    0  0.66266896279E-01  0.66585764586E-01  0.20809537783E-01  0.96219870981E-01  0.51100000000E-03 0. -1.
         11    1    4    4    0    0  0.29286232866E-01  0.14674827872E-01  0.18770028209E-02  0.32814909251E-01  0.51100000000E-03 0.  1.
</event>
<event>
 8    1  0.1092993E+005  0.1043930E+01  0.7957747E-01            NaN
         13   -1    0    0    0    0  0.00000000000E+00  0.00000000000E+00  0.74505805969E-08  0.10566000000E+00  0.10566000000E+00 0. -1.
     999900   -1    0    0    0    0 -0.00000000000E+00 -0.00000000000E+00 -0.74505805969E-08  0.93827000000E+00  0.93827000000E+00 0. -1.
     999902    2    1    2    0    0  0.93725366928E-02  0.16430531404E-01 -0.16715961398E-01  0.10186865816E+01  0.10183737631E+01 0.  0.
     999903    2    3    3    0    0 -0.31550335406E-01  0.11009278201E+00 -0.61975305625E-01  0.13161516009E+00  0.19125050156E-01 0.  0.
         14    1    1    2    0    0 -0.93725366928E-02 -0.16430531404E-01  0.16715961398E-01  0.25243418384E-01  0.00000000000E+00 0. -1.
     999901    1    3    3    0    0  0.40922872098E-01 -0.93662250605E-01  0.45259344227E-01  0.88707142153E+00  0.88000000000E+00 0.  1.
        -11    1    4    4    0    0 -0.64453550771E-02  0.53956893936E-01 -0.24594459891E-01  0.59649288207E-01  0.51100000000E-03 0.  1.
         11    1    4    4    0    0 -0.25104980329E-01  0.56135888072E-01 -0.37380845734E-01  0.71965871882E-01  0.51100000000E-03 0. -1.
</event>
<event>
 8    1  0.1092993E+005  0.1043930E+01  0.7957747E-01            NaN
         13   -1    0    0    0    0  0.00000000000E+00  0.00000000000E+00  0.74505805969E-08  0.10566000000E+00  0.10566000000E+00 0. -1.
     999900   -1    0    0    0    0 -0.00000000000E+00 -0.00000000000E+00 -0.74505805969E-08  0.93827000000E+00  0.93827000000E+00 0.  1.
     999902    2    1    2    0    0 -0.14402732347E-02 -0.19825797926E-01 -0.38213774695E-03  0.10240482828E+01  0.10238552646E+01 0.  0.
     999903    2    3    3    0    0 -0.10657864341E+00 -0.47973186883E-01 -0.64676335869E-01  0.13501504589E+00  0.19636708077E-01 0.  0.
         14    1    1    2    0    0  0.14402732347E-02  0.19825797926E-01  0.38213774695E-03  0.19881717221E-01  0.00000000000E+00 0. -1.
     999901    1    3    3    0    0  0.10513837017E+00  0.28147388957E-01  0.64294198122E-01  0.88903323689E+00  0.88000000000E+00 0. -1.
        -11    1    4    4    0    0 -0.19050375258E-01 -0.11950675707E-01 -0.47598958288E-02  0.22992459125E-01  0.51100000000E-03 0.  1.
         11    1    4    4    0    0 -0.87528268150E-01 -0.36022511176E-01 -0.59916440040E-01  0.11202258676E+00  0.51100000000E-03 0. -1.
</event>
<event>
 8    1  0.1092993E+005  0.1043930E+01  0.7957747E-01            NaN
         13   -1    0    0    0    0  0.00000000000E+00  0.00000000000E+00  0.74505805969E-08  0.10566000000E+00  0.10566000000E+00 0.  1.
     999900   -1    0    0    0    0 -0.00000000000E+00 -0.00000000000E+00 -0.74505805969E-08  0.93827000000E+00  0.93827000000E+00 0. -1.
     999902    2    1    2    0    0  0.18657177844E-01 -0.97648190995E-02  0.92134002180E-02  0.10209445977E+01  0.10206858198E+01 0.  0.
     999903    2    3    3    0    0 -0.37887602106E-01  0.52390509128E-02  0.12447725651E+00  0.13150197173E+00  0.18310192008E-01 0.  0.
         14    1    1    2    0    0 -0.18657177844E-01  0.97648190995E-02 -0.92134002180E-02  0.22985402340E-01  0.00000000000E+00 0.  1.
     999901    1    3    3    0    0  0.56544779950E-01 -0.15003870012E-01 -0.11526385630E+00  0.88944262593E+00  0.88000000000E+00 0. -1.
        -11    1    4    4    0    0 -0.34497001835E-01  0.10016393280E-01  0.97941148503E-01  0.10432210198E+00  0.51100000000E-03 0.  1.
         11    1    4    4    0    0 -0.33906002709E-02 -0.47773423674E-02  0.26536108011E-01  0.27179869751E-01  0.51100000000E-03 0. -1.
</event>
<event>
 8    1  0.1092993E+005  0.1043930E+01  0.7957747E-01            NaN
         13   -1    0    0    0    0  0.00000000000E+00  0.00000000000E+00  0.74505805969E-08  0.10566000000E+00  0.10566000000E+00 0. -1.
     999900   -1    0    0    0    0 -0.00000000000E+00 -0.00000000000E+00 -0.74505805969E-08  0.93827000000E+00  0.93827000000E+00 0. -1.
     999902    2    1    2    0    0 -0.12548810858E-01 -0.24386610588E-03 -0.20685144705E-01  0.10197348076E+01  0.10194477282E+01 0.  0.
     999903    2    3    3    0    0  0.57558148376E-01 -0.63401599787E-01 -0.97348608208E-01  0.13137611218E+00  0.21218577530E-01 0.  0.
         14    1    1    2    0    0  0.12548810858E-01  0.24386610588E-03  0.20685144705E-01  0.24195192416E-01  0.00000000000E+00 0. -1.
     999901    1    3    3    0    0 -0.70106959234E-01  0.63157733681E-01  0.76663463503E-01  0.88835869540E+00  0.88000000000E+00 0.  1.
        -11    1    4    4    0    0  0.13308675185E-01 -0.50704989256E-02 -0.22785870612E-01  0.26875412836E-01  0.51100000000E-03 0. -1.
         11    1    4    4    0    0  0.44249473190E-01 -0.58331100862E-01 -0.74562737596E-01  0.10450069935E+00  0.51100000000E-03 0.  1.
</event>
<event>
 8    1  0.1092993E+005  0.1043930E+01  0.7957747E-01            NaN
         13   -1    0    0    0    0  0.00000000000E+00  0.00000000000E+00  0.74505805969E-08  0.10566000000E+00  0.10566000000E+00 0. -1.
     999900   -1    0    0    0    0 -0.00000000000E+00 -0.00000000000E+00 -0.74505805969E-08  0.93827000000E+00  0.93827000000E+00 0. -1.
     999902    2    1    2    0    0  0.61621155252E-02 -0.17839526904E-01  0.12850571245E-01  0.10210967442E+01  0.10208414194E+01 0.  0.
     999903    2    3    3    0    0  0.66566874837E-01 -0.10525441001E+00 -0.42231187718E-01  0.13299534410E+00  0.19865766627E-01 0.  0.
         14    1    1    2    0    0 -0.61621155252E-02  0.17839526904E-01 -0.12850571245E-01  0.22833255774E-01  0.00000000000E+00 0.  1.
     999901    1    3    3    0    0 -0.60404759312E-01  0.87414883108E-01  0.55081758963E-01  0.88810140013E+00  0.88000000000E+00 0.  1.
        -11    1    4    4    0    0  0.62802531914E-01 -0.91543693076E-01 -0.42204062092E-01  0.11876805014E+00  0.51100000000E-03 0.  1.
         11    1    4    4    0    0  0.37643429229E-02 -0.13710716935E-01 -0.27125626840E-04  0.14227293956E-01  0.51100000000E-03 0. -1.
</event>
<event>
 8    1  0.1092993E+005  0.1043930E+01  0.7957747E-01            NaN
         13   -1    0    0    0    0  0.00000000000E+00  0.00000000000E+00  0.74505805969E-08  0.10566000000E+00  0.10566000000E+00 0.  1.
     999900   -1    0    0    0    0 -0.00000000000E+00 -0.00000000000E+00 -0.74505805969E-08  0.93827000000E+00  0.93827000000E+00 0.  1.
     999902    2    1    2    0    0 -0.14785879088E-01  0.10891061791E-01  0.14418174313E-01  0.10205821693E+01  0.10203150705E+01 0.  0.
     999903    2    3    3    0    0  0.63017563989E-01 -0.65159491256E-01 -0.87961617337E-01  0.12799117445E+00  0.20676603686E-01 0.  0.
         14    1    1    2    0    0  0.14785879088E-01 -0.10891061791E-01 -0.14418174313E-01  0.23347830689E-01  0.00000000000E+00 0. -1.
     999901    1    3    3    0    0 -0.77803443077E-01  0.76050553048E-01  0.10237979165E+00  0.89259099486E+00  0.88000000000E+00 0. -1.
        -11    1    4    4    0    0  0.11993331175E-01 -0.21726396582E-01 -0.15348533967E-01  0.29184155239E-01  0.51100000000E-03 0. -1.
         11    1    4    4    0    0  0.51024232814E-01 -0.43433094674E-01 -0.72613083370E-01  0.98807019208E-01  0.51100000000E-03 0.  1.
</event>
<event>
 8    1  0.1092993E+005  0.1043930E+01  0.7957747E-01            NaN
         13   -1    0    0    0    0  0.00000000000E+00  0.00000000000E+00  0.74505805969E-08  0.10566000000E+00  0.10566000000E+00 0. -1.
     999900   -1    0    0    0    0 -0.00000000000E+00 -0.00000000000E+00 -0.74505805969E-08  0.93827000000E+00  0.93827000000E+00 0.  1.
     999902    2    1    2    0    0  0.12520405809E-01  0.16613314566E-02  0.19796216019E-01  0.10204478631E+01  0.10201776466E+01 0.  0.
     999903    2    3    3    0    0  0.10622678858E+00 -0.54944785785E-01  0.55951094013E-01  0.13292754567E+00  0.15367087542E-01 0.  0.
         14    1    1    2    0    0 -0.12520405809E-01 -0.16613314566E-02 -0.19796216019E-01  0.23482136881E-01  0.00000000000E+00 0.  1.
     999901    1    3    3    0    0 -0.93706382772E-01  0.56606117241E-01 -0.36154877994E-01  0.88752031745E+00  0.88000000000E+00 0.  1.
        -11    1    4    4    0    0  0.36775021722E-01 -0.13301292427E-01  0.23897880472E-01  0.45833354830E-01  0.51100000000E-03 0. -1.
         11    1    4    4    0    0  0.69451766859E-01 -0.41643493358E-01  0.32053213541E-01  0.87094190841E-01  0.51100000000E-03 0.  1.
</event>
<event>
 8    1  0.1092993E+005  0.1043930E+01  0.7957747E-01            NaN
         13   -1    0    0    0    0  0.00000000000E+00  0.00000000000E+00  0.74505805969E-08  0.10566000000E+00  0.10566000000E+00 0. -1.
     999900   -1    0    0    0    0 -0.00000000000E+00 -0.00000000000E+00 -0.74505805969E-08  0.93827000000E+00  0.93827000000E+00 0. -1.
     999902    2    1    2    0    0  0.21976846184E-01 -0.44623881914E-02 -0.91370196731E-02  0.10197147196E+01  0.10194271576E+01 0.  0.
     999903    2    3    3    0    0  0.95800346147E-01 -0.42153905896E-01  0.77433703071E-01  0.13159026340E+00  0.19114417240E-01 0.  0.
         14    1    1    2    0    0 -0.21976846184E-01  0.44623881914E-02  0.91370196731E-02  0.24215280405E-01  0.00000000000E+00 0.  1.
     999901    1    3    3    0    0 -0.73823499963E-01  0.37691517705E-01 -0.86570722744E-01  0.88812445619E+00  0.88000000000E+00 0. -1.
        -11    1    4    4    0    0  0.77139666010E-01 -0.28514006900E-01  0.52417815907E-01  0.97526740985E-01  0.51100000000E-03 0.  1.
         11    1    4    4    0    0  0.18660680137E-01 -0.13639898996E-01  0.25015887164E-01  0.34063522416E-01  0.51100000000E-03 0. -1.
</event>
<event>
 8    1  0.1092993E+005  0.1043930E+01  0.7957747E-01            NaN
         13   -1    0    0    0    0  0.00000000000E+00  0.00000000000E+00  0.74505805969E-08  0.10566000000E+00  0.10566000000E+00 0.  1.
     999900   -1    0    0    0    0 -0.00000000000E+00 -0.00000000000E+00 -0.74505805969E-08  0.93827000000E+00  0.93827000000E+00 0. -1.
     999902    2    1    2    0    0  0.20402126014E-01 -0.22054284235E-02  0.78957973004E-02  0.10219424063E+01  0.10217058420E+01 0.  0.
     999903    2    3    3    0    0  0.51704603303E-01  0.12068884349E+00 -0.34445065414E-02  0.13277906383E+00  0.19474399090E-01 0.  0.
         14    1    1    2    0    0 -0.20402126014E-01  0.22054284235E-02 -0.78957973004E-02  0.21987593671E-01  0.00000000000E+00 0. -1.
     999901    1    3    3    0    0 -0.31302477289E-01 -0.12289427192E+00  0.11340303842E-01  0.88916334250E+00  0.88000000000E+00 0. -1.
        -11    1    4    4    0    0  0.39913345333E-01  0.71962438301E-01 -0.65186701710E-02  0.82549511468E-01  0.51100000000E-03 0.  1.
         11    1    4    4    0    0  0.11791257971E-01  0.48726405191E-01  0.30741636296E-02  0.50229552361E-01  0.51100000000E-03 0. -1.
</event>
<event>
 8    1  0.1092993E+005  0.1043930E+01  0.7957747E-01            NaN
         13   -1    0    0    0    0  0.00000000000E+00  0.00000000000E+00  0.74505805969E-08  0.10566000000E+00  0.10566000000E+00 0.  1.
     999900   -1    0    0    0    0 -0.00000000000E+00 -0.00000000000E+00 -0.74505805969E-08  0.93827000000E+00  0.93827000000E+00 0.  1.
     999902    2    1    2    0    0 -0.11045692642E-01  0.76756214060E-03  0.20718532380E-01  0.10204384257E+01  0.10201679894E+01 0.  0.
     999903    2    3    3    0    0  0.18235029594E-03 -0.11625972013E+00  0.60467659837E-01  0.13173068588E+00  0.13426836563E-01 0.  0.
         14    1    1    2    0    0  0.11045692642E-01 -0.76756214060E-03 -0.20718532380E-01  0.23491574268E-01  0.00000000000E+00 0. -1.
     999901    1    3    3    0    0 -0.11228042938E-01  0.11702728227E+00 -0.39749127457E-01  0.88870773985E+00  0.88000000000E+00 0.  1.
        -11    1    4    4    0    0  0.66536276013E-02 -0.63482893286E-01  0.34353501076E-01  0.72489810715E-01  0.51100000000E-03 0.  1.
         11    1    4    4    0    0 -0.64712773053E-02 -0.52776826841E-01  0.26114158761E-01  0.59240875163E-01  0.51100000000E-03 0. -1.
</event>
<event>
 8    1  0.1092993E+005  0.1043930E+01  0.7957747E-01            NaN
         13   -1    0    0    0    0  0.00000000000E+00  0.00000000000E+00  0.74505805969E-08  0.10566000000E+00  0.10566000000E+00 0.  1.
     999900   -1    0    0    0    0 -0.00000000000E+00 -0.00000000000E+00 -0.74505805969E-08  0.93827000000E+00  0.93827000000E+00 0. -1.
     999902    2    1    2    0    0 -0.75833946647E-02  0.22800392197E-01  0.17328405916E-02  0.10198391616E+01  0.10195545827E+01 0.  0.
     999903    2    3    3    0    0  0.29933601301E-01 -0.63496685582E-01  0.10602003755E+00  0.12869914449E+00  0.19883959964E-01 0.  0.
         14    1    1    2    0    0  0.75833946647E-02 -0.22800392197E-01 -0.17328405916E-02  0.24090838414E-01  0.00000000000E+00 0. -1.
     999901    1    3    3    0    0 -0.37516995966E-01  0.86297077779E-01 -0.10428719696E+00  0.89114001710E+00  0.88000000000E+00 0. -1.
        -11    1    4    4    0    0  0.17141225266E-01 -0.34706944982E-01  0.75431628265E-01  0.84785525282E-01  0.51100000000E-03 0.  1.
         11    1    4    4    0    0  0.12792376035E-01 -0.28789740600E-01  0.30588409284E-01  0.43913619208E-01  0.51100000000E-03 0. -1.
</event>
<event>
 8    1  0.1092993E+005  0.1043930E+01  0.7957747E-01            NaN
         13   -1    0    0    0    0  0.00000000000E+00  0.00000000000E+00  0.74505805969E-08  0.10566000000E+00  0.10566000000E+00 0. -1.
     999900   -1    0    0    0    0 -0.00000000000E+00 -0.00000000000E+00 -0.74505805969E-08  0.93827000000E+00  0.93827000000E+00 0. -1.
     999902    2    1    2    0    0 -0.77658665056E-02 -0.23072858324E-01  0.56741347084E-02  0.10189327746E+01  0.10186261031E+01 0.  0.
     999903    2    3    3    0    0 -0.10103310325E+00 -0.70219870704E-01 -0.41589409073E-01  0.13148955905E+00  0.20525764261E-01 0.  0.
         14    1    1    2    0    0  0.77658665056E-02  0.23072858324E-01 -0.56741347084E-02  0.24997225416E-01  0.00000000000E+00 0.  1.
     999901    1    3    3    0    0  0.93267236743E-01  0.47147012380E-01  0.47263543782E-01  0.88744321553E+00  0.88000000000E+00 0.  1.
        -11    1    4    4    0    0 -0.90907156771E-01 -0.59309186788E-01 -0.29990339510E-01  0.11261159965E+00  0.51100000000E-03 0.  1.
         11    1    4    4    0    0 -0.10125946477E-01 -0.10910683915E-01 -0.11599069563E-01  0.18877959405E-01  0.51100000000E-03 0. -1.
</event>
<event>
 8    1  0.1092993E+005  0.1043930E+01  0.7957747E-01            NaN
         13   -1    0    0    0    0  0.00000000000E+00  0.00000000000E+00  0.74505805969E-08  0.10566000000E+00  0.10566000000E+00 0.  1.
     999900   -1    0    0    0    0 -0.00000000000E+00 -0.00000000000E+00 -0.74505805969E-08  0.93827000000E+00  0.93827000000E+00 0.  1.
     999902    2    1    2    0    0 -0.13673798148E-01  0.19068144895E-01 -0.17850457199E-02  0.10203980368E+01  0.10201266589E+01 0.  0.
     999903    2    3    3    0    0  0.46438775586E-01 -0.93736296624E-01 -0.73551377961E-01  0.12827205351E+00  0.10042974150E-01 0.  0.
         14    1    1    2    0    0  0.13673798148E-01 -0.19068144895E-01  0.17850457199E-02  0.23531963236E-01  0.00000000000E+00 0. -1.
     999901    1    3    3    0    0 -0.60112573734E-01  0.11280444152E+00  0.71766332242E-01  0.89212598325E+00  0.88000000000E+00 0.  1.
        -11    1    4    4    0    0  0.22550039811E-01 -0.38883347707E-01 -0.26736101268E-01  0.52302000501E-01  0.51100000000E-03 0.  1.
         11    1    4    4    0    0  0.23888735775E-01 -0.54852948917E-01 -0.46815276694E-01  0.75970053013E-01  0.51100000000E-03 0. -1.
</event>
<event>
 8    1  0.1092993E+005  0.1043930E+01  0.7957747E-01            NaN
         13   -1    0    0    0    0  0.00000000000E+00  0.00000000000E+00  0.74505805969E-08  0.10566000000E+00  0.10566000000E+00 0.  1.
     999900   -1    0    0    0    0 -0.00000000000E+00 -0.00000000000E+00 -0.74505805969E-08  0.93827000000E+00  0.93827000000E+00 0. -1.
     999902    2    1    2    0    0 -0.13373876624E-01 -0.15227159627E-02  0.19282775443E-01  0.10204139487E+01  0.10201429420E+01 0.  0.
     999903    2    3    3    0    0  0.58362497809E-01  0.10726146169E+00  0.41506065420E-01  0.13054093566E+00  0.20173747842E-01 0.  0.
         14    1    1    2    0    0  0.13373876624E-01  0.15227159627E-02 -0.19282775443E-01  0.23516051298E-01  0.00000000000E+00 0. -1.
     999901    1    3    3    0    0 -0.71736374433E-01 -0.10878417765E+00 -0.22223289977E-01  0.88987301304E+00  0.88000000000E+00 0.  1.
        -11    1    4    4    0    0  0.32359758551E-01  0.64962748172E-01  0.14482068050E-01  0.74008810554E-01  0.51100000000E-03 0. -1.
         11    1    4    4    0    0  0.26002739258E-01  0.42298713517E-01  0.27023997370E-01  0.56532125106E-01  0.51100000000E-03 0.  1.
</event>
<event>
 8    1  0.1092993E+005  0.1043930E+01  0.7957747E-01            NaN
         13   -1    0    0    0    0  0.00000000000E+00  0.00000000000E+00  0.74505805969E-08  0.10566000000E+00  0.10566000000E+00 0.  1.
     999900   -1    0    0    0    0 -0.00000000000E+00 -0.00000000000E+00 -0.74505805969E-08  0.93827000000E+00  0.93827000000E+00 0.  1.
     999902    2    1    2    0    0 -0.61684901040E-02 -0.60782629185E-02  0.22153487222E-01  0.10201440263E+01  0.10198666882E+01 0.  0.
     999903    2    3    3    0    0  0.66748272140E-01 -0.96339473758E-01 -0.51253338706E-01  0.12949678831E+00  0.20146647742E-01 0.  0.
         14    1    1    2    0    0  0.61684901040E-02  0.60782629185E-02 -0.22153487222E-01  0.23785973732E-01  0.00000000000E+00 0. -1.
     999901    1    3    3    0    0 -0.72916762244E-01  0.90261210839E-01  0.73406825928E-01  0.89064723796E+00  0.88000000000E+00 0. -1.
        -11    1    4    4    0    0  0.26813531231E-01 -0.24173910154E-01 -0.20147558762E-01  0.41346446453E-01  0.51100000000E-03 0.  1.
         11    1    4    4    0    0  0.39934740909E-01 -0.72165563604E-01 -0.31105779944E-01  0.88150341852E-01  0.51100000000E-03 0. -1.
</event>
<event>
 8    1  0.1092993E+005  0.1043930E+01  0.7957747E-01            NaN
         13   -1    0    0    0    0  0.00000000000E+00  0.00000000000E+00  0.74505805969E-08  0.10566000000E+00  0.10566000000E+00 0.  1.
     999900   -1    0    0    0    0 -0.00000000000E+00 -0.00000000000E+00 -0.74505805969E-08  0.93827000000E+00  0.93827000000E+00 0. -1.
     999902    2    1    2    0    0  0.11609145560E-01 -0.17912985005E-01  0.11975862087E-01  0.10194541228E+01  0.10191602621E+01 0.  0.
     999903    2    3    3    0    0 -0.22993553879E-01  0.31887368507E-01 -0.12006102394E+00  0.12753979883E+00  0.17499800711E-01 0.  0.
         14    1    1    2    0    0 -0.11609145560E-01  0.17912985005E-01 -0.11975862087E-01  0.24475877209E-01  0.00000000000E+00 0. -1.
     999901    1    3    3    0    0  0.34602699440E-01 -0.49800353512E-01  0.13203688603E+00  0.89191432396E+00  0.88000000000E+00 0.  1.
        -11    1    4    4    0    0  0.52708187467E-03  0.26840625324E-02 -0.27940516568E-01  0.28078739183E-01  0.51100000000E-03 0.  1.
         11    1    4    4    0    0 -0.23520635754E-01  0.29203305975E-01 -0.92120507373E-01  0.99461059645E-01  0.51100000000E-03 0. -1.
</event>
<event>
 8    1  0.1092993E+005  0.1043930E+01  0.7957747E-01            NaN
         13   -1    0    0    0    0  0.00000000000E+00  0.00000000000E+00  0.74505805969E-08  0.10566000000E+00  0.10566000000E+00 0. -1.
     999900   -1    0    0    0    0 -0.00000000000E+00 -0.00000000000E+00 -0.74505805969E-08  0.93827000000E+00  0.93827000000E+00 0.  1.
     999902    2    1    2    0    0 -0.19451606967E-01 -0.43792475105E-02  0.10901633215E-01  0.10212058184E+01  0.10209529544E+01 0.  0.
     999903    2    3    3    0    0  0.10435203114E+00  0.24495717149E-01  0.70918848374E-01  0.13004748763E+00  0.19836315794E-01 0.  0.
         14    1    1    2    0    0  0.19451606967E-01  0.43792475105E-02 -0.10901633215E-01  0.22724181594E-01  0.00000000000E+00 0. -1.
     999901    1    3    3    0    0 -0.12380363810E+00 -0.28874964659E-01 -0.60017215159E-01  0.89115833077E+00  0.88000000000E+00 0.  1.
        -11    1    4    4    0    0  0.83929951583E-01  0.22785670151E-01  0.48146044677E-01  0.99406872378E-01  0.51100000000E-03 0.  1.
         11    1    4    4    0    0  0.20422079552E-01  0.17100469980E-02  0.22772803697E-01  0.30640615255E-01  0.51100000000E-03 0. -1.
</event>
<event>
 8    1  0.1092993E+005  0.1043930E+01  0.7957747E-01            NaN
         13   -1    0    0    0    0  0.00000000000E+00  0.00000000000E+00  0.74505805969E-08  0.10566000000E+00  0.10566000000E+00 0.  1.
     999900   -1    0    0    0    0 -0.00000000000E+00 -0.00000000000E+00 -0.74505805969E-08  0.93827000000E+00  0.93827000000E+00 0.  1.
     999902    2    1    2    0    0 -0.12903753498E-01  0.13241229593E-02  0.19995512471E-01  0.10200955570E+01  0.10198170741E+01 0.  0.
     999903    2    3    3    0    0 -0.76669637441E-01 -0.56122290299E-01  0.91311162057E-01  0.13304871478E+00  0.18338140973E-01 0.  0.
         14    1    1    2    0    0  0.12903753498E-01 -0.13241229593E-02 -0.19995512471E-01  0.23834443038E-01  0.00000000000E+00 0. -1.
     999901    1    3    3    0    0  0.63765883944E-01  0.57446413258E-01 -0.71315649587E-01  0.88704684218E+00  0.88000000000E+00 0.  1.
        -11    1    4    4    0    0 -0.50683835406E-01 -0.34550887456E-01  0.46712989714E-01  0.77103693326E-01  0.51100000000E-03 0. -1.
         11    1    4    4    0    0 -0.25985802035E-01 -0.21571402843E-01  0.44598172344E-01  0.55945021454E-01  0.51100000000E-03 0.  1.
</event>
<event>
 8    1  0.1092993E+005  0.1043930E+01  0.7957747E-01            NaN
         13   -1    0    0    0    0  0.00000000000E+00  0.00000000000E+00  0.74505805969E-08  0.10566000000E+00  0.10566000000E+00 0.  1.
     999900   -1    0    0    0    0 -0.00000000000E+00 -0.00000000000E+00 -0.74505805969E-08  0.93827000000E+00  0.93827000000E+00 0.  1.
     999902    2    1    2    0    0  0.12991244782E-01 -0.93597390516E-02  0.17885295770E-01  0.10199245639E+01  0.10196420230E+01 0.  0.
     999903    2    3    3    0    0  0.42978452343E-01  0.86545937591E-01 -0.82154746968E-01  0.12857438494E+00  0.21086093406E-01 0.  0.
         14    1    1    2    0    0 -0.12991244782E-01  0.93597390516E-02 -0.17885295770E-01  0.24005436069E-01  0.00000000000E+00 0. -1.
     999901    1    3    3    0    0 -0.29987207562E-01 -0.95905676642E-01  0.10004004274E+00  0.89135017899E+00  0.88000000000E+00 0. -1.
        -11    1    4    4    0    0  0.22526193093E-01  0.64058289998E-01 -0.63085169720E-01  0.92687073814E-01  0.51100000000E-03 0. -1.
         11    1    4    4    0    0  0.20452259250E-01  0.22487647593E-01 -0.19069577248E-01  0.35887311130E-01  0.51100000000E-03 0.  1.
</event>
<event>
 8    1  0.1092993E+005  0.1043930E+01  0.7957747E-01            NaN
         13   -1    0    0    0    0  0.00000000000E+00  0.00000000000E+00  0.74505805969E-08  0.10566000000E+00  0.10566000000E+00 0. -1.
     999900   -1    0    0    0    0 -0.00000000000E+00 -0.00000000000E+00 -0.74505805969E-08  0.93827000000E+00  0.93827000000E+00 0. -1.
     999902    2    1    2    0    0  0.20951819971E-01  0.77050653228E-02  0.14345550406E-02  0.10215602718E+01  0.10213153206E+01 0.  0.
     999903    2    3    3    0    0  0.34344558678E-01 -0.20033499851E-01  0.12479761882E+00  0.13242179048E+00  0.19498592394E-01 0.  0.
         14    1    1    2    0    0 -0.20951819971E-01 -0.77050653228E-02 -0.14345550406E-02  0.22369728204E-01  0.00000000000E+00 0.  1.
     999901    1    3    3    0    0 -0.13392738707E-01  0.27738565174E-01 -0.12336306378E+00  0.88913848131E+00  0.88000000000E+00 0. -1.
        -11    1    4    4    0    0  0.14850323341E-01 -0.16849410404E-01  0.85954461670E-01  0.88841799489E-01  0.51100000000E-03 0. -1.
         11    1    4    4    0    0  0.19494235337E-01 -0.31840894467E-02  0.38843157146E-01  0.43579990994E-01  0.51100000000E-03 0.  1.
</event>
<event>
 8    1  0.1092993E+005  0.1043930E+01  0.7957747E-01            NaN
         13   -1    0    0    0    0  0.00000000000E+00  0.00000000000E+00  0.74505805969E-08  0.10566000000E+00  0.10566000000E+00 0. -1.
     999900   -1    0    0    0    0 -0.00000000000E+00 -0.00000000000E+00 -0.74505805969E-08  0.93827000000E+00  0.93827000000E+00 0.  1.
     999902    2    1    2    0    0 -0.16164766011E-01  0.14167745534E-01 -0.61710023089E-02  0.10215669514E+01  0.10213221481E+01 0.  0.
     999903    2    3    3    0    0 -0.61602298701E-01  0.11445906694E+00 -0.27560692650E-01  0.13444777260E+00  0.20515617653E-01 0.  0.
         14    1    1    2    0    0  0.16164766011E-01 -0.14167745534E-01  0.61710023089E-02  0.22363048612E-01  0.00000000000E+00 0. -1.
     999901    1    3    3    0    0  0.45437532690E-01 -0.10029132140E+00  0.21389690341E-01  0.88711917879E+00  0.88000000000E+00 0. -1.
        -11    1    4    4    0    0 -0.51944245889E-01  0.10715140516E+00 -0.21929662146E-01  0.12108178852E+00  0.51100000000E-03 0. -1.
         11    1    4    4    0    0 -0.96580528122E-02  0.73076617763E-02 -0.56310305040E-02  0.13365984075E-01  0.51100000000E-03 0.  1.
</event>
<event>
 8    1  0.1092993E+005  0.1043930E+01  0.7957747E-01            NaN
         13   -1    0    0    0    0  0.00000000000E+00  0.00000000000E+00  0.74505805969E-08  0.10566000000E+00  0.10566000000E+00 0.  1.
     999900   -1    0    0    0    0 -0.00000000000E+00 -0.00000000000E+00 -0.74505805969E-08  0.93827000000E+00  0.93827000000E+00 0.  1.
     999902    2    1    2    0    0  0.99420689733E-02 -0.85697971582E-02  0.26959046693E-01  0.10139453980E+01  0.10135019456E+01 0.  0.
     999903    2    3    3    0    0  0.92752040546E-01 -0.32609033848E-01 -0.73134599862E-01  0.12408354671E+00  0.19538852399E-01 0.  0.
         14    1    1    2    0    0 -0.99420689733E-02  0.85697971582E-02 -0.26959046693E-01  0.29984602005E-01  0.00000000000E+00 0. -1.
     999901    1    3    3    0    0 -0.82809971573E-01  0.24039236690E-01  0.10009364656E+00  0.88986185129E+00  0.88000000000E+00 0. -1.
        -11    1    4    4    0    0  0.17790776182E-01 -0.11218498933E-01 -0.24090142345E-01  0.31983785184E-01  0.51100000000E-03 0.  1.
         11    1    4    4    0    0  0.74961264364E-01 -0.21390534916E-01 -0.49044457517E-01  0.92099761526E-01  0.51100000000E-03 0. -1.
</event>
<event>
 8    1  0.1092993E+005  0.1043930E+01  0.7957747E-01            NaN
         13   -1    0    0    0    0  0.00000000000E+00  0.00000000000E+00  0.74505805969E-08  0.10566000000E+00  0.10566000000E+00 0. -1.
     999900   -1    0    0    0    0 -0.00000000000E+00 -0.00000000000E+00 -0.74505805969E-08  0.93827000000E+00  0.93827000000E+00 0. -1.
     999902    2    1    2    0    0  0.94956050349E-02 -0.16115558640E-02  0.22591835307E-01  0.10193707930E+01  0.10190749035E+01 0.  0.
     999903    2    3    3    0    0  0.54776868638E-01  0.13103481765E-01  0.11919956733E+00  0.13280439441E+00  0.16008240154E-01 0.  0.
         14    1    1    2    0    0 -0.94956050349E-02  0.16115558640E-02 -0.22591835307E-01  0.24559207028E-01  0.00000000000E+00 0. -1.
     999901    1    3    3    0    0 -0.45281263603E-01 -0.14715037629E-01 -0.96607732019E-01  0.88656639856E+00  0.88000000000E+00 0. -1.
        -11    1    4    4    0    0  0.24224379058E-01  0.42423592685E-03  0.64202038388E-01  0.68623344213E-01  0.51100000000E-03 0. -1.
         11    1    4    4    0    0  0.30552489580E-01  0.12679245839E-01  0.54997528939E-01  0.64181050201E-01  0.51100000000E-03 0.  1.
</event>
<event>
 8    1  0.1835396E+005  0.1043930E+01  0.7957747E-01            NaN
         13   -1    0    0    0    0  0.00000000000E+00  0.00000000000E+00  0.74505805969E-08  0.10566000000E+00  0.10566000000E+00 0. -1.
     999900   -1    0    0    0    0 -0.00000000000E+00 -0.00000000000E+00 -0.74505805969E-08  0.93827000000E+00  0.93827000000E+00 0.  1.
     999902    2    1    2    0    0  0.51289166587E-02  0.12563871352E-01 -0.20315620628E-01  0.10194988500E+01  0.10192060754E+01 0.  0.
     999903    2    3    3    0    0 -0.70721331205E-01  0.31519954548E-01  0.99878267918E-01  0.12789402495E+00  0.19651946284E-01 0.  0.
         14    1    1    2    0    0 -0.51289166587E-02 -0.12563871352E-01  0.20315620628E-01  0.24431150013E-01  0.00000000000E+00 0. -1.
     999901    1    3    3    0    0  0.75850247864E-01 -0.18956083196E-01 -0.12019388855E+00  0.89160482504E+00  0.88000000000E+00 0.  1.
        -11    1    4    4    0    0 -0.36959826765E-01  0.15518222628E-01  0.67229045773E-01  0.78274195905E-01  0.51100000000E-03 0. -1.
         11    1    4    4    0    0 -0.33761504440E-01  0.16001731920E-01  0.32649222145E-01  0.49619829043E-01  0.51100000000E-03 0.  1.
</event>
<event>
 8    1  0.1704542E+005  0.1043930E+01  0.7957747E-01            NaN
         13   -1    0    0    0    0  0.00000000000E+00  0.00000000000E+00  0.74505805969E-08  0.10566000000E+00  0.10566000000E+00 0.  1.
     999900   -1    0    0    0    0 -0.00000000000E+00 -0.00000000000E+00 -0.74505805969E-08  0.93827000000E+00  0.93827000000E+00 0.  1.
     999902    2    1    2    0    0 -0.45121403152E-02 -0.18175714690E-01  0.14396218951E-01  0.10203086720E+01  0.10200352048E+01 0.  0.
     999903    2    3    3    0    0  0.94771249274E-01 -0.63481604376E-01  0.58952275823E-01  0.13244885354E+00  0.32493448531E-01 0.  0.
         14    1    1    2    0    0  0.45121403152E-02  0.18175714690E-01 -0.14396218951E-01  0.23621327964E-01  0.00000000000E+00 0. -1.
     999901    1    3    3    0    0 -0.99283389589E-01  0.45305889686E-01 -0.44556056871E-01  0.88785981849E+00  0.88000000000E+00 0. -1.
        -11    1    4    4    0    0  0.39659167872E-01 -0.43924055890E-01  0.37981894122E-01  0.70321104117E-01  0.51100000000E-03 0. -1.
         11    1    4    4    0    0  0.55112081402E-01 -0.19557548486E-01  0.20970381701E-01  0.62127749427E-01  0.51100000000E-03 0.  1.
</event>
<event>
 8    1  0.1092993E+005  0.1043930E+01  0.7957747E-01            NaN
         13   -1    0    0    0    0  0.00000000000E+00  0.00000000000E+00  0.74505805969E-08  0.10566000000E+00  0.10566000000E+00 0. -1.
     999900   -1    0    0    0    0 -0.00000000000E+00 -0.00000000000E+00 -0.74505805969E-08  0.93827000000E+00  0.93827000000E+00 0. -1.
     999902    2    1    2    0    0  0.11324105610E-01 -0.37694358613E-02  0.20091677027E-01  0.10205608002E+01  0.10202932066E+01 0.  0.
     999903    2    3    3    0    0 -0.53378376950E-01  0.11668536921E+00  0.47461660841E-02  0.12986935191E+00  0.19462681218E-01 0.  0.
         14    1    1    2    0    0 -0.11324105610E-01  0.37694358613E-02 -0.20091677027E-01  0.23369199822E-01  0.00000000000E+00 0.  1.
     999901    1    3    3    0    0  0.64702482559E-01 -0.12045480507E+00  0.15345510943E-01  0.89069144827E+00  0.88000000000E+00 0.  1.
        -11    1    4    4    0    0 -0.81406077209E-02  0.35861767738E-01  0.58436787436E-02  0.37239033038E-01  0.51100000000E-03 0.  1.
         11    1    4    4    0    0 -0.45237769229E-01  0.80823601469E-01 -0.10975126596E-02  0.92630318871E-01  0.51100000000E-03 0. -1.
</event>
<event>
 8    1  0.1092993E+005  0.1043930E+01  0.7957747E-01            NaN
         13   -1    0    0    0    0  0.00000000000E+00  0.00000000000E+00  0.74505805969E-08  0.10566000000E+00  0.10566000000E+00 0. -1.
     999900   -1    0    0    0    0 -0.00000000000E+00 -0.00000000000E+00 -0.74505805969E-08  0.93827000000E+00  0.93827000000E+00 0.  1.
     999902    2    1    2    0    0  0.19248878828E-01 -0.12952480715E-01  0.41029617553E-02  0.10203690071E+01  0.10200969514E+01 0.  0.
     999903    2    3    3    0    0  0.85716088425E-01  0.72057387765E-01 -0.65223511505E-01  0.13107112245E+00  0.19647334191E-01 0.  0.
         14    1    1    2    0    0 -0.19248878828E-01  0.12952480715E-01 -0.41029617553E-02  0.23560992933E-01  0.00000000000E+00 0.  1.
     999901    1    3    3    0    0 -0.66467209597E-01 -0.85009868480E-01  0.69326473260E-01  0.88929788462E+00  0.88000000000E+00 0. -1.
        -11    1    4    4    0    0  0.15687299375E-01  0.79148672736E-02 -0.17436927225E-01  0.24759726123E-01  0.51100000000E-03 0.  1.
         11    1    4    4    0    0  0.70028789051E-01  0.64142520491E-01 -0.47786584280E-01  0.10631139633E+00  0.51100000000E-03 0. -1.
</event>
<event>
 8    1  0.1092993E+005  0.1043930E+01  0.7957747E-01            NaN
         13   -1    0    0    0    0  0.00000000000E+00  0.00000000000E+00  0.74505805969E-08  0.10566000000E+00  0.10566000000E+00 0.  1.
     999900   -1    0    0    0    0 -0.00000000000E+00 -0.00000000000E+00 -0.74505805969E-08  0.93827000000E+00  0.93827000000E+00 0.  1.
     999902    2    1    2    0    0 -0.16071548499E-01  0.18034043419E-01 -0.80644428337E-02  0.10184632250E+01  0.10181447755E+01 0.  0.
     999903    2    3    3    0    0 -0.63978122097E-01 -0.86569726080E-01  0.65965595594E-01  0.12789181570E+00  0.20428880044E-01 0.  0.
         14    1    1    2    0    0  0.16071548499E-01 -0.18034043419E-01  0.80644428337E-02  0.25466775049E-01  0.00000000000E+00 0. -1.
     999901    1    3    3    0    0  0.47906573598E-01  0.10460376950E+00 -0.74030038428E-01  0.89057140925E+00  0.88000000000E+00 0.  1.
        -11    1    4    4    0    0 -0.51311646842E-01 -0.59338530124E-01  0.55449279414E-01  0.96066799507E-01  0.51100000000E-03 0.  1.
         11    1    4    4    0    0 -0.12666475255E-01 -0.27231195956E-01  0.10516316180E-01  0.31825016192E-01  0.51100000000E-03 0. -1.
</event>
<event>
 8    1  0.1092993E+005  0.1043930E+01  0.7957747E-01            NaN
         13   -1    0    0    0    0  0.00000000000E+00  0.00000000000E+00  0.74505805969E-08  0.10566000000E+00  0.10566000000E+00 0.  1.
     999900   -1    0    0    0    0 -0.00000000000E+00 -0.00000000000E+00 -0.74505805969E-08  0.93827000000E+00  0.93827000000E+00 0. -1.
     999902    2    1    2    0    0 -0.57984728986E-02 -0.17203720482E-01 -0.15982877575E-01  0.10197423448E+01  0.10194554464E+01 0.  0.
     999903    2    3    3    0    0 -0.10037859011E+00  0.69227446460E-01  0.36530022807E-01  0.12891500473E+00  0.20404293228E-01 0.  0.
         14    1    1    2    0    0  0.57984728986E-02  0.17203720482E-01  0.15982877575E-01  0.24187655156E-01  0.00000000000E+00 0. -1.
     999901    1    3    3    0    0  0.94580117210E-01 -0.86431166942E-01 -0.52512900382E-01  0.89082734012E+00  0.88000000000E+00 0. -1.
        -11    1    4    4    0    0 -0.75249569062E-01  0.45170849112E-01  0.33676200793E-01  0.94006653352E-01  0.51100000000E-03 0. -1.
         11    1    4    4    0    0 -0.25129021047E-01  0.24056597348E-01  0.28538220137E-02  0.34908351376E-01  0.51100000000E-03 0.  1.
</event>
<event>
 8    1  0.1092993E+005  0.1043930E+01  0.7957747E-01            NaN
         13   -1    0    0    0    0  0.00000000000E+00  0.00000000000E+00  0.74505805969E-08  0.10566000000E+00  0.10566000000E+00 0.  1.
     999900   -1    0    0    0    0 -0.00000000000E+00 -0.00000000000E+00 -0.74505805969E-08  0.93827000000E+00  0.93827000000E+00 0. -1.
     999902    2    1    2    0    0  0.15521514338E-01 -0.85510633855E-02  0.14963497865E-01  0.10207363724E+01  0.10204728304E+01 0.  0.
     999903    2    3    3    0    0  0.97304357456E-01  0.74306712807E-01  0.46926805268E-01  0.13249344532E+00  0.19046323857E-01 0.  0.
         14    1    1    2    0    0 -0.15521514338E-01  0.85510633855E-02 -0.14963497865E-01  0.23193627589E-01  0.00000000000E+00 0.  1.
     999901    1    3    3    0    0 -0.81782843118E-01 -0.82857776193E-01 -0.31963307403E-01  0.88824292709E+00  0.88000000000E+00 0. -1.
        -11    1    4    4    0    0  0.50654718012E-01  0.50322302238E-01  0.28801253321E-01  0.76993557349E-01  0.51100000000E-03 0.  1.
         11    1    4    4    0    0  0.46649639444E-01  0.23984410569E-01  0.18125551947E-01  0.55499887973E-01  0.51100000000E-03 0. -1.
</event>
<event>
 8    1  0.1092993E+005  0.1043930E+01  0.7957747E-01            NaN
         13   -1    0    0    0    0  0.00000000000E+00  0.00000000000E+00  0.74505805969E-08  0.10566000000E+00  0.10566000000E+00 0. -1.
     999900   -1    0    0    0    0 -0.00000000000E+00 -0.00000000000E+00 -0.74505805969E-08  0.93827000000E+00  0.93827000000E+00 0.  1.
     999902    2    1    2    0    0 -0.55406498909E-03 -0.23268200148E-01 -0.42227926867E-02  0.10202752308E+01  0.10200009797E+01 0.  0.
     999903    2    3    3    0    0 -0.11459958293E+00 -0.59516818446E-01  0.16683989284E-01  0.13192989482E+00  0.21256188800E-01 0.  0.
         14    1    1    2    0    0  0.55406498909E-03  0.23268200148E-01  0.42227926867E-02  0.23654769164E-01  0.00000000000E+00 0. -1.
     999901    1    3    3    0    0  0.11404551794E+00  0.36248618298E-01 -0.20906781970E-01  0.88834533602E+00  0.88000000000E+00 0. -1.
        -11    1    4    4    0    0 -0.55822307478E-01 -0.38772239410E-01  0.14842729104E-01  0.69569995611E-01  0.51100000000E-03 0. -1.
         11    1    4    4    0    0 -0.58777275453E-01 -0.20744579037E-01  0.18412601798E-02  0.62359899207E-01  0.51100000000E-03 0.  1.
</event>
<event>
 8    1  0.1092993E+005  0.1043930E+01  0.7957747E-01            NaN
         13   -1    0    0    0    0  0.00000000000E+00  0.00000000000E+00  0.74505805969E-08  0.10566000000E+00  0.10566000000E+00 0. -1.
     999900   -1    0    0    0    0 -0.00000000000E+00 -0.00000000000E+00 -0.74505805969E-08  0.93827000000E+00  0.93827000000E+00 0. -1.
     999902    2    1    2    0    0 -0.25186454129E-02 -0.22895829195E-01 -0.84550617441E-02  0.10193932798E+01  0.10190979385E+01 0.  0.
     999903    2    3    3    0    0 -0.93317679919E-01  0.40776928103E-01  0.75620300687E-01  0.12845705803E+00  0.20293807692E-01 0.  0.
         14    1    1    2    0    0  0.25186454129E-02  0.22895829195E-01  0.84550617441E-02  0.24536720203E-01  0.00000000000E+00 0. -1.
     999901    1    3    3    0    0  0.90799034506E-01 -0.63672757297E-01 -0.84075362431E-01  0.89093622177E+00  0.88000000000E+00 0. -1.
        -11    1    4    4    0    0 -0.60343351945E-01  0.36642828454E-01  0.51964245921E-01  0.87661627730E-01  0.51100000000E-03 0. -1.
         11    1    4    4    0    0 -0.32974327974E-01  0.41340996482E-02  0.23656054766E-01  0.40795430300E-01  0.51100000000E-03 0.  1.
</event>
<event>
 8    1  0.1092993E+005  0.1043930E+01  0.7957747E-01            NaN
         13   -1    0    0    0    0  0.00000000000E+00  0.00000000000E+00  0.74505805969E-08  0.10566000000E+00  0.10566000000E+00 0.  1.
     999900   -1    0    0    0    0 -0.00000000000E+00 -0.00000000000E+00 -0.74505805969E-08  0.93827000000E+00  0.93827000000E+00 0. -1.
     999902    2    1    2    0    0  0.18575469737E-01  0.87957214579E-02  0.94684891054E-02  0.10213011450E+01  0.10210504217E+01 0.  0.
     999903    2    3    3    0    0 -0.86648926916E-01  0.59900715573E-01 -0.72967859984E-01  0.12974091389E+00  0.20304282421E-01 0.  0.
         14    1    1    2    0    0 -0.18575469737E-01 -0.87957214579E-02 -0.94684891054E-02  0.22628854983E-01  0.00000000000E+00 0. -1.
     999901    1    3    3    0    0  0.10522439665E+00 -0.51104994115E-01  0.82436349089E-01  0.89156023113E+00  0.88000000000E+00 0.  1.
        -11    1    4    4    0    0 -0.32447000699E-01  0.24860877955E-01 -0.16862837294E-01  0.44220894492E-01  0.51100000000E-03 0.  1.
         11    1    4    4    0    0 -0.54201926217E-01  0.35039837619E-01 -0.56105022690E-01  0.85520019399E-01  0.51100000000E-03 0. -1.
</event>
<event>
 8    1  0.1092993E+005  0.1043930E+01  0.7957747E-01            NaN
         13   -1    0    0    0    0  0.00000000000E+00  0.00000000000E+00  0.74505805969E-08  0.10566000000E+00  0.10566000000E+00 0. -1.
     999900   -1    0    0    0    0 -0.00000000000E+00 -0.00000000000E+00 -0.74505805969E-08  0.93827000000E+00  0.93827000000E+00 0.  1.
     999902    2    1    2    0    0  0.42086217287E-02 -0.19636488020E-01  0.12914426339E-01  0.10200535144E+01  0.10197740365E+01 0.  0.
     999903    2    3    3    0    0  0.23630475918E-01 -0.11043430615E-01 -0.12481338004E+00  0.12908774751E+00  0.20122374845E-01 0.  0.
         14    1    1    2    0    0 -0.42086217287E-02  0.19636488020E-01 -0.12914426339E-01  0.23876485634E-01  0.00000000000E+00 0.  1.
     999901    1    3    3    0    0 -0.19421854189E-01 -0.85930574046E-02  0.13772780638E+00  0.89096576685E+00  0.88000000000E+00 0. -1.
        -11    1    4    4    0    0  0.14218596741E-01  0.43593421743E-02 -0.57483292807E-01  0.59378130911E-01  0.51100000000E-03 0. -1.
         11    1    4    4    0    0  0.94118791772E-02 -0.15402772789E-01 -0.67330087230E-01  0.69709616601E-01  0.51100000000E-03 0.  1.
</event>
<event>
 8    1  0.1092993E+005  0.1043930E+01  0.7957747E-01            NaN
         13   -1    0    0    0    0  0.00000000000E+00  0.00000000000E+00  0.74505805969E-08  0.10566000000E+00  0.10566000000E+00 0.  1.
     999900   -1    0    0    0    0 -0.00000000000E+00 -0.00000000000E+00 -0.74505805969E-08  0.93827000000E+00  0.93827000000E+00 0. -1.
     999902    2    1    2    0    0 -0.19592187512E-01 -0.44916951395E-02 -0.15055996728E-01  0.10188160164E+01  0.10185064374E+01 0.  0.
     999903    2    3    3    0    0 -0.10471816745E+00  0.70173559532E-01  0.26916715923E-01  0.13056884281E+00  0.20820424231E-01 0.  0.
         14    1    1    2    0    0  0.19592187512E-01  0.44916951395E-02  0.15055996728E-01  0.25113983639E-01  0.00000000000E+00 0.  1.
     999901    1    3    3    0    0  0.85125979938E-01 -0.74665254671E-01 -0.41972712651E-01  0.88824717355E+00  0.88000000000E+00 0.  1.
        -11    1    4    4    0    0 -0.52317370607E-01  0.35391047670E-01  0.28642277791E-02  0.63230518297E-01  0.51100000000E-03 0. -1.
         11    1    4    4    0    0 -0.52400796843E-01  0.34782511862E-01  0.24052488144E-01  0.67338324512E-01  0.51100000000E-03 0.  1.
</event>
<event>
 8    1  0.1092993E+005  0.1043930E+01  0.7957747E-01            NaN
         13   -1    0    0    0    0  0.00000000000E+00  0.00000000000E+00  0.74505805969E-08  0.10566000000E+00  0.10566000000E+00 0. -1.
     999900   -1    0    0    0    0 -0.00000000000E+00 -0.00000000000E+00 -0.74505805969E-08  0.93827000000E+00  0.93827000000E+00 0. -1.
     999902    2    1    2    0    0  0.17027548158E-01  0.94976990398E-02  0.15774375468E-01  0.10188506339E+01  0.10185419184E+01 0.  0.
     999903    2    3    3    0    0  0.11601076801E+00  0.37423104611E-01  0.46730849867E-01  0.13232042605E+00  0.21585545381E-01 0.  0.
         14    1    1    2    0    0 -0.17027548158E-01 -0.94976990398E-02 -0.15774375468E-01  0.25079366115E-01  0.00000000000E+00 0.  1.
     999901    1    3    3    0    0 -0.98983219850E-01 -0.27925405571E-01 -0.30956474399E-01  0.88653020783E+00  0.88000000000E+00 0.  1.
        -11    1    4    4    0    0  0.48609445635E-01  0.18442813581E-01  0.31058951844E-01  0.60563480650E-01  0.51100000000E-03 0. -1.
         11    1    4    4    0    0  0.67401322373E-01  0.18980291029E-01  0.15671898023E-01  0.71756945405E-01  0.51100000000E-03 0.  1.
</event>
<event>
 8    1  0.1092993E+005  0.1043930E+01  0.7957747E-01            NaN
         13   -1    0    0    0    0  0.00000000000E+00  0.00000000000E+00  0.74505805969E-08  0.10566000000E+00  0.10566000000E+00 0.  1.
     999900   -1    0    0    0    0 -0.00000000000E+00 -0.00000000000E+00 -0.74505805969E-08  0.93827000000E+00  0.93827000000E+00 0.  1.
     999902    2    1    2    0    0  0.21431443428E-01 -0.63889017813E-02  0.76444898711E-02  0.10202960613E+01  0.10200222986E+01 0.  0.
     999903    2    3    3    0    0  0.97128950142E-01 -0.65951244768E-01 -0.58276535497E-01  0.13258925902E+00  0.20003933976E-01 0.  0.
         14    1    1    2    0    0 -0.21431443428E-01  0.63889017813E-02 -0.76444898711E-02  0.23633938707E-01  0.00000000000E+00 0.  1.
     999901    1    3    3    0    0 -0.75697506714E-01  0.59562342987E-01  0.65921025368E-01  0.88770680228E+00  0.88000000000E+00 0. -1.
        -11    1    4    4    0    0  0.28518487033E-01 -0.14059604644E-01 -0.74157752291E-02  0.32653199363E-01  0.51100000000E-03 0. -1.
         11    1    4    4    0    0  0.68610463110E-01 -0.51891640124E-01 -0.50860760267E-01  0.99936059653E-01  0.51100000000E-03 0.  1.
</event>
<event>
 8    1  0.1092993E+005  0.1043930E+01  0.7957747E-01            NaN
         13   -1    0    0    0    0  0.00000000000E+00  0.00000000000E+00  0.74505805969E-08  0.10566000000E+00  0.10566000000E+00 0. -1.
     999900   -1    0    0    0    0 -0.00000000000E+00 -0.00000000000E+00 -0.74505805969E-08  0.93827000000E+00  0.93827000000E+00 0. -1.
     999902    2    1    2    0    0  0.11490055264E-01  0.89565543374E-02 -0.19950266693E-01  0.10192266728E+01  0.10189272575E+01 0.  0.
     999903    2    3    3    0    0  0.43177213610E-01  0.11758763064E+00 -0.36430374200E-01  0.13182801337E+00  0.18982367888E-01 0.  0.
         14    1    1    2    0    0 -0.11490055264E-01 -0.89565543374E-02  0.19950266693E-01  0.24703327239E-01  0.00000000000E+00 0. -1.
     999901    1    3    3    0    0 -0.31687158345E-01 -0.10863107630E+00  0.16480107507E-01  0.88739865939E+00  0.88000000000E+00 0.  1.
        -11    1    4    4    0    0  0.36426516348E-01  0.73152952081E-01 -0.24747903621E-01  0.85387149772E-01  0.51100000000E-03 0.  1.
         11    1    4    4    0    0  0.67506972617E-02  0.44434678558E-01 -0.11682470579E-01  0.46440863600E-01  0.51100000000E-03 0. -1.
</event>
<event>
 8    1  0.1092993E+005  0.1043930E+01  0.7957747E-01            NaN
         13   -1    0    0    0    0  0.00000000000E+00  0.00000000000E+00  0.74505805969E-08  0.10566000000E+00  0.10566000000E+00 0.  1.
     999900   -1    0    0    0    0 -0.00000000000E+00 -0.00000000000E+00 -0.74505805969E-08  0.93827000000E+00  0.93827000000E+00 0.  1.
     999902    2    1    2    0    0 -0.93354307418E-02 -0.11448953888E-01 -0.17617315729E-01  0.10209387272E+01  0.10206798156E+01 0.  0.
     999903    2    3    3    0    0  0.93640018057E-01 -0.73179685603E-02  0.85635107100E-01  0.12892859780E+00  0.21614951260E-01 0.  0.
         14    1    1    2    0    0  0.93354307418E-02  0.11448953888E-01  0.17617315729E-01  0.22991272817E-01  0.00000000000E+00 0.  1.
     999901    1    3    3    0    0 -0.10297544880E+00 -0.41309853274E-02 -0.10325242283E+00  0.89201012938E+00  0.88000000000E+00 0.  1.
        -11    1    4    4    0    0  0.49087380177E-01 -0.13191094291E-01  0.52634523831E-01  0.73172604718E-01  0.51100000000E-03 0.  1.
         11    1    4    4    0    0  0.44552637880E-01  0.58731257303E-02  0.33000583269E-01  0.55755993086E-01  0.51100000000E-03 0. -1.
</event>
<event>
 8    1  0.1092993E+005  0.1043930E+01  0.7957747E-01            NaN
         13   -1    0    0    0    0  0.00000000000E+00  0.00000000000E+00  0.74505805969E-08  0.10566000000E+00  0.10566000000E+00 0.  1.
     999900   -1    0    0    0    0 -0.00000000000E+00 -0.00000000000E+00 -0.74505805969E-08  0.93827000000E+00  0.93827000000E+00 0. -1.
     999902    2    1    2    0    0 -0.16480219695E-01  0.51929080289E-02  0.18289839661E-01  0.10187688758E+01  0.10184581190E+01 0.  0.
     999903    2    3    3    0    0 -0.57921075251E-01  0.14605916792E-02 -0.11244124757E+00  0.12813882251E+00  0.20482660794E-01 0.  0.
         14    1    1    2    0    0  0.16480219695E-01 -0.51929080289E-02 -0.18289839661E-01  0.25161124176E-01  0.00000000000E+00 0.  1.
     999901    1    3    3    0    0  0.41440855557E-01  0.37323163497E-02  0.13073108723E+00  0.89063005331E+00  0.88000000000E+00 0.  1.
        -11    1    4    4    0    0 -0.43493091065E-01  0.11719860010E-02 -0.62519742548E-01  0.76170872719E-01  0.51100000000E-03 0.  1.
         11    1    4    4    0    0 -0.14427984187E-01  0.28860567825E-03 -0.49921505022E-01  0.51967949792E-01  0.51100000000E-03 0. -1.
</event>
<event>
 8    1  0.1092993E+005  0.1043930E+01  0.7957747E-01            NaN
         13   -1    0    0    0    0  0.00000000000E+00  0.00000000000E+00  0.74505805969E-08  0.10566000000E+00  0.10566000000E+00 0. -1.
     999900   -1    0    0    0    0 -0.00000000000E+00 -0.00000000000E+00 -0.74505805969E-08  0.93827000000E+00  0.93827000000E+00 0.  1.
     999902    2    1    2    0    0  0.18321149071E-01  0.20535462437E-01 -0.10652282313E-02  0.10163890408E+01  0.10160158355E+01 0.  0.
     999903    2    3    3    0    0 -0.39028628580E-01 -0.70931858039E-01  0.93118523029E-01  0.12480289989E+00  0.18712085848E-01 0.  0.
         14    1    1    2    0    0 -0.18321149071E-01 -0.20535462437E-01  0.10652282313E-02  0.27540959169E-01  0.00000000000E+00 0. -1.
     999901    1    3    3    0    0  0.57349777651E-01  0.91467320476E-01 -0.94183751261E-01  0.89158614094E+00  0.88000000000E+00 0.  1.
        -11    1    4    4    0    0 -0.38884309431E-01 -0.59102029456E-01  0.84208310541E-01  0.10998336279E+00  0.51100000000E-03 0.  1.
         11    1    4    4    0    0 -0.14431914954E-03 -0.11829828583E-01  0.89102124886E-02  0.14819537102E-01  0.51100000000E-03 0. -1.
</event>
<event>
 8    1  0.1092993E+005  0.1043930E+01  0.7957747E-01            NaN
         13   -1    0    0    0    0  0.00000000000E+00  0.00000000000E+00  0.74505805969E-08  0.10566000000E+00  0.10566000000E+00 0. -1.
     999900   -1    0    0    0    0 -0.00000000000E+00 -0.00000000000E+00 -0.74505805969E-08  0.93827000000E+00  0.93827000000E+00 0. -1.
     999902    2    1    2    0    0 -0.47017912138E-02  0.16155164714E-01 -0.17011922211E-01  0.10200029926E+01  0.10197223167E+01 0.  0.
     999903    2    3    3    0    0 -0.71759032289E-01 -0.10290710045E+00  0.19473833876E-01  0.12870971481E+00  0.21159641831E-01 0.  0.
         14    1    1    2    0    0  0.47017912138E-02 -0.16155164714E-01  0.17011922211E-01  0.23927007436E-01  0.00000000000E+00 0. -1.
     999901    1    3    3    0    0  0.67057241075E-01  0.11906226517E+00 -0.36485756086E-01  0.89129327775E+00  0.88000000000E+00 0.  1.
        -11    1    4    4    0    0 -0.42566945269E-01 -0.45940831807E-01  0.34755062904E-02  0.62728343846E-01  0.51100000000E-03 0. -1.
         11    1    4    4    0    0 -0.29192087019E-01 -0.56966268646E-01  0.15998327585E-01  0.65981370966E-01  0.51100000000E-03 0.  1.
</event>
<event>
 8    1  0.1092993E+005  0.1043930E+01  0.7957747E-01            NaN
         13   -1    0    0    0    0  0.00000000000E+00  0.00000000000E+00  0.74505805969E-08  0.10566000000E+00  0.10566000000E+00 0.  1.
     999900   -1    0    0    0    0 -0.00000000000E+00 -0.00000000000E+00 -0.74505805969E-08  0.93827000000E+00  0.93827000000E+00 0. -1.
     999902    2    1    2    0    0 -0.77637734183E-02 -0.75845113737E-02  0.18347488992E-01  0.10226126047E+01  0.10223903892E+01 0.  0.
     999903    2    3    3    0    0 -0.12035124386E+00 -0.13767645398E-01 -0.50474688319E-01  0.13275269339E+00  0.20040296477E-01 0.  0.
         14    1    1    2    0    0  0.77637734183E-02  0.75845113737E-02 -0.18347488992E-01  0.21317395309E-01  0.00000000000E+00 0. -1.
     999901    1    3    3    0    0  0.11258747044E+00  0.61831340247E-02  0.68822177311E-01  0.88985991130E+00  0.88000000000E+00 0.  1.
        -11    1    4    4    0    0 -0.74000224168E-01 -0.25300168932E-02 -0.39030897833E-01  0.83702486636E-01  0.51100000000E-03 0.  1.
         11    1    4    4    0    0 -0.46351019693E-01 -0.11237628505E-01 -0.11443790487E-01  0.49050206755E-01  0.51100000000E-03 0. -1.
</event>
<event>
 8    1  0.1092993E+005  0.1043930E+01  0.7957747E-01            NaN
         13   -1    0    0    0    0  0.00000000000E+00  0.00000000000E+00  0.74505805969E-08  0.10566000000E+00  0.10566000000E+00 0. -1.
     999900   -1    0    0    0    0 -0.00000000000E+00 -0.00000000000E+00 -0.74505805969E-08  0.93827000000E+00  0.93827000000E+00 0. -1.
     999902    2    1    2    0    0 -0.11907143853E-01 -0.16752753433E-01 -0.26323593220E-02  0.10232088963E+01  0.10229990622E+01 0.  0.
     999903    2    3    3    0    0  0.40994609231E-01 -0.12729588780E+00 -0.66204007717E-02  0.13470775140E+00  0.14749493029E-01 0.  0.
         14    1    1    2    0    0  0.11907143853E-01  0.16752753433E-01  0.26323593220E-02  0.20721103685E-01  0.00000000000E+00 0. -1.
     999901    1    3    3    0    0 -0.52901753084E-01  0.11054313437E+00  0.39880414497E-02  0.88850114491E+00  0.88000000000E+00 0. -1.
        -11    1    4    4    0    0  0.16062787813E-01 -0.58478484452E-01 -0.98451515140E-02  0.61440494996E-01  0.51100000000E-03 0.  1.
         11    1    4    4    0    0  0.24931821418E-01 -0.68817403349E-01  0.32247507423E-02  0.73267256406E-01  0.51100000000E-03 0. -1.
</event>
<event>
 8    1  0.1092993E+005  0.1043930E+01  0.7957747E-01            NaN
         13   -1    0    0    0    0  0.00000000000E+00  0.00000000000E+00  0.74505805969E-08  0.10566000000E+00  0.10566000000E+00 0. -1.
     999900   -1    0    0    0    0 -0.00000000000E+00 -0.00000000000E+00 -0.74505805969E-08  0.93827000000E+00  0.93827000000E+00 0.  1.
     999902    2    1    2    0    0 -0.13505185907E-01  0.10436673172E-01 -0.16315651612E-01  0.10203182512E+01  0.10200450084E+01 0.  0.
     999903    2    3    3    0    0  0.91312777302E-01 -0.87031241540E-01  0.12361630555E-01  0.12829292292E+00  0.19844491879E-01 0.  0.
         14    1    1    2    0    0  0.13505185907E-01 -0.10436673172E-01  0.16315651612E-01  0.23611748787E-01  0.00000000000E+00 0. -1.
     999901    1    3    3    0    0 -0.10481796321E+00  0.97467914712E-01 -0.28677282167E-01  0.89202532830E+00  0.88000000000E+00 0. -1.
        -11    1    4    4    0    0  0.81576466581E-02 -0.17418172957E-01  0.23490302332E-02  0.19383472656E-01  0.51100000000E-03 0.  1.
         11    1    4    4    0    0  0.83155130644E-01 -0.69613068583E-01  0.10012600322E-01  0.10890945026E+00  0.51100000000E-03 0. -1.
</event>
<event>
 8    1  0.1092993E+005  0.1043930E+01  0.7957747E-01            NaN
         13   -1    0    0    0    0  0.00000000000E+00  0.00000000000E+00  0.74505805969E-08  0.10566000000E+00  0.10566000000E+00 0.  1.
     999900   -1    0    0    0    0 -0.00000000000E+00 -0.00000000000E+00 -0.74505805969E-08  0.93827000000E+00  0.93827000000E+00 0. -1.
     999902    2    1    2    0    0 -0.38715444143E-02 -0.10551296161E-01 -0.19871918365E-01  0.10210999355E+01  0.10208446828E+01 0.  0.
     999903    2    3    3    0    0  0.40609478093E-02 -0.73806553200E-02 -0.13208751624E+00  0.13393291749E+00  0.20492658925E-01 0.  0.
         14    1    1    2    0    0  0.38715444143E-02  0.10551296161E-01  0.19871918365E-01  0.22830064528E-01  0.00000000000E+00 0.  1.
     999901    1    3    3    0    0 -0.79324922236E-02 -0.31706408408E-02  0.11221559787E+00  0.88716701799E+00  0.88000000000E+00 0.  1.
        -11    1    4    4    0    0 -0.57572833172E-02  0.40181686821E-02 -0.37476305975E-01  0.38131701002E-01  0.51100000000E-03 0.  1.
         11    1    4    4    0    0  0.98182311266E-02 -0.11398824002E-01 -0.94611210265E-01  0.95801216484E-01  0.51100000000E-03 0. -1.
</event>
<event>
 8    1  0.1092993E+005  0.1043930E+01  0.7957747E-01            NaN
         13   -1    0    0    0    0  0.00000000000E+00  0.00000000000E+00  0.74505805969E-08  0.10566000000E+00  0.10566000000E+00 0.  1.
     999900   -1    0    0    0    0 -0.00000000000E+00 -0.00000000000E+00 -0.74505805969E-08  0.93827000000E+00  0.93827000000E+00 0.  1.
     999902    2    1    2    0    0  0.47317672903E-02  0.22430123801E-01  0.67017786139E-02  0.10200466604E+01  0.10197670202E+01 0.  0.
     999903    2    3    3    0    0 -0.82845351502E-01  0.44787457042E-01 -0.87867087933E-01  0.13037656836E+00  0.20202867688E-01 0.  0.
         14    1    1    2    0    0 -0.47317672903E-02 -0.22430123801E-01 -0.67017786139E-02  0.23883339633E-01  0.00000000000E+00 0. -1.
     999901    1    3    3    0    0  0.87577118792E-01 -0.22357333241E-01  0.94568866547E-01  0.88967009200E+00  0.88000000000E+00 0. -1.
        -11    1    4    4    0    0 -0.23716235489E-01  0.20138822188E-01 -0.38476417027E-01  0.49484621582E-01  0.51100000000E-03 0.  1.
         11    1    4    4    0    0 -0.59129116013E-01  0.24648634854E-01 -0.49390670906E-01  0.80891946782E-01  0.51100000000E-03 0. -1.
</event>
<event>
 8    1  0.1092993E+005  0.1043930E+01  0.7957747E-01            NaN
         13   -1    0    0    0    0  0.00000000000E+00  0.00000000000E+00  0.74505805969E-08  0.10566000000E+00  0.10566000000E+00 0.  1.
     999900   -1    0    0    0    0 -0.00000000000E+00 -0.00000000000E+00 -0.74505805969E-08  0.93827000000E+00  0.93827000000E+00 0.  1.
     999902    2    1    2    0    0  0.20770700262E-01  0.13152440816E-01 -0.10539281503E-02  0.10193226951E+01  0.10190256313E+01 0.  0.
     999903    2    3    3    0    0  0.21742143398E-01 -0.25295205135E-02  0.12661843592E+00  0.12997062751E+00  0.19519642077E-01 0.  0.
         14    1    1    2    0    0 -0.20770700262E-01 -0.13152440816E-01  0.10539281503E-02  0.24607304878E-01  0.00000000000E+00 0.  1.
     999901    1    3    3    0    0 -0.97144313573E-03  0.15681961329E-01 -0.12767236407E+00  0.88935206761E+00  0.88000000000E+00 0.  1.
        -11    1    4    4    0    0  0.17251924801E-01 -0.10472860663E-01  0.87596104203E-01  0.89892426335E-01  0.51100000000E-03 0.  1.
         11    1    4    4    0    0  0.44902185976E-02  0.79433401493E-02  0.39022331720E-01  0.40078201178E-01  0.51100000000E-03 0. -1.
</event>
<event>
 8    1  0.1092993E+005  0.1043930E+01  0.7957747E-01            NaN
         13   -1    0    0    0    0  0.00000000000E+00  0.00000000000E+00  0.74505805969E-08  0.10566000000E+00  0.10566000000E+00 0. -1.
     999900   -1    0    0    0    0 -0.00000000000E+00 -0.00000000000E+00 -0.74505805969E-08  0.93827000000E+00  0.93827000000E+00 0. -1.
     999902    2    1    2    0    0  0.23168025784E-01  0.29175249755E-02 -0.25746899702E-02  0.10204374821E+01  0.10201670238E+01 0.  0.
     999903    2    3    3    0    0 -0.14341499597E-01  0.12451993599E+00 -0.31265153214E-01  0.13082113018E+00  0.20634079228E-01 0.  0.
         14    1    1    2    0    0 -0.23168025784E-01 -0.29175249755E-02  0.25746899702E-02  0.23492517940E-01  0.00000000000E+00 0. -1.
     999901    1    3    3    0    0  0.37509525382E-01 -0.12160241101E+00  0.28690463244E-01  0.88961635188E+00  0.88000000000E+00 0.  1.
        -11    1    4    4    0    0 -0.88875107664E-02  0.15963881514E-01 -0.31259917675E-02  0.18543632496E-01  0.51100000000E-03 0. -1.
         11    1    4    4    0    0 -0.54539888307E-02  0.10855605447E+00 -0.28139161447E-01  0.11227749768E+00  0.51100000000E-03 0.  1.
</event>
<event>
 8    1  0.1092993E+005  0.1043930E+01  0.7957747E-01            NaN
         13   -1    0    0    0    0  0.00000000000E+00  0.00000000000E+00  0.74505805969E-08  0.10566000000E+00  0.10566000000E+00 0.  1.
     999900   -1    0    0    0    0 -0.00000000000E+00 -0.00000000000E+00 -0.74505805969E-08  0.93827000000E+00  0.93827000000E+00 0.  1.
     999902    2    1    2    0    0  0.22487090041E-02 -0.20697834390E-01  0.10948702436E-01  0.10204070086E+01  0.10201358400E+01 0.  0.
     999903    2    3    3    0    0 -0.22355962890E-01  0.11487487465E+00  0.49981350793E-01  0.12883037308E+00  0.20077442512E-01 0.  0.
         14    1    1    2    0    0 -0.22487090041E-02  0.20697834390E-01 -0.10948702436E-01  0.23522991427E-01  0.00000000000E+00 0. -1.
     999901    1    3    3    0    0  0.24604671894E-01 -0.13557270904E+00 -0.39032648357E-01  0.89157663549E+00  0.88000000000E+00 0.  1.
        -11    1    4    4    0    0 -0.16446124374E-01  0.36705012009E-01  0.19716566690E-01  0.44796618584E-01  0.51100000000E-03 0. -1.
         11    1    4    4    0    0 -0.59098385153E-02  0.78169862645E-01  0.30264784103E-01  0.84033754498E-01  0.51100000000E-03 0.  1.
</event>
<event>
 8    1  0.1092993E+005  0.1043930E+01  0.7957747E-01            NaN
         13   -1    0    0    0    0  0.00000000000E+00  0.00000000000E+00  0.74505805969E-08  0.10566000000E+00  0.10566000000E+00 0.  1.
     999900   -1    0    0    0    0 -0.00000000000E+00 -0.00000000000E+00 -0.74505805969E-08  0.93827000000E+00  0.93827000000E+00 0. -1.
     999902    2    1    2    0    0  0.22167900546E-01 -0.32204643603E-02 -0.22523656815E-02  0.10214164406E+01  0.10211682941E+01 0.  0.
     999903    2    3    3    0    0  0.13159604865E+00 -0.11498585907E-01 -0.15929410430E-01  0.13449473694E+00  0.19630350221E-01 0.  0.
         14    1    1    2    0    0 -0.22167900546E-01  0.32204643603E-02  0.22523656815E-02  0.22513559391E-01  0.00000000000E+00 0.  1.
     999901    1    3    3    0    0 -0.10942814810E+00  0.82781215468E-02  0.13677044748E-01  0.88692170367E+00  0.88000000000E+00 0. -1.
        -11    1    4    4    0    0  0.56207550961E-01 -0.14036175217E-01 -0.34692386381E-02  0.58039639364E-01  0.51100000000E-03 0.  1.
         11    1    4    4    0    0  0.75388497684E-01  0.25375893102E-02 -0.12460171792E-01  0.76455097572E-01  0.51100000000E-03 0. -1.
</event>
<event>
 8    1  0.1092993E+005  0.1043930E+01  0.7957747E-01            NaN
         13   -1    0    0    0    0  0.00000000000E+00  0.00000000000E+00  0.74505805969E-08  0.10566000000E+00  0.10566000000E+00 0. -1.
     999900   -1    0    0    0    0 -0.00000000000E+00 -0.00000000000E+00 -0.74505805969E-08  0.93827000000E+00  0.93827000000E+00 0. -1.
     999902    2    1    2    0    0  0.40109816889E-03  0.10736867439E-01 -0.21087628934E-01  0.10202629491E+01  0.10199884098E+01 0.  0.
     999903    2    3    3    0    0 -0.11696746066E+00 -0.51571384046E-01  0.79526889193E-02  0.12981304215E+00  0.21146776226E-01 0.  0.
         14    1    1    2    0    0 -0.40109816889E-03 -0.10736867439E-01  0.21087628934E-01  0.23667050856E-01  0.00000000000E+00 0. -1.
     999901    1    3    3    0    0  0.11736855883E+00  0.62308251484E-01 -0.29040317853E-01  0.89044990699E+00  0.88000000000E+00 0.  1.
        -11    1    4    4    0    0 -0.52483175691E-01 -0.13913702981E-01 -0.27773279767E-02  0.54369564399E-01  0.51100000000E-03 0.  1.
         11    1    4    4    0    0 -0.64484284973E-01 -0.37657681064E-01  0.10730016896E-01  0.75443477751E-01  0.51100000000E-03 0. -1.
</event>
<event>
 8    1  0.1092993E+005  0.1043930E+01  0.7957747E-01            NaN
         13   -1    0    0    0    0  0.00000000000E+00  0.00000000000E+00  0.74505805969E-08  0.10566000000E+00  0.10566000000E+00 0. -1.
     999900   -1    0    0    0    0 -0.00000000000E+00 -0.00000000000E+00 -0.74505805969E-08  0.93827000000E+00  0.93827000000E+00 0. -1.
     999902    2    1    2    0    0 -0.75177092857E-02 -0.18397206068E-01  0.12763026557E-01  0.10203107707E+01  0.10200373527E+01 0.  0.
     999903    2    3    3    0    0  0.78738114315E-01 -0.14136932493E-01  0.10248545327E+00  0.13154289841E+00  0.20018053894E-01 0.  0.
         14    1    1    2    0    0  0.75177092857E-02  0.18397206068E-01 -0.12763026557E-01  0.23619229262E-01  0.00000000000E+00 0.  1.
     999901    1    3    3    0    0 -0.86255823600E-01 -0.42602735750E-02 -0.89722426718E-01  0.88876787233E+00  0.88000000000E+00 0. -1.
        -11    1    4    4    0    0  0.49970069546E-01 -0.17756547399E-01  0.59677249416E-01  0.79836946615E-01  0.51100000000E-03 0. -1.
         11    1    4    4    0    0  0.28768044768E-01  0.36196149059E-02  0.42808203859E-01  0.51705951790E-01  0.51100000000E-03 0.  1.
</event>
<event>
 8    1  0.1092993E+005  0.1043930E+01  0.7957747E-01            NaN
         13   -1    0    0    0    0  0.00000000000E+00  0.00000000000E+00  0.74505805969E-08  0.10566000000E+00  0.10566000000E+00 0. -1.
     999900   -1    0    0    0    0 -0.00000000000E+00 -0.00000000000E+00 -0.74505805969E-08  0.93827000000E+00  0.93827000000E+00 0. -1.
     999902    2    1    2    0    0  0.17788665622E-01  0.27548258460E-02 -0.15598431501E-01  0.10201111681E+01  0.10198330542E+01 0.  0.
     999903    2    3    3    0    0  0.61586182677E-02 -0.63574469832E-01 -0.11342350744E+00  0.13213336487E+00  0.22686830480E-01 0.  0.
         14    1    1    2    0    0 -0.17788665622E-01 -0.27548258460E-02  0.15598431501E-01  0.23818831947E-01  0.00000000000E+00 0. -1.
     999901    1    3    3    0    0  0.11630047354E-01  0.66329295678E-01  0.97825075942E-01  0.88797780319E+00  0.88000000000E+00 0.  1.
        -11    1    4    4    0    0  0.10263413643E-01 -0.11159051940E-01 -0.23700690826E-01  0.28139757754E-01  0.51100000000E-03 0. -1.
         11    1    4    4    0    0 -0.41047953757E-02 -0.52415417892E-01 -0.89722816617E-01  0.10399360711E+00  0.51100000000E-03 0.  1.
</event>
<event>
 8    1  0.1092993E+005  0.1043930E+01  0.7957747E-01            NaN
         13   -1    0    0    0    0  0.00000000000E+00  0.00000000000E+00  0.74505805969E-08  0.10566000000E+00  0.10566000000E+00 0. -1.
     999900   -1    0    0    0    0 -0.00000000000E+00 -0.00000000000E+00 -0.74505805969E-08  0.93827000000E+00  0.93827000000E+00 0. -1.
     999902    2    1    2    0    0  0.19295515244E-01  0.13574280230E-01  0.33458813913E-02  0.10201020140E+01  0.10198236839E+01 0.  0.
     999903    2    3    3    0    0 -0.28748337487E-01 -0.65275271803E-01  0.10611155381E+00  0.12932356400E+00  0.19431786736E-01 0.  0.
         14    1    1    2    0    0 -0.19295515244E-01 -0.13574280230E-01 -0.33458813913E-02  0.23827985953E-01  0.00000000000E+00 0.  1.
     999901    1    3    3    0    0  0.48043852731E-01  0.78849552033E-01 -0.10276567242E+00  0.89077845005E+00  0.88000000000E+00 0. -1.
        -11    1    4    4    0    0 -0.26343226365E-01 -0.36393897767E-01  0.63521030916E-01  0.77805294548E-01  0.51100000000E-03 0.  1.
         11    1    4    4    0    0 -0.24051111218E-02 -0.28881374035E-01  0.42590522897E-01  0.51518269452E-01  0.51100000000E-03 0. -1.
</event>
<event>
 8    1  0.1092993E+005  0.1043930E+01  0.7957747E-01            NaN
         13   -1    0    0    0    0  0.00000000000E+00  0.00000000000E+00  0.74505805969E-08  0.10566000000E+00  0.10566000000E+00 0.  1.
     999900   -1    0    0    0    0 -0.00000000000E+00 -0.00000000000E+00 -0.74505805969E-08  0.93827000000E+00  0.93827000000E+00 0. -1.
     999902    2    1    2    0    0  0.14703246964E-01  0.50300138846E-02 -0.17905930945E-01  0.10202211646E+01  0.10199456436E+01 0.  0.
     999903    2    3    3    0    0 -0.47980405779E-01  0.11952090972E+00  0.24222696350E-02  0.13036126483E+00  0.20020608872E-01 0.  0.
         14    1    1    2    0    0 -0.14703246964E-01 -0.50300138846E-02  0.17905930945E-01  0.23708835356E-01  0.00000000000E+00 0.  1.
     999901    1    3    3    0    0  0.62683652743E-01 -0.11449089584E+00 -0.20328200580E-01  0.88985989981E+00  0.88000000000E+00 0. -1.
        -11    1    4    4    0    0 -0.75513976950E-02  0.36459091159E-01  0.69116147854E-02  0.37872423678E-01  0.51100000000E-03 0. -1.
         11    1    4    4    0    0 -0.40429008084E-01  0.83061818562E-01 -0.44893451504E-02  0.92488841156E-01  0.51100000000E-03 0.  1.
</event>
<event>
 8    1  0.1092993E+005  0.1043930E+01  0.7957747E-01            NaN
         13   -1    0    0    0    0  0.00000000000E+00  0.00000000000E+00  0.74505805969E-08  0.10566000000E+00  0.10566000000E+00 0.  1.
     999900   -1    0    0    0    0 -0.00000000000E+00 -0.00000000000E+00 -0.74505805969E-08  0.93827000000E+00  0.93827000000E+00 0. -1.
     999902    2    1    2    0    0 -0.12783640353E-01 -0.16660876627E-01  0.59821041934E-02  0.10220944363E+01  0.10218611671E+01 0.  0.
     999903    2    3    3    0    0 -0.10166546611E+00 -0.35079366906E-01 -0.77173044058E-01  0.13352592550E+00  0.17523272256E-01 0.  0.
         14    1    1    2    0    0  0.12783640353E-01  0.16660876627E-01 -0.59821041934E-02  0.21835563681E-01  0.00000000000E+00 0.  1.
     999901    1    3    3    0    0  0.88881825756E-01  0.18418490279E-01  0.83155148251E-01  0.88856851082E+00  0.88000000000E+00 0.  1.
        -11    1    4    4    0    0 -0.45117388648E-01 -0.24256282735E-01 -0.32710896283E-01  0.60780012069E-01  0.51100000000E-03 0. -1.
         11    1    4    4    0    0 -0.56548077461E-01 -0.10823084171E-01 -0.44462147775E-01  0.72745913433E-01  0.51100000000E-03 0.  1.
</event>
<event>
 8    1  0.1092993E+005  0.1043930E+01  0.7957747E-01            NaN
         13   -1    0    0    0    0  0.00000000000E+00  0.00000000000E+00  0.74505805969E-08  0.10566000000E+00  0.10566000000E+00 0.  1.
     999900   -1    0    0    0    0 -0.00000000000E+00 -0.00000000000E+00 -0.74505805969E-08  0.93827000000E+00  0.93827000000E+00 0.  1.
     999902    2    1    2    0    0 -0.18741860834E-01  0.14352124711E-01 -0.58235087742E-02  0.10196163395E+01  0.10193264078E+01 0.  0.
     999903    2    3    3    0    0 -0.75922836063E-01  0.56323410933E-01  0.89361203617E-01  0.13164596712E+00  0.20214655380E-01 0.  0.
         14    1    1    2    0    0  0.18741860834E-01 -0.14352124711E-01  0.58235087742E-02  0.24313660475E-01  0.00000000000E+00 0. -1.
     999901    1    3    3    0    0  0.57180975229E-01 -0.41971286222E-01 -0.95184712392E-01  0.88797037240E+00  0.88000000000E+00 0.  1.
        -11    1    4    4    0    0 -0.69651868833E-01  0.57436232945E-01  0.83315011233E-01  0.12284932195E+00  0.51100000000E-03 0. -1.
         11    1    4    4    0    0 -0.62709672303E-02 -0.11128220120E-02  0.60461923844E-02  0.87966451664E-02  0.51100000000E-03 0.  1.
</event>
<event>
 8    1  0.1092993E+005  0.1043930E+01  0.7957747E-01            NaN
         13   -1    0    0    0    0  0.00000000000E+00  0.00000000000E+00  0.74505805969E-08  0.10566000000E+00  0.10566000000E+00 0. -1.
     999900   -1    0    0    0    0 -0.00000000000E+00 -0.00000000000E+00 -0.74505805969E-08  0.93827000000E+00  0.93827000000E+00 0.  1.
     999902    2    1    2    0    0  0.12940671055E-01 -0.10018161121E-01  0.17162920962E-01  0.10202152287E+01  0.10199395681E+01 0.  0.
     999903    2    3    3    0    0  0.83017952539E-01 -0.38728351628E-01  0.95164424579E-01  0.13352512787E+00  0.19514774020E-01 0.  0.
         14    1    1    2    0    0 -0.12940671055E-01  0.10018161121E-01 -0.17162920962E-01  0.23714771252E-01  0.00000000000E+00 0.  1.
     999901    1    3    3    0    0 -0.70077281484E-01  0.28710190507E-01 -0.78001503616E-01  0.88669010087E+00  0.88000000000E+00 0. -1.
        -11    1    4    4    0    0  0.64513638298E-01 -0.24075450050E-01  0.60981342282E-01  0.91981639739E-01  0.51100000000E-03 0.  1.
         11    1    4    4    0    0  0.18504314240E-01 -0.14652901578E-01  0.34183082297E-01  0.41543488136E-01  0.51100000000E-03 0. -1.
</event>
<event>
 8    1  0.1092993E+005  0.1043930E+01  0.7957747E-01            NaN
         13   -1    0    0    0    0  0.00000000000E+00  0.00000000000E+00  0.74505805969E-08  0.10566000000E+00  0.10566000000E+00 0.  1.
     999900   -1    0    0    0    0 -0.00000000000E+00 -0.00000000000E+00 -0.74505805969E-08  0.93827000000E+00  0.93827000000E+00 0.  1.
     999902    2    1    2    0    0  0.10257152383E-02  0.91986188330E-02 -0.21476750666E-01  0.10205437327E+01  0.10202757435E+01 0.  0.
     999903    2    3    3    0    0 -0.11725287746E-01  0.83809406314E-01  0.95870406882E-01  0.12953323158E+00  0.20645198165E-01 0.  0.
         14    1    1    2    0    0 -0.10257152383E-02 -0.91986188330E-02  0.21476750666E-01  0.23386267324E-01  0.00000000000E+00 0.  1.
     999901    1    3    3    0    0  0.12751002984E-01 -0.74610787481E-01 -0.11734715755E+00  0.89101050110E+00  0.88000000000E+00 0.  1.
        -11    1    4    4    0    0 -0.84532808824E-02  0.62821951732E-01  0.57065889006E-01  0.85292627971E-01  0.51100000000E-03 0.  1.
         11    1    4    4    0    0 -0.32720068632E-02  0.20987454582E-01  0.38804517876E-01  0.44240603605E-01  0.51100000000E-03 0. -1.
</event>
<event>
 8    1  0.1092993E+005  0.1043930E+01  0.7957747E-01            NaN
         13   -1    0    0    0    0  0.00000000000E+00  0.00000000000E+00  0.74505805969E-08  0.10566000000E+00  0.10566000000E+00 0. -1.
     999900   -1    0    0    0    0 -0.00000000000E+00 -0.00000000000E+00 -0.74505805969E-08  0.93827000000E+00  0.93827000000E+00 0.  1.
     999902    2    1    2    0    0  0.11325255868E-01  0.20329871764E-01 -0.56882345292E-02  0.10199733492E+01  0.10196919691E+01 0.  0.
     999903    2    3    3    0    0  0.28649274358E-01 -0.17139590438E-01 -0.12498673562E+00  0.13096479209E+00  0.20384950475E-01 0.  0.
         14    1    1    2    0    0 -0.11325255868E-01 -0.20329871764E-01  0.56882345292E-02  0.23956650819E-01  0.00000000000E+00 0.  1.
     999901    1    3    3    0    0 -0.17324018490E-01  0.37469462202E-01  0.11929850109E+00  0.88900855709E+00  0.88000000000E+00 0. -1.
        -11    1    4    4    0    0  0.61044843256E-02 -0.11831934710E-01 -0.70652275946E-01  0.71897598188E-01  0.51100000000E-03 0. -1.
         11    1    4    4    0    0  0.22544790032E-01 -0.53076557286E-02 -0.54334459671E-01  0.59067193904E-01  0.51100000000E-03 0.  1.
</event>
<event>
 8    1  0.1193964E+005  0.1043930E+01  0.7957747E-01            NaN
         13   -1    0    0    0    0  0.00000000000E+00  0.00000000000E+00  0.74505805969E-08  0.10566000000E+00  0.10566000000E+00 0.  1.
     999900   -1    0    0    0    0 -0.00000000000E+00 -0.00000000000E+00 -0.74505805969E-08  0.93827000000E+00  0.93827000000E+00 0. -1.
     999902    2    1    2    0    0  0.24810170562E-02 -0.20281589397E-01 -0.11990995821E-01  0.10202386029E+01  0.10199634918E+01 0.  0.
     999903    2    3    3    0    0  0.61670366104E-02  0.11425356372E+00 -0.56043034727E-01  0.12891718151E+00  0.19669997063E-01 0.  0.
         14    1    1    2    0    0 -0.24810170562E-02  0.20281589397E-01  0.11990995821E-01  0.23691397064E-01  0.00000000000E+00 0.  1.
     999901    1    3    3    0    0 -0.36860195542E-02 -0.13453515311E+00  0.44052038906E-01  0.89132142143E+00  0.88000000000E+00 0. -1.
        -11    1    4    4    0    0 -0.45864242100E-02  0.80781655462E-01 -0.40275742235E-01  0.90383116122E-01  0.51100000000E-03 0. -1.
         11    1    4    4    0    0  0.10753460820E-01  0.33471908253E-01 -0.15767292492E-01  0.38534065387E-01  0.51100000000E-03 0.  1.
</event>
<event>
 8    1  0.1092993E+005  0.1043930E+01  0.7957747E-01            NaN
         13   -1    0    0    0    0  0.00000000000E+00  0.00000000000E+00  0.74505805969E-08  0.10566000000E+00  0.10566000000E+00 0.  1.
     999900   -1    0    0    0    0 -0.00000000000E+00 -0.00000000000E+00 -0.74505805969E-08  0.93827000000E+00  0.93827000000E+00 0.  1.
     999902    2    1    2    0    0 -0.95083469261E-02 -0.12448058827E-01  0.17450078466E-01  0.10204807342E+01  0.10202112824E+01 0.  0.
     999903    2    3    3    0    0  0.29509796800E-01  0.73233991550E-01 -0.96056323488E-01  0.12820973689E+00  0.31254979199E-01 0.  0.
         14    1    1    2    0    0  0.95083469261E-02  0.12448058827E-01 -0.17450078466E-01  0.23449265837E-01  0.00000000000E+00 0. -1.
     999901    1    3    3    0    0 -0.39018143727E-01 -0.85682050377E-01  0.11350640195E+00  0.89227099728E+00  0.88000000000E+00 0. -1.
        -11    1    4    4    0    0  0.26287490989E-01  0.32087367642E-01 -0.62501884154E-01  0.75015851582E-01  0.51100000000E-03 0.  1.
         11    1    4    4    0    0  0.32223058116E-02  0.41146623907E-01 -0.33554439334E-01  0.53193885304E-01  0.51100000000E-03 0. -1.
</event>
<event>
 8    1  0.1092993E+005  0.1043930E+01  0.7957747E-01            NaN
         13   -1    0    0    0    0  0.00000000000E+00  0.00000000000E+00  0.74505805969E-08  0.10566000000E+00  0.10566000000E+00 0.  1.
     999900   -1    0    0    0    0 -0.00000000000E+00 -0.00000000000E+00 -0.74505805969E-08  0.93827000000E+00  0.93827000000E+00 0.  1.
     999902    2    1    2    0    0  0.11278996884E-01 -0.15010649985E-01  0.14585452081E-01  0.10201545758E+01  0.10198774866E+01 0.  0.
     999903    2    3    3    0    0 -0.87507088250E-01 -0.15987068824E-02 -0.91646390797E-01  0.12817712357E+00  0.19242341428E-01 0.  0.
         14    1    1    2    0    0 -0.11278996884E-01  0.15010649985E-01 -0.14585452081E-01  0.23775424204E-01  0.00000000000E+00 0. -1.
     999901    1    3    3    0    0  0.98786085134E-01 -0.13411943102E-01  0.10623184288E+00  0.89197745222E+00  0.88000000000E+00 0. -1.
        -11    1    4    4    0    0 -0.65180101327E-02 -0.48682541777E-02 -0.51766640491E-02  0.96562584114E-02  0.51100000000E-03 0. -1.
         11    1    4    4    0    0 -0.80989078117E-01  0.32695472953E-02 -0.86469726748E-01  0.11852086516E+00  0.51100000000E-03 0.  1.
</event>
<event>
 8    1  0.1092993E+005  0.1043930E+01  0.7957747E-01            NaN
         13   -1    0    0    0    0  0.00000000000E+00  0.00000000000E+00  0.74505805969E-08  0.10566000000E+00  0.10566000000E+00 0. -1.
     999900   -1    0    0    0    0 -0.00000000000E+00 -0.00000000000E+00 -0.74505805969E-08  0.93827000000E+00  0.93827000000E+00 0. -1.
     999902    2    1    2    0    0  0.20063906483E-01  0.67108183133E-02 -0.11359814643E-01  0.10199166534E+01  0.10196339241E+01 0.  0.
     999903    2    3    3    0    0 -0.57467710933E-01 -0.44107084033E-01  0.10316322308E+00  0.12766717200E+00  0.20206027534E-01 0.  0.
         14    1    1    2    0    0 -0.20063906483E-01 -0.67108183133E-02  0.11359814643E-01  0.24013346591E-01  0.00000000000E+00 0. -1.
     999901    1    3    3    0    0  0.77531617415E-01  0.50817902346E-01 -0.11452303773E+00  0.89224948141E+00  0.88000000000E+00 0. -1.
        -11    1    4    4    0    0 -0.15794008502E-01 -0.21569252140E-01  0.27220750871E-01  0.38156437745E-01  0.51100000000E-03 0.  1.
         11    1    4    4    0    0 -0.41673702430E-01 -0.22537831893E-01  0.75942472212E-01  0.89510734258E-01  0.51100000000E-03 0. -1.
</event>
<event>
 8    1  0.1092993E+005  0.1043930E+01  0.7957747E-01            NaN
         13   -1    0    0    0    0  0.00000000000E+00  0.00000000000E+00  0.74505805969E-08  0.10566000000E+00  0.10566000000E+00 0.  1.
     999900   -1    0    0    0    0 -0.00000000000E+00 -0.00000000000E+00 -0.74505805969E-08  0.93827000000E+00  0.93827000000E+00 0.  1.
     999902    2    1    2    0    0 -0.54607280606E-02 -0.28663262521E-02 -0.23944390961E-01  0.10192041181E+01  0.10189041491E+01 0.  0.
     999903    2    3    3    0    0 -0.88163121120E-01  0.75371441286E-01  0.51895109351E-01  0.12863549981E+00  0.20009981225E-01 0.  0.
         14    1    1    2    0    0  0.54607280606E-02  0.28663262521E-02  0.23944390961E-01  0.24725881898E-01  0.00000000000E+00 0.  1.
     999901    1    3    3    0    0  0.82702393059E-01 -0.78237767538E-01 -0.75839500312E-01  0.89056861830E+00  0.88000000000E+00 0.  1.
        -11    1    4    4    0    0 -0.19041348832E-01  0.27744512180E-01  0.12402840440E-01  0.35866732406E-01  0.51100000000E-03 0.  1.
         11    1    4    4    0    0 -0.69121772288E-01  0.47626929105E-01  0.39492268910E-01  0.92768767400E-01  0.51100000000E-03 0. -1.
</event>
<event>
 8    1  0.1092993E+005  0.1043930E+01  0.7957747E-01            NaN
         13   -1    0    0    0    0  0.00000000000E+00  0.00000000000E+00  0.74505805969E-08  0.10566000000E+00  0.10566000000E+00 0. -1.
     999900   -1    0    0    0    0 -0.00000000000E+00 -0.00000000000E+00 -0.74505805969E-08  0.93827000000E+00  0.93827000000E+00 0. -1.
     999902    2    1    2    0    0  0.27881512364E-02  0.20717899219E-01  0.13069408835E-01  0.10192761041E+01  0.10189779006E+01 0.  0.
     999903    2    3    3    0    0  0.10226642484E+00  0.28947165964E-01  0.74768803718E-01  0.13148645386E+00  0.20048777337E-01 0.  0.
         14    1    1    2    0    0 -0.27881512364E-02 -0.20717899219E-01 -0.13069408835E-01  0.24653895893E-01  0.00000000000E+00 0.  1.
     999901    1    3    3    0    0 -0.99478273607E-01 -0.82292667451E-02 -0.61699394882E-01  0.88778965024E+00  0.88000000000E+00 0. -1.
        -11    1    4    4    0    0  0.43501650096E-01  0.64720569293E-02  0.21075469435E-01  0.48772098734E-01  0.51100000000E-03 0. -1.
         11    1    4    4    0    0  0.58764774747E-01  0.22475109035E-01  0.53693334282E-01  0.82714355130E-01  0.51100000000E-03 0.  1.
</event>
<event>
 8    1  0.1092993E+005  0.1043930E+01  0.7957747E-01            NaN
         13   -1    0    0    0    0  0.00000000000E+00  0.00000000000E+00  0.74505805969E-08  0.10566000000E+00  0.10566000000E+00 0.  1.
     999900   -1    0    0    0    0 -0.00000000000E+00 -0.00000000000E+00 -0.74505805969E-08  0.93827000000E+00  0.93827000000E+00 0. -1.
     999902    2    1    2    0    0 -0.28175741011E-02 -0.66394635910E-02  0.22528030100E-01  0.10202755429E+01  0.10200012991E+01 0.  0.
     999903    2    3    3    0    0  0.10387039798E+00 -0.76823103207E-01  0.65942883566E-02  0.13091512620E+00  0.20110615774E-01 0.  0.
         14    1    1    2    0    0  0.28175741011E-02  0.66394635910E-02 -0.22528030100E-01  0.23654457102E-01  0.00000000000E+00 0. -1.
     999901    1    3    3    0    0 -0.10668797208E+00  0.70183639616E-01  0.15933741743E-01  0.88936041669E+00  0.88000000000E+00 0. -1.
        -11    1    4    4    0    0  0.10928039350E-01 -0.81237884482E-02  0.70384714958E-02  0.15336857070E-01  0.51100000000E-03 0.  1.
         11    1    4    4    0    0  0.92942358632E-01 -0.68699314758E-01 -0.44418313913E-03  0.11557826913E+00  0.51100000000E-03 0. -1.
</event>
<event>
 8    1  0.1092993E+005  0.1043930E+01  0.7957747E-01            NaN
         13   -1    0    0    0    0  0.00000000000E+00  0.00000000000E+00  0.74505805969E-08  0.10566000000E+00  0.10566000000E+00 0.  1.
     999900   -1    0    0    0    0 -0.00000000000E+00 -0.00000000000E+00 -0.74505805969E-08  0.93827000000E+00  0.93827000000E+00 0. -1.
     999902    2    1    2    0    0 -0.76181298899E-02  0.21864704066E-01 -0.90653642309E-02  0.10190647227E+01  0.10187613199E+01 0.  0.
     999903    2    3    3    0    0  0.37213274030E-01 -0.51979071891E-01 -0.11016410892E+00  0.12907387206E+00  0.20911285882E-01 0.  0.
         14    1    1    2    0    0  0.76181298899E-02 -0.21864704066E-01  0.90653642309E-02  0.24865277307E-01  0.00000000000E+00 0. -1.
     999901    1    3    3    0    0 -0.44831403920E-01  0.73843775957E-01  0.10109874469E+00  0.88999085063E+00  0.88000000000E+00 0.  1.
        -11    1    4    4    0    0  0.36828755656E-01 -0.47948611769E-01 -0.89488930290E-01  0.10799979805E+00  0.51100000000E-03 0. -1.
         11    1    4    4    0    0  0.38451837418E-03 -0.40304601215E-02 -0.20675178629E-01  0.21074074013E-01  0.51100000000E-03 0.  1.
</event>
<event>
 8    1  0.1092993E+005  0.1043930E+01  0.7957747E-01            NaN
         13   -1    0    0    0    0  0.00000000000E+00  0.00000000000E+00  0.74505805969E-08  0.10566000000E+00  0.10566000000E+00 0.  1.
     999900   -1    0    0    0    0 -0.00000000000E+00 -0.00000000000E+00 -0.74505805969E-08  0.93827000000E+00  0.93827000000E+00 0.  1.
     999902    2    1    2    0    0 -0.45827525132E-02 -0.22913398834E-01 -0.42753384855E-02  0.10201749166E+01  0.10198983070E+01 0.  0.
     999903    2    3    3    0    0  0.10262936692E+00 -0.75760640814E-01 -0.26563958263E-01  0.13181460003E+00  0.19924438567E-01 0.  0.
         14    1    1    2    0    0  0.45827525132E-02  0.22913398834E-01  0.42753384855E-02  0.23755083369E-01  0.00000000000E+00 0. -1.
     999901    1    3    3    0    0 -0.10721211943E+00  0.52847241980E-01  0.22288619777E-01  0.88836031660E+00  0.88000000000E+00 0.  1.
        -11    1    4    4    0    0  0.57206435132E-01 -0.30264584956E-01 -0.15892433452E-01  0.66643468435E-01  0.51100000000E-03 0.  1.
         11    1    4    4    0    0  0.45422931786E-01 -0.45496055858E-01 -0.10671524811E-01  0.65171131596E-01  0.51100000000E-03 0. -1.
</event>
<event>
 8    1  0.1092993E+005  0.1043930E+01  0.7957747E-01            NaN
         13   -1    0    0    0    0  0.00000000000E+00  0.00000000000E+00  0.74505805969E-08  0.10566000000E+00  0.10566000000E+00 0. -1.
     999900   -1    0    0    0    0 -0.00000000000E+00 -0.00000000000E+00 -0.74505805969E-08  0.93827000000E+00  0.93827000000E+00 0.  1.
     999902    2    1    2    0    0  0.17275100597E-01 -0.16439466575E-01  0.25728134804E-02  0.10199444933E+01  0.10196624269E+01 0.  0.
     999903    2    3    3    0    0  0.10405546558E+00  0.74524233244E-01 -0.17116095340E-01  0.13079159332E+00  0.20786507762E-01 0.  0.
         14    1    1    2    0    0 -0.17275100597E-01  0.16439466575E-01 -0.25728134804E-02  0.23985506688E-01  0.00000000000E+00 0.  1.
     999901    1    3    3    0    0 -0.86780364988E-01 -0.90963699819E-01  0.19688908821E-01  0.88915289999E+00  0.88000000000E+00 0. -1.
        -11    1    4    4    0    0  0.71577219818E-01  0.55602069698E-01 -0.31593503591E-02  0.90692508882E-01  0.51100000000E-03 0.  1.
         11    1    4    4    0    0  0.32478245767E-01  0.18922163546E-01 -0.13956744981E-01  0.40099084438E-01  0.51100000000E-03 0. -1.
</event>
<event>
 8    1  0.1092993E+005  0.1043930E+01  0.7957747E-01            NaN
         13   -1    0    0    0    0  0.00000000000E+00  0.00000000000E+00  0.74505805969E-08  0.10566000000E+00  0.10566000000E+00 0.  1.
     999900   -1    0    0    0    0 -0.00000000000E+00 -0.00000000000E+00 -0.74505805969E-08  0.93827000000E+00  0.93827000000E+00 0. -1.
     999902    2    1    2    0    0  0.26098281868E-02 -0.33153826698E-02 -0.25488350810E-01  0.10180947723E+01  0.10177669214E+01 0.  0.
     999903    2    3    3    0    0 -0.54447729978E-01 -0.74898218861E-01 -0.90099169777E-01  0.13099036729E+00  0.21594384476E-01 0.  0.
         14    1    1    2    0    0 -0.26098281868E-02  0.33153826698E-02  0.25488350810E-01  0.25835227741E-01  0.00000000000E+00 0.  1.
     999901    1    3    3    0    0  0.57057558164E-01  0.71582836191E-01  0.64610818967E-01  0.88710440497E+00  0.88000000000E+00 0.  1.
        -11    1    4    4    0    0 -0.37561493735E-01 -0.37886557432E-01 -0.41391157939E-01  0.67525892236E-01  0.51100000000E-03 0. -1.
         11    1    4    4    0    0 -0.16886236242E-01 -0.37011661429E-01 -0.48708011838E-01  0.63464475058E-01  0.51100000000E-03 0.  1.
</event>
<event>
 8    1  0.1092993E+005  0.1043930E+01  0.7957747E-01            NaN
         13   -1    0    0    0    0  0.00000000000E+00  0.00000000000E+00  0.74505805969E-08  0.10566000000E+00  0.10566000000E+00 0.  1.
     999900   -1    0    0    0    0 -0.00000000000E+00 -0.00000000000E+00 -0.74505805969E-08  0.93827000000E+00  0.93827000000E+00 0. -1.
     999902    2    1    2    0    0  0.22991256849E-01  0.11206131981E-03 -0.77138810384E-02  0.10196789297E+01  0.10193905068E+01 0.  0.
     999903    2    3    3    0    0  0.66086742650E-02 -0.12768430328E+00 -0.14420793840E-01  0.13027166502E+00  0.20390966915E-01 0.  0.
         14    1    1    2    0    0 -0.22991256849E-01 -0.11206131981E-03  0.77138810384E-02  0.24251070284E-01  0.00000000000E+00 0. -1.
     999901    1    3    3    0    0  0.16382582584E-01  0.12779636460E+00  0.67069128017E-02  0.88940726470E+00  0.88000000000E+00 0.  1.
        -11    1    4    4    0    0 -0.48508133028E-02 -0.54747561469E-01  0.39861292165E-03  0.54965861130E-01  0.51100000000E-03 0. -1.
         11    1    4    4    0    0  0.11459487568E-01 -0.72936741812E-01 -0.14819406762E-01  0.75305803889E-01  0.51100000000E-03 0.  1.
</event>
<event>
 8    1  0.1092993E+005  0.1043930E+01  0.7957747E-01            NaN
         13   -1    0    0    0    0  0.00000000000E+00  0.00000000000E+00  0.74505805969E-08  0.10566000000E+00  0.10566000000E+00 0. -1.
     999900   -1    0    0    0    0 -0.00000000000E+00 -0.00000000000E+00 -0.74505805969E-08  0.93827000000E+00  0.93827000000E+00 0. -1.
     999902    2    1    2    0    0 -0.11806347991E-01 -0.20557177979E-01 -0.16935351007E-02  0.10201633115E+01  0.10198864283E+01 0.  0.
     999903    2    3    3    0    0  0.82501123592E-01  0.14371646236E-01  0.96098076406E-01  0.12905326152E+00  0.20172367513E-01 0.  0.
         14    1    1    2    0    0  0.11806347991E-01  0.20557177979E-01  0.16935351007E-02  0.23766688463E-01  0.00000000000E+00 0. -1.
     999901    1    3    3    0    0 -0.94307471583E-01 -0.34928824215E-01 -0.97791611506E-01  0.89111005002E+00  0.88000000000E+00 0.  1.
        -11    1    4    4    0    0  0.61481071826E-01  0.19486705154E-01  0.72333748332E-01  0.96912775935E-01  0.51100000000E-03 0. -1.
         11    1    4    4    0    0  0.21020051766E-01 -0.51150589179E-02  0.23764328074E-01  0.32140485587E-01  0.51100000000E-03 0.  1.
</event>
<event>
 8    1  0.1092993E+005  0.1043930E+01  0.7957747E-01            NaN
         13   -1    0    0    0    0  0.00000000000E+00  0.00000000000E+00  0.74505805969E-08  0.10566000000E+00  0.10566000000E+00 0. -1.
     999900   -1    0    0    0    0 -0.00000000000E+00 -0.00000000000E+00 -0.74505805969E-08  0.93827000000E+00  0.93827000000E+00 0.  1.
     999902    2    1    2    0    0 -0.83386221584E-02  0.95456576482E-02  0.19974939407E-01  0.10202730686E+01  0.10199987667E+01 0.  0.
     999903    2    3    3    0    0  0.90060095569E-02 -0.87052965301E-01  0.96242517342E-01  0.13153864614E+00  0.19505545569E-01 0.  0.
         14    1    1    2    0    0  0.83386221584E-02 -0.95456576482E-02 -0.19974939407E-01  0.23656931410E-01  0.00000000000E+00 0.  1.
     999901    1    3    3    0    0 -0.17344631715E-01  0.96598622949E-01 -0.76267577935E-01  0.88873442245E+00  0.88000000000E+00 0.  1.
        -11    1    4    4    0    0 -0.60422113277E-02 -0.21910820364E-01  0.26734661528E-01  0.35094096580E-01  0.51100000000E-03 0. -1.
         11    1    4    4    0    0  0.15048220885E-01 -0.65142144937E-01  0.69507855814E-01  0.96444549559E-01  0.51100000000E-03 0.  1.
</event>
<event>
 8    1  0.1092993E+005  0.1043930E+01  0.7957747E-01            NaN
         13   -1    0    0    0    0  0.00000000000E+00  0.00000000000E+00  0.74505805969E-08  0.10566000000E+00  0.10566000000E+00 0. -1.
     999900   -1    0    0    0    0 -0.00000000000E+00 -0.00000000000E+00 -0.74505805969E-08  0.93827000000E+00  0.93827000000E+00 0. -1.
     999902    2    1    2    0    0  0.16180297274E-01 -0.97593569723E-03 -0.17808874943E-01  0.10198486691E+01  0.10195643174E+01 0.  0.
     999903    2    3    3    0    0  0.64722223054E-01  0.65740332523E-01 -0.93410449554E-01  0.13276187681E+00  0.19734395626E-01 0.  0.
         14    1    1    2    0    0 -0.16180297274E-01  0.97593569723E-03  0.17808874943E-01  0.24081330883E-01  0.00000000000E+00 0. -1.
     999901    1    3    3    0    0 -0.48541925780E-01 -0.66716268220E-01  0.75601574611E-01  0.88708679231E+00  0.88000000000E+00 0. -1.
        -11    1    4    4    0    0  0.40137993400E-01  0.35727271380E-01 -0.66712665669E-01  0.85664095840E-01  0.51100000000E-03 0.  1.
         11    1    4    4    0    0  0.24584229654E-01  0.30013061143E-01 -0.26697783885E-01  0.47097780969E-01  0.51100000000E-03 0. -1.
</event>
<event>
 8    1  0.1304035E+005  0.1043930E+01  0.7957747E-01            NaN
         13   -1    0    0    0    0  0.00000000000E+00  0.00000000000E+00  0.74505805969E-08  0.10566000000E+00  0.10566000000E+00 0.  1.
     999900   -1    0    0    0    0 -0.00000000000E+00 -0.00000000000E+00 -0.74505805969E-08  0.93827000000E+00  0.93827000000E+00 0.  1.
     999902    2    1    2    0    0  0.16703833582E-01  0.16257983318E-01 -0.40363125888E-02  0.10202734597E+01  0.10199991670E+01 0.  0.
     999903    2    3    3    0    0 -0.19380139011E-01  0.65780331716E-01 -0.11063279477E+00  0.13172558479E+00  0.20232957768E-01 0.  0.
         14    1    1    2    0    0 -0.16703833582E-01 -0.16257983318E-01  0.40363125888E-02  0.23656540263E-01  0.00000000000E+00 0. -1.
     999901    1    3    3    0    0  0.36083972592E-01 -0.49522348398E-01  0.10659648218E+00  0.88854787495E+00  0.88000000000E+00 0. -1.
        -11    1    4    4    0    0 -0.87716421770E-03  0.34343611410E-01 -0.62602894012E-01  0.71411739381E-01  0.51100000000E-03 0. -1.
         11    1    4    4    0    0 -0.18502974793E-01  0.31436720306E-01 -0.48029900756E-01  0.60313845404E-01  0.51100000000E-03 0.  1.
</event>
<event>
 8    1  0.1092993E+005  0.1043930E+01  0.7957747E-01            NaN
         13   -1    0    0    0    0  0.00000000000E+00  0.00000000000E+00  0.74505805969E-08  0.10566000000E+00  0.10566000000E+00 0.  1.
     999900   -1    0    0    0    0 -0.00000000000E+00 -0.00000000000E+00 -0.74505805969E-08  0.93827000000E+00  0.93827000000E+00 0. -1.
     999902    2    1    2    0    0  0.76378825308E-02  0.15806744531E-01  0.15226676414E-01  0.10206911942E+01  0.10204266126E+01 0.  0.
     999903    2    3    3    0    0 -0.23819607732E-01 -0.11515634008E+00 -0.47601139117E-01  0.12822929714E+00  0.18668900037E-01 0.  0.
         14    1    1    2    0    0 -0.76378825308E-02 -0.15806744531E-01 -0.15226676414E-01  0.23238805839E-01  0.00000000000E+00 0. -1.
     999901    1    3    3    0    0  0.31457490263E-01  0.13096308461E+00  0.62827815531E-01  0.89246189702E+00  0.88000000000E+00 0.  1.
        -11    1    4    4    0    0 -0.14839706072E-01 -0.58177280083E-01 -0.33856035955E-01  0.68929711198E-01  0.51100000000E-03 0.  1.
         11    1    4    4    0    0 -0.89799016603E-02 -0.56979059992E-01 -0.13745103161E-01  0.59299585946E-01  0.51100000000E-03 0. -1.
</event>
<event>
 8    1  0.1092993E+005  0.1043930E+01  0.7957747E-01            NaN
         13   -1    0    0    0    0  0.00000000000E+00  0.00000000000E+00  0.74505805969E-08  0.10566000000E+00  0.10566000000E+00 0. -1.
     999900   -1    0    0    0    0 -0.00000000000E+00 -0.00000000000E+00 -0.74505805969E-08  0.93827000000E+00  0.93827000000E+00 0.  1.
     999902    2    1    2    0    0  0.12751175081E-01  0.48259405975E-02  0.19302535235E-01  0.10202980294E+01  0.10200243128E+01 0.  0.
     999903    2    3    3    0    0 -0.79080654824E-01 -0.78820112060E-01 -0.59514690986E-01  0.12808622591E+00  0.19942988562E-01 0.  0.
         14    1    1    2    0    0 -0.12751175081E-01 -0.48259405975E-02 -0.19302535235E-01  0.23631970614E-01  0.00000000000E+00 0.  1.
     999901    1    3    3    0    0  0.91831829905E-01  0.83646052658E-01  0.78817226221E-01  0.89221180347E+00  0.88000000000E+00 0. -1.
        -11    1    4    4    0    0 -0.67337984618E-02 -0.10609071354E-02 -0.12699648813E-02  0.69529488330E-02  0.51100000000E-03 0.  1.
         11    1    4    4    0    0 -0.72346856362E-01 -0.77759204925E-01 -0.58244726105E-01  0.12113327708E+00  0.51100000000E-03 0. -1.
</event>
<event>
 8    1  0.1092993E+005  0.1043930E+01  0.7957747E-01            NaN
         13   -1    0    0    0    0  0.00000000000E+00  0.00000000000E+00  0.74505805969E-08  0.10566000000E+00  0.10566000000E+00 0. -1.
     999900   -1    0    0    0    0 -0.00000000000E+00 -0.00000000000E+00 -0.74505805969E-08  0.93827000000E+00  0.93827000000E+00 0. -1.
     999902    2    1    2    0    0 -0.14320878258E-01 -0.15425722659E-01  0.11234576600E-01  0.10200709098E+01  0.10197918439E+01 0.  0.
     999903    2    3    3    0    0  0.58208840828E-01  0.11136279098E+00 -0.10905633153E-01  0.12775590028E+00  0.20314941689E-01 0.  0.
         14    1    1    2    0    0  0.14320878258E-01  0.15425722659E-01 -0.11234576600E-01  0.23859090196E-01  0.00000000000E+00 0.  1.
     999901    1    3    3    0    0 -0.72529719086E-01 -0.12678851364E+00  0.22140209753E-01  0.89231500953E+00  0.88000000000E+00 0.  1.
        -11    1    4    4    0    0  0.33214076239E-02  0.19239919352E-01 -0.59019284125E-02  0.20403434153E-01  0.51100000000E-03 0. -1.
         11    1    4    4    0    0  0.54887433204E-01  0.92122871626E-01 -0.50037047404E-02  0.10735246612E+00  0.51100000000E-03 0.  1.
</event>
<event>
 8    1  0.1092993E+005  0.1043930E+01  0.7957747E-01            NaN
         13   -1    0    0    0    0  0.00000000000E+00  0.00000000000E+00  0.74505805969E-08  0.10566000000E+00  0.10566000000E+00 0.  1.
     999900   -1    0    0    0    0 -0.00000000000E+00 -0.00000000000E+00 -0.74505805969E-08  0.93827000000E+00  0.93827000000E+00 0. -1.
     999902    2    1    2    0    0 -0.65609579847E-02  0.87528036608E-02 -0.21186677283E-01  0.10200860692E+01  0.10198073620E+01 0.  0.
     999903    2    3    3    0    0 -0.12294824533E+00  0.42673672752E-01 -0.51036682512E-03  0.13153436231E+00  0.19071303486E-01 0.  0.
         14    1    1    2    0    0  0.65609579847E-02 -0.87528036608E-02  0.21186677283E-01  0.23843930798E-01  0.00000000000E+00 0.  1.
     999901    1    3    3    0    0  0.11638728735E+00 -0.33920869091E-01 -0.20676310458E-01  0.88855170690E+00  0.88000000000E+00 0. -1.
        -11    1    4    4    0    0 -0.37779706124E-01  0.18790437173E-01 -0.72769238219E-02  0.42820572921E-01  0.51100000000E-03 0. -1.
         11    1    4    4    0    0 -0.85168539206E-01  0.23883235580E-01  0.67665569968E-02  0.88713789384E-01  0.51100000000E-03 0.  1.
</event>
<event>
 8    1  0.1092993E+005  0.1043930E+01  0.7957747E-01            NaN
         13   -1    0    0    0    0  0.00000000000E+00  0.00000000000E+00  0.74505805969E-08  0.10566000000E+00  0.10566000000E+00 0. -1.
     999900   -1    0    0    0    0 -0.00000000000E+00 -0.00000000000E+00 -0.74505805969E-08  0.93827000000E+00  0.93827000000E+00 0. -1.
     999902    2    1    2    0    0 -0.58647405654E-03 -0.13578412409E-01  0.18970953189E-01  0.10205930272E+01  0.10203261796E+01 0.  0.
     999903    2    3    3    0    0  0.35693240958E-02  0.12415722328E+00 -0.27229003657E-01  0.12867217194E+00  0.19681286168E-01 0.  0.
         14    1    1    2    0    0  0.58647405654E-03  0.13578412409E-01 -0.18970953189E-01  0.23336972817E-01  0.00000000000E+00 0. -1.
     999901    1    3    3    0    0 -0.41557981523E-02 -0.13773563569E+00  0.46199956847E-01  0.89192085524E+00  0.88000000000E+00 0.  1.
        -11    1    4    4    0    0  0.99781152882E-02  0.80037864270E-01 -0.11938573040E-01  0.81537801963E-01  0.51100000000E-03 0.  1.
         11    1    4    4    0    0 -0.64087911925E-02  0.44119359011E-01 -0.15290430618E-01  0.47134369981E-01  0.51100000000E-03 0. -1.
</event>
<event>
 8    1  0.1092993E+005  0.1043930E+01  0.7957747E-01            NaN
         13   -1    0    0    0    0  0.00000000000E+00  0.00000000000E+00  0.74505805969E-08  0.10566000000E+00  0.10566000000E+00 0. -1.
     999900   -1    0    0    0    0 -0.00000000000E+00 -0.00000000000E+00 -0.74505805969E-08  0.93827000000E+00  0.93827000000E+00 0.  1.
     999902    2    1    2    0    0 -0.93122793437E-02  0.75804151392E-02  0.20377112941E-01  0.10202781930E+01  0.10200040114E+01 0.  0.
     999903    2    3    3    0    0  0.12117256225E+00  0.41149434341E-01  0.12245563993E-01  0.12998650207E+00  0.19247625711E-01 0.  0.
         14    1    1    2    0    0  0.93122793437E-02 -0.75804151392E-02 -0.20377112941E-01  0.23651806951E-01  0.00000000000E+00 0.  1.
     999901    1    3    3    0    0 -0.13048484159E+00 -0.33569019202E-01  0.81315489479E-02  0.89029169098E+00  0.88000000000E+00 0. -1.
        -11    1    4    4    0    0  0.20250097972E-01  0.31351926624E-03  0.50373740926E-02  0.20875847791E-01  0.51100000000E-03 0. -1.
         11    1    4    4    0    0  0.10092246427E+00  0.40835915075E-01  0.72081899000E-02  0.10911065428E+00  0.51100000000E-03 0.  1.
</event>
<event>
 8    1  0.1092993E+005  0.1043930E+01  0.7957747E-01            NaN
         13   -1    0    0    0    0  0.00000000000E+00  0.00000000000E+00  0.74505805969E-08  0.10566000000E+00  0.10566000000E+00 0.  1.
     999900   -1    0    0    0    0 -0.00000000000E+00 -0.00000000000E+00 -0.74505805969E-08  0.93827000000E+00  0.93827000000E+00 0. -1.
     999902    2    1    2    0    0 -0.21750540589E-01 -0.77177189326E-02 -0.29607918625E-02  0.10206616634E+01  0.10203964012E+01 0.  0.
     999903    2    3    3    0    0 -0.42257031938E-01 -0.11795784809E+00 -0.39270857891E-01  0.13280366618E+00  0.19872161347E-01 0.  0.
         14    1    1    2    0    0  0.21750540589E-01  0.77177189326E-02  0.29607918625E-02  0.23268336637E-01  0.00000000000E+00 0. -1.
     999901    1    3    3    0    0  0.20506491350E-01  0.11024012916E+00  0.36310066028E-01  0.88785799718E+00  0.88000000000E+00 0.  1.
        -11    1    4    4    0    0 -0.19617072343E-01 -0.78111794949E-01 -0.30616362843E-01  0.86162084655E-01  0.51100000000E-03 0.  1.
         11    1    4    4    0    0 -0.22639959595E-01 -0.39846053145E-01 -0.86544950476E-02  0.46641581526E-01  0.51100000000E-03 0. -1.
</event>
<event>
 8    1  0.1092993E+005  0.1043930E+01  0.7957747E-01            NaN
         13   -1    0    0    0    0  0.00000000000E+00  0.00000000000E+00  0.74505805969E-08  0.10566000000E+00  0.10566000000E+00 0.  1.
     999900   -1    0    0    0    0 -0.00000000000E+00 -0.00000000000E+00 -0.74505805969E-08  0.93827000000E+00  0.93827000000E+00 0. -1.
     999902    2    1    2    0    0 -0.32008466842E-02  0.17253068490E-01 -0.14972340636E-01  0.10208630371E+01  0.10206023985E+01 0.  0.
     999903    2    3    3    0    0  0.10608080473E+00  0.22271749377E-01 -0.72687401727E-01  0.13221310900E+00  0.21158446777E-01 0.  0.
         14    1    1    2    0    0  0.32008466842E-02 -0.17253068490E-01  0.14972340636E-01  0.23066962867E-01  0.00000000000E+00 0. -1.
     999901    1    3    3    0    0 -0.10928165141E+00 -0.50186808868E-02  0.57715061091E-01  0.88864992813E+00  0.88000000000E+00 0.  1.
        -11    1    4    4    0    0  0.49079142975E-01  0.14390846963E-01 -0.22585501144E-01  0.55912652722E-01  0.51100000000E-03 0. -1.
         11    1    4    4    0    0  0.57001661751E-01  0.78809024134E-02 -0.50101900582E-01  0.76300456278E-01  0.51100000000E-03 0.  1.
</event>
<event>
 8    1  0.1092993E+005  0.1043930E+01  0.7957747E-01            NaN
         13   -1    0    0    0    0  0.00000000000E+00  0.00000000000E+00  0.74505805969E-08  0.10566000000E+00  0.10566000000E+00 0.  1.
     999900   -1    0    0    0    0 -0.00000000000E+00 -0.00000000000E+00 -0.74505805969E-08  0.93827000000E+00  0.93827000000E+00 0.  1.
     999902    2    1    2    0    0  0.21065185366E-01 -0.98745983000E-02  0.28122988816E-02  0.10204958636E+01  0.10202267634E+01 0.  0.
     999903    2    3    3    0    0 -0.46035901984E-02  0.10924976280E+00 -0.65279252918E-01  0.12949308080E+00  0.23460038332E-01 0.  0.
         14    1    1    2    0    0 -0.21065185366E-01  0.98745983000E-02 -0.28122988816E-02  0.23434136449E-01  0.00000000000E+00 0.  1.
     999901    1    3    3    0    0  0.25668775564E-01 -0.11912436110E+00  0.68091551800E-01  0.89100278275E+00  0.88000000000E+00 0. -1.
        -11    1    4    4    0    0 -0.12485900683E-01  0.52164265903E-01 -0.24982595217E-01  0.59172624902E-01  0.51100000000E-03 0. -1.
         11    1    4    4    0    0  0.78823104843E-02  0.57085496898E-01 -0.40296657701E-01  0.70320455896E-01  0.51100000000E-03 0.  1.
</event>
<event>
 8    1  0.1092993E+005  0.1043930E+01  0.7957747E-01            NaN
         13   -1    0    0    0    0  0.00000000000E+00  0.00000000000E+00  0.74505805969E-08  0.10566000000E+00  0.10566000000E+00 0.  1.
     999900   -1    0    0    0    0 -0.00000000000E+00 -0.00000000000E+00 -0.74505805969E-08  0.93827000000E+00  0.93827000000E+00 0.  1.
     999902    2    1    2    0    0  0.87564916438E-02  0.21765733500E-01 -0.31181163115E-02  0.10202625973E+01  0.10199880497E+01 0.  0.
     999903    2    3    3    0    0 -0.10766562004E+00 -0.18412393262E-01  0.65785958245E-01  0.12901843242E+00  0.19673882146E-01 0.  0.
         14    1    1    2    0    0 -0.87564916438E-02 -0.21765733500E-01  0.31181163115E-02  0.23667402689E-01  0.00000000000E+00 0.  1.
     999901    1    3    3    0    0  0.11642211168E+00  0.40178126762E-01 -0.68904074557E-01  0.89124416489E+00  0.88000000000E+00 0.  1.
        -11    1    4    4    0    0 -0.57128860763E-01 -0.54743614596E-02  0.44711691984E-01  0.72753500854E-01  0.51100000000E-03 0.  1.
         11    1    4    4    0    0 -0.50536759275E-01 -0.12938031802E-01  0.21074266261E-01  0.56264931568E-01  0.51100000000E-03 0. -1.
</event>
<event>
 8    1  0.1092993E+005  0.1043930E+01  0.7957747E-01            NaN
         13   -1    0    0    0    0  0.00000000000E+00  0.00000000000E+00  0.74505805969E-08  0.10566000000E+00  0.10566000000E+00 0.  1.
     999900   -1    0    0    0    0 -0.00000000000E+00 -0.00000000000E+00 -0.74505805969E-08  0.93827000000E+00  0.93827000000E+00 0.  1.
     999902    2    1    2    0    0 -0.11805981602E-02  0.23417179739E-01  0.50821394748E-02  0.10199386211E+01  0.10196564150E+01 0.  0.
     999903    2    3    3    0    0 -0.42210043966E-01 -0.80903090843E-01 -0.87327804716E-01  0.12802734074E+00  0.20925022856E-01 0.  0.
         14    1    1    2    0    0  0.11805981602E-02 -0.23417179739E-01 -0.50821394748E-02  0.23991378881E-01  0.00000000000E+00 0.  1.
     999901    1    3    3    0    0  0.41029445806E-01  0.10432027058E+00  0.92409944191E-01  0.89191128038E+00  0.88000000000E+00 0. -1.
        -11    1    4    4    0    0 -0.13927258642E-01 -0.43969682494E-01 -0.34272604198E-01  0.57464545865E-01  0.51100000000E-03 0. -1.
         11    1    4    4    0    0 -0.28282785324E-01 -0.36933408348E-01 -0.53055200518E-01  0.70562794878E-01  0.51100000000E-03 0.  1.
</event>
<event>
 8    1  0.1092993E+005  0.1043930E+01  0.7957747E-01            NaN
         13   -1    0    0    0    0  0.00000000000E+00  0.00000000000E+00  0.74505805969E-08  0.10566000000E+00  0.10566000000E+00 0.  1.
     999900   -1    0    0    0    0 -0.00000000000E+00 -0.00000000000E+00 -0.74505805969E-08  0.93827000000E+00  0.93827000000E+00 0. -1.
     999902    2    1    2    0    0  0.17098885971E-01 -0.43057389898E-02 -0.16023627275E-01  0.10201042173E+01  0.10198259392E+01 0.  0.
     999903    2    3    3    0    0  0.16483851872E-01 -0.11167298559E+00  0.61609825486E-01  0.13018564975E+00  0.20247462059E-01 0.  0.
         14    1    1    2    0    0 -0.17098885971E-01  0.43057389898E-02  0.16023627275E-01  0.23825782689E-01  0.00000000000E+00 0.  1.
     999901    1    3    3    0    0  0.61503409866E-03  0.10736724660E+00 -0.77633452762E-01  0.88991856757E+00  0.88000000000E+00 0.  1.
        -11    1    4    4    0    0  0.20598291136E-02 -0.56897751555E-01  0.21879415515E-01  0.60996450489E-01  0.51100000000E-03 0. -1.
         11    1    4    4    0    0  0.14424022759E-01 -0.54775234036E-01  0.39730409971E-01  0.69189199256E-01  0.51100000000E-03 0.  1.
</event>
<event>
 8    1  0.1092993E+005  0.1043930E+01  0.7957747E-01            NaN
         13   -1    0    0    0    0  0.00000000000E+00  0.00000000000E+00  0.74505805969E-08  0.10566000000E+00  0.10566000000E+00 0.  1.
     999900   -1    0    0    0    0 -0.00000000000E+00 -0.00000000000E+00 -0.74505805969E-08  0.93827000000E+00  0.93827000000E+00 0. -1.
     999902    2    1    2    0    0 -0.19654585811E-01 -0.84123694437E-02  0.81416085222E-02  0.10210530139E+01  0.10207966990E+01 0.  0.
     999903    2    3    3    0    0  0.88393580855E-01 -0.93051398378E-01  0.77200014211E-02  0.13041372144E+00  0.21820917540E-01 0.  0.
         14    1    1    2    0    0  0.19654585811E-01  0.84123694437E-02 -0.81416085222E-02  0.22876986086E-01  0.00000000000E+00 0. -1.
     999901    1    3    3    0    0 -0.10804816667E+00  0.84639028934E-01  0.42160710106E-03  0.89063929247E+00  0.88000000000E+00 0.  1.
        -11    1    4    4    0    0  0.28704792100E-01 -0.19154269641E-01  0.79652382807E-02  0.35419730051E-01  0.51100000000E-03 0.  1.
         11    1    4    4    0    0  0.59688788755E-01 -0.73897128737E-01 -0.24523685956E-03  0.94993991393E-01  0.51100000000E-03 0. -1.
</event>
<event>
 8    1  0.1092993E+005  0.1043930E+01  0.7957747E-01            NaN
         13   -1    0    0    0    0  0.00000000000E+00  0.00000000000E+00  0.74505805969E-08  0.10566000000E+00  0.10566000000E+00 0. -1.
     999900   -1    0    0    0    0 -0.00000000000E+00 -0.00000000000E+00 -0.74505805969E-08  0.93827000000E+00  0.93827000000E+00 0.  1.
     999902    2    1    2    0    0  0.61593497026E-02 -0.20497322592E-01  0.71275348341E-02  0.10213716407E+01  0.10211224945E+01 0.  0.
     999903    2    3    3    0    0 -0.10409467308E+00 -0.78816819761E-01  0.13981413677E-01  0.13254989874E+00  0.18061109816E-01 0.  0.
         14    1    1    2    0    0 -0.61593497026E-02  0.20497322592E-01 -0.71275348341E-02  0.22558359316E-01  0.00000000000E+00 0.  1.
     999901    1    3    3    0    0  0.11025402278E+00  0.58319497169E-01 -0.68538788432E-02  0.88882174194E+00  0.88000000000E+00 0. -1.
        -11    1    4    4    0    0 -0.95006210573E-01 -0.65774013100E-01  0.15427707259E-01  0.11657905523E+00  0.51100000000E-03 0. -1.
         11    1    4    4    0    0 -0.90884625072E-02 -0.13042806661E-01 -0.14462935813E-02  0.15970843512E-01  0.51100000000E-03 0.  1.
</event>
<event>
 8    1  0.1092993E+005  0.1043930E+01  0.7957747E-01            NaN
         13   -1    0    0    0    0  0.00000000000E+00  0.00000000000E+00  0.74505805969E-08  0.10566000000E+00  0.10566000000E+00 0.  1.
     999900   -1    0    0    0    0 -0.00000000000E+00 -0.00000000000E+00 -0.74505805969E-08  0.93827000000E+00  0.93827000000E+00 0. -1.
     999902    2    1    2    0    0  0.63956947025E-02  0.14217427381E-01 -0.98307814195E-02  0.10254994706E+01  0.10253338382E+01 0.  0.
     999903    2    3    3    0    0 -0.75542785496E-01 -0.37276467066E-01  0.10128995959E+00  0.13324762563E+00  0.19975644811E-01 0.  0.
         14    1    1    2    0    0 -0.63956947025E-02 -0.14217427381E-01  0.98307814195E-02  0.18430529438E-01  0.00000000000E+00 0.  1.
     999901    1    3    3    0    0  0.81938480199E-01  0.51493894447E-01 -0.11112074101E+00  0.89225184493E+00  0.88000000000E+00 0. -1.
        -11    1    4    4    0    0 -0.75514995400E-01 -0.33506992729E-01  0.95019172986E-01  0.12591321395E+00  0.51100000000E-03 0. -1.
         11    1    4    4    0    0 -0.27790096553E-04 -0.37694743374E-02  0.62707866003E-02  0.73344116776E-02  0.51100000000E-03 0.  1.
</event>
<event>
 8    1  0.1092993E+005  0.1043930E+01  0.7957747E-01            NaN
         13   -1    0    0    0    0  0.00000000000E+00  0.00000000000E+00  0.74505805969E-08  0.10566000000E+00  0.10566000000E+00 0. -1.
     999900   -1    0    0    0    0 -0.00000000000E+00 -0.00000000000E+00 -0.74505805969E-08  0.93827000000E+00  0.93827000000E+00 0. -1.
     999902    2    1    2    0    0 -0.87292637793E-02 -0.10547489312E-01  0.18928217849E-01  0.10205691993E+01  0.10203018003E+01 0.  0.
     999903    2    3    3    0    0 -0.12890351799E+00 -0.12762093433E-01 -0.13650335535E-01  0.13180144677E+00  0.20156927641E-01 0.  0.
         14    1    1    2    0    0  0.87292637793E-02  0.10547489312E-01 -0.18928217849E-01  0.23360800668E-01  0.00000000000E+00 0.  1.
     999901    1    3    3    0    0  0.12017425421E+00  0.22146041210E-02  0.32578553384E-01  0.88876775256E+00  0.88000000000E+00 0. -1.
        -11    1    4    4    0    0 -0.67901376247E-01 -0.16807573814E-01 -0.76382228277E-02  0.70368281226E-01  0.51100000000E-03 0. -1.
         11    1    4    4    0    0 -0.61002141745E-01  0.40454803811E-02 -0.60121127069E-02  0.61433165547E-01  0.51100000000E-03 0.  1.
</event>
<event>
 8    1  0.1092993E+005  0.1043930E+01  0.7957747E-01            NaN
         13   -1    0    0    0    0  0.00000000000E+00  0.00000000000E+00  0.74505805969E-08  0.10566000000E+00  0.10566000000E+00 0. -1.
     999900   -1    0    0    0    0 -0.00000000000E+00 -0.00000000000E+00 -0.74505805969E-08  0.93827000000E+00  0.93827000000E+00 0. -1.
     999902    2    1    2    0    0 -0.18416565571E-01 -0.33866750416E-02  0.13761152628E-01  0.10206919111E+01  0.10204273460E+01 0.  0.
     999903    2    3    3    0    0 -0.77057090206E-01  0.84706103104E-01 -0.61100696077E-01  0.13119579243E+00  0.19134310449E-01 0.  0.
         14    1    1    2    0    0  0.18416565571E-01  0.33866750416E-02 -0.13761152628E-01  0.23238088926E-01  0.00000000000E+00 0.  1.
     999901    1    3    3    0    0  0.58640524635E-01 -0.88092778145E-01  0.74861848705E-01  0.88949611864E+00  0.88000000000E+00 0.  1.
        -11    1    4    4    0    0 -0.50487505772E-01  0.50603374364E-01 -0.28110658628E-01  0.76812498889E-01  0.51100000000E-03 0. -1.
         11    1    4    4    0    0 -0.26569584434E-01  0.34102728739E-01 -0.32990037450E-01  0.54383293541E-01  0.51100000000E-03 0.  1.
</event>
<event>
 7    1  0.1092993E+005  0.1043930E+01  0.7957747E-01            NaN
         13   -1    0    0    0    0  0.00000000000E+00  0.00000000000E+00  0.74505805969E-08  0.10566000000E+00  0.10566000000E+00 0.  1.
     999900   -1    0    0    0    0 -0.00000000000E+00 -0.00000000000E+00 -0.74505805969E-08  0.93827000000E+00  0.93827000000E+00 0. -1.
     999903    2    1    2    0    0  0.47474684175E-01  0.93302773009E-01 -0.51824115416E-01  0.11782333677E+00  0.15406059194E-01 0.  0.
         14    1    1    2    0    0  0.30709701626E-01 -0.18072841543E-01  0.15049547119E-01  0.38680773569E-01  0.00000000000E+00 0.  1.
     999901    1    1    2    0    0 -0.78184385801E-01 -0.75229931466E-01  0.36774568296E-01  0.88742588966E+00  0.88000000000E+00 0.  1.
        -11    1    3    3    0    0  0.42700800622E-01  0.81377094037E-01 -0.39554227806E-01  0.10005192585E+00  0.51100000000E-03 0. -1.
         11    1    3    3    0    0  0.47738835524E-02  0.11925678972E-01 -0.12269887610E-01  0.17771410919E-01  0.51100000000E-03 0.  1.
</event>
<event>
 8    1  0.1092993E+005  0.1043930E+01  0.7957747E-01            NaN
         13   -1    0    0    0    0  0.00000000000E+00  0.00000000000E+00  0.74505805969E-08  0.10566000000E+00  0.10566000000E+00 0.  1.
     999900   -1    0    0    0    0 -0.00000000000E+00 -0.00000000000E+00 -0.74505805969E-08  0.93827000000E+00  0.93827000000E+00 0. -1.
     999902    2    1    2    0    0  0.16628600005E-01 -0.14941963692E-01 -0.72838935671E-02  0.10204177112E+01  0.10201467922E+01 0.  0.
     999903    2    3    3    0    0 -0.12084238897E+00  0.37313575480E-01 -0.59302341678E-02  0.12821215949E+00  0.20199115764E-01 0.  0.
         14    1    1    2    0    0 -0.16628600005E-01  0.14941963692E-01  0.72838935671E-02  0.23512288757E-01  0.00000000000E+00 0.  1.
     999901    1    3    3    0    0  0.13747098897E+00 -0.52255539172E-01 -0.13536593993E-02  0.89220555175E+00  0.88000000000E+00 0.  1.
        -11    1    4    4    0    0 -0.53430559723E-01  0.14797513391E-01  0.72811418948E-02  0.55920186544E-01  0.51100000000E-03 0. -1.
         11    1    4    4    0    0 -0.67411829245E-01  0.22516062089E-01 -0.13211376063E-01  0.72291972947E-01  0.51100000000E-03 0.  1.
</event>
<event>
 8    1  0.1092993E+005  0.1043930E+01  0.7957747E-01            NaN
         13   -1    0    0    0    0  0.00000000000E+00  0.00000000000E+00  0.74505805969E-08  0.10566000000E+00  0.10566000000E+00 0.  1.
     999900   -1    0    0    0    0 -0.00000000000E+00 -0.00000000000E+00 -0.74505805969E-08  0.93827000000E+00  0.93827000000E+00 0. -1.
     999902    2    1    2    0    0 -0.91184343707E-02  0.87129007440E-02  0.18544071202E-01  0.10215036079E+01  0.10212574004E+01 0.  0.
     999903    2    3    3    0    0 -0.11965749633E+00 -0.41236860264E-01  0.30198162299E-01  0.13310635406E+00  0.28053117690E-01 0.  0.
         14    1    1    2    0    0  0.91184343707E-02 -0.87129007440E-02 -0.18544071202E-01  0.22426392075E-01  0.00000000000E+00 0. -1.
     999901    1    3    3    0    0  0.11053906196E+00  0.49949761008E-01 -0.11654091097E-01  0.88839725387E+00  0.88000000000E+00 0. -1.
        -11    1    4    4    0    0 -0.93895399488E-01 -0.19523690227E-01  0.23692748798E-01  0.98788298860E-01  0.51100000000E-03 0. -1.
         11    1    4    4    0    0 -0.25762096839E-01 -0.21713170037E-01  0.65054135010E-02  0.34318055196E-01  0.51100000000E-03 0.  1.
</event>
<event>
 8    1  0.1092993E+005  0.1043930E+01  0.7957747E-01            NaN
         13   -1    0    0    0    0  0.00000000000E+00  0.00000000000E+00  0.74505805969E-08  0.10566000000E+00  0.10566000000E+00 0. -1.
     999900   -1    0    0    0    0 -0.00000000000E+00 -0.00000000000E+00 -0.74505805969E-08  0.93827000000E+00  0.93827000000E+00 0.  1.
     999902    2    1    2    0    0 -0.19123582165E-01 -0.73279642602E-02  0.10798963145E-01  0.10207777202E+01  0.10205151278E+01 0.  0.
     999903    2    3    3    0    0  0.90310477356E-01  0.89378535469E-01  0.15344896629E-02  0.12869376062E+00  0.20377056713E-01 0.  0.
         14    1    1    2    0    0  0.19123582165E-01  0.73279642602E-02 -0.10798963145E-01  0.23152279802E-01  0.00000000000E+00 0.  1.
     999901    1    3    3    0    0 -0.10943405952E+00 -0.96706499729E-01  0.92644734819E-02  0.89208395958E+00  0.88000000000E+00 0.  1.
        -11    1    4    4    0    0  0.30622397516E-01  0.18390530684E-01 -0.28853449582E-02  0.35840329030E-01  0.51100000000E-03 0. -1.
         11    1    4    4    0    0  0.59688079840E-01  0.70988004785E-01  0.44198346211E-02  0.92853431587E-01  0.51100000000E-03 0.  1.
</event>
<event>
 8    1  0.1092993E+005  0.1043930E+01  0.7957747E-01            NaN
         13   -1    0    0    0    0  0.00000000000E+00  0.00000000000E+00  0.74505805969E-08  0.10566000000E+00  0.10566000000E+00 0.  1.
     999900   -1    0    0    0    0 -0.00000000000E+00 -0.00000000000E+00 -0.74505805969E-08  0.93827000000E+00  0.93827000000E+00 0.  1.
     999902    2    1    2    0    0  0.12396616721E-01  0.19946656296E-01 -0.39409708326E-02  0.10201166329E+01  0.10198386481E+01 0.  0.
     999903    2    3    3    0    0  0.33868350666E-01  0.93867748718E-01 -0.85613867632E-01  0.13298878112E+00  0.19951494828E-01 0.  0.
         14    1    1    2    0    0 -0.12396616721E-01 -0.19946656296E-01  0.39409708326E-02  0.23813367142E-01  0.00000000000E+00 0.  1.
     999901    1    3    3    0    0 -0.21471733945E-01 -0.73921092422E-01  0.81672896799E-01  0.88712785174E+00  0.88000000000E+00 0.  1.
        -11    1    4    4    0    0  0.25655753937E-01  0.44793277696E-01 -0.49353712039E-01  0.71419223252E-01  0.51100000000E-03 0.  1.
         11    1    4    4    0    0  0.82125967290E-02  0.49074471022E-01 -0.36260155593E-01  0.61569557865E-01  0.51100000000E-03 0. -1.
</event>
<event>
 8    1  0.1092993E+005  0.1043930E+01  0.7957747E-01            NaN
         13   -1    0    0    0    0  0.00000000000E+00  0.00000000000E+00  0.74505805969E-08  0.10566000000E+00  0.10566000000E+00 0. -1.
     999900   -1    0    0    0    0 -0.00000000000E+00 -0.00000000000E+00 -0.74505805969E-08  0.93827000000E+00  0.93827000000E+00 0. -1.
     999902    2    1    2    0    0 -0.15220881758E-01  0.17367062659E-01  0.16252946065E-02  0.10207798015E+01  0.10205172568E+01 0.  0.
     999903    2    3    3    0    0  0.77581695171E-01  0.47832517207E-03  0.10239818838E+00  0.13002016848E+00  0.20017667424E-01 0.  0.
         14    1    1    2    0    0  0.15220881758E-01 -0.17367062659E-01 -0.16252946065E-02  0.23150198475E-01  0.00000000000E+00 0. -1.
     999901    1    3    3    0    0 -0.92802576929E-01  0.16888737487E-01 -0.10077289377E+00  0.89075963304E+00  0.88000000000E+00 0. -1.
        -11    1    4    4    0    0  0.39782818072E-01  0.78130681589E-02  0.63073170580E-01  0.74981348453E-01  0.51100000000E-03 0. -1.
         11    1    4    4    0    0  0.37798877100E-01 -0.73347429868E-02  0.39325017795E-01  0.55038820030E-01  0.51100000000E-03 0.  1.
</event>
<event>
 8    1  0.1092993E+005  0.1043930E+01  0.7957747E-01            NaN
         13   -1    0    0    0    0  0.00000000000E+00  0.00000000000E+00  0.74505805969E-08  0.10566000000E+00  0.10566000000E+00 0.  1.
     999900   -1    0    0    0    0 -0.00000000000E+00 -0.00000000000E+00 -0.74505805969E-08  0.93827000000E+00  0.93827000000E+00 0.  1.
     999902    2    1    2    0    0  0.39988573419E-02  0.78424146875E-02  0.21624430193E-01  0.10205824025E+01  0.10203153091E+01 0.  0.
     999903    2    3    3    0    0 -0.10638539762E+00 -0.71821214197E-01  0.20976732376E-02  0.12990161133E+00  0.19846630860E-01 0.  0.
         14    1    1    2    0    0 -0.39988573419E-02 -0.78424146875E-02 -0.21624430193E-01  0.23347597507E-01  0.00000000000E+00 0. -1.
     999901    1    3    3    0    0  0.11038425497E+00  0.79663628885E-01  0.19526756956E-01  0.89068079116E+00  0.88000000000E+00 0. -1.
        -11    1    4    4    0    0 -0.68184763445E-01 -0.56206186544E-01 -0.22999644465E-02  0.88395974622E-01  0.51100000000E-03 0.  1.
         11    1    4    4    0    0 -0.38200634179E-01 -0.15615027653E-01  0.43976376841E-02  0.41505636707E-01  0.51100000000E-03 0. -1.
</event>
<event>
 8    1  0.1092993E+005  0.1043930E+01  0.7957747E-01            NaN
         13   -1    0    0    0    0  0.00000000000E+00  0.00000000000E+00  0.74505805969E-08  0.10566000000E+00  0.10566000000E+00 0. -1.
     999900   -1    0    0    0    0 -0.00000000000E+00 -0.00000000000E+00 -0.74505805969E-08  0.93827000000E+00  0.93827000000E+00 0. -1.
     999902    2    1    2    0    0 -0.14054258947E-01 -0.19194378258E-01  0.42816624512E-02  0.10197581365E+01  0.10194716171E+01 0.  0.
     999903    2    3    3    0    0 -0.84601253839E-01  0.66743155768E-01 -0.69330134376E-01  0.12971272482E+00  0.20166865247E-01 0.  0.
         14    1    1    2    0    0  0.14054258947E-01  0.19194378258E-01 -0.42816624512E-02  0.24171863491E-01  0.00000000000E+00 0.  1.
     999901    1    3    3    0    0  0.70546994892E-01 -0.85937534026E-01  0.73611796827E-01  0.89004541169E+00  0.88000000000E+00 0.  1.
        -11    1    4    4    0    0 -0.34709818529E-01  0.34400168839E-01 -0.41263324663E-01  0.63961443087E-01  0.51100000000E-03 0.  1.
         11    1    4    4    0    0 -0.49891435309E-01  0.32342986929E-01 -0.28066809713E-01  0.65751281730E-01  0.51100000000E-03 0. -1.
</event>
<event>
 8    1  0.1092993E+005  0.1043930E+01  0.7957747E-01            NaN
         13   -1    0    0    0    0  0.00000000000E+00  0.00000000000E+00  0.74505805969E-08  0.10566000000E+00  0.10566000000E+00 0.  1.
     999900   -1    0    0    0    0 -0.00000000000E+00 -0.00000000000E+00 -0.74505805969E-08  0.93827000000E+00  0.93827000000E+00 0.  1.
     999902    2    1    2    0    0 -0.62803909601E-02 -0.48463270575E-02  0.21531469093E-01  0.10209836635E+01  0.10207257745E+01 0.  0.
     999903    2    3    3    0    0 -0.64089665201E-01  0.10561418558E+00 -0.36285746163E-01  0.13031747048E+00  0.20103391690E-01 0.  0.
         14    1    1    2    0    0  0.62803909601E-02  0.48463270575E-02 -0.21531469093E-01  0.22946336481E-01  0.00000000000E+00 0. -1.
     999901    1    3    3    0    0  0.57809274241E-01 -0.11046051263E+00  0.57817215257E-01  0.89066619304E+00  0.88000000000E+00 0. -1.
        -11    1    4    4    0    0 -0.48129566961E-01  0.62287361625E-01 -0.18714035593E-01  0.80911352004E-01  0.51100000000E-03 0.  1.
         11    1    4    4    0    0 -0.15960098241E-01  0.43326823952E-01 -0.17571710570E-01  0.49406118478E-01  0.51100000000E-03 0. -1.
</event>
<event>
 8    1  0.1092993E+005  0.1043930E+01  0.7957747E-01            NaN
         13   -1    0    0    0    0  0.00000000000E+00  0.00000000000E+00  0.74505805969E-08  0.10566000000E+00  0.10566000000E+00 0. -1.
     999900   -1    0    0    0    0 -0.00000000000E+00 -0.00000000000E+00 -0.74505805969E-08  0.93827000000E+00  0.93827000000E+00 0. -1.
     999902    2    1    2    0    0 -0.10513084857E-01  0.78661894628E-02  0.18924211905E-01  0.10208968134E+01  0.10206369462E+01 0.  0.
     999903    2    3    3    0    0  0.97472776135E-02  0.11785446791E+00  0.57543871001E-01  0.13297824630E+00  0.19678208072E-01 0.  0.
         14    1    1    2    0    0  0.10513084857E-01 -0.78661894628E-02 -0.18924211905E-01  0.23033186625E-01  0.00000000000E+00 0.  1.
     999901    1    3    3    0    0 -0.20260362471E-01 -0.10998827845E+00 -0.38619659096E-01  0.88791856707E+00  0.88000000000E+00 0. -1.
        -11    1    4    4    0    0 -0.26532046164E-02  0.23040502206E-01  0.18580037603E-01  0.29721762313E-01  0.51100000000E-03 0.  1.
         11    1    4    4    0    0  0.12400482230E-01  0.94813965703E-01  0.38963833398E-01  0.10325648399E+00  0.51100000000E-03 0. -1.
</event>
<event>
 8    1  0.1092993E+005  0.1043930E+01  0.7957747E-01            NaN
         13   -1    0    0    0    0  0.00000000000E+00  0.00000000000E+00  0.74505805969E-08  0.10566000000E+00  0.10566000000E+00 0.  1.
     999900   -1    0    0    0    0 -0.00000000000E+00 -0.00000000000E+00 -0.74505805969E-08  0.93827000000E+00  0.93827000000E+00 0.  1.
     999902    2    1    2    0    0 -0.16925894618E-02  0.24453470476E-01  0.13585423300E-02  0.10193804030E+01  0.10190847478E+01 0.  0.
     999903    2    3    3    0    0  0.29991488697E-01  0.11620106527E+00 -0.52220623493E-01  0.13242367968E+00  0.20170782298E-01 0.  0.
         14    1    1    2    0    0  0.16925894618E-02 -0.24453470476E-01 -0.13585423300E-02  0.24549597036E-01  0.00000000000E+00 0.  1.
     999901    1    3    3    0    0 -0.31684078159E-01 -0.91747594797E-01  0.53579165823E-01  0.88695672328E+00  0.88000000000E+00 0.  1.
        -11    1    4    4    0    0  0.12714962426E-01  0.85074767648E-01 -0.34907492734E-01  0.92834156052E-01  0.51100000000E-03 0.  1.
         11    1    4    4    0    0  0.17276526271E-01  0.31126297624E-01 -0.17313130759E-01  0.39589523633E-01  0.51100000000E-03 0. -1.
</event>
<event>
 8    1  0.1092993E+005  0.1043930E+01  0.7957747E-01            NaN
         13   -1    0    0    0    0  0.00000000000E+00  0.00000000000E+00  0.74505805969E-08  0.10566000000E+00  0.10566000000E+00 0.  1.
     999900   -1    0    0    0    0 -0.00000000000E+00 -0.00000000000E+00 -0.74505805969E-08  0.93827000000E+00  0.93827000000E+00 0.  1.
     999902    2    1    2    0    0 -0.64797151546E-02  0.13463464921E-01 -0.20113455838E-01  0.10188740087E+01  0.10185658755E+01 0.  0.
     999903    2    3    3    0    0 -0.64336149849E-02 -0.12558513083E+00  0.67228779848E-02  0.12755212353E+00  0.20281287937E-01 0.  0.
         14    1    1    2    0    0  0.64797151546E-02 -0.13463464921E-01  0.20113455838E-01  0.25055991337E-01  0.00000000000E+00 0.  1.
     999901    1    3    3    0    0 -0.46100169725E-04  0.13904859575E+00 -0.26836333823E-01  0.89132188513E+00  0.88000000000E+00 0.  1.
        -11    1    4    4    0    0 -0.11611120508E-01 -0.89382294941E-01 -0.11389353212E-02  0.90141949518E-01  0.51100000000E-03 0.  1.
         11    1    4    4    0    0  0.51775055227E-02 -0.36202835891E-01  0.78618133060E-02  0.37410174010E-01  0.51100000000E-03 0. -1.
</event>
<event>
 8    1  0.1092993E+005  0.1043930E+01  0.7957747E-01            NaN
         13   -1    0    0    0    0  0.00000000000E+00  0.00000000000E+00  0.74505805969E-08  0.10566000000E+00  0.10566000000E+00 0. -1.
     999900   -1    0    0    0    0 -0.00000000000E+00 -0.00000000000E+00 -0.74505805969E-08  0.93827000000E+00  0.93827000000E+00 0. -1.
     999902    2    1    2    0    0  0.11235881898E-01 -0.13848336238E-01 -0.14852602430E-01  0.10207217847E+01  0.10204579073E+01 0.  0.
     999903    2    3    3    0    0 -0.65244674418E-02 -0.11605191735E+00 -0.62264361349E-01  0.13336116078E+00  0.19943227269E-01 0.  0.
         14    1    1    2    0    0 -0.11235881898E-01  0.13848336238E-01  0.14852602430E-01  0.23208215302E-01  0.00000000000E+00 0.  1.
     999901    1    3    3    0    0  0.17760349339E-01  0.10220358111E+00  0.47411758919E-01  0.88736062392E+00  0.88000000000E+00 0. -1.
        -11    1    4    4    0    0 -0.12419047038E-01 -0.97238322933E-01 -0.49002078859E-01  0.10959465785E+00  0.51100000000E-03 0.  1.
         11    1    4    4    0    0  0.58945795964E-02 -0.18813594416E-01 -0.13262282489E-01  0.23766502926E-01  0.51100000000E-03 0. -1.
</event>
<event>
 8    1  0.1092993E+005  0.1043930E+01  0.7957747E-01            NaN
         13   -1    0    0    0    0  0.00000000000E+00  0.00000000000E+00  0.74505805969E-08  0.10566000000E+00  0.10566000000E+00 0.  1.
     999900   -1    0    0    0    0 -0.00000000000E+00 -0.00000000000E+00 -0.74505805969E-08  0.93827000000E+00  0.93827000000E+00 0. -1.
     999902    2    1    2    0    0 -0.40462174254E-02 -0.97271572023E-02 -0.22441185654E-01  0.10191389477E+01  0.10188373758E+01 0.  0.
     999903    2    3    3    0    0  0.31121634487E-01 -0.12207783004E+00  0.25072868924E-01  0.13002869753E+00  0.20180701280E-01 0.  0.
         14    1    1    2    0    0  0.40462174254E-02  0.97271572023E-02  0.22441185654E-01  0.24791052342E-01  0.00000000000E+00 0.  1.
     999901    1    3    3    0    0 -0.35167851913E-01  0.11235067284E+00 -0.47514054578E-01  0.88911025013E+00  0.88000000000E+00 0. -1.
        -11    1    4    4    0    0  0.12012572362E-01 -0.64119931581E-01  0.22275423850E-01  0.68935644984E-01  0.51100000000E-03 0.  1.
         11    1    4    4    0    0  0.19109062126E-01 -0.57957898464E-01  0.27974450742E-02  0.61093052548E-01  0.51100000000E-03 0. -1.
</event>
<event>
 8    1  0.1092993E+005  0.1043930E+01  0.7957747E-01            NaN
         13   -1    0    0    0    0  0.00000000000E+00  0.00000000000E+00  0.74505805969E-08  0.10566000000E+00  0.10566000000E+00 0.  1.
     999900   -1    0    0    0    0 -0.00000000000E+00 -0.00000000000E+00 -0.74505805969E-08  0.93827000000E+00  0.93827000000E+00 0. -1.
     999902    2    1    2    0    0  0.85223909115E-02 -0.17745267607E-01  0.13085595856E-01  0.10202919271E+01  0.10200180675E+01 0.  0.
     999903    2    3    3    0    0  0.88129957784E-01  0.91138286609E-01  0.21162055136E-01  0.12997837436E+00  0.19325332556E-01 0.  0.
         14    1    1    2    0    0 -0.85223909115E-02  0.17745267607E-01 -0.13085595856E-01  0.23638072853E-01  0.00000000000E+00 0. -1.
     999901    1    3    3    0    0 -0.79607566873E-01 -0.10888355422E+00 -0.80764592800E-02  0.89031355279E+00  0.88000000000E+00 0. -1.
        -11    1    4    4    0    0  0.54745464721E-01  0.62218626946E-01  0.53020726288E-02  0.83045749691E-01  0.51100000000E-03 0.  1.
         11    1    4    4    0    0  0.33384493064E-01  0.28919659663E-01  0.15859982507E-01  0.46932624668E-01  0.51100000000E-03 0. -1.
</event>
<event>
 8    1  0.1421985E+005  0.1043930E+01  0.7957747E-01            NaN
         13   -1    0    0    0    0  0.00000000000E+00  0.00000000000E+00  0.74505805969E-08  0.10566000000E+00  0.10566000000E+00 0. -1.
     999900   -1    0    0    0    0 -0.00000000000E+00 -0.00000000000E+00 -0.74505805969E-08  0.93827000000E+00  0.93827000000E+00 0. -1.
     999902    2    1    2    0    0 -0.20148800981E-01  0.44480788308E-02 -0.41702599805E-03  0.10232918437E+01  0.10230837032E+01 0.  0.
     999903    2    3    3    0    0  0.48924315728E-01 -0.11891182211E+00  0.20871159885E-01  0.13175275452E+00  0.19737601246E-01 0.  0.
         14    1    1    2    0    0  0.20148800981E-01 -0.44480788308E-02  0.41702599805E-03  0.20638156336E-01  0.00000000000E+00 0. -1.
     999901    1    3    3    0    0 -0.69073116709E-01  0.12335990094E+00 -0.21288185883E-01  0.89153908914E+00  0.88000000000E+00 0. -1.
        -11    1    4    4    0    0  0.27173663722E-01 -0.89035627533E-01  0.16394163420E-01  0.94523968841E-01  0.51100000000E-03 0. -1.
         11    1    4    4    0    0  0.21750652006E-01 -0.29876194574E-01  0.44769964642E-02  0.37228785680E-01  0.51100000000E-03 0.  1.
</event>
<event>
 8    1  0.1092993E+005  0.1043930E+01  0.7957747E-01            NaN
         13   -1    0    0    0    0  0.00000000000E+00  0.00000000000E+00  0.74505805969E-08  0.10566000000E+00  0.10566000000E+00 0. -1.
     999900   -1    0    0    0    0 -0.00000000000E+00 -0.00000000000E+00 -0.74505805969E-08  0.93827000000E+00  0.93827000000E+00 0.  1.
     999902    2    1    2    0    0 -0.12870744242E-01 -0.58587338455E-02 -0.19903006345E-01  0.10195146261E+01  0.10192222341E+01 0.  0.
     999903    2    3    3    0    0  0.62839905086E-01  0.90396667281E-01 -0.65689802074E-01  0.12985534566E+00  0.20660338158E-01 0.  0.
         14    1    1    2    0    0  0.12870744242E-01  0.58587338455E-02  0.19903006345E-01  0.24415373869E-01  0.00000000000E+00 0. -1.
     999901    1    3    3    0    0 -0.75710649327E-01 -0.96255401127E-01  0.45786795729E-01  0.88965928047E+00  0.88000000000E+00 0. -1.
        -11    1    4    4    0    0  0.40850851643E-01  0.58675013095E-01 -0.30893705174E-01  0.77886015317E-01  0.51100000000E-03 0. -1.
         11    1    4    4    0    0  0.21989053443E-01  0.31721654186E-01 -0.34796096900E-01  0.51969330341E-01  0.51100000000E-03 0.  1.
</event>
<event>
 8    1  0.1092993E+005  0.1043930E+01  0.7957747E-01            NaN
         13   -1    0    0    0    0  0.00000000000E+00  0.00000000000E+00  0.74505805969E-08  0.10566000000E+00  0.10566000000E+00 0.  1.
     999900   -1    0    0    0    0 -0.00000000000E+00 -0.00000000000E+00 -0.74505805969E-08  0.93827000000E+00  0.93827000000E+00 0. -1.
     999902    2    1    2    0    0 -0.59709667459E-02 -0.96643709470E-02  0.20833714910E-01  0.10202003522E+01  0.10199243415E+01 0.  0.
     999903    2    3    3    0    0  0.37099551455E-01  0.28438335002E-01  0.12247642546E+00  0.13248523663E+00  0.19150653096E-01 0.  0.
         14    1    1    2    0    0  0.59709667459E-02  0.96643709470E-02 -0.20833714910E-01  0.23729647840E-01  0.00000000000E+00 0. -1.
     999901    1    3    3    0    0 -0.43070518201E-01 -0.38102705949E-01 -0.10164271055E+00  0.88771511553E+00  0.88000000000E+00 0. -1.
        -11    1    4    4    0    0  0.11725631904E-01  0.20502847036E-01  0.50459518846E-01  0.55716077960E-01  0.51100000000E-03 0. -1.
         11    1    4    4    0    0  0.25373919551E-01  0.79354879656E-02  0.72016906616E-01  0.76769158665E-01  0.51100000000E-03 0.  1.
</event>
<event>
 8    1  0.1092993E+005  0.1043930E+01  0.7957747E-01            NaN
         13   -1    0    0    0    0  0.00000000000E+00  0.00000000000E+00  0.74505805969E-08  0.10566000000E+00  0.10566000000E+00 0.  1.
     999900   -1    0    0    0    0 -0.00000000000E+00 -0.00000000000E+00 -0.74505805969E-08  0.93827000000E+00  0.93827000000E+00 0. -1.
     999902    2    1    2    0    0  0.10978974623E-01  0.18673734672E-01  0.96229988187E-02  0.10202266594E+01  0.10199512675E+01 0.  0.
     999903    2    3    3    0    0 -0.18195956273E-01 -0.12389738471E+00  0.19588178672E-01  0.12821936934E+00  0.19361176818E-01 0.  0.
         14    1    1    2    0    0 -0.10978974623E-01 -0.18673734672E-01 -0.96229988187E-02  0.23703340622E-01  0.00000000000E+00 0.  1.
     999901    1    3    3    0    0  0.29174930896E-01  0.14257111938E+00 -0.99651798532E-02  0.89200729004E+00  0.88000000000E+00 0. -1.
        -11    1    4    4    0    0 -0.13721651673E-01 -0.11672186153E+00  0.21640915922E-01  0.11950258175E+00  0.51100000000E-03 0. -1.
         11    1    4    4    0    0 -0.44743046006E-02 -0.71755231814E-02 -0.20527372501E-02  0.87167875851E-02  0.51100000000E-03 0.  1.
</event>
<event>
 8    1  0.1092993E+005  0.1043930E+01  0.7957747E-01            NaN
         13   -1    0    0    0    0  0.00000000000E+00  0.00000000000E+00  0.74505805969E-08  0.10566000000E+00  0.10566000000E+00 0.  1.
     999900   -1    0    0    0    0 -0.00000000000E+00 -0.00000000000E+00 -0.74505805969E-08  0.93827000000E+00  0.93827000000E+00 0. -1.
     999902    2    1    2    0    0 -0.60479518456E-02 -0.22130712911E-01 -0.68645052438E-02  0.10199828163E+01  0.10197016612E+01 0.  0.
     999903    2    3    3    0    0 -0.98176892637E-01 -0.24432448695E-01 -0.82455230118E-01  0.13194734548E+00  0.19380149879E-01 0.  0.
         14    1    1    2    0    0  0.60479518456E-02  0.22130712911E-01  0.68645052438E-02  0.23947183712E-01  0.00000000000E+00 0.  1.
     999901    1    3    3    0    0  0.92128940792E-01  0.23017357842E-02  0.75590724874E-01  0.88803547080E+00  0.88000000000E+00 0.  1.
        -11    1    4    4    0    0 -0.33284395322E-01 -0.15168209083E-01 -0.21486753861E-01  0.42424842383E-01  0.51100000000E-03 0. -1.
         11    1    4    4    0    0 -0.64892497316E-01 -0.92642396123E-02 -0.60968476257E-01  0.89522503102E-01  0.51100000000E-03 0.  1.
</event>
<event>
 8    1  0.1092993E+005  0.1043930E+01  0.7957747E-01            NaN
         13   -1    0    0    0    0  0.00000000000E+00  0.00000000000E+00  0.74505805969E-08  0.10566000000E+00  0.10566000000E+00 0.  1.
     999900   -1    0    0    0    0 -0.00000000000E+00 -0.00000000000E+00 -0.74505805969E-08  0.93827000000E+00  0.93827000000E+00 0.  1.
     999902    2    1    2    0    0 -0.11918924390E-02  0.18108812917E-01  0.15385103664E-01  0.10201381710E+01  0.10198606948E+01 0.  0.
     999903    2    3    3    0    0 -0.34072103762E-01 -0.49861372627E-02 -0.12279182237E+00  0.12845025030E+00  0.15357908059E-01 0.  0.
         14    1    1    2    0    0  0.11918924390E-02 -0.18108812917E-01 -0.15385103664E-01  0.23791829009E-01  0.00000000000E+00 0. -1.
     999901    1    3    3    0    0  0.32880211323E-01  0.23094950180E-01  0.13817692604E+00  0.89168792069E+00  0.88000000000E+00 0. -1.
        -11    1    4    4    0    0 -0.15897862504E-01 -0.16606421644E-02 -0.31739759114E-01  0.35541147902E-01  0.51100000000E-03 0. -1.
         11    1    4    4    0    0 -0.18174241258E-01 -0.33254950983E-02 -0.91052063261E-01  0.92909102396E-01  0.51100000000E-03 0.  1.
</event>
<event>
 8    1  0.1092993E+005  0.1043930E+01  0.7957747E-01            NaN
         13   -1    0    0    0    0  0.00000000000E+00  0.00000000000E+00  0.74505805969E-08  0.10566000000E+00  0.10566000000E+00 0.  1.
     999900   -1    0    0    0    0 -0.00000000000E+00 -0.00000000000E+00 -0.74505805969E-08  0.93827000000E+00  0.93827000000E+00 0. -1.
     999902    2    1    2    0    0  0.65968122469E-02  0.50786974674E-02  0.21982773876E-01  0.10204235446E+01  0.10201527615E+01 0.  0.
     999903    2    3    3    0    0  0.44079677973E-01 -0.23474896975E-01 -0.11660442845E+00  0.12833235773E+00  0.19455397910E-01 0.  0.
         14    1    1    2    0    0 -0.65968122469E-02 -0.50786974674E-02 -0.21982773876E-01  0.23506455434E-01  0.00000000000E+00 0. -1.
     999901    1    3    3    0    0 -0.37482865726E-01  0.28553594442E-01  0.13858720233E+00  0.89209118683E+00  0.88000000000E+00 0.  1.
        -11    1    4    4    0    0  0.20892254091E-01 -0.17316086877E-01 -0.42382861182E-01  0.50327936464E-01  0.51100000000E-03 0.  1.
         11    1    4    4    0    0  0.23187423882E-01 -0.61588100978E-02 -0.74221567271E-01  0.78004421268E-01  0.51100000000E-03 0. -1.
</event>
<event>
 8    1  0.1092993E+005  0.1043930E+01  0.7957747E-01            NaN
         13   -1    0    0    0    0  0.00000000000E+00  0.00000000000E+00  0.74505805969E-08  0.10566000000E+00  0.10566000000E+00 0. -1.
     999900   -1    0    0    0    0 -0.00000000000E+00 -0.00000000000E+00 -0.74505805969E-08  0.93827000000E+00  0.93827000000E+00 0.  1.
     999902    2    1    2    0    0 -0.57506498738E-02  0.21316858258E-01  0.56986514334E-02  0.10211275210E+01  0.10208728918E+01 0.  0.
     999903    2    3    3    0    0 -0.29208956833E-01  0.11167724240E+00  0.65371426346E-01  0.13417987247E+00  0.20145599087E-01 0.  0.
         14    1    1    2    0    0  0.57506498738E-02 -0.21316858258E-01 -0.56986514334E-02  0.22802478990E-01  0.00000000000E+00 0.  1.
     999901    1    3    3    0    0  0.23458306959E-01 -0.90360384147E-01 -0.59672774912E-01  0.88694764854E+00  0.88000000000E+00 0.  1.
        -11    1    4    4    0    0 -0.27570161076E-01  0.10598900374E+00  0.55797733241E-01  0.12291228926E+00  0.51100000000E-03 0. -1.
         11    1    4    4    0    0 -0.16387957563E-02  0.56882386629E-02  0.95736931047E-02  0.11267583205E-01  0.51100000000E-03 0.  1.
</event>
<event>
 8    1  0.1092993E+005  0.1043930E+01  0.7957747E-01            NaN
         13   -1    0    0    0    0  0.00000000000E+00  0.00000000000E+00  0.74505805969E-08  0.10566000000E+00  0.10566000000E+00 0.  1.
     999900   -1    0    0    0    0 -0.00000000000E+00 -0.00000000000E+00 -0.74505805969E-08  0.93827000000E+00  0.93827000000E+00 0.  1.
     999902    2    1    2    0    0  0.13887868514E-01 -0.18564051913E-01  0.50509131560E-03  0.10207405189E+01  0.10204770722E+01 0.  0.
     999903    2    3    3    0    0 -0.15509358384E-01  0.11175707294E+00 -0.59360729372E-01  0.12864651658E+00  0.17206001488E-01 0.  0.
         14    1    1    2    0    0 -0.13887868514E-01  0.18564051913E-01 -0.50509131560E-03  0.23189481075E-01  0.00000000000E+00 0.  1.
     999901    1    3    3    0    0  0.29397226898E-01 -0.13032112485E+00  0.59865820687E-01  0.89209400234E+00  0.88000000000E+00 0. -1.
        -11    1    4    4    0    0 -0.43030160293E-02  0.23878002105E-01 -0.21050961899E-01  0.32125987135E-01  0.51100000000E-03 0. -1.
         11    1    4    4    0    0 -0.11206342355E-01  0.87879070835E-01 -0.38309767472E-01  0.96520529446E-01  0.51100000000E-03 0.  1.
</event>
<event>
 8    1  0.1092993E+005  0.1043930E+01  0.7957747E-01            NaN
         13   -1    0    0    0    0  0.00000000000E+00  0.00000000000E+00  0.74505805969E-08  0.10566000000E+00  0.10566000000E+00 0. -1.
     999900   -1    0    0    0    0 -0.00000000000E+00 -0.00000000000E+00 -0.74505805969E-08  0.93827000000E+00  0.93827000000E+00 0.  1.
     999902    2    1    2    0    0  0.13291169478E-01 -0.32561203274E-02 -0.19278702555E-01  0.10202883867E+01  0.10200144441E+01 0.  0.
     999903    2    3    3    0    0  0.16565757313E-01  0.99849727852E-01 -0.82306999410E-01  0.13202372738E+00  0.20283736621E-01 0.  0.
         14    1    1    2    0    0 -0.13291169478E-01  0.32561203274E-02  0.19278702555E-01  0.23641613268E-01  0.00000000000E+00 0. -1.
     999901    1    3    3    0    0 -0.32745878347E-02 -0.10310584818E+00  0.63028296855E-01  0.88826465935E+00  0.88000000000E+00 0. -1.
        -11    1    4    4    0    0 -0.27338301701E-02  0.22795851882E-01 -0.11842238122E-01  0.25838429038E-01  0.51100000000E-03 0. -1.
         11    1    4    4    0    0  0.19299587483E-01  0.77053875970E-01 -0.70464761289E-01  0.10618529834E+00  0.51100000000E-03 0.  1.
</event>
<event>
 8    1  0.1092993E+005  0.1043930E+01  0.7957747E-01            NaN
         13   -1    0    0    0    0  0.00000000000E+00  0.00000000000E+00  0.74505805969E-08  0.10566000000E+00  0.10566000000E+00 0.  1.
     999900   -1    0    0    0    0 -0.00000000000E+00 -0.00000000000E+00 -0.74505805969E-08  0.93827000000E+00  0.93827000000E+00 0. -1.
     999902    2    1    2    0    0  0.91042752913E-02  0.11545817310E-01 -0.18935648808E-01  0.10199560032E+01  0.10196742107E+01 0.  0.
     999903    2    3    3    0    0 -0.22651604478E-01 -0.12481304360E+00 -0.62001343444E-02  0.12879700047E+00  0.21420425420E-01 0.  0.
         14    1    1    2    0    0 -0.91042752913E-02 -0.11545817310E-01  0.18935648808E-01  0.23973996782E-01  0.00000000000E+00 0.  1.
     999901    1    3    3    0    0  0.31755879769E-01  0.13635886091E+00 -0.12735514463E-01  0.89115900275E+00  0.88000000000E+00 0.  1.
        -11    1    4    4    0    0 -0.15187758811E-01 -0.33370486412E-01 -0.52680888701E-02  0.37044179873E-01  0.51100000000E-03 0.  1.
         11    1    4    4    0    0 -0.74638456669E-02 -0.91442557191E-01 -0.93204547434E-03  0.91752820597E-01  0.51100000000E-03 0. -1.
</event>
<event>
 8    1  0.1092993E+005  0.1043930E+01  0.7957747E-01            NaN
         13   -1    0    0    0    0  0.00000000000E+00  0.00000000000E+00  0.74505805969E-08  0.10566000000E+00  0.10566000000E+00 0.  1.
     999900   -1    0    0    0    0 -0.00000000000E+00 -0.00000000000E+00 -0.74505805969E-08  0.93827000000E+00  0.93827000000E+00 0. -1.
     999902    2    1    2    0    0  0.31196114774E-03 -0.13154131642E-01 -0.17662565887E-01  0.10219051338E+01  0.10216677580E+01 0.  0.
     999903    2    3    3    0    0  0.85193031568E-01  0.22333079888E-01 -0.98394420398E-01  0.13343354129E+00  0.19142332438E-01 0.  0.
         14    1    1    2    0    0 -0.31196114774E-03  0.13154131642E-01  0.17662565887E-01  0.22024866236E-01  0.00000000000E+00 0.  1.
     999901    1    3    3    0    0 -0.84881070420E-01 -0.35487211529E-01  0.80731854511E-01  0.88847159247E+00  0.88000000000E+00 0.  1.
        -11    1    4    4    0    0  0.21521036742E-01  0.13105557204E-01 -0.34816061127E-01  0.42980575676E-01  0.51100000000E-03 0.  1.
         11    1    4    4    0    0  0.63671994826E-01  0.92275226841E-02 -0.63578359271E-01  0.90452965615E-01  0.51100000000E-03 0. -1.
</event>
<event>
 8    1  0.1092993E+005  0.1043930E+01  0.7957747E-01            NaN
         13   -1    0    0    0    0  0.00000000000E+00  0.00000000000E+00  0.74505805969E-08  0.10566000000E+00  0.10566000000E+00 0.  1.
     999900   -1    0    0    0    0 -0.00000000000E+00 -0.00000000000E+00 -0.74505805969E-08  0.93827000000E+00  0.93827000000E+00 0. -1.
     999902    2    1    2    0    0 -0.18076667561E-01  0.12825012188E-01 -0.67178265245E-02  0.10207702064E+01  0.10205074415E+01 0.  0.
     999903    2    3    3    0    0 -0.27391787704E-01 -0.85694763795E-01 -0.93208922323E-01  0.13100977380E+00  0.19538553015E-01 0.  0.
         14    1    1    2    0    0  0.18076667561E-01 -0.12825012188E-01  0.67178265245E-02  0.23159793630E-01  0.00000000000E+00 0. -1.
     999901    1    3    3    0    0  0.93151201429E-02  0.98519775983E-01  0.86491095798E-01  0.88976043257E+00  0.88000000000E+00 0.  1.
        -11    1    4    4    0    0 -0.26651544134E-01 -0.55854913871E-01 -0.67883035639E-01  0.91861002917E-01  0.51100000000E-03 0.  1.
         11    1    4    4    0    0 -0.74024357027E-03 -0.29839849924E-01 -0.25325886683E-01  0.39148770879E-01  0.51100000000E-03 0. -1.
</event>
<event>
 8    1  0.1092993E+005  0.1043930E+01  0.7957747E-01            NaN
         13   -1    0    0    0    0  0.00000000000E+00  0.00000000000E+00  0.74505805969E-08  0.10566000000E+00  0.10566000000E+00 0. -1.
     999900   -1    0    0    0    0 -0.00000000000E+00 -0.00000000000E+00 -0.74505805969E-08  0.93827000000E+00  0.93827000000E+00 0. -1.
     999902    2    1    2    0    0 -0.99646790676E-02  0.17506119899E-01  0.13176280230E-01  0.10198598229E+01  0.10195757378E+01 0.  0.
     999903    2    3    3    0    0 -0.72227070192E-01  0.59948128560E-01  0.92375327878E-01  0.13309580778E+00  0.19255260589E-01 0.  0.
         14    1    1    2    0    0  0.99646790676E-02 -0.17506119899E-01 -0.13176280230E-01  0.24070177057E-01  0.00000000000E+00 0.  1.
     999901    1    3    3    0    0  0.62262391125E-01 -0.42442008661E-01 -0.79199047648E-01  0.88676401517E+00  0.88000000000E+00 0. -1.
        -11    1    4    4    0    0 -0.80526477583E-02  0.15462172684E-01  0.21054847960E-01  0.27340293774E-01  0.51100000000E-03 0. -1.
         11    1    4    4    0    0 -0.64174422434E-01  0.44485955877E-01  0.71320479918E-01  0.10575551400E+00  0.51100000000E-03 0.  1.
</event>
<event>
 8    1  0.1092993E+005  0.1043930E+01  0.7957747E-01            NaN
         13   -1    0    0    0    0  0.00000000000E+00  0.00000000000E+00  0.74505805969E-08  0.10566000000E+00  0.10566000000E+00 0.  1.
     999900   -1    0    0    0    0 -0.00000000000E+00 -0.00000000000E+00 -0.74505805969E-08  0.93827000000E+00  0.93827000000E+00 0. -1.
     999902    2    1    2    0    0  0.14416347922E-01  0.60182336032E-02  0.18386242614E-01  0.10198031656E+01  0.10195177254E+01 0.  0.
     999903    2    3    3    0    0  0.51511022283E-01  0.42476299355E-01  0.11338420686E+00  0.13316354393E+00  0.20467770840E-01 0.  0.
         14    1    1    2    0    0 -0.14416347922E-01 -0.60182336032E-02 -0.18386242614E-01  0.24126834450E-01  0.00000000000E+00 0. -1.
     999901    1    3    3    0    0 -0.37094674361E-01 -0.36458065751E-01 -0.94997964241E-01  0.88663962162E+00  0.88000000000E+00 0. -1.
        -11    1    4    4    0    0  0.42387382498E-01  0.26936031316E-01  0.69742074241E-01  0.85944505458E-01  0.51100000000E-03 0.  1.
         11    1    4    4    0    0  0.91236397849E-02  0.15540268039E-01  0.43642132615E-01  0.47219038468E-01  0.51100000000E-03 0. -1.
</event>
<event>
 8    1  0.1092993E+005  0.1043930E+01  0.7957747E-01            NaN
         13   -1    0    0    0    0  0.00000000000E+00  0.00000000000E+00  0.74505805969E-08  0.10566000000E+00  0.10566000000E+00 0.  1.
     999900   -1    0    0    0    0 -0.00000000000E+00 -0.00000000000E+00 -0.74505805969E-08  0.93827000000E+00  0.93827000000E+00 0.  1.
     999902    2    1    2    0    0  0.42764882305E-02  0.23508565851E-01  0.14174738959E-02  0.10199936207E+01  0.10197127223E+01 0.  0.
     999903    2    3    3    0    0 -0.57362296333E-01  0.11101431642E+00  0.38543324426E-01  0.13273101873E+00  0.22744757270E-01 0.  0.
         14    1    1    2    0    0 -0.42764882305E-02 -0.23508565851E-01 -0.14174738959E-02  0.23936379263E-01  0.00000000000E+00 0. -1.
     999901    1    3    3    0    0  0.61638784563E-01 -0.87505750572E-01 -0.37125850530E-01  0.88726260201E+00  0.88000000000E+00 0. -1.
        -11    1    4    4    0    0 -0.30053774600E-01  0.47937284012E-01  0.67007569855E-02  0.56976958776E-01  0.51100000000E-03 0. -1.
         11    1    4    4    0    0 -0.27308521733E-01  0.63077032412E-01  0.31842567441E-01  0.75754059953E-01  0.51100000000E-03 0.  1.
</event>
<event>
 8    1  0.1092993E+005  0.1043930E+01  0.7957747E-01            NaN
         13   -1    0    0    0    0  0.00000000000E+00  0.00000000000E+00  0.74505805969E-08  0.10566000000E+00  0.10566000000E+00 0.  1.
     999900   -1    0    0    0    0 -0.00000000000E+00 -0.00000000000E+00 -0.74505805969E-08  0.93827000000E+00  0.93827000000E+00 0.  1.
     999902    2    1    2    0    0 -0.26786845818E-02  0.22785705822E-01  0.15502754882E-02  0.10209350637E+01  0.10206760687E+01 0.  0.
     999903    2    3    3    0    0 -0.81913801556E-01 -0.13814292673E-01 -0.98887150032E-01  0.13093200748E+00  0.21536401144E-01 0.  0.
         14    1    1    2    0    0  0.26786845818E-02 -0.22785705822E-01 -0.15502754882E-02  0.22994936290E-01  0.00000000000E+00 0.  1.
     999901    1    3    3    0    0  0.79235116974E-01  0.36599998494E-01  0.10043742552E+00  0.89000305623E+00  0.88000000000E+00 0. -1.
        -11    1    4    4    0    0 -0.44811829089E-01 -0.84362599269E-03 -0.65448716770E-01  0.79325956527E-01  0.51100000000E-03 0. -1.
         11    1    4    4    0    0 -0.37101972467E-01 -0.12970666680E-01 -0.33438433262E-01  0.51606050954E-01  0.51100000000E-03 0.  1.
</event>
<event>
 8    1  0.1092993E+005  0.1043930E+01  0.7957747E-01            NaN
         13   -1    0    0    0    0  0.00000000000E+00  0.00000000000E+00  0.74505805969E-08  0.10566000000E+00  0.10566000000E+00 0. -1.
     999900   -1    0    0    0    0 -0.00000000000E+00 -0.00000000000E+00 -0.74505805969E-08  0.93827000000E+00  0.93827000000E+00 0. -1.
     999902    2    1    2    0    0  0.84661043465E-02  0.15699894591E-01 -0.14406708292E-01  0.10210015274E+01  0.10207440443E+01 0.  0.
     999903    2    3    3    0    0 -0.90184661010E-01  0.93297092436E-01 -0.13630447464E-01  0.13209551367E+00  0.20635287646E-01 0.  0.
         14    1    1    2    0    0 -0.84661043465E-02 -0.15699894591E-01  0.14406708292E-01  0.22928472622E-01  0.00000000000E+00 0.  1.
     999901    1    3    3    0    0  0.98650765356E-01 -0.77597197844E-01 -0.77626082814E-03  0.88890601370E+00  0.88000000000E+00 0.  1.
        -11    1    4    4    0    0 -0.82153891173E-01  0.75135826982E-01 -0.14126709405E-01  0.11222512807E+00  0.51100000000E-03 0. -1.
         11    1    4    4    0    0 -0.80307698369E-02  0.18161265453E-01  0.49626194159E-03  0.19870385601E-01  0.51100000000E-03 0.  1.
</event>
<event>
 8    1  0.1092993E+005  0.1043930E+01  0.7957747E-01            NaN
         13   -1    0    0    0    0  0.00000000000E+00  0.00000000000E+00  0.74505805969E-08  0.10566000000E+00  0.10566000000E+00 0. -1.
     999900   -1    0    0    0    0 -0.00000000000E+00 -0.00000000000E+00 -0.74505805969E-08  0.93827000000E+00  0.93827000000E+00 0. -1.
     999902    2    1    2    0    0  0.57305904549E-02 -0.20285104697E-01  0.99671225414E-02  0.10206132963E+01  0.10203469174E+01 0.  0.
     999903    2    3    3    0    0  0.99556253255E-01 -0.52951248397E-01  0.67950489758E-01  0.13312673144E+00  0.19752855386E-01 0.  0.
         14    1    1    2    0    0 -0.57305904549E-02  0.20285104697E-01 -0.99671225414E-02  0.23316703697E-01  0.00000000000E+00 0.  1.
     999901    1    3    3    0    0 -0.93825662800E-01  0.32666143700E-01 -0.57983367217E-01  0.88748656487E+00  0.88000000000E+00 0.  1.
        -11    1    4    4    0    0  0.39239164342E-01 -0.22964318190E-01  0.16521061840E-01  0.48376425390E-01  0.51100000000E-03 0. -1.
         11    1    4    4    0    0  0.60317088912E-01 -0.29986930207E-01  0.51429427918E-01  0.84750306047E-01  0.51100000000E-03 0.  1.
</event>
<event>
 8    1  0.1092993E+005  0.1043930E+01  0.7957747E-01            NaN
         13   -1    0    0    0    0  0.00000000000E+00  0.00000000000E+00  0.74505805969E-08  0.10566000000E+00  0.10566000000E+00 0. -1.
     999900   -1    0    0    0    0 -0.00000000000E+00 -0.00000000000E+00 -0.74505805969E-08  0.93827000000E+00  0.93827000000E+00 0. -1.
     999902    2    1    2    0    0 -0.77008743186E-03 -0.18701235267E-01 -0.13356120664E-01  0.10209361923E+01  0.10206772230E+01 0.  0.
     999903    2    3    3    0    0 -0.44463070943E-01  0.48234832534E-01  0.10824908164E+00  0.12898477026E+00  0.24812165066E-01 0.  0.
         14    1    1    2    0    0  0.77008743186E-03  0.18701235267E-01  0.13356120664E-01  0.22993807739E-01  0.00000000000E+00 0. -1.
     999901    1    3    3    0    0  0.43692983511E-01 -0.66936067801E-01 -0.12160520231E+00  0.89195142200E+00  0.88000000000E+00 0. -1.
        -11    1    4    4    0    0 -0.20395287313E-01  0.11159348573E-01  0.21730357461E-01  0.31827163894E-01  0.51100000000E-03 0. -1.
         11    1    4    4    0    0 -0.24067783631E-01  0.37075483961E-01  0.86518724181E-01  0.97157606366E-01  0.51100000000E-03 0.  1.
</event>
<event>
 8    1  0.1092993E+005  0.1043930E+01  0.7957747E-01            NaN
         13   -1    0    0    0    0  0.00000000000E+00  0.00000000000E+00  0.74505805969E-08  0.10566000000E+00  0.10566000000E+00 0.  1.
     999900   -1    0    0    0    0 -0.00000000000E+00 -0.00000000000E+00 -0.74505805969E-08  0.93827000000E+00  0.93827000000E+00 0. -1.
     999902    2    1    2    0    0 -0.10189268409E-01  0.15364531136E-01  0.13709488300E-01  0.10209552296E+01  0.10206966938E+01 0.  0.
     999903    2    3    3    0    0 -0.81292698639E-01 -0.91715131218E-02 -0.99646221657E-01  0.13050184378E+00  0.20217374548E-01 0.  0.
         14    1    1    2    0    0  0.10189268409E-01 -0.15364531136E-01 -0.13709488300E-01  0.22974770449E-01  0.00000000000E+00 0. -1.
     999901    1    3    3    0    0  0.71103430230E-01  0.24536044257E-01  0.11335570996E+00  0.89045338577E+00  0.88000000000E+00 0.  1.
        -11    1    4    4    0    0 -0.35942380615E-01 -0.79954299129E-02 -0.59218378521E-01  0.69734203225E-01  0.51100000000E-03 0.  1.
         11    1    4    4    0    0 -0.45350318024E-01 -0.11760832089E-02 -0.40427843136E-01  0.60767640552E-01  0.51100000000E-03 0. -1.
</event>
<event>
 8    1  0.1092993E+005  0.1043930E+01  0.7957747E-01            NaN
         13   -1    0    0    0    0  0.00000000000E+00  0.00000000000E+00  0.74505805969E-08  0.10566000000E+00  0.10566000000E+00 0.  1.
     999900   -1    0    0    0    0 -0.00000000000E+00 -0.00000000000E+00 -0.74505805969E-08  0.93827000000E+00  0.93827000000E+00 0.  1.
     999902    2    1    2    0    0  0.51697655254E-02  0.15300357888E-01 -0.15420982726E-01  0.10215998828E+01  0.10213558079E+01 0.  0.
     999903    2    3    3    0    0  0.20206558010E-01  0.12840573448E+00 -0.26282690837E-01  0.13416712023E+00  0.20339584011E-01 0.  0.
         14    1    1    2    0    0 -0.51697655254E-02 -0.15300357888E-01  0.15420982726E-01  0.22330117226E-01  0.00000000000E+00 0.  1.
     999901    1    3    3    0    0 -0.15036792485E-01 -0.11310537659E+00  0.10861708111E-01  0.88743276255E+00  0.88000000000E+00 0.  1.
        -11    1    4    4    0    0  0.43625319414E-02  0.16074635659E-01 -0.10332135072E-01  0.19607134739E-01  0.51100000000E-03 0. -1.
         11    1    4    4    0    0  0.15844026069E-01  0.11233109882E+00 -0.15950555765E-01  0.11455998549E+00  0.51100000000E-03 0.  1.
</event>
<event>
 8    1  0.1092993E+005  0.1043930E+01  0.7957747E-01            NaN
         13   -1    0    0    0    0  0.00000000000E+00  0.00000000000E+00  0.74505805969E-08  0.10566000000E+00  0.10566000000E+00 0. -1.
     999900   -1    0    0    0    0 -0.00000000000E+00 -0.00000000000E+00 -0.74505805969E-08  0.93827000000E+00  0.93827000000E+00 0. -1.
     999902    2    1    2    0    0 -0.84831530625E-02 -0.71624857888E-02  0.22137360513E-01  0.10191645438E+01  0.10188636021E+01 0.  0.
     999903    2    3    3    0    0 -0.93000197929E-01  0.61103144658E-01  0.66839583234E-01  0.13135734861E+00  0.20114473536E-01 0.  0.
         14    1    1    2    0    0  0.84831530625E-02  0.71624857888E-02 -0.22137360513E-01  0.24765456164E-01  0.00000000000E+00 0.  1.
     999901    1    3    3    0    0  0.84517044867E-01 -0.68265630447E-01 -0.44702222722E-01  0.88780719522E+00  0.88000000000E+00 0. -1.
        -11    1    4    4    0    0 -0.11859539386E-01  0.13177346077E-01  0.42826329124E-02  0.18245360773E-01  0.51100000000E-03 0. -1.
         11    1    4    4    0    0 -0.81140658543E-01  0.47925798582E-01  0.62556950322E-01  0.11311198784E+00  0.51100000000E-03 0.  1.
</event>
<event>
 8    1  0.1092993E+005  0.1043930E+01  0.7957747E-01            NaN
         13   -1    0    0    0    0  0.00000000000E+00  0.00000000000E+00  0.74505805969E-08  0.10566000000E+00  0.10566000000E+00 0. -1.
     999900   -1    0    0    0    0 -0.00000000000E+00 -0.00000000000E+00 -0.74505805969E-08  0.93827000000E+00  0.93827000000E+00 0. -1.
     999902    2    1    2    0    0  0.80342149498E-02  0.11383591959E-01  0.17432335923E-01  0.10216136134E+01  0.10213698419E+01 0.  0.
     999903    2    3    3    0    0  0.11443997213E+00 -0.13695678890E-01 -0.60853828428E-01  0.13140022407E+00  0.16695856108E-01 0.  0.
         14    1    1    2    0    0 -0.80342149498E-02 -0.11383591959E-01 -0.17432335923E-01  0.22316386614E-01  0.00000000000E+00 0.  1.
     999901    1    3    3    0    0 -0.10640575718E+00  0.25079270849E-01  0.78286164351E-01  0.89021338931E+00  0.88000000000E+00 0.  1.
        -11    1    4    4    0    0  0.11042769984E+00 -0.14694709945E-01 -0.55065883693E-01  0.12426875738E+00  0.51100000000E-03 0.  1.
         11    1    4    4    0    0  0.40122722863E-02  0.99903105523E-03 -0.57879447351E-02  0.71314666938E-02  0.51100000000E-03 0. -1.
</event>
<event>
 8    1  0.1092993E+005  0.1043930E+01  0.7957747E-01            NaN
         13   -1    0    0    0    0  0.00000000000E+00  0.00000000000E+00  0.74505805969E-08  0.10566000000E+00  0.10566000000E+00 0.  1.
     999900   -1    0    0    0    0 -0.00000000000E+00 -0.00000000000E+00 -0.74505805969E-08  0.93827000000E+00  0.93827000000E+00 0. -1.
     999902    2    1    2    0    0  0.10905044842E-02 -0.21437110865E-01 -0.15306242765E-01  0.10175667682E+01  0.10172252001E+01 0.  0.
     999903    2    3    3    0    0  0.11781883211E+00 -0.97820784011E-02 -0.47994814697E-01  0.12918065566E+00  0.20178535652E-01 0.  0.
         14    1    1    2    0    0 -0.10905044842E-02  0.21437110865E-01  0.15306242765E-01  0.26363231779E-01  0.00000000000E+00 0.  1.
     999901    1    3    3    0    0 -0.11672832763E+00 -0.11655032464E-01  0.32688571932E-01  0.88838611256E+00  0.88000000000E+00 0. -1.
        -11    1    4    4    0    0  0.39277655634E-01 -0.81843558881E-02 -0.25198707863E-01  0.47380944612E-01  0.51100000000E-03 0.  1.
         11    1    4    4    0    0  0.78541176479E-01 -0.15977225130E-02 -0.22796106834E-01  0.81799711050E-01  0.51100000000E-03 0. -1.
</event>
<event>
 8    1  0.1092993E+005  0.1043930E+01  0.7957747E-01            NaN
         13   -1    0    0    0    0  0.00000000000E+00  0.00000000000E+00  0.74505805969E-08  0.10566000000E+00  0.10566000000E+00 0.  1.
     999900   -1    0    0    0    0 -0.00000000000E+00 -0.00000000000E+00 -0.74505805969E-08  0.93827000000E+00  0.93827000000E+00 0.  1.
     999902    2    1    2    0    0  0.22569153133E-01  0.18615552576E-02 -0.19627945369E-02  0.10211993022E+01  0.10209462915E+01 0.  0.
     999903    2    3    3    0    0 -0.11867795593E+00  0.33040822543E-01  0.32192790205E-01  0.12873669988E+00  0.18989707163E-01 0.  0.
         14    1    1    2    0    0 -0.22569153133E-01 -0.18615552576E-02  0.19627945369E-02  0.22730697823E-01  0.00000000000E+00 0.  1.
     999901    1    3    3    0    0  0.14124710906E+00 -0.31179267286E-01 -0.34155584742E-01  0.89246260230E+00  0.88000000000E+00 0. -1.
        -11    1    4    4    0    0 -0.48848517575E-01  0.17584238908E-01  0.47701104375E-02  0.52138260441E-01  0.51100000000E-03 0.  1.
         11    1    4    4    0    0 -0.69829438352E-01  0.15456583635E-01  0.27422679767E-01  0.76598439441E-01  0.51100000000E-03 0. -1.
</event>
<event>
 8    1  0.1092993E+005  0.1043930E+01  0.7957747E-01            NaN
         13   -1    0    0    0    0  0.00000000000E+00  0.00000000000E+00  0.74505805969E-08  0.10566000000E+00  0.10566000000E+00 0. -1.
     999900   -1    0    0    0    0 -0.00000000000E+00 -0.00000000000E+00 -0.74505805969E-08  0.93827000000E+00  0.93827000000E+00 0. -1.
     999902    2    1    2    0    0  0.68446714366E-03  0.59402075175E-02 -0.23999402167E-01  0.10191969075E+01  0.10188967614E+01 0.  0.
     999903    2    3    3    0    0  0.39871954192E-01  0.35895787502E-02  0.11859449641E+00  0.12685493016E+00  0.20612154712E-01 0.  0.
         14    1    1    2    0    0 -0.68446714366E-03 -0.59402075175E-02  0.23999402167E-01  0.24733092508E-01  0.00000000000E+00 0. -1.
     999901    1    3    3    0    0 -0.39187487048E-01  0.23506287673E-02 -0.14259389857E+00  0.89234197733E+00  0.88000000000E+00 0. -1.
        -11    1    4    4    0    0  0.31310325217E-01 -0.36008444179E-02  0.10260487377E+00  0.10733742958E+00  0.51100000000E-03 0. -1.
         11    1    4    4    0    0  0.85616289749E-02  0.71904231681E-02  0.15989622633E-01  0.19517500582E-01  0.51100000000E-03 0.  1.
</event>
<event>
 8    1  0.1092993E+005  0.1043930E+01  0.7957747E-01            NaN
         13   -1    0    0    0    0  0.00000000000E+00  0.00000000000E+00  0.74505805969E-08  0.10566000000E+00  0.10566000000E+00 0.  1.
     999900   -1    0    0    0    0 -0.00000000000E+00 -0.00000000000E+00 -0.74505805969E-08  0.93827000000E+00  0.93827000000E+00 0. -1.
     999902    2    1    2    0    0 -0.14276028873E-01 -0.11780753680E-01  0.13999568726E-01  0.10207226933E+01  0.10204588368E+01 0.  0.
     999903    2    3    3    0    0 -0.20777719424E-01 -0.13058014821E-01  0.12948247444E+00  0.13315286235E+00  0.19019678985E-01 0.  0.
         14    1    1    2    0    0  0.14276028873E-01  0.11780753680E-01 -0.13999568726E-01  0.23207306655E-01  0.00000000000E+00 0. -1.
     999901    1    3    3    0    0  0.65016905508E-02  0.12772611410E-02 -0.11548290572E+00  0.88756983099E+00  0.88000000000E+00 0. -1.
        -11    1    4    4    0    0 -0.22035743831E-02  0.44540888445E-02  0.13538576334E-01  0.14430828723E-01  0.51100000000E-03 0. -1.
         11    1    4    4    0    0 -0.18574145041E-01 -0.17512103665E-01  0.11594389811E+00  0.11872203363E+00  0.51100000000E-03 0.  1.
</event>
<event>
 8    1  0.1092993E+005  0.1043930E+01  0.7957747E-01            NaN
         13   -1    0    0    0    0  0.00000000000E+00  0.00000000000E+00  0.74505805969E-08  0.10566000000E+00  0.10566000000E+00 0. -1.
     999900   -1    0    0    0    0 -0.00000000000E+00 -0.00000000000E+00 -0.74505805969E-08  0.93827000000E+00  0.93827000000E+00 0. -1.
     999902    2    1    2    0    0 -0.44069154373E-02 -0.29944955301E-02  0.22665010769E-01  0.10206471604E+01  0.10203815636E+01 0.  0.
     999903    2    3    3    0    0  0.73372784993E-02 -0.10526691712E+00 -0.72818609614E-01  0.12951602746E+00  0.18354617111E-01 0.  0.
         14    1    1    2    0    0  0.44069154373E-02  0.29944955301E-02 -0.22665010769E-01  0.23282839610E-01  0.00000000000E+00 0.  1.
     999901    1    3    3    0    0 -0.11744193937E-01  0.10227242159E+00  0.95483620382E-01  0.89113113293E+00  0.88000000000E+00 0.  1.
        -11    1    4    4    0    0  0.11196141256E-01 -0.86653371523E-01 -0.65243915219E-01  0.10904673296E+00  0.51100000000E-03 0. -1.
         11    1    4    4    0    0 -0.38588627570E-02 -0.18613545593E-01 -0.75746943949E-02  0.20469294504E-01  0.51100000000E-03 0.  1.
</event>
<event>
 8    1  0.1092993E+005  0.1043930E+01  0.7957747E-01            NaN
         13   -1    0    0    0    0  0.00000000000E+00  0.00000000000E+00  0.74505805969E-08  0.10566000000E+00  0.10566000000E+00 0.  1.
     999900   -1    0    0    0    0 -0.00000000000E+00 -0.00000000000E+00 -0.74505805969E-08  0.93827000000E+00  0.93827000000E+00 0.  1.
     999902    2    1    2    0    0 -0.19580671439E-01 -0.11901680237E-01 -0.32414123971E-02  0.10207878428E+01  0.10205254825E+01 0.  0.
     999903    2    3    3    0    0 -0.34621326264E-03 -0.12574520573E+00  0.35334388827E-01  0.13240819133E+00  0.21712518678E-01 0.  0.
         14    1    1    2    0    0  0.19580671439E-01  0.11901680237E-01  0.32414123971E-02  0.23142157220E-01  0.00000000000E+00 0.  1.
     999901    1    3    3    0    0 -0.19234458177E-01  0.11384352550E+00 -0.38575801225E-01  0.88837965145E+00  0.88000000000E+00 0. -1.
        -11    1    4    4    0    0  0.57343686379E-02 -0.50011687548E-01  0.49708851580E-02  0.50586783801E-01  0.51100000000E-03 0.  1.
         11    1    4    4    0    0 -0.60805819005E-02 -0.75733518187E-01  0.30363503669E-01  0.81821407524E-01  0.51100000000E-03 0. -1.
</event>
<event>
 8    1  0.1092993E+005  0.1043930E+01  0.7957747E-01            NaN
         13   -1    0    0    0    0  0.00000000000E+00  0.00000000000E+00  0.74505805969E-08  0.10566000000E+00  0.10566000000E+00 0.  1.
     999900   -1    0    0    0    0 -0.00000000000E+00 -0.00000000000E+00 -0.74505805969E-08  0.93827000000E+00  0.93827000000E+00 0. -1.
     999902    2    1    2    0    0  0.83706142397E-02 -0.19943458908E-01 -0.58334023913E-02  0.10215282742E+01  0.10212826140E+01 0.  0.
     999903    2    3    3    0    0  0.93262406662E-01 -0.91126999087E-01 -0.26299376118E-01  0.13434589784E+00  0.18845599600E-01 0.  0.
         14    1    1    2    0    0 -0.83706142397E-02  0.19943458908E-01  0.58334023913E-02  0.22401725813E-01  0.00000000000E+00 0.  1.
     999901    1    3    3    0    0 -0.84891792422E-01  0.71183540179E-01  0.20465973727E-01  0.88718237634E+00  0.88000000000E+00 0. -1.
        -11    1    4    4    0    0  0.30619409318E-01 -0.18354222570E-01 -0.82095948881E-02  0.36634468501E-01  0.51100000000E-03 0. -1.
         11    1    4    4    0    0  0.62642997344E-01 -0.72772776517E-01 -0.18089781230E-01  0.97711429343E-01  0.51100000000E-03 0.  1.
</event>
<event>
 8    1  0.1092993E+005  0.1043930E+01  0.7957747E-01            NaN
         13   -1    0    0    0    0  0.00000000000E+00  0.00000000000E+00  0.74505805969E-08  0.10566000000E+00  0.10566000000E+00 0.  1.
     999900   -1    0    0    0    0 -0.00000000000E+00 -0.00000000000E+00 -0.74505805969E-08  0.93827000000E+00  0.93827000000E+00 0.  1.
     999902    2    1    2    0    0  0.17320099023E-01  0.53199965849E-02 -0.15537546626E-01  0.10200615365E+01  0.10197822487E+01 0.  0.
     999903    2    3    3    0    0 -0.32468076882E-01  0.51118395421E-01 -0.11540240701E+00  0.13183333041E+00  0.19875741369E-01 0.  0.
         14    1    1    2    0    0 -0.17320099023E-01 -0.53199965849E-02  0.15537546626E-01  0.23868463481E-01  0.00000000000E+00 0.  1.
     999901    1    3    3    0    0  0.49788175904E-01 -0.45798398836E-01  0.99864860385E-01  0.88822820611E+00  0.88000000000E+00 0. -1.
        -11    1    4    4    0    0 -0.25535633144E-01  0.28068239410E-01 -0.84732766873E-01  0.92842864705E-01  0.51100000000E-03 0.  1.
         11    1    4    4    0    0 -0.69324437376E-02  0.23050156012E-01 -0.30669640137E-01  0.38990465700E-01  0.51100000000E-03 0. -1.
</event>
<event>
 8    1  0.1092993E+005  0.1043930E+01  0.7957747E-01            NaN
         13   -1    0    0    0    0  0.00000000000E+00  0.00000000000E+00  0.74505805969E-08  0.10566000000E+00  0.10566000000E+00 0. -1.
     999900   -1    0    0    0    0 -0.00000000000E+00 -0.00000000000E+00 -0.74505805969E-08  0.93827000000E+00  0.93827000000E+00 0. -1.
     999902    2    1    2    0    0  0.12259317042E-01  0.39753780447E-02 -0.18285503660E-01  0.10215591679E+01  0.10213141923E+01 0.  0.
     999903    2    3    3    0    0 -0.66234272020E-01  0.82670577939E-01 -0.76957775753E-01  0.13262912930E+00  0.21132520969E-01 0.  0.
         14    1    1    2    0    0 -0.12259317042E-01 -0.39753780447E-02  0.18285503660E-01  0.22370832104E-01  0.00000000000E+00 0. -1.
     999901    1    3    3    0    0  0.78493589062E-01 -0.78695199894E-01  0.58672272093E-01  0.88893003860E+00  0.88000000000E+00 0. -1.
        -11    1    4    4    0    0 -0.54356048066E-01  0.60943047787E-01 -0.68077241889E-01  0.10631748219E+00  0.51100000000E-03 0.  1.
         11    1    4    4    0    0 -0.11878223955E-01  0.21727530152E-01 -0.88805338640E-02  0.26311647108E-01  0.51100000000E-03 0. -1.
</event>
<event>
 8    1  0.1092993E+005  0.1043930E+01  0.7957747E-01            NaN
         13   -1    0    0    0    0  0.00000000000E+00  0.00000000000E+00  0.74505805969E-08  0.10566000000E+00  0.10566000000E+00 0. -1.
     999900   -1    0    0    0    0 -0.00000000000E+00 -0.00000000000E+00 -0.74505805969E-08  0.93827000000E+00  0.93827000000E+00 0.  1.
     999902    2    1    2    0    0  0.15102611467E-01  0.12125349977E-01 -0.13434451436E-01  0.10203588848E+01  0.10200865926E+01 0.  0.
     999903    2    3    3    0    0 -0.88796008330E-01  0.93309792193E-01 -0.17107946622E-01  0.13052781579E+00  0.12384685822E-01 0.  0.
         14    1    1    2    0    0 -0.15102611467E-01 -0.12125349977E-01  0.13434451436E-01  0.23571115175E-01  0.00000000000E+00 0. -1.
     999901    1    3    3    0    0  0.10389861980E+00 -0.81184442216E-01  0.36734951861E-02  0.88983106904E+00  0.88000000000E+00 0. -1.
        -11    1    4    4    0    0 -0.34523956345E-01  0.27856535357E-01 -0.51168167861E-02  0.44657956277E-01  0.51100000000E-03 0.  1.
         11    1    4    4    0    0 -0.54272051985E-01  0.65453256836E-01 -0.11991129836E-01  0.85869859513E-01  0.51100000000E-03 0. -1.
</event>
<event>
 8    1  0.1092993E+005  0.1043930E+01  0.7957747E-01            NaN
         13   -1    0    0    0    0  0.00000000000E+00  0.00000000000E+00  0.74505805969E-08  0.10566000000E+00  0.10566000000E+00 0. -1.
     999900   -1    0    0    0    0 -0.00000000000E+00 -0.00000000000E+00 -0.74505805969E-08  0.93827000000E+00  0.93827000000E+00 0. -1.
     999902    2    1    2    0    0  0.85122511658E-02 -0.57814935018E-02  0.20425151293E-01  0.10210592568E+01  0.10208030834E+01 0.  0.
     999903    2    3    3    0    0 -0.11906586718E+00 -0.48519289690E-01  0.13671661940E-01  0.13080743566E+00  0.19820915345E-01 0.  0.
         14    1    1    2    0    0 -0.85122511658E-02  0.57814935018E-02 -0.20425151293E-01  0.22870743153E-01  0.00000000000E+00 0. -1.
     999901    1    3    3    0    0  0.12757811835E+00  0.42737796188E-01  0.67534893534E-02  0.89025182118E+00  0.88000000000E+00 0. -1.
        -11    1    4    4    0    0 -0.20666626082E-01 -0.24340708975E-02 -0.24527086680E-02  0.20959747985E-01  0.51100000000E-03 0.  1.
         11    1    4    4    0    0 -0.98399241097E-01 -0.46085218793E-01  0.16124370608E-01  0.10984768768E+00  0.51100000000E-03 0. -1.
</event>
<event>
 8    1  0.1092993E+005  0.1043930E+01  0.7957747E-01            NaN
         13   -1    0    0    0    0  0.00000000000E+00  0.00000000000E+00  0.74505805969E-08  0.10566000000E+00  0.10566000000E+00 0.  1.
     999900   -1    0    0    0    0 -0.00000000000E+00 -0.00000000000E+00 -0.74505805969E-08  0.93827000000E+00  0.93827000000E+00 0. -1.
     999902    2    1    2    0    0  0.18522487961E-01  0.64960412763E-02  0.13474355878E-01  0.10201216112E+01  0.10198437440E+01 0.  0.
     999903    2    3    3    0    0 -0.23218244637E-01  0.11541844522E+00  0.54888444086E-01  0.13145884862E+00  0.20203544384E-01 0.  0.
         14    1    1    2    0    0 -0.18522487961E-01 -0.64960412763E-02 -0.13474355878E-01  0.23808388834E-01  0.00000000000E+00 0.  1.
     999901    1    3    3    0    0  0.41740732597E-01 -0.10892240394E+00 -0.41414088208E-01  0.88866276255E+00  0.88000000000E+00 0. -1.
        -11    1    4    4    0    0 -0.51848998294E-02  0.74694700260E-01  0.35941747212E-01  0.83055714715E-01  0.51100000000E-03 0.  1.
         11    1    4    4    0    0 -0.18033344807E-01  0.40723744956E-01  0.18946696874E-01  0.48403133903E-01  0.51100000000E-03 0. -1.
</event>
<event>
 8    1  0.1092993E+005  0.1043930E+01  0.7957747E-01            NaN
         13   -1    0    0    0    0  0.00000000000E+00  0.00000000000E+00  0.74505805969E-08  0.10566000000E+00  0.10566000000E+00 0.  1.
     999900   -1    0    0    0    0 -0.00000000000E+00 -0.00000000000E+00 -0.74505805969E-08  0.93827000000E+00  0.93827000000E+00 0.  1.
     999902    2    1    2    0    0 -0.36371480367E-02  0.20710091701E-01 -0.10463813435E-01  0.10204432349E+01  0.10201729106E+01 0.  0.
     999903    2    3    3    0    0  0.88059122895E-01 -0.41749723703E-01  0.81606692697E-01  0.12871098093E+00  0.20234024911E-01 0.  0.
         14    1    1    2    0    0  0.36371480367E-02 -0.20710091701E-01  0.10463813435E-01  0.23486765118E-01  0.00000000000E+00 0. -1.
     999901    1    3    3    0    0 -0.91696270932E-01  0.62459815403E-01 -0.92070506133E-01  0.89173225395E+00  0.88000000000E+00 0.  1.
        -11    1    4    4    0    0  0.55452845258E-01 -0.15281472901E-01  0.48113324716E-01  0.74991296811E-01  0.51100000000E-03 0.  1.
         11    1    4    4    0    0  0.32606277638E-01 -0.26468250801E-01  0.33493367981E-01  0.53719684117E-01  0.51100000000E-03 0. -1.
</event>
<event>
 8    1  0.1092993E+005  0.1043930E+01  0.7957747E-01            NaN
         13   -1    0    0    0    0  0.00000000000E+00  0.00000000000E+00  0.74505805969E-08  0.10566000000E+00  0.10566000000E+00 0. -1.
     999900   -1    0    0    0    0 -0.00000000000E+00 -0.00000000000E+00 -0.74505805969E-08  0.93827000000E+00  0.93827000000E+00 0.  1.
     999902    2    1    2    0    0  0.17932339370E-01 -0.27578554242E-02 -0.15231899437E-01  0.10202406496E+01  0.10199655866E+01 0.  0.
     999903    2    3    3    0    0 -0.92604071760E-01 -0.81068327162E-01 -0.32490542899E-01  0.12970783777E+00  0.24917865611E-01 0.  0.
         14    1    1    2    0    0 -0.17932339370E-01  0.27578554242E-02  0.15231899437E-01  0.23689350398E-01  0.00000000000E+00 0. -1.
     999901    1    3    3    0    0  0.11053641113E+00  0.78310471738E-01  0.17258643462E-01  0.89053281183E+00  0.88000000000E+00 0. -1.
        -11    1    4    4    0    0 -0.20428727526E-01 -0.58510362534E-02 -0.71468645450E-02  0.22425573068E-01  0.51100000000E-03 0.  1.
         11    1    4    4    0    0 -0.72175344233E-01 -0.75217290909E-01 -0.25343678354E-01  0.10728226471E+00  0.51100000000E-03 0. -1.
</event>
<event>
 8    1  0.1092993E+005  0.1043930E+01  0.7957747E-01            NaN
         13   -1    0    0    0    0  0.00000000000E+00  0.00000000000E+00  0.74505805969E-08  0.10566000000E+00  0.10566000000E+00 0. -1.
     999900   -1    0    0    0    0 -0.00000000000E+00 -0.00000000000E+00 -0.74505805969E-08  0.93827000000E+00  0.93827000000E+00 0.  1.
     999902    2    1    2    0    0  0.95980579425E-02 -0.91774733785E-02 -0.19305886611E-01  0.10204978428E+01  0.10202287886E+01 0.  0.
     999903    2    3    3    0    0  0.80845106187E-01  0.99341905742E-01 -0.18556969298E-01  0.13097372372E+00  0.20124854382E-01 0.  0.
         14    1    1    2    0    0 -0.95980579425E-02  0.91774733785E-02  0.19305886611E-01  0.23432157214E-01  0.00000000000E+00 0. -1.
     999901    1    3    3    0    0 -0.71247048244E-01 -0.10851937912E+00 -0.74891731366E-03  0.88952411907E+00  0.88000000000E+00 0.  1.
        -11    1    4    4    0    0  0.60340109011E-01  0.83335592588E-01 -0.90973598634E-02  0.10328975179E+00  0.51100000000E-03 0.  1.
         11    1    4    4    0    0  0.20504997175E-01  0.16006313154E-01 -0.94596094341E-02  0.27683971926E-01  0.51100000000E-03 0. -1.
</event>
<event>
 8    1  0.1092993E+005  0.1043930E+01  0.7957747E-01            NaN
         13   -1    0    0    0    0  0.00000000000E+00  0.00000000000E+00  0.74505805969E-08  0.10566000000E+00  0.10566000000E+00 0. -1.
     999900   -1    0    0    0    0 -0.00000000000E+00 -0.00000000000E+00 -0.74505805969E-08  0.93827000000E+00  0.93827000000E+00 0. -1.
     999902    2    1    2    0    0  0.53110364525E-02 -0.10827308355E-01 -0.17562286709E-01  0.10226257368E+01  0.10224037979E+01 0.  0.
     999903    2    3    3    0    0  0.71451288297E-04 -0.75303070445E-01 -0.11081053843E+00  0.13533783903E+00  0.19151963901E-01 0.  0.
         14    1    1    2    0    0 -0.53110364525E-02  0.10827308355E-01  0.17562286709E-01  0.21304263162E-01  0.00000000000E+00 0. -1.
     999901    1    3    3    0    0  0.52395851642E-02  0.64475762090E-01  0.93248251724E-01  0.88728789781E+00  0.88000000000E+00 0.  1.
        -11    1    4    4    0    0  0.34204248214E-02 -0.46436752254E-01 -0.52432864908E-01  0.70125157464E-01  0.51100000000E-03 0. -1.
         11    1    4    4    0    0 -0.33489735331E-02 -0.28866318191E-01 -0.58377673525E-01  0.65212681565E-01  0.51100000000E-03 0.  1.
</event>
<event>
 8    1  0.1092993E+005  0.1043930E+01  0.7957747E-01            NaN
         13   -1    0    0    0    0  0.00000000000E+00  0.00000000000E+00  0.74505805969E-08  0.10566000000E+00  0.10566000000E+00 0. -1.
     999900   -1    0    0    0    0 -0.00000000000E+00 -0.00000000000E+00 -0.74505805969E-08  0.93827000000E+00  0.93827000000E+00 0. -1.
     999902    2    1    2    0    0 -0.21610247559E-01  0.99754114706E-02 -0.52002980117E-02  0.10195670213E+01  0.10192758979E+01 0.  0.
     999903    2    3    3    0    0  0.46678116548E-01  0.41945853303E-01  0.11062926694E+00  0.12877978632E+00  0.20176656971E-01 0.  0.
         14    1    1    2    0    0  0.21610247559E-01 -0.99754114706E-02  0.52002980117E-02  0.24362978737E-01  0.00000000000E+00 0. -1.
     999901    1    3    3    0    0 -0.68288364107E-01 -0.31970441832E-01 -0.11582956495E+00  0.89078723494E+00  0.88000000000E+00 0. -1.
        -11    1    4    4    0    0  0.27581768887E-01  0.15753296145E-01  0.40115188483E-01  0.51170399474E-01  0.51100000000E-03 0. -1.
         11    1    4    4    0    0  0.19096347661E-01  0.26192557158E-01  0.70514078458E-01  0.77609386843E-01  0.51100000000E-03 0.  1.
</event>
<event>
 8    1  0.1092993E+005  0.1043930E+01  0.7957747E-01            NaN
         13   -1    0    0    0    0  0.00000000000E+00  0.00000000000E+00  0.74505805969E-08  0.10566000000E+00  0.10566000000E+00 0.  1.
     999900   -1    0    0    0    0 -0.00000000000E+00 -0.00000000000E+00 -0.74505805969E-08  0.93827000000E+00  0.93827000000E+00 0.  1.
     999902    2    1    2    0    0  0.27337759009E-02 -0.13731572879E-01  0.19866083245E-01  0.10196258669E+01  0.10193361651E+01 0.  0.
     999903    2    3    3    0    0 -0.65677034727E-01 -0.52995570809E-02 -0.10756081099E+00  0.12778016760E+00  0.20417761294E-01 0.  0.
         14    1    1    2    0    0 -0.27337759009E-02  0.13731572879E-01 -0.19866083245E-01  0.24304133144E-01  0.00000000000E+00 0. -1.
     999901    1    3    3    0    0  0.68410810628E-01 -0.84320157976E-02  0.12742689423E+00  0.89184569925E+00  0.88000000000E+00 0.  1.
        -11    1    4    4    0    0 -0.42106368137E-01  0.64673663908E-02 -0.68238552710E-01  0.80445846771E-01  0.51100000000E-03 0.  1.
         11    1    4    4    0    0 -0.23570666590E-01 -0.11766923472E-01 -0.39322258279E-01  0.47334320832E-01  0.51100000000E-03 0. -1.
</event>
<event>
 8    1  0.1092993E+005  0.1043930E+01  0.7957747E-01            NaN
         13   -1    0    0    0    0  0.00000000000E+00  0.00000000000E+00  0.74505805969E-08  0.10566000000E+00  0.10566000000E+00 0.  1.
     999900   -1    0    0    0    0 -0.00000000000E+00 -0.00000000000E+00 -0.74505805969E-08  0.93827000000E+00  0.93827000000E+00 0.  1.
     999902    2    1    2    0    0  0.10904629993E-02 -0.10015175994E-01 -0.21450900294E-01  0.10202311818E+01  0.10199558963E+01 0.  0.
     999903    2    3    3    0    0 -0.12394522877E+00  0.30308990164E-01 -0.18496996008E-01  0.13047352485E+00  0.20003679801E-01 0.  0.
         14    1    1    2    0    0 -0.10904629993E-02  0.10015175994E-01  0.21450900294E-01  0.23698818181E-01  0.00000000000E+00 0.  1.
     999901    1    3    3    0    0  0.12503569177E+00 -0.40324166158E-01 -0.29539042864E-02  0.88975765697E+00  0.88000000000E+00 0. -1.
        -11    1    4    4    0    0 -0.63281287516E-01  0.54127389955E-02 -0.11176818120E-01  0.64490320804E-01  0.51100000000E-03 0. -1.
         11    1    4    4    0    0 -0.60663941252E-01  0.24896251168E-01 -0.73201778872E-02  0.65983204043E-01  0.51100000000E-03 0.  1.
</event>
<event>
 8    1  0.1092993E+005  0.1043930E+01  0.7957747E-01            NaN
         13   -1    0    0    0    0  0.00000000000E+00  0.00000000000E+00  0.74505805969E-08  0.10566000000E+00  0.10566000000E+00 0. -1.
     999900   -1    0    0    0    0 -0.00000000000E+00 -0.00000000000E+00 -0.74505805969E-08  0.93827000000E+00  0.93827000000E+00 0. -1.
     999902    2    1    2    0    0 -0.20789758995E-02 -0.82108465869E-02  0.21073822061E-01  0.10212177540E+01  0.10209651585E+01 0.  0.
     999903    2    3    3    0    0  0.16743609486E-01  0.10647671216E+00 -0.68633109388E-01  0.12905473111E+00  0.18082622205E-01 0.  0.
         14    1    1    2    0    0  0.20789758995E-02  0.82108465869E-02 -0.21073822061E-01  0.22712246008E-01  0.00000000000E+00 0.  1.
     999901    1    3    3    0    0 -0.18822585385E-01 -0.11468755875E+00  0.89706931450E-01  0.89216302288E+00  0.88000000000E+00 0.  1.
        -11    1    4    4    0    0  0.13378317302E-01  0.31388540845E-01 -0.21099772476E-01  0.40120834858E-01  0.51100000000E-03 0. -1.
         11    1    4    4    0    0  0.33652921834E-02  0.75088171316E-01 -0.47533336913E-01  0.88933896249E-01  0.51100000000E-03 0.  1.
</event>
<event>
 8    1  0.1092993E+005  0.1043930E+01  0.7957747E-01            NaN
         13   -1    0    0    0    0  0.00000000000E+00  0.00000000000E+00  0.74505805969E-08  0.10566000000E+00  0.10566000000E+00 0. -1.
     999900   -1    0    0    0    0 -0.00000000000E+00 -0.00000000000E+00 -0.74505805969E-08  0.93827000000E+00  0.93827000000E+00 0. -1.
     999902    2    1    2    0    0 -0.14329593477E-01 -0.49615126525E-02 -0.19039642430E-01  0.10195894610E+01  0.10192988801E+01 0.  0.
     999903    2    3    3    0    0  0.19253129995E-01 -0.10058584715E+00 -0.80143356070E-01  0.13166746186E+00  0.20619586039E-01 0.  0.
         14    1    1    2    0    0  0.14329593477E-01  0.49615126525E-02  0.19039642430E-01  0.24340539043E-01  0.00000000000E+00 0. -1.
     999901    1    3    3    0    0 -0.33582723472E-01  0.95624334498E-01  0.61103713639E-01  0.88792199910E+00  0.88000000000E+00 0.  1.
        -11    1    4    4    0    0  0.39636114565E-03 -0.12526644994E-01 -0.19176374486E-01  0.22914370958E-01  0.51100000000E-03 0. -1.
         11    1    4    4    0    0  0.18856768849E-01 -0.88059202157E-01 -0.60966981584E-01  0.10875309090E+00  0.51100000000E-03 0.  1.
</event>
<event>
 8    1  0.1092993E+005  0.1043930E+01  0.7957747E-01            NaN
         13   -1    0    0    0    0  0.00000000000E+00  0.00000000000E+00  0.74505805969E-08  0.10566000000E+00  0.10566000000E+00 0.  1.
     999900   -1    0    0    0    0 -0.00000000000E+00 -0.00000000000E+00 -0.74505805969E-08  0.93827000000E+00  0.93827000000E+00 0. -1.
     999902    2    1    2    0    0  0.29540146381E-02  0.23658248471E-01  0.42425453253E-02  0.10197135157E+01  0.10194259247E+01 0.  0.
     999903    2    3    3    0    0 -0.10824097176E+00 -0.16106895771E-01 -0.65274091351E-01  0.12910801687E+00  0.20799830733E-01 0.  0.
         14    1    1    2    0    0 -0.29540146381E-02 -0.23658248471E-01 -0.42425453253E-02  0.24216484345E-01  0.00000000000E+00 0. -1.
     999901    1    3    3    0    0  0.11119498640E+00  0.39765144242E-01  0.69516636676E-01  0.89060549879E+00  0.88000000000E+00 0.  1.
        -11    1    4    4    0    0 -0.55505541055E-01 -0.13077678492E-02 -0.23830578877E-01  0.60421295544E-01  0.51100000000E-03 0.  1.
         11    1    4    4    0    0 -0.52735430706E-01 -0.14799127921E-01 -0.41443512474E-01  0.68686721323E-01  0.51100000000E-03 0. -1.
</event>
<event>
 8    1  0.1092993E+005  0.1043930E+01  0.7957747E-01            NaN
         13   -1    0    0    0    0  0.00000000000E+00  0.00000000000E+00  0.74505805969E-08  0.10566000000E+00  0.10566000000E+00 0. -1.
     999900   -1    0    0    0    0 -0.00000000000E+00 -0.00000000000E+00 -0.74505805969E-08  0.93827000000E+00  0.93827000000E+00 0. -1.
     999902    2    1    2    0    0 -0.22603457833E-01 -0.10282939591E-02  0.32457347595E-02  0.10210715554E+01  0.10208156605E+01 0.  0.
     999903    2    3    3    0    0  0.22416748989E-02 -0.12911758061E+00  0.14919115159E-01  0.13137474539E+00  0.18983387445E-01 0.  0.
         14    1    1    2    0    0  0.22603457833E-01  0.10282939591E-02 -0.32457347595E-02  0.22858444579E-01  0.00000000000E+00 0.  1.
     999901    1    3    3    0    0 -0.24845132732E-01  0.12808928665E+00 -0.11673380399E-01  0.88969681003E+00  0.88000000000E+00 0. -1.
        -11    1    4    4    0    0  0.72809197833E-02 -0.11851930060E+00  0.12706524424E-01  0.11942174547E+00  0.51100000000E-03 0.  1.
         11    1    4    4    0    0 -0.50392448843E-02 -0.10598280016E-01  0.22125907348E-02  0.11952999919E-01  0.51100000000E-03 0. -1.
</event>
<event>
 8    1  0.1092993E+005  0.1043930E+01  0.7957747E-01            NaN
         13   -1    0    0    0    0  0.00000000000E+00  0.00000000000E+00  0.74505805969E-08  0.10566000000E+00  0.10566000000E+00 0.  1.
     999900   -1    0    0    0    0 -0.00000000000E+00 -0.00000000000E+00 -0.74505805969E-08  0.93827000000E+00  0.93827000000E+00 0. -1.
     999902    2    1    2    0    0  0.27730160339E-02  0.15894322023E-01 -0.16664214489E-01  0.10207348467E+01  0.10204712697E+01 0.  0.
     999903    2    3    3    0    0  0.75206732022E-01  0.55746523550E-02 -0.10781885123E+00  0.13300611193E+00  0.19457436666E-01 0.  0.
         14    1    1    2    0    0 -0.27730160339E-02 -0.15894322023E-01  0.16664214489E-01  0.23195153266E-01  0.00000000000E+00 0.  1.
     999901    1    3    3    0    0 -0.72433715988E-01  0.10319669668E-01  0.91154636736E-01  0.88772873480E+00  0.88000000000E+00 0. -1.
        -11    1    4    4    0    0  0.16614317171E-01  0.79567953262E-02 -0.18164596629E-01  0.25875853969E-01  0.51100000000E-03 0. -1.
         11    1    4    4    0    0  0.58592414851E-01 -0.23821429711E-02 -0.89654254596E-01  0.10713025796E+00  0.51100000000E-03 0.  1.
</event>
<event>
 8    1  0.1092993E+005  0.1043930E+01  0.7957747E-01            NaN
         13   -1    0    0    0    0  0.00000000000E+00  0.00000000000E+00  0.74505805969E-08  0.10566000000E+00  0.10566000000E+00 0. -1.
     999900   -1    0    0    0    0 -0.00000000000E+00 -0.00000000000E+00 -0.74505805969E-08  0.93827000000E+00  0.93827000000E+00 0. -1.
     999902    2    1    2    0    0 -0.12070599651E-01  0.78869067620E-02 -0.19112436440E-01  0.10199886571E+01  0.10197076408E+01 0.  0.
     999903    2    3    3    0    0  0.67112418645E-01  0.15083495233E-02  0.10650867095E+00  0.12752504493E+00  0.20302419651E-01 0.  0.
         14    1    1    2    0    0  0.12070599651E-01 -0.78869067620E-02  0.19112436440E-01  0.23941342921E-01  0.00000000000E+00 0. -1.
     999901    1    3    3    0    0 -0.79183018297E-01  0.63785572387E-02 -0.12562110739E+00  0.89246361214E+00  0.88000000000E+00 0. -1.
        -11    1    4    4    0    0  0.28723308119E-01 -0.82412592597E-02  0.37461223162E-01  0.47922344948E-01  0.51100000000E-03 0.  1.
         11    1    4    4    0    0  0.38389110527E-01  0.97496087831E-02  0.69047447786E-01  0.79602699987E-01  0.51100000000E-03 0. -1.
</event>
<event>
 8    1  0.1092993E+005  0.1043930E+01  0.7957747E-01            NaN
         13   -1    0    0    0    0  0.00000000000E+00  0.00000000000E+00  0.74505805969E-08  0.10566000000E+00  0.10566000000E+00 0. -1.
     999900   -1    0    0    0    0 -0.00000000000E+00 -0.00000000000E+00 -0.74505805969E-08  0.93827000000E+00  0.93827000000E+00 0.  1.
     999902    2    1    2    0    0 -0.18339760081E-01 -0.13194545860E-01 -0.87157782000E-02  0.10197141451E+01  0.10194265692E+01 0.  0.
     999903    2    3    3    0    0  0.90967374719E-01  0.56974401833E-01 -0.67493830848E-01  0.12823975373E+00  0.19206027892E-01 0.  0.
         14    1    1    2    0    0  0.18339760081E-01  0.13194545860E-01  0.87157782000E-02  0.24215854929E-01  0.00000000000E+00 0.  1.
     999901    1    3    3    0    0 -0.10930713480E+00 -0.70168947693E-01  0.58778052648E-01  0.89147439134E+00  0.88000000000E+00 0. -1.
        -11    1    4    4    0    0  0.10432153223E-01  0.26458813398E-03 -0.80867941395E-02  0.13212009242E-01  0.51100000000E-03 0. -1.
         11    1    4    4    0    0  0.80535221496E-01  0.56709813699E-01 -0.59407036709E-01  0.11502774449E+00  0.51100000000E-03 0.  1.
</event>
<event>
 8    1  0.1092993E+005  0.1043930E+01  0.7957747E-01            NaN
         13   -1    0    0    0    0  0.00000000000E+00  0.00000000000E+00  0.74505805969E-08  0.10566000000E+00  0.10566000000E+00 0. -1.
     999900   -1    0    0    0    0 -0.00000000000E+00 -0.00000000000E+00 -0.74505805969E-08  0.93827000000E+00  0.93827000000E+00 0.  1.
     999902    2    1    2    0    0  0.14920778796E-01  0.14495494004E-01 -0.86161853594E-02  0.10214136140E+01  0.10211654045E+01 0.  0.
     999903    2    3    3    0    0  0.20097663117E-01  0.69151064482E-01 -0.11095610307E+00  0.13378334740E+00  0.20023522430E-01 0.  0.
         14    1    1    2    0    0 -0.14920778796E-01 -0.14495494004E-01  0.86161853594E-02  0.22516385954E-01  0.00000000000E+00 0. -1.
     999901    1    3    3    0    0 -0.51768843210E-02 -0.54655570478E-01  0.10233991771E+00  0.88763026665E+00  0.88000000000E+00 0. -1.
        -11    1    4    4    0    0  0.21307711015E-01  0.46434386347E-01 -0.85821705941E-01  0.99878912267E-01  0.51100000000E-03 0.  1.
         11    1    4    4    0    0 -0.12100478979E-02  0.22716678135E-01 -0.25134397129E-01  0.33904435129E-01  0.51100000000E-03 0. -1.
</event>
<event>
 8    1  0.1092993E+005  0.1043930E+01  0.7957747E-01            NaN
         13   -1    0    0    0    0  0.00000000000E+00  0.00000000000E+00  0.74505805969E-08  0.10566000000E+00  0.10566000000E+00 0.  1.
     999900   -1    0    0    0    0 -0.00000000000E+00 -0.00000000000E+00 -0.74505805969E-08  0.93827000000E+00  0.93827000000E+00 0. -1.
     999902    2    1    2    0    0  0.55687665616E-02  0.22622255056E-01 -0.38598162043E-02  0.10203148403E+01  0.10200415176E+01 0.  0.
     999903    2    3    3    0    0  0.12047527929E+00 -0.28262557857E-01  0.35488904142E-01  0.13051649653E+00  0.21494847085E-01 0.  0.
         14    1    1    2    0    0 -0.55687665616E-02 -0.22622255056E-01  0.38598162043E-02  0.23615159665E-01  0.00000000000E+00 0. -1.
     999901    1    3    3    0    0 -0.11490651273E+00  0.50884812914E-01 -0.39348720347E-01  0.88979834381E+00  0.88000000000E+00 0. -1.
        -11    1    4    4    0    0  0.41146635049E-01 -0.18729333852E-01  0.73490691796E-02  0.45805059341E-01  0.51100000000E-03 0.  1.
         11    1    4    4    0    0  0.79328644242E-01 -0.95332240055E-02  0.28139834963E-01  0.84711437185E-01  0.51100000000E-03 0. -1.
</event>
<event>
 8    1  0.1092993E+005  0.1043930E+01  0.7957747E-01            NaN
         13   -1    0    0    0    0  0.00000000000E+00  0.00000000000E+00  0.74505805969E-08  0.10566000000E+00  0.10566000000E+00 0.  1.
     999900   -1    0    0    0    0 -0.00000000000E+00 -0.00000000000E+00 -0.74505805969E-08  0.93827000000E+00  0.93827000000E+00 0. -1.
     999902    2    1    2    0    0  0.19475502124E-01  0.34804745028E-02 -0.71722484001E-02  0.10228859977E+01  0.10226695039E+01 0.  0.
     999903    2    3    3    0    0 -0.12167213958E+00 -0.42172456392E-01  0.21190613137E-02  0.13042133437E+00  0.20557441729E-01 0.  0.
         14    1    1    2    0    0 -0.19475502124E-01 -0.34804745028E-02  0.71722484001E-02  0.21044002301E-01  0.00000000000E+00 0. -1.
     999901    1    3    3    0    0  0.14114764170E+00  0.45652930895E-01 -0.92913097138E-02  0.89246466333E+00  0.88000000000E+00 0.  1.
        -11    1    4    4    0    0 -0.78930116264E-01 -0.17151083936E-01 -0.11727013781E-02  0.80782171815E-01  0.51100000000E-03 0. -1.
         11    1    4    4    0    0 -0.42742023313E-01 -0.25021372456E-01  0.32917626918E-02  0.49639162554E-01  0.51100000000E-03 0.  1.
</event>
<event>
 8    1  0.1092993E+005  0.1043930E+01  0.7957747E-01            NaN
         13   -1    0    0    0    0  0.00000000000E+00  0.00000000000E+00  0.74505805969E-08  0.10566000000E+00  0.10566000000E+00 0. -1.
     999900   -1    0    0    0    0 -0.00000000000E+00 -0.00000000000E+00 -0.74505805969E-08  0.93827000000E+00  0.93827000000E+00 0.  1.
     999902    2    1    2    0    0  0.18234230688E-01 -0.98425265756E-02  0.12728588589E-01  0.10196117051E+01  0.10193216616E+01 0.  0.
     999903    2    3    3    0    0 -0.22370319163E-01  0.95793506529E-01  0.82031543680E-01  0.12966193096E+00  0.20154778790E-01 0.  0.
         14    1    1    2    0    0 -0.18234230688E-01  0.98425265756E-02 -0.12728588589E-01  0.24318294875E-01  0.00000000000E+00 0. -1.
     999901    1    3    3    0    0  0.40604549850E-01 -0.10563603310E+00 -0.69302955091E-01  0.88994977417E+00  0.88000000000E+00 0.  1.
        -11    1    4    4    0    0 -0.75382853265E-03  0.86620387688E-02  0.10746147888E-02  0.87758242367E-02  0.51100000000E-03 0.  1.
         11    1    4    4    0    0 -0.21616490630E-01  0.87131467760E-01  0.80956928891E-01  0.12088610672E+00  0.51100000000E-03 0. -1.
</event>
<event>
 8    1  0.1092993E+005  0.1043930E+01  0.7957747E-01            NaN
         13   -1    0    0    0    0  0.00000000000E+00  0.00000000000E+00  0.74505805969E-08  0.10566000000E+00  0.10566000000E+00 0. -1.
     999900   -1    0    0    0    0 -0.00000000000E+00 -0.00000000000E+00 -0.74505805969E-08  0.93827000000E+00  0.93827000000E+00 0.  1.
     999902    2    1    2    0    0  0.63550904152E-02 -0.19105671622E-01  0.13955296072E-01  0.10194317521E+01  0.10191373475E+01 0.  0.
     999903    2    3    3    0    0 -0.10184424213E+00  0.60068939879E-01  0.46598338255E-01  0.12867854111E+00  0.20155262855E-01 0.  0.
         14    1    1    2    0    0 -0.63550904152E-02  0.19105671622E-01 -0.13955296072E-01  0.24498247912E-01  0.00000000000E+00 0. -1.
     999901    1    3    3    0    0  0.10819933254E+00 -0.79174611501E-01 -0.32643042183E-01  0.89075321098E+00  0.88000000000E+00 0.  1.
        -11    1    4    4    0    0 -0.49232159085E-01  0.19232922327E-01  0.26378832094E-01  0.59074653558E-01  0.51100000000E-03 0.  1.
         11    1    4    4    0    0 -0.52612083042E-01  0.40836017552E-01  0.20219506161E-01  0.69603887549E-01  0.51100000000E-03 0. -1.
</event>
<event>
 8    1  0.1092993E+005  0.1043930E+01  0.7957747E-01            NaN
         13   -1    0    0    0    0  0.00000000000E+00  0.00000000000E+00  0.74505805969E-08  0.10566000000E+00  0.10566000000E+00 0.  1.
     999900   -1    0    0    0    0 -0.00000000000E+00 -0.00000000000E+00 -0.74505805969E-08  0.93827000000E+00  0.93827000000E+00 0. -1.
     999902    2    1    2    0    0 -0.11639660624E-01  0.77721665469E-02  0.18887046645E-01  0.10204223671E+01  0.10201515566E+01 0.  0.
     999903    2    3    3    0    0 -0.36114421420E-02 -0.53076822878E-01 -0.11488747994E+00  0.12819892215E+00  0.20140480465E-01 0.  0.
         14    1    1    2    0    0  0.11639660624E-01 -0.77721665469E-02 -0.18887046645E-01  0.23507632872E-01  0.00000000000E+00 0. -1.
     999901    1    3    3    0    0 -0.80282184819E-02  0.60848989425E-01  0.13377452658E+00  0.89222344498E+00  0.88000000000E+00 0.  1.
        -11    1    4    4    0    0  0.55082500813E-02 -0.20384770361E-01 -0.60572583944E-01  0.64149658832E-01  0.51100000000E-03 0.  1.
         11    1    4    4    0    0 -0.91196922233E-02 -0.32692052517E-01 -0.54314895992E-01  0.64049263319E-01  0.51100000000E-03 0. -1.
</event>
<event>
 8    1  0.1092993E+005  0.1043930E+01  0.7957747E-01            NaN
         13   -1    0    0    0    0  0.00000000000E+00  0.00000000000E+00  0.74505805969E-08  0.10566000000E+00  0.10566000000E+00 0.  1.
     999900   -1    0    0    0    0 -0.00000000000E+00 -0.00000000000E+00 -0.74505805969E-08  0.93827000000E+00  0.93827000000E+00 0.  1.
     999902    2    1    2    0    0  0.29275819887E-02  0.10544463938E-01 -0.21199791935E-01  0.10200723464E+01  0.10197933145E+01 0.  0.
     999903    2    3    3    0    0  0.29797864821E-02 -0.52433584569E-01 -0.11978043547E+00  0.13233117885E+00  0.20150142880E-01 0.  0.
         14    1    1    2    0    0 -0.29275819887E-02 -0.10544463938E-01  0.21199791935E-01  0.23857653576E-01  0.00000000000E+00 0.  1.
     999901    1    3    3    0    0 -0.52204493443E-04  0.62978048507E-01  0.98580643532E-01  0.88774116757E+00  0.88000000000E+00 0. -1.
        -11    1    4    4    0    0 -0.34113870303E-02 -0.14423316552E-01 -0.54860458973E-01  0.56829575940E-01  0.51100000000E-03 0.  1.
         11    1    4    4    0    0  0.63911735125E-02 -0.38010268017E-01 -0.64919976495E-01  0.75501602914E-01  0.51100000000E-03 0. -1.
</event>
<event>
 8    1  0.1092993E+005  0.1043930E+01  0.7957747E-01            NaN
         13   -1    0    0    0    0  0.00000000000E+00  0.00000000000E+00  0.74505805969E-08  0.10566000000E+00  0.10566000000E+00 0.  1.
     999900   -1    0    0    0    0 -0.00000000000E+00 -0.00000000000E+00 -0.74505805969E-08  0.93827000000E+00  0.93827000000E+00 0.  1.
     999902    2    1    2    0    0 -0.12936107984E-01 -0.18013967287E-01  0.72641838375E-02  0.10205930277E+01  0.10203261802E+01 0.  0.
     999903    2    3    3    0    0 -0.97036957862E-01  0.83479335858E-01 -0.15491445488E-01  0.13048535886E+00  0.20036798352E-01 0.  0.
         14    1    1    2    0    0  0.12936107984E-01  0.18013967287E-01 -0.72641838375E-02  0.23336972255E-01  0.00000000000E+00 0. -1.
     999901    1    3    3    0    0  0.84100849878E-01 -0.10149330315E+00  0.22755629325E-01  0.89010766888E+00  0.88000000000E+00 0.  1.
        -11    1    4    4    0    0 -0.40254807983E-01  0.47772825521E-01 -0.66167462615E-02  0.62823044148E-01  0.51100000000E-03 0. -1.
         11    1    4    4    0    0 -0.56782149879E-01  0.35706510338E-01 -0.88746992264E-02  0.67662314716E-01  0.51100000000E-03 0.  1.
</event>
<event>
 8    1  0.1092993E+005  0.1043930E+01  0.7957747E-01            NaN
         13   -1    0    0    0    0  0.00000000000E+00  0.00000000000E+00  0.74505805969E-08  0.10566000000E+00  0.10566000000E+00 0. -1.
     999900   -1    0    0    0    0 -0.00000000000E+00 -0.00000000000E+00 -0.74505805969E-08  0.93827000000E+00  0.93827000000E+00 0.  1.
     999902    2    1    2    0    0  0.93152145885E-02  0.19781961937E-01  0.62022556320E-02  0.10212018849E+01  0.10209489324E+01 0.  0.
     999903    2    3    3    0    0 -0.91765517258E-01  0.34173187690E-01  0.85701199786E-01  0.13173884247E+00  0.20535580258E-01 0.  0.
         14    1    1    2    0    0 -0.93152145885E-02 -0.19781961937E-01 -0.62022556320E-02  0.22728115097E-01  0.00000000000E+00 0.  1.
     999901    1    3    3    0    0  0.10108073185E+00 -0.14391225752E-01 -0.79498944154E-01  0.88946304243E+00  0.88000000000E+00 0.  1.
        -11    1    4    4    0    0 -0.82399349966E-02  0.94005826266E-02  0.15034804455E-01  0.19559497654E-01  0.51100000000E-03 0.  1.
         11    1    4    4    0    0 -0.83525582262E-01  0.24772605063E-01  0.70666395331E-01  0.11217934482E+00  0.51100000000E-03 0. -1.
</event>
<event>
 8    1  0.1092993E+005  0.1043930E+01  0.7957747E-01            NaN
         13   -1    0    0    0    0  0.00000000000E+00  0.00000000000E+00  0.74505805969E-08  0.10566000000E+00  0.10566000000E+00 0.  1.
     999900   -1    0    0    0    0 -0.00000000000E+00 -0.00000000000E+00 -0.74505805969E-08  0.93827000000E+00  0.93827000000E+00 0.  1.
     999902    2    1    2    0    0 -0.12404463199E-01  0.18579096401E-01 -0.10550906212E-01  0.10192242284E+01  0.10189247531E+01 0.  0.
     999903    2    3    3    0    0 -0.34598819144E-01  0.87997205241E-01  0.87937683561E-01  0.13073592479E+00  0.20451391734E-01 0.  0.
         14    1    1    2    0    0  0.12404463199E-01 -0.18579096401E-01  0.10550906212E-01  0.24705771638E-01  0.00000000000E+00 0.  1.
     999901    1    3    3    0    0  0.22194355945E-01 -0.69418108840E-01 -0.98488589774E-01  0.88848830357E+00  0.88000000000E+00 0.  1.
        -11    1    4    4    0    0 -0.25547460793E-01  0.71418788561E-01  0.79993523766E-01  0.11023856439E+00  0.51100000000E-03 0.  1.
         11    1    4    4    0    0 -0.90513583508E-02  0.16578416680E-01  0.79441597957E-02  0.20497360403E-01  0.51100000000E-03 0. -1.
</event>
<event>
 8    1  0.1092993E+005  0.1043930E+01  0.7957747E-01            NaN
         13   -1    0    0    0    0  0.00000000000E+00  0.00000000000E+00  0.74505805969E-08  0.10566000000E+00  0.10566000000E+00 0. -1.
     999900   -1    0    0    0    0 -0.00000000000E+00 -0.00000000000E+00 -0.74505805969E-08  0.93827000000E+00  0.93827000000E+00 0. -1.
     999902    2    1    2    0    0 -0.15011732277E-02  0.19367564931E-02 -0.23372440187E-01  0.10204294573E+01  0.10201588121E+01 0.  0.
     999903    2    3    3    0    0 -0.57443754839E-01 -0.11181031052E+00  0.26632848076E-01  0.12994167157E+00  0.19344221441E-01 0.  0.
         14    1    1    2    0    0  0.15011732277E-02 -0.19367564931E-02  0.23372440187E-01  0.23500542697E-01  0.00000000000E+00 0. -1.
     999901    1    3    3    0    0  0.55942581611E-01  0.11374706702E+00 -0.50005288263E-01  0.89048778574E+00  0.88000000000E+00 0. -1.
        -11    1    4    4    0    0 -0.29479158810E-01 -0.58171593415E-01  0.23659614316E-01  0.69375741835E-01  0.51100000000E-03 0.  1.
         11    1    4    4    0    0 -0.27964596029E-01 -0.53638717109E-01  0.29732337608E-02  0.60565929731E-01  0.51100000000E-03 0. -1.
</event>
<event>
 8    1  0.1092993E+005  0.1043930E+01  0.7957747E-01            NaN
         13   -1    0    0    0    0  0.00000000000E+00  0.00000000000E+00  0.74505805969E-08  0.10566000000E+00  0.10566000000E+00 0.  1.
     999900   -1    0    0    0    0 -0.00000000000E+00 -0.00000000000E+00 -0.74505805969E-08  0.93827000000E+00  0.93827000000E+00 0.  1.
     999902    2    1    2    0    0  0.13494475635E-01 -0.18943246495E-01 -0.77154376469E-02  0.10194253996E+01  0.10191308405E+01 0.  0.
     999903    2    3    3    0    0 -0.30364982663E-01 -0.13611454990E-01 -0.12438948927E+00  0.13062569532E+00  0.21977792398E-01 0.  0.
         14    1    1    2    0    0 -0.13494475635E-01  0.18943246495E-01  0.77154376469E-02  0.24504600354E-01  0.00000000000E+00 0.  1.
     999901    1    3    3    0    0  0.43859458299E-01 -0.53317915041E-02  0.11667405162E+00  0.88879970432E+00  0.88000000000E+00 0. -1.
        -11    1    4    4    0    0 -0.10817893535E-01 -0.15789453344E-01 -0.76333262819E-01  0.78697914782E-01  0.51100000000E-03 0.  1.
         11    1    4    4    0    0 -0.19547089128E-01  0.21779983535E-02 -0.48056226451E-01  0.51927780541E-01  0.51100000000E-03 0. -1.
</event>
<event>
 8    1  0.1092993E+005  0.1043930E+01  0.7957747E-01            NaN
         13   -1    0    0    0    0  0.00000000000E+00  0.00000000000E+00  0.74505805969E-08  0.10566000000E+00  0.10566000000E+00 0. -1.
     999900   -1    0    0    0    0 -0.00000000000E+00 -0.00000000000E+00 -0.74505805969E-08  0.93827000000E+00  0.93827000000E+00 0.  1.
     999902    2    1    2    0    0  0.16436500295E-01  0.14095320237E-01  0.48904092902E-02  0.10217319664E+01  0.10214908019E+01 0.  0.
     999903    2    3    3    0    0  0.11995794397E-01  0.10623470628E+00 -0.76046279353E-01  0.13321627494E+00  0.23104705228E-01 0.  0.
         14    1    1    2    0    0 -0.16436500295E-01 -0.14095320237E-01 -0.48904092902E-02  0.22198033642E-01  0.00000000000E+00 0.  1.
     999901    1    3    3    0    0  0.44407058980E-02 -0.92139386042E-01  0.80936688643E-01  0.88851569142E+00  0.88000000000E+00 0. -1.
        -11    1    4    4    0    0  0.13132370084E-02  0.88773993301E-01 -0.64150519641E-01  0.10953582414E+00  0.51100000000E-03 0.  1.
         11    1    4    4    0    0  0.10682557389E-01  0.17460712979E-01 -0.11895759712E-01  0.23680450803E-01  0.51100000000E-03 0. -1.
</event>
<event>
 8    1  0.1092993E+005  0.1043930E+01  0.7957747E-01            NaN
         13   -1    0    0    0    0  0.00000000000E+00  0.00000000000E+00  0.74505805969E-08  0.10566000000E+00  0.10566000000E+00 0.  1.
     999900   -1    0    0    0    0 -0.00000000000E+00 -0.00000000000E+00 -0.74505805969E-08  0.93827000000E+00  0.93827000000E+00 0.  1.
     999902    2    1    2    0    0 -0.29397164426E-01 -0.71246544277E-02  0.89873136078E-02  0.10123748771E+01  0.10118829804E+01 0.  0.
     999903    2    3    3    0    0 -0.59336862675E-01 -0.10385124289E+00 -0.32078886242E-01  0.12561738417E+00  0.21088583222E-01 0.  0.
         14    1    1    2    0    0  0.29397164426E-01  0.71246544277E-02 -0.89873136078E-02  0.31555122926E-01  0.00000000000E+00 0. -1.
     999901    1    3    3    0    0  0.29939698249E-01  0.96726588461E-01  0.41066199850E-01  0.88675749290E+00  0.88000000000E+00 0. -1.
        -11    1    4    4    0    0 -0.18094181430E-01 -0.49983737633E-01 -0.19451584592E-01  0.56607408469E-01  0.51100000000E-03 0. -1.
         11    1    4    4    0    0 -0.41242681246E-01 -0.53867505255E-01 -0.12627301650E-01  0.69009975704E-01  0.51100000000E-03 0.  1.
</event>
<event>
 8    1  0.1092993E+005  0.1043930E+01  0.7957747E-01            NaN
         13   -1    0    0    0    0  0.00000000000E+00  0.00000000000E+00  0.74505805969E-08  0.10566000000E+00  0.10566000000E+00 0.  1.
     999900   -1    0    0    0    0 -0.00000000000E+00 -0.00000000000E+00 -0.74505805969E-08  0.93827000000E+00  0.93827000000E+00 0. -1.
     999902    2    1    2    0    0  0.87813636601E-02 -0.42251979556E-02  0.20406276789E-01  0.10213162701E+01  0.10210658857E+01 0.  0.
     999903    2    3    3    0    0 -0.87093145119E-01  0.22345187778E-01  0.95578506969E-01  0.13252564743E+00  0.18527625043E-01 0.  0.
         14    1    1    2    0    0 -0.87813636601E-02  0.42251979556E-02 -0.20406276789E-01  0.22613729854E-01  0.00000000000E+00 0. -1.
     999901    1    3    3    0    0  0.95874508779E-01 -0.26570385734E-01 -0.75172230180E-01  0.88879062271E+00  0.88000000000E+00 0. -1.
        -11    1    4    4    0    0 -0.51559960926E-01  0.16723441058E-01  0.44973234042E-01  0.70434053928E-01  0.51100000000E-03 0. -1.
         11    1    4    4    0    0 -0.35533184192E-01  0.56217467201E-02  0.50605272927E-01  0.62091593505E-01  0.51100000000E-03 0.  1.
</event>
<event>
 8    1  0.1092993E+005  0.1043930E+01  0.7957747E-01            NaN
         13   -1    0    0    0    0  0.00000000000E+00  0.00000000000E+00  0.74505805969E-08  0.10566000000E+00  0.10566000000E+00 0. -1.
     999900   -1    0    0    0    0 -0.00000000000E+00 -0.00000000000E+00 -0.74505805969E-08  0.93827000000E+00  0.93827000000E+00 0.  1.
     999902    2    1    2    0    0 -0.75880654757E-02 -0.54997065323E-02  0.21672576310E-01  0.10203180100E+01  0.10200447615E+01 0.  0.
     999903    2    3    3    0    0  0.48124718331E-01 -0.54858964216E-01 -0.10368253699E+00  0.12832352846E+00  0.19782947481E-01 0.  0.
         14    1    1    2    0    0  0.75880654757E-02  0.54997065323E-02 -0.21672576310E-01  0.23611990037E-01  0.00000000000E+00 0.  1.
     999901    1    3    3    0    0 -0.55712783807E-01  0.49359257683E-01  0.12535511330E+00  0.89199448150E+00  0.88000000000E+00 0. -1.
        -11    1    4    4    0    0  0.34762209487E-01 -0.45322973391E-01 -0.91532795740E-01  0.10789391522E+00  0.51100000000E-03 0. -1.
         11    1    4    4    0    0  0.13362508844E-01 -0.95359908245E-02 -0.12149741250E-01  0.20429613238E-01  0.51100000000E-03 0.  1.
</event>
<event>
 8    1  0.1247298E+005  0.1043930E+01  0.7957747E-01            NaN
         13   -1    0    0    0    0  0.00000000000E+00  0.00000000000E+00  0.74505805969E-08  0.10566000000E+00  0.10566000000E+00 0. -1.
     999900   -1    0    0    0    0 -0.00000000000E+00 -0.00000000000E+00 -0.74505805969E-08  0.93827000000E+00  0.93827000000E+00 0. -1.
     999902    2    1    2    0    0  0.14727492169E-01 -0.80129326583E-02 -0.17573581184E-01  0.10196413839E+01  0.10193520564E+01 0.  0.
     999903    2    3    3    0    0  0.79995891478E-01 -0.97549469871E-01 -0.22508299207E-01  0.13267965595E+00  0.34380602734E-01 0.  0.
         14    1    1    2    0    0 -0.14727492169E-01  0.80129326583E-02  0.17573581184E-01  0.24288616079E-01  0.00000000000E+00 0. -1.
     999901    1    3    3    0    0 -0.65268399308E-01  0.89536537212E-01  0.49347180224E-02  0.88696172797E+00  0.88000000000E+00 0.  1.
        -11    1    4    4    0    0  0.28314972988E-01 -0.36050101636E-01  0.83990229475E-02  0.46606353974E-01  0.51100000000E-03 0. -1.
         11    1    4    4    0    0  0.51680918489E-01 -0.61499368235E-01 -0.30907322154E-01  0.86073301975E-01  0.51100000000E-03 0.  1.
</event>
<event>
 8    1  0.1092993E+005  0.1043930E+01  0.7957747E-01            NaN
         13   -1    0    0    0    0  0.00000000000E+00  0.00000000000E+00  0.74505805969E-08  0.10566000000E+00  0.10566000000E+00 0. -1.
     999900   -1    0    0    0    0 -0.00000000000E+00 -0.00000000000E+00 -0.74505805969E-08  0.93827000000E+00  0.93827000000E+00 0. -1.
     999902    2    1    2    0    0 -0.18004487988E-01 -0.16680960493E-01 -0.42218236188E-03  0.10193822044E+01  0.10190865932E+01 0.  0.
     999903    2    3    3    0    0 -0.58102209532E-01 -0.88962442127E-01  0.75841154241E-01  0.13222464434E+00  0.21006975840E-01 0.  0.
         14    1    1    2    0    0  0.18004487988E-01  0.16680960493E-01  0.42218236188E-03  0.24547795596E-01  0.00000000000E+00 0. -1.
     999901    1    3    3    0    0  0.40097721544E-01  0.72281481634E-01 -0.76263336603E-01  0.88715756006E+00  0.88000000000E+00 0. -1.
        -11    1    4    4    0    0 -0.34398956018E-01 -0.52092963690E-01  0.31696232231E-01  0.70013408000E-01  0.51100000000E-03 0.  1.
         11    1    4    4    0    0 -0.23703253514E-01 -0.36869478437E-01  0.44144922009E-01  0.62211236345E-01  0.51100000000E-03 0. -1.
</event>
<event>
 8    1  0.1092993E+005  0.1043930E+01  0.7957747E-01            NaN
         13   -1    0    0    0    0  0.00000000000E+00  0.00000000000E+00  0.74505805969E-08  0.10566000000E+00  0.10566000000E+00 0. -1.
     999900   -1    0    0    0    0 -0.00000000000E+00 -0.00000000000E+00 -0.74505805969E-08  0.93827000000E+00  0.93827000000E+00 0.  1.
     999902    2    1    2    0    0  0.12651247924E-02  0.88305483659E-02  0.22168339580E-01  0.10200340923E+01  0.10197541542E+01 0.  0.
     999903    2    3    3    0    0 -0.14592578174E-01  0.55584159526E-01 -0.11303530996E+00  0.12834053858E+00  0.19793191174E-01 0.  0.
         14    1    1    2    0    0 -0.12651247924E-02 -0.88305483659E-02 -0.22168339580E-01  0.23895907702E-01  0.00000000000E+00 0.  1.
     999901    1    3    3    0    0  0.15857702966E-01 -0.46753611160E-01  0.13520364954E+00  0.89169355372E+00  0.88000000000E+00 0. -1.
        -11    1    4    4    0    0 -0.37130330953E-02  0.43799565520E-01 -0.73071858416E-01  0.85275706786E-01  0.51100000000E-03 0. -1.
         11    1    4    4    0    0 -0.10879545078E-01  0.11784594007E-01 -0.39963451542E-01  0.43064831791E-01  0.51100000000E-03 0.  1.
</event>
<event>
 8    1  0.1092993E+005  0.1043930E+01  0.7957747E-01            NaN
         13   -1    0    0    0    0  0.00000000000E+00  0.00000000000E+00  0.74505805969E-08  0.10566000000E+00  0.10566000000E+00 0.  1.
     999900   -1    0    0    0    0 -0.00000000000E+00 -0.00000000000E+00 -0.74505805969E-08  0.93827000000E+00  0.93827000000E+00 0.  1.
     999902    2    1    2    0    0  0.82283176089E-02  0.59055129689E-03 -0.22137762028E-01  0.10203051303E+01  0.10200315801E+01 0.  0.
     999903    2    3    3    0    0  0.69057642720E-01 -0.81673110528E-01 -0.76025338864E-01  0.13274026629E+00  0.20016771599E-01 0.  0.
         14    1    1    2    0    0 -0.82283176089E-02 -0.59055129689E-03  0.22137762028E-01  0.23624869717E-01  0.00000000000E+00 0.  1.
     999901    1    3    3    0    0 -0.60829325111E-01  0.82263661825E-01  0.53887576835E-01  0.88756486399E+00  0.88000000000E+00 0. -1.
        -11    1    4    4    0    0  0.25257247231E-01 -0.35347173727E-01 -0.42196669208E-01  0.60565429425E-01  0.51100000000E-03 0.  1.
         11    1    4    4    0    0  0.43800395489E-01 -0.46325936801E-01 -0.33828669656E-01  0.72174836870E-01  0.51100000000E-03 0. -1.
</event>
<event>
 8    1  0.1092993E+005  0.1043930E+01  0.7957747E-01            NaN
         13   -1    0    0    0    0  0.00000000000E+00  0.00000000000E+00  0.74505805969E-08  0.10566000000E+00  0.10566000000E+00 0. -1.
     999900   -1    0    0    0    0 -0.00000000000E+00 -0.00000000000E+00 -0.74505805969E-08  0.93827000000E+00  0.93827000000E+00 0.  1.
     999902    2    1    2    0    0 -0.14388950244E-01  0.14947997699E-01 -0.11307325501E-01  0.10203007780E+01  0.10200271258E+01 0.  0.
     999903    2    3    3    0    0  0.57950705308E-01  0.92757768770E-01 -0.71104981702E-01  0.13189594573E+00  0.19450813968E-01 0.  0.
         14    1    1    2    0    0  0.14388950244E-01 -0.14947997699E-01  0.11307325501E-01  0.23629222042E-01  0.00000000000E+00 0. -1.
     999901    1    3    3    0    0 -0.72339655552E-01 -0.77809771072E-01  0.59797656201E-01  0.88840483223E+00  0.88000000000E+00 0.  1.
        -11    1    4    4    0    0  0.23876810246E-01  0.37913055947E-01 -0.40670460435E-01  0.60513216340E-01  0.51100000000E-03 0.  1.
         11    1    4    4    0    0  0.34073895062E-01  0.54844712823E-01 -0.30434521267E-01  0.71382729390E-01  0.51100000000E-03 0. -1.
</event>
<event>
 8    1  0.1092993E+005  0.1043930E+01  0.7957747E-01            NaN
         13   -1    0    0    0    0  0.00000000000E+00  0.00000000000E+00  0.74505805969E-08  0.10566000000E+00  0.10566000000E+00 0.  1.
     999900   -1    0    0    0    0 -0.00000000000E+00 -0.00000000000E+00 -0.74505805969E-08  0.93827000000E+00  0.93827000000E+00 0.  1.
     999902    2    1    2    0    0  0.15451126647E-01  0.15774897072E-01 -0.76654675072E-02  0.10205559955E+01  0.10202882906E+01 0.  0.
     999903    2    3    3    0    0  0.33811397476E-01  0.11255851996E+00  0.58323458204E-01  0.13260402189E+00  0.19224199042E-01 0.  0.
         14    1    1    2    0    0 -0.15451126647E-01 -0.15774897072E-01  0.76654675072E-02  0.23374004458E-01  0.00000000000E+00 0.  1.
     999901    1    3    3    0    0 -0.18360270829E-01 -0.96783622886E-01 -0.65988925712E-01  0.88795197366E+00  0.88000000000E+00 0.  1.
        -11    1    4    4    0    0  0.10070359212E-01  0.61818532816E-01  0.36407224427E-01  0.72447845004E-01  0.51100000000E-03 0.  1.
         11    1    4    4    0    0  0.23741038264E-01  0.50739987142E-01  0.21916233777E-01  0.60156176881E-01  0.51100000000E-03 0. -1.
</event>
<event>
 8    1  0.1092993E+005  0.1043930E+01  0.7957747E-01            NaN
         13   -1    0    0    0    0  0.00000000000E+00  0.00000000000E+00  0.74505805969E-08  0.10566000000E+00  0.10566000000E+00 0.  1.
     999900   -1    0    0    0    0 -0.00000000000E+00 -0.00000000000E+00 -0.74505805969E-08  0.93827000000E+00  0.93827000000E+00 0. -1.
     999902    2    1    2    0    0  0.58263629815E-02 -0.21321216912E-01 -0.84626562324E-02  0.10202623565E+01  0.10199878033E+01 0.  0.
     999903    2    3    3    0    0 -0.81037811100E-01 -0.82179579932E-01 -0.61501738132E-01  0.13230837728E+00  0.20060725784E-01 0.  0.
         14    1    1    2    0    0 -0.58263629815E-02  0.21321216912E-01  0.84626562324E-02  0.23667643455E-01  0.00000000000E+00 0.  1.
     999901    1    3    3    0    0  0.86864174081E-01  0.60858363021E-01  0.53039081900E-01  0.88795397927E+00  0.88000000000E+00 0.  1.
        -11    1    4    4    0    0 -0.14245882685E-01 -0.25148472976E-01 -0.20108810024E-01  0.35213864146E-01  0.51100000000E-03 0. -1.
         11    1    4    4    0    0 -0.66791928414E-01 -0.57031106956E-01 -0.41392928108E-01  0.97094513132E-01  0.51100000000E-03 0.  1.
</event>
<event>
 8    1  0.1092993E+005  0.1043930E+01  0.7957747E-01            NaN
         13   -1    0    0    0    0  0.00000000000E+00  0.00000000000E+00  0.74505805969E-08  0.10566000000E+00  0.10566000000E+00 0. -1.
     999900   -1    0    0    0    0 -0.00000000000E+00 -0.00000000000E+00 -0.74505805969E-08  0.93827000000E+00  0.93827000000E+00 0.  1.
     999902    2    1    2    0    0  0.19042833368E-01 -0.86615808929E-02  0.16261173476E-01  0.10174332408E+01  0.10170881580E+01 0.  0.
     999903    2    3    3    0    0  0.69530714779E-01  0.24636033522E-01 -0.10218346935E+00  0.12744060558E+00  0.18925963591E-01 0.  0.
         14    1    1    2    0    0 -0.19042833368E-01  0.86615808929E-02 -0.16261173476E-01  0.26496759218E-01  0.00000000000E+00 0.  1.
     999901    1    3    3    0    0 -0.50487881410E-01 -0.33297614415E-01  0.11844464282E+00  0.88999263520E+00  0.88000000000E+00 0. -1.
        -11    1    4    4    0    0  0.33471815617E-01  0.14436641180E-01 -0.65706352618E-01  0.75142297973E-01  0.51100000000E-03 0.  1.
         11    1    4    4    0    0  0.36058899161E-01  0.10199392342E-01 -0.36477116730E-01  0.52298307610E-01  0.51100000000E-03 0. -1.
</event>
<event>
 8    1  0.1092993E+005  0.1043930E+01  0.7957747E-01            NaN
         13   -1    0    0    0    0  0.00000000000E+00  0.00000000000E+00  0.74505805969E-08  0.10566000000E+00  0.10566000000E+00 0. -1.
     999900   -1    0    0    0    0 -0.00000000000E+00 -0.00000000000E+00 -0.74505805969E-08  0.93827000000E+00  0.93827000000E+00 0.  1.
     999902    2    1    2    0    0  0.18482188823E-01 -0.15192540129E-01 -0.34003359602E-02  0.10197645937E+01  0.10194782291E+01 0.  0.
     999903    2    3    3    0    0 -0.94412269597E-01 -0.23560604215E-01 -0.82070451534E-01  0.12903221503E+00  0.21094425327E-01 0.  0.
         14    1    1    2    0    0 -0.18482188823E-01  0.15192540129E-01  0.34003359602E-02  0.24165406347E-01  0.00000000000E+00 0.  1.
     999901    1    3    3    0    0  0.11289445842E+00  0.83680640862E-02  0.78670115574E-01  0.89073237862E+00  0.88000000000E+00 0. -1.
        -11    1    4    4    0    0 -0.26235968093E-01 -0.16316292502E-01 -0.22776869927E-01  0.38387424340E-01  0.51100000000E-03 0. -1.
         11    1    4    4    0    0 -0.68176301504E-01 -0.72443117132E-02 -0.59293581607E-01  0.90644790693E-01  0.51100000000E-03 0.  1.
</event>
<event>
 8    1  0.1092993E+005  0.1043930E+01  0.7957747E-01            NaN
         13   -1    0    0    0    0  0.00000000000E+00  0.00000000000E+00  0.74505805969E-08  0.10566000000E+00  0.10566000000E+00 0.  1.
     999900   -1    0    0    0    0 -0.00000000000E+00 -0.00000000000E+00 -0.74505805969E-08  0.93827000000E+00  0.93827000000E+00 0. -1.
     999902    2    1    2    0    0 -0.15423441971E-01 -0.19020639203E-01  0.79783622022E-03  0.10194289016E+01  0.10191344277E+01 0.  0.
     999903    2    3    3    0    0 -0.30257152399E-01 -0.77158781515E-01  0.98981569069E-01  0.13193798454E+00  0.27226970302E-01 0.  0.
         14    1    1    2    0    0  0.15423441971E-01  0.19020639203E-01 -0.79783622022E-03  0.24501098354E-01  0.00000000000E+00 0. -1.
     999901    1    3    3    0    0  0.14833710429E-01  0.58138142312E-01 -0.98183732849E-01  0.88749091711E+00  0.88000000000E+00 0. -1.
        -11    1    4    4    0    0 -0.23204757356E-01 -0.73020563581E-01  0.77654726393E-01  0.10909161802E+00  0.51100000000E-03 0. -1.
         11    1    4    4    0    0 -0.70523950439E-02 -0.41382179333E-02  0.21326842677E-01  0.22846366518E-01  0.51100000000E-03 0.  1.
</event>
<event>
 8    1  0.1092993E+005  0.1043930E+01  0.7957747E-01            NaN
         13   -1    0    0    0    0  0.00000000000E+00  0.00000000000E+00  0.74505805969E-08  0.10566000000E+00  0.10566000000E+00 0. -1.
     999900   -1    0    0    0    0 -0.00000000000E+00 -0.00000000000E+00 -0.74505805969E-08  0.93827000000E+00  0.93827000000E+00 0.  1.
     999902    2    1    2    0    0  0.18540153780E-02  0.23436206163E-01  0.11642526432E-01  0.10176956417E+01  0.10173574483E+01 0.  0.
     999903    2    3    3    0    0 -0.74058987774E-01 -0.91509239478E-01 -0.38810716290E-01  0.12555172440E+00  0.19957184691E-01 0.  0.
         14    1    1    2    0    0 -0.18540153780E-02 -0.23436206163E-01 -0.11642526432E-01  0.26234358274E-01  0.00000000000E+00 0.  1.
     999901    1    3    3    0    0  0.75913003152E-01  0.11494544564E+00  0.50453242723E-01  0.89214391733E+00  0.88000000000E+00 0. -1.
        -11    1    4    4    0    0 -0.56659931787E-01 -0.77762249827E-01 -0.24956913557E-01  0.99400322050E-01  0.51100000000E-03 0. -1.
         11    1    4    4    0    0 -0.17399055986E-01 -0.13746989651E-01 -0.13853802734E-01  0.26151402350E-01  0.51100000000E-03 0.  1.
</event>
<event>
 8    1  0.1092993E+005  0.1043930E+01  0.7957747E-01            NaN
         13   -1    0    0    0    0  0.00000000000E+00  0.00000000000E+00  0.74505805969E-08  0.10566000000E+00  0.10566000000E+00 0.  1.
     999900   -1    0    0    0    0 -0.00000000000E+00 -0.00000000000E+00 -0.74505805969E-08  0.93827000000E+00  0.93827000000E+00 0. -1.
     999902    2    1    2    0    0 -0.10899649725E-01 -0.14109947085E-01 -0.14996382380E-01  0.10206322650E+01  0.10203663244E+01 0.  0.
     999903    2    3    3    0    0  0.98402982972E-01  0.68597212037E-01 -0.44451580235E-01  0.12953454402E+00  0.20360023383E-01 0.  0.
         14    1    1    2    0    0  0.10899649725E-01  0.14109947085E-01  0.14996382380E-01  0.23297734983E-01  0.00000000000E+00 0.  1.
     999901    1    3    3    0    0 -0.10930263270E+00 -0.82707159122E-01  0.29455197854E-01  0.89109772100E+00  0.88000000000E+00 0.  1.
        -11    1    4    4    0    0  0.31585932729E-01  0.26219201258E-01 -0.24956715825E-01  0.48043901244E-01  0.51100000000E-03 0.  1.
         11    1    4    4    0    0  0.66817050242E-01  0.42378010779E-01 -0.19494864410E-01  0.81490642776E-01  0.51100000000E-03 0. -1.
</event>
<event>
 8    1  0.1092993E+005  0.1043930E+01  0.7957747E-01            NaN
         13   -1    0    0    0    0  0.00000000000E+00  0.00000000000E+00  0.74505805969E-08  0.10566000000E+00  0.10566000000E+00 0.  1.
     999900   -1    0    0    0    0 -0.00000000000E+00 -0.00000000000E+00 -0.74505805969E-08  0.93827000000E+00  0.93827000000E+00 0.  1.
     999902    2    1    2    0    0 -0.15070837688E-01  0.15488781619E-01 -0.89458353814E-02  0.10205406760E+01  0.10202726160E+01 0.  0.
     999903    2    3    3    0    0 -0.98383223078E-01  0.84886578419E-01 -0.24688101226E-01  0.13374598351E+00  0.19836733215E-01 0.  0.
         14    1    1    2    0    0  0.15070837688E-01 -0.15488781619E-01  0.89458353814E-02  0.23389323961E-01  0.00000000000E+00 0.  1.
     999901    1    3    3    0    0  0.83312385390E-01 -0.69397796800E-01  0.15742265845E-01  0.88679469253E+00  0.88000000000E+00 0.  1.
        -11    1    4    4    0    0 -0.65570467734E-01  0.50776653008E-01 -0.24266035268E-01  0.86410973367E-01  0.51100000000E-03 0. -1.
         11    1    4    4    0    0 -0.32812755344E-01  0.34109925411E-01 -0.42206595754E-03  0.47335010146E-01  0.51100000000E-03 0.  1.
</event>
<event>
 8    1  0.1092993E+005  0.1043930E+01  0.7957747E-01            NaN
         13   -1    0    0    0    0  0.00000000000E+00  0.00000000000E+00  0.74505805969E-08  0.10566000000E+00  0.10566000000E+00 0. -1.
     999900   -1    0    0    0    0 -0.00000000000E+00 -0.00000000000E+00 -0.74505805969E-08  0.93827000000E+00  0.93827000000E+00 0. -1.
     999902    2    1    2    0    0  0.16535169008E-01  0.37600298807E-02  0.34075308484E-01  0.10058685196E+01  0.10051481495E+01 0.  0.
     999903    2    3    3    0    0  0.10683048709E+00  0.48766885872E-01 -0.57682596822E-02  0.11920828512E+00  0.19656558501E-01 0.  0.
         14    1    1    2    0    0 -0.16535169008E-01 -0.37600298807E-02 -0.34075308484E-01  0.38061480359E-01  0.00000000000E+00 0.  1.
     999901    1    3    3    0    0 -0.90295318083E-01 -0.45006855991E-01  0.39843568166E-01  0.88666023452E+00  0.88000000000E+00 0.  1.
        -11    1    4    4    0    0  0.26028052686E-01  0.15900609984E-01  0.62893696075E-02  0.31146528146E-01  0.51100000000E-03 0. -1.
         11    1    4    4    0    0  0.80802434406E-01  0.32866275888E-01 -0.12057629290E-01  0.88061756976E-01  0.51100000000E-03 0.  1.
</event>
<event>
 8    1  0.1092993E+005  0.1043930E+01  0.7957747E-01            NaN
         13   -1    0    0    0    0  0.00000000000E+00  0.00000000000E+00  0.74505805969E-08  0.10566000000E+00  0.10566000000E+00 0. -1.
     999900   -1    0    0    0    0 -0.00000000000E+00 -0.00000000000E+00 -0.74505805969E-08  0.93827000000E+00  0.93827000000E+00 0. -1.
     999902    2    1    2    0    0 -0.20917164677E-01 -0.12430519695E-01 -0.34223590560E-02  0.10193585096E+01  0.10190623205E+01 0.  0.
     999903    2    3    3    0    0 -0.59507088416E-01  0.86826185336E-01  0.72950441219E-01  0.12965413156E+00  0.20212543778E-01 0.  0.
         14    1    1    2    0    0  0.20917164677E-01  0.12430519695E-01  0.34223590560E-02  0.24571490381E-01  0.00000000000E+00 0. -1.
     999901    1    3    3    0    0  0.38589923739E-01 -0.99256705031E-01 -0.76372800275E-01  0.88970437805E+00  0.88000000000E+00 0. -1.
        -11    1    4    4    0    0 -0.28670921173E-01  0.58667015968E-01  0.47492108904E-01  0.80744052491E-01  0.51100000000E-03 0.  1.
         11    1    4    4    0    0 -0.30836167243E-01  0.28159169368E-01  0.25458332315E-01  0.48910079074E-01  0.51100000000E-03 0. -1.
</event>
<event>
 8    1  0.1092993E+005  0.1043930E+01  0.7957747E-01            NaN
         13   -1    0    0    0    0  0.00000000000E+00  0.00000000000E+00  0.74505805969E-08  0.10566000000E+00  0.10566000000E+00 0.  1.
     999900   -1    0    0    0    0 -0.00000000000E+00 -0.00000000000E+00 -0.74505805969E-08  0.93827000000E+00  0.93827000000E+00 0. -1.
     999902    2    1    2    0    0 -0.18390971783E-01  0.26366032497E-02 -0.13828058213E-01  0.10207698032E+01  0.10205070291E+01 0.  0.
     999903    2    3    3    0    0 -0.35715261360E-01  0.12453137844E+00  0.37978312324E-03  0.13208519666E+00  0.25743170550E-01 0.  0.
         14    1    1    2    0    0  0.18390971783E-01 -0.26366032497E-02  0.13828058213E-01  0.23160196756E-01  0.00000000000E+00 0.  1.
     999901    1    3    3    0    0  0.17324289577E-01 -0.12189477519E+00 -0.14207841336E-01  0.88868460659E+00  0.88000000000E+00 0.  1.
        -11    1    4    4    0    0 -0.16072213925E-01  0.55192134649E-01  0.12949923796E-01  0.58927493031E-01  0.51100000000E-03 0. -1.
         11    1    4    4    0    0 -0.19643047435E-01  0.69339243793E-01 -0.12570140673E-01  0.73157703626E-01  0.51100000000E-03 0.  1.
</event>
<event>
 8    1  0.1092993E+005  0.1043930E+01  0.7957747E-01            NaN
         13   -1    0    0    0    0  0.00000000000E+00  0.00000000000E+00  0.74505805969E-08  0.10566000000E+00  0.10566000000E+00 0. -1.
     999900   -1    0    0    0    0 -0.00000000000E+00 -0.00000000000E+00 -0.74505805969E-08  0.93827000000E+00  0.93827000000E+00 0. -1.
     999902    2    1    2    0    0 -0.87918244722E-02  0.15702040593E-01 -0.16615662157E-01  0.10194365216E+01  0.10191422330E+01 0.  0.
     999903    2    3    3    0    0 -0.51881414356E-01 -0.98260266578E-01  0.60124053276E-01  0.12773415860E+00  0.18824248931E-01 0.  0.
         14    1    1    2    0    0  0.87918244722E-02 -0.15702040593E-01  0.16615662157E-01  0.24493478423E-01  0.00000000000E+00 0. -1.
     999901    1    3    3    0    0  0.43089589884E-01  0.11396230717E+00 -0.76739715432E-01  0.89170236298E+00  0.88000000000E+00 0. -1.
        -11    1    4    4    0    0 -0.38977900309E-01 -0.79706840326E-01  0.39459051644E-01  0.97106822546E-01  0.51100000000E-03 0.  1.
         11    1    4    4    0    0 -0.12903514047E-01 -0.18553426251E-01  0.20665001632E-01  0.30627336056E-01  0.51100000000E-03 0. -1.
</event>
<event>
 8    1  0.1092993E+005  0.1043930E+01  0.7957747E-01            NaN
         13   -1    0    0    0    0  0.00000000000E+00  0.00000000000E+00  0.74505805969E-08  0.10566000000E+00  0.10566000000E+00 0.  1.
     999900   -1    0    0    0    0 -0.00000000000E+00 -0.00000000000E+00 -0.74505805969E-08  0.93827000000E+00  0.93827000000E+00 0. -1.
     999902    2    1    2    0    0  0.17347054950E-01  0.16297667022E-01  0.86887273249E-02  0.10185917237E+01  0.10182765200E+01 0.  0.
     999903    2    3    3    0    0  0.41534292771E-01 -0.64828701344E-01  0.10287938879E+00  0.12952570202E+00  0.16275160555E-01 0.  0.
         14    1    1    2    0    0 -0.17347054950E-01 -0.16297667022E-01 -0.86887273249E-02  0.25338276349E-01  0.00000000000E+00 0. -1.
     999901    1    3    3    0    0 -0.24187237820E-01  0.81126368366E-01 -0.94190661466E-01  0.88906602163E+00  0.88000000000E+00 0.  1.
        -11    1    4    4    0    0  0.35239828569E-01 -0.59134501071E-01  0.97872257724E-01  0.11965773977E+00  0.51100000000E-03 0.  1.
         11    1    4    4    0    0  0.62944642019E-02 -0.56942002731E-02  0.50071310672E-02  0.98679622447E-02  0.51100000000E-03 0. -1.
</event>
<event>
 7    1  0.1092993E+005  0.1043930E+01  0.7957747E-01            NaN
         13   -1    0    0    0    0  0.00000000000E+00  0.00000000000E+00  0.74505805969E-08  0.10566000000E+00  0.10566000000E+00 0. -1.
     999900   -1    0    0    0    0 -0.00000000000E+00 -0.00000000000E+00 -0.74505805969E-08  0.93827000000E+00  0.93827000000E+00 0.  1.
     999903    2    1    2    0    0  0.15566690656E-01  0.80007705309E-01 -0.75444149766E-01  0.11280075252E+00  0.19713834445E-01 0.  0.
         14    1    1    2    0    0  0.23653821059E-01 -0.23588275325E-01  0.33719816100E-01  0.47465102774E-01  0.00000000000E+00 0. -1.
     999901    1    1    2    0    0 -0.39220511715E-01 -0.56419429984E-01  0.41724333665E-01  0.88366414471E+00  0.88000000000E+00 0.  1.
        -11    1    3    3    0    0  0.94546842407E-02  0.12725188368E-01 -0.19105212143E-01  0.24831265073E-01  0.51100000000E-03 0. -1.
         11    1    3    3    0    0  0.61120064155E-02  0.67282516941E-01 -0.56338937623E-01  0.87969487447E-01  0.51100000000E-03 0.  1.
</event>
<event>
 8    1  0.1092993E+005  0.1043930E+01  0.7957747E-01            NaN
         13   -1    0    0    0    0  0.00000000000E+00  0.00000000000E+00  0.74505805969E-08  0.10566000000E+00  0.10566000000E+00 0. -1.
     999900   -1    0    0    0    0 -0.00000000000E+00 -0.00000000000E+00 -0.74505805969E-08  0.93827000000E+00  0.93827000000E+00 0. -1.
     999902    2    1    2    0    0  0.11100249764E-01  0.82387775466E-03 -0.20593635202E-01  0.10205207683E+01  0.10202522464E+01 0.  0.
     999903    2    3    3    0    0  0.10284483938E+00  0.33401101563E-01 -0.75328823063E-01  0.13346142075E+00  0.21090867034E-01 0.  0.
         14    1    1    2    0    0 -0.11100249764E-01 -0.82387775466E-03  0.20593635202E-01  0.23409231730E-01  0.00000000000E+00 0.  1.
     999901    1    3    3    0    0 -0.91744589613E-01 -0.32577223808E-01  0.54735187861E-01  0.88705934752E+00  0.88000000000E+00 0. -1.
        -11    1    4    4    0    0  0.16070360142E-01  0.12429452516E-02 -0.19802904778E-01  0.25538550206E-01  0.51100000000E-03 0.  1.
         11    1    4    4    0    0  0.86774479234E-01  0.32158156311E-01 -0.55525918285E-01  0.10792287054E+00  0.51100000000E-03 0. -1.
</event>
<event>
 8    1  0.1092993E+005  0.1043930E+01  0.7957747E-01            NaN
         13   -1    0    0    0    0  0.00000000000E+00  0.00000000000E+00  0.74505805969E-08  0.10566000000E+00  0.10566000000E+00 0. -1.
     999900   -1    0    0    0    0 -0.00000000000E+00 -0.00000000000E+00 -0.74505805969E-08  0.93827000000E+00  0.93827000000E+00 0.  1.
     999902    2    1    2    0    0 -0.98088073506E-02 -0.21816006881E-01  0.70717877697E-02  0.10189868438E+01  0.10186815139E+01 0.  0.
     999903    2    3    3    0    0  0.92492449745E-01 -0.87367754861E-01 -0.12195212313E-01  0.13042970094E+00  0.25984723122E-01 0.  0.
         14    1    1    2    0    0  0.98088073506E-02  0.21816006881E-01 -0.70717877697E-02  0.24943156178E-01  0.00000000000E+00 0. -1.
     999901    1    3    3    0    0 -0.10230125710E+00  0.65551747980E-01  0.19267000083E-01  0.88855714288E+00  0.88000000000E+00 0. -1.
        -11    1    4    4    0    0  0.48497163632E-01 -0.29058320647E-01 -0.95150099562E-02  0.57333737141E-01  0.51100000000E-03 0. -1.
         11    1    4    4    0    0  0.43995286113E-01 -0.58309434214E-01 -0.26802023569E-02  0.73095963803E-01  0.51100000000E-03 0.  1.
</event>
<event>
 8    1  0.1092993E+005  0.1043930E+01  0.7957747E-01            NaN
         13   -1    0    0    0    0  0.00000000000E+00  0.00000000000E+00  0.74505805969E-08  0.10566000000E+00  0.10566000000E+00 0. -1.
     999900   -1    0    0    0    0 -0.00000000000E+00 -0.00000000000E+00 -0.74505805969E-08  0.93827000000E+00  0.93827000000E+00 0.  1.
     999902    2    1    2    0    0 -0.16295627085E-01 -0.15321312946E-01 -0.57133351713E-02  0.10208446737E+01  0.10205836151E+01 0.  0.
     999903    2    3    3    0    0  0.78725419928E-01 -0.69324949682E-01 -0.76379163723E-01  0.13127227557E+00  0.19874438130E-01 0.  0.
         14    1    1    2    0    0  0.16295627085E-01  0.15321312946E-01  0.57133351713E-02  0.23085326320E-01  0.00000000000E+00 0.  1.
     999901    1    3    3    0    0 -0.95021047013E-01  0.54003636736E-01  0.70665828551E-01  0.88957239811E+00  0.88000000000E+00 0. -1.
        -11    1    4    4    0    0  0.83162059922E-02 -0.16283627076E-01 -0.94400319447E-02  0.20583758572E-01  0.51100000000E-03 0.  1.
         11    1    4    4    0    0  0.70409213935E-01 -0.53041322606E-01 -0.66939131778E-01  0.11068851700E+00  0.51100000000E-03 0. -1.
</event>
<event>
 8    1  0.1092993E+005  0.1043930E+01  0.7957747E-01            NaN
         13   -1    0    0    0    0  0.00000000000E+00  0.00000000000E+00  0.74505805969E-08  0.10566000000E+00  0.10566000000E+00 0.  1.
     999900   -1    0    0    0    0 -0.00000000000E+00 -0.00000000000E+00 -0.74505805969E-08  0.93827000000E+00  0.93827000000E+00 0.  1.
     999902    2    1    2    0    0 -0.11855706996E-01  0.99638744241E-02 -0.13470461816E-01  0.10234046517E+01  0.10231988033E+01 0.  0.
     999903    2    3    3    0    0 -0.88642986682E-01  0.12270644110E-01  0.96733091289E-01  0.13321004901E+00  0.19480205676E-01 0.  0.
         14    1    1    2    0    0  0.11855706996E-01 -0.99638744241E-02  0.13470461816E-01  0.20525348315E-01  0.00000000000E+00 0.  1.
     999901    1    3    3    0    0  0.76787279686E-01 -0.23067696854E-02 -0.11020355310E+00  0.89019460267E+00  0.88000000000E+00 0.  1.
        -11    1    4    4    0    0 -0.39977040956E-01  0.85722124301E-02  0.30872884651E-01  0.51235171096E-01  0.51100000000E-03 0.  1.
         11    1    4    4    0    0 -0.48665945727E-01  0.36984316795E-02  0.65860206638E-01  0.81974877918E-01  0.51100000000E-03 0. -1.
</event>
<event>
 8    1  0.1092993E+005  0.1043930E+01  0.7957747E-01            NaN
         13   -1    0    0    0    0  0.00000000000E+00  0.00000000000E+00  0.74505805969E-08  0.10566000000E+00  0.10566000000E+00 0.  1.
     999900   -1    0    0    0    0 -0.00000000000E+00 -0.00000000000E+00 -0.74505805969E-08  0.93827000000E+00  0.93827000000E+00 0. -1.
     999902    2    1    2    0    0  0.19666288315E-01 -0.28030461315E-02  0.13994401930E-01  0.10196305504E+01  0.10193409617E+01 0.  0.
     999903    2    3    3    0    0 -0.74538668866E-01  0.44330971201E-01 -0.90331302280E-01  0.12722927180E+00  0.22501005935E-01 0.  0.
         14    1    1    2    0    0 -0.19666288315E-01  0.28030461315E-02 -0.13994401930E-01  0.24299449563E-01  0.00000000000E+00 0. -1.
     999901    1    3    3    0    0  0.94204957182E-01 -0.47134017332E-01  0.10432570421E+00  0.89240127863E+00  0.88000000000E+00 0. -1.
        -11    1    4    4    0    0 -0.18708700961E-01  0.13461327324E-01 -0.11339887581E-01  0.25691963653E-01  0.51100000000E-03 0. -1.
         11    1    4    4    0    0 -0.55829967905E-01  0.30869643877E-01 -0.78991414699E-01  0.10153730815E+00  0.51100000000E-03 0.  1.
</event>
<event>
 8    1  0.1092993E+005  0.1043930E+01  0.7957747E-01            NaN
         13   -1    0    0    0    0  0.00000000000E+00  0.00000000000E+00  0.74505805969E-08  0.10566000000E+00  0.10566000000E+00 0.  1.
     999900   -1    0    0    0    0 -0.00000000000E+00 -0.00000000000E+00 -0.74505805969E-08  0.93827000000E+00  0.93827000000E+00 0. -1.
     999902    2    1    2    0    0  0.20314984614E-01  0.52177986284E-02  0.16099820647E-01  0.10174889666E+01  0.10171453529E+01 0.  0.
     999903    2    3    3    0    0  0.97786648102E-02 -0.12416664858E+00  0.21375968762E-01  0.12795021705E+00  0.20033649140E-01 0.  0.
         14    1    1    2    0    0 -0.20314984614E-01 -0.52177986284E-02 -0.16099820647E-01  0.26441033400E-01  0.00000000000E+00 0.  1.
     999901    1    3    3    0    0  0.10536319804E-01  0.12938444721E+00 -0.52761481146E-02  0.88953874955E+00  0.88000000000E+00 0. -1.
        -11    1    4    4    0    0 -0.41392495757E-02 -0.50425823743E-01  0.29902011794E-02  0.50686285239E-01  0.51100000000E-03 0. -1.
         11    1    4    4    0    0  0.13917914386E-01 -0.73740824834E-01  0.18385767583E-01  0.77263931810E-01  0.51100000000E-03 0.  1.
</event>
<event>
 8    1  0.1092993E+005  0.1043930E+01  0.7957747E-01            NaN
         13   -1    0    0    0    0  0.00000000000E+00  0.00000000000E+00  0.74505805969E-08  0.10566000000E+00  0.10566000000E+00 0.  1.
     999900   -1    0    0    0    0 -0.00000000000E+00 -0.00000000000E+00 -0.74505805969E-08  0.93827000000E+00  0.93827000000E+00 0.  1.
     999902    2    1    2    0    0 -0.94234760075E-03  0.23301894192E-01 -0.44642578304E-02  0.10201856135E+01  0.10199092558E+01 0.  0.
     999903    2    3    3    0    0 -0.14216507503E-01 -0.11806255513E+00 -0.42826652058E-01  0.12797948029E+00  0.20093512412E-01 0.  0.
         14    1    1    2    0    0  0.94234760075E-03 -0.23301894192E-01  0.44642578304E-02  0.23744386493E-01  0.00000000000E+00 0. -1.
     999901    1    3    3    0    0  0.13274159902E-01  0.14136444932E+00  0.38362394228E-01  0.89220613321E+00  0.88000000000E+00 0. -1.
        -11    1    4    4    0    0 -0.11331040247E-01 -0.24560445320E-01 -0.96196202762E-02  0.28712473990E-01  0.51100000000E-03 0.  1.
         11    1    4    4    0    0 -0.28854672556E-02 -0.93502109807E-01 -0.33207031782E-01  0.99267006304E-01  0.51100000000E-03 0. -1.
</event>
<event>
 8    1  0.1092993E+005  0.1043930E+01  0.7957747E-01            NaN
         13   -1    0    0    0    0  0.00000000000E+00  0.00000000000E+00  0.74505805969E-08  0.10566000000E+00  0.10566000000E+00 0. -1.
     999900   -1    0    0    0    0 -0.00000000000E+00 -0.00000000000E+00 -0.74505805969E-08  0.93827000000E+00  0.93827000000E+00 0. -1.
     999902    2    1    2    0    0  0.95188860662E-02 -0.15087397048E-01 -0.20467299201E-01  0.10167795105E+01  0.10164169538E+01 0.  0.
     999903    2    3    3    0    0 -0.12209851553E+00  0.22417602909E-01  0.58939114462E-02  0.12581111668E+00  0.19573003646E-01 0.  0.
         14    1    1    2    0    0 -0.95188860662E-02  0.15087397048E-01  0.20467299201E-01  0.27150489466E-01  0.00000000000E+00 0. -1.
     999901    1    3    3    0    0  0.13161740160E+00 -0.37504999957E-01 -0.26361210648E-01  0.89096839386E+00  0.88000000000E+00 0.  1.
        -11    1    4    4    0    0 -0.61274145394E-01  0.21003654227E-01  0.11962618485E-02  0.64787086275E-01  0.51100000000E-03 0. -1.
         11    1    4    4    0    0 -0.60824370140E-01  0.14139486829E-02  0.46976495976E-02  0.61024030402E-01  0.51100000000E-03 0.  1.
</event>
<event>
 8    1  0.1092993E+005  0.1043930E+01  0.7957747E-01            NaN
         13   -1    0    0    0    0  0.00000000000E+00  0.00000000000E+00  0.74505805969E-08  0.10566000000E+00  0.10566000000E+00 0.  1.
     999900   -1    0    0    0    0 -0.00000000000E+00 -0.00000000000E+00 -0.74505805969E-08  0.93827000000E+00  0.93827000000E+00 0.  1.
     999902    2    1    2    0    0 -0.78073462352E-02 -0.86749086054E-02 -0.21661873923E-01  0.10193241983E+01  0.10190271713E+01 0.  0.
     999903    2    3    3    0    0 -0.45807473453E-01  0.87915349706E-02  0.11708153024E+00  0.12747285503E+00  0.19121410394E-01 0.  0.
         14    1    1    2    0    0  0.78073462352E-02  0.86749086054E-02  0.21661873923E-01  0.24605801682E-01  0.00000000000E+00 0.  1.
     999901    1    3    3    0    0  0.38000127218E-01 -0.17466443576E-01 -0.13874340416E+00  0.89185134328E+00  0.88000000000E+00 0.  1.
        -11    1    4    4    0    0 -0.16944384854E-01  0.11397638064E-01  0.61238308948E-01  0.64555479514E-01  0.51100000000E-03 0.  1.
         11    1    4    4    0    0 -0.28863088599E-01 -0.26061030932E-02  0.55843221293E-01  0.62917375519E-01  0.51100000000E-03 0. -1.
</event>
<event>
 8    1  0.1092993E+005  0.1043930E+01  0.7957747E-01            NaN
         13   -1    0    0    0    0  0.00000000000E+00  0.00000000000E+00  0.74505805969E-08  0.10566000000E+00  0.10566000000E+00 0. -1.
     999900   -1    0    0    0    0 -0.00000000000E+00 -0.00000000000E+00 -0.74505805969E-08  0.93827000000E+00  0.93827000000E+00 0. -1.
     999902    2    1    2    0    0  0.15682247569E-01 -0.10972957720E-01 -0.14633503491E-01  0.10198368866E+01  0.10195522533E+01 0.  0.
     999903    2    3    3    0    0  0.23019779863E-01 -0.40606506869E-01 -0.12275909014E+00  0.13269364611E+00  0.18947581394E-01 0.  0.
         14    1    1    2    0    0 -0.15682247569E-01  0.10972957720E-01  0.14633503491E-01  0.24093113422E-01  0.00000000000E+00 0. -1.
     999901    1    3    3    0    0 -0.73375322941E-02  0.29633549149E-01  0.10812558665E+00  0.88714324047E+00  0.88000000000E+00 0.  1.
        -11    1    4    4    0    0  0.16812823407E-01 -0.19842776460E-01 -0.45083503626E-01  0.52049882121E-01  0.51100000000E-03 0. -1.
         11    1    4    4    0    0  0.62069564559E-02 -0.20763730409E-01 -0.77675586517E-01  0.80643763991E-01  0.51100000000E-03 0.  1.
</event>
<event>
 8    1  0.1092993E+005  0.1043930E+01  0.7957747E-01            NaN
         13   -1    0    0    0    0  0.00000000000E+00  0.00000000000E+00  0.74505805969E-08  0.10566000000E+00  0.10566000000E+00 0. -1.
     999900   -1    0    0    0    0 -0.00000000000E+00 -0.00000000000E+00 -0.74505805969E-08  0.93827000000E+00  0.93827000000E+00 0.  1.
     999902    2    1    2    0    0  0.45474953497E-02  0.22466450953E-01 -0.61919739254E-02  0.10201863340E+01  0.10199099933E+01 0.  0.
     999903    2    3    3    0    0  0.11842599281E+00  0.54642170225E-01 -0.91888058913E-02  0.13226034044E+00  0.19946953631E-01 0.  0.
         14    1    1    2    0    0 -0.45474953497E-02 -0.22466450953E-01  0.61919739254E-02  0.23743665965E-01  0.00000000000E+00 0. -1.
     999901    1    3    3    0    0 -0.11387849747E+00 -0.32175719272E-01  0.29968319658E-02  0.88792599359E+00  0.88000000000E+00 0.  1.
        -11    1    4    4    0    0  0.76731029799E-01  0.31708750878E-01  0.31921162703E-02  0.83087583570E-01  0.51100000000E-03 0. -1.
         11    1    4    4    0    0  0.41694963016E-01  0.22933419347E-01 -0.12380922162E-01  0.49172756872E-01  0.51100000000E-03 0.  1.
</event>
<event>
 8    1  0.1092993E+005  0.1043930E+01  0.7957747E-01            NaN
         13   -1    0    0    0    0  0.00000000000E+00  0.00000000000E+00  0.74505805969E-08  0.10566000000E+00  0.10566000000E+00 0.  1.
     999900   -1    0    0    0    0 -0.00000000000E+00 -0.00000000000E+00 -0.74505805969E-08  0.93827000000E+00  0.93827000000E+00 0.  1.
     999902    2    1    2    0    0  0.64490214064E-02 -0.41554393625E-02 -0.24951744046E-01  0.10178254585E+01  0.10174906471E+01 0.  0.
     999903    2    3    3    0    0  0.99052636120E-01 -0.36517283724E-01  0.68741911374E-01  0.12743160216E+00  0.19194429323E-01 0.  0.
         14    1    1    2    0    0 -0.64490214064E-02  0.41554393625E-02  0.24951744046E-01  0.26104541450E-01  0.00000000000E+00 0.  1.
     999901    1    3    3    0    0 -0.92603614714E-01  0.32361844362E-01 -0.93693655420E-01  0.89039385639E+00  0.88000000000E+00 0.  1.
        -11    1    4    4    0    0  0.12301509486E-01 -0.71002373652E-02  0.26106207767E-02  0.14450500619E-01  0.51100000000E-03 0. -1.
         11    1    4    4    0    0  0.86751126634E-01 -0.29417046359E-01  0.66131290597E-01  0.11298110154E+00  0.51100000000E-03 0.  1.
</event>
<event>
 8    1  0.1160859E+005  0.1043930E+01  0.7957747E-01            NaN
         13   -1    0    0    0    0  0.00000000000E+00  0.00000000000E+00  0.74505805969E-08  0.10566000000E+00  0.10566000000E+00 0. -1.
     999900   -1    0    0    0    0 -0.00000000000E+00 -0.00000000000E+00 -0.74505805969E-08  0.93827000000E+00  0.93827000000E+00 0. -1.
     999902    2    1    2    0    0  0.73659408264E-03 -0.11226012680E-01  0.20338765531E-01  0.10206871234E+01  0.10204224480E+01 0.  0.
     999903    2    3    3    0    0  0.50708992327E-02  0.15386691175E-01 -0.12562820812E+00  0.12825596096E+00  0.20116673712E-01 0.  0.
         14    1    1    2    0    0 -0.73659408264E-03  0.11226012680E-01 -0.20338765531E-01  0.23242876648E-01  0.00000000000E+00 0.  1.
     999901    1    3    3    0    0 -0.43343051501E-02 -0.26612703854E-01  0.14596697366E+00  0.89243116239E+00  0.88000000000E+00 0.  1.
        -11    1    4    4    0    0 -0.10595517369E-02 -0.19416591957E-02 -0.61544352802E-01  0.61586209277E-01  0.51100000000E-03 0. -1.
         11    1    4    4    0    0  0.61304509696E-02  0.17328350370E-01 -0.64083855323E-01  0.66669751684E-01  0.51100000000E-03 0.  1.
</event>
<event>
 8    1  0.1092993E+005  0.1043930E+01  0.7957747E-01            NaN
         13   -1    0    0    0    0  0.00000000000E+00  0.00000000000E+00  0.74505805969E-08  0.10566000000E+00  0.10566000000E+00 0.  1.
     999900   -1    0    0    0    0 -0.00000000000E+00 -0.00000000000E+00 -0.74505805969E-08  0.93827000000E+00  0.93827000000E+00 0.  1.
     999902    2    1    2    0    0  0.17635410527E-01  0.16090621282E-01  0.54869435424E-02  0.10194346464E+01  0.10191403122E+01 0.  0.
     999903    2    3    3    0    0  0.87985090808E-01  0.49623921203E-01 -0.82167010340E-01  0.13165270509E+00  0.19419253553E-01 0.  0.
         14    1    1    2    0    0 -0.17635410527E-01 -0.16090621282E-01 -0.54869435424E-02  0.24495353583E-01  0.00000000000E+00 0. -1.
     999901    1    3    3    0    0 -0.70349680281E-01 -0.33533299921E-01  0.87653953883E-01  0.88778194133E+00  0.88000000000E+00 0. -1.
        -11    1    4    4    0    0  0.50502162680E-01  0.22745063806E-01 -0.55309080754E-01  0.78276189852E-01  0.51100000000E-03 0. -1.
         11    1    4    4    0    0  0.37482928129E-01  0.26878857398E-01 -0.26857929587E-01  0.53376515236E-01  0.51100000000E-03 0.  1.
</event>
<event>
 8    1  0.1092993E+005  0.1043930E+01  0.7957747E-01            NaN
         13   -1    0    0    0    0  0.00000000000E+00  0.00000000000E+00  0.74505805969E-08  0.10566000000E+00  0.10566000000E+00 0. -1.
     999900   -1    0    0    0    0 -0.00000000000E+00 -0.00000000000E+00 -0.74505805969E-08  0.93827000000E+00  0.93827000000E+00 0. -1.
     999902    2    1    2    0    0 -0.24863345815E-02 -0.42534382285E-02  0.22781035130E-01  0.10206222940E+01  0.10203561231E+01 0.  0.
     999903    2    3    3    0    0 -0.48050380443E-01  0.11395692369E+00  0.41260105588E-01  0.13135785192E+00  0.16045854009E-01 0.  0.
         14    1    1    2    0    0  0.24863345815E-02  0.42534382285E-02 -0.22781035130E-01  0.23307705979E-01  0.00000000000E+00 0.  1.
     999901    1    3    3    0    0  0.45564045862E-01 -0.11821036192E+00 -0.18479070458E-01  0.88926444210E+00  0.88000000000E+00 0.  1.
        -11    1    4    4    0    0 -0.35687327648E-01  0.99010904295E-01  0.33359726176E-01  0.11040777588E+00  0.51100000000E-03 0.  1.
         11    1    4    4    0    0 -0.12363052795E-01  0.14946019393E-01  0.79003794118E-02  0.20950076037E-01  0.51100000000E-03 0. -1.
</event>
<event>
 8    1  0.1092993E+005  0.1043930E+01  0.7957747E-01            NaN
         13   -1    0    0    0    0  0.00000000000E+00  0.00000000000E+00  0.74505805969E-08  0.10566000000E+00  0.10566000000E+00 0. -1.
     999900   -1    0    0    0    0 -0.00000000000E+00 -0.00000000000E+00 -0.74505805969E-08  0.93827000000E+00  0.93827000000E+00 0.  1.
     999902    2    1    2    0    0 -0.29267600321E-02 -0.26556095622E-01  0.28193486775E-03  0.10172116238E+01  0.10168606669E+01 0.  0.
     999903    2    3    3    0    0  0.17281975487E-01  0.97553447003E-01 -0.73844161134E-01  0.12518794157E+00  0.20092756980E-01 0.  0.
         14    1    1    2    0    0  0.29267600321E-02  0.26556095622E-01 -0.28193486775E-03  0.26718376190E-01  0.00000000000E+00 0.  1.
     999901    1    3    3    0    0 -0.20208735519E-01 -0.12410954262E+00  0.74126096001E-01  0.89202368224E+00  0.88000000000E+00 0. -1.
        -11    1    4    4    0    0  0.15251924144E-01  0.39857736301E-01 -0.38608654590E-01  0.57551278555E-01  0.51100000000E-03 0.  1.
         11    1    4    4    0    0  0.20300513433E-02  0.57695710702E-01 -0.35235506544E-01  0.67636663018E-01  0.51100000000E-03 0. -1.
</event>
<event>
 8    1  0.1092993E+005  0.1043930E+01  0.7957747E-01            NaN
         13   -1    0    0    0    0  0.00000000000E+00  0.00000000000E+00  0.74505805969E-08  0.10566000000E+00  0.10566000000E+00 0.  1.
     999900   -1    0    0    0    0 -0.00000000000E+00 -0.00000000000E+00 -0.74505805969E-08  0.93827000000E+00  0.93827000000E+00 0. -1.
     999902    2    1    2    0    0 -0.19149529104E-01 -0.14643385372E-01 -0.60486223278E-03  0.10198157084E+01  0.10195305685E+01 0.  0.
     999903    2    3    3    0    0 -0.83376804338E-01  0.97287508975E-01  0.12751535873E-01  0.13030344804E+00  0.19995899590E-01 0.  0.
         14    1    1    2    0    0  0.19149529104E-01  0.14643385372E-01  0.60486223278E-03  0.24114291580E-01  0.00000000000E+00 0. -1.
     999901    1    3    3    0    0  0.64227275233E-01 -0.11193089435E+00 -0.13356398106E-01  0.88951226038E+00  0.88000000000E+00 0. -1.
        -11    1    4    4    0    0 -0.43705226132E-01  0.65004663547E-01  0.42113944207E-02  0.78445841433E-01  0.51100000000E-03 0.  1.
         11    1    4    4    0    0 -0.39671578205E-01  0.32282845429E-01  0.85401414521E-02  0.51857606609E-01  0.51100000000E-03 0. -1.
</event>
<event>
 8    1  0.1092993E+005  0.1043930E+01  0.7957747E-01            NaN
         13   -1    0    0    0    0  0.00000000000E+00  0.00000000000E+00  0.74505805969E-08  0.10566000000E+00  0.10566000000E+00 0.  1.
     999900   -1    0    0    0    0 -0.00000000000E+00 -0.00000000000E+00 -0.74505805969E-08  0.93827000000E+00  0.93827000000E+00 0.  1.
     999902    2    1    2    0    0  0.18911518985E-01  0.97075781458E-02  0.11030097348E-01  0.10199811864E+01  0.10196999926E+01 0.  0.
     999903    2    3    3    0    0  0.16088823280E-01 -0.47352097177E-01  0.11953611201E+00  0.13147832804E+00  0.22284463812E-01 0.  0.
         14    1    1    2    0    0 -0.18911518985E-01 -0.97075781458E-02 -0.11030097348E-01  0.23948813567E-01  0.00000000000E+00 0.  1.
     999901    1    3    3    0    0  0.28226957046E-02  0.57059675323E-01 -0.10850601466E+00  0.88850285840E+00  0.88000000000E+00 0.  1.
        -11    1    4    4    0    0  0.60805693381E-03 -0.11881268971E-01  0.54588692859E-01  0.55872361635E-01  0.51100000000E-03 0. -1.
         11    1    4    4    0    0  0.15480766346E-01 -0.35470828206E-01  0.64947419151E-01  0.75605966403E-01  0.51100000000E-03 0.  1.
</event>
<event>
 8    1  0.1092993E+005  0.1043930E+01  0.7957747E-01            NaN
         13   -1    0    0    0    0  0.00000000000E+00  0.00000000000E+00  0.74505805969E-08  0.10566000000E+00  0.10566000000E+00 0. -1.
     999900   -1    0    0    0    0 -0.00000000000E+00 -0.00000000000E+00 -0.74505805969E-08  0.93827000000E+00  0.93827000000E+00 0.  1.
     999902    2    1    2    0    0 -0.15728952991E-02 -0.23085780518E-01  0.56224653631E-02  0.10201174113E+01  0.10198394450E+01 0.  0.
     999903    2    3    3    0    0 -0.25036337266E-01  0.74588426312E-01 -0.99890677542E-01  0.12813994127E+00  0.15857035225E-01 0.  0.
         14    1    1    2    0    0  0.15728952991E-02  0.23085780518E-01 -0.56224653631E-02  0.23812588656E-01  0.00000000000E+00 0.  1.
     999901    1    3    3    0    0  0.23463441967E-01 -0.97674206830E-01  0.10551314290E+00  0.89197747007E+00  0.88000000000E+00 0. -1.
        -11    1    4    4    0    0  0.44353703842E-03  0.14451715772E-01 -0.23898951811E-01  0.27936890173E-01  0.51100000000E-03 0. -1.
         11    1    4    4    0    0 -0.25479874305E-01  0.60136710539E-01 -0.75991725731E-01  0.10020305110E+00  0.51100000000E-03 0.  1.
</event>
<event>
 8    1  0.1092993E+005  0.1043930E+01  0.7957747E-01            NaN
         13   -1    0    0    0    0  0.00000000000E+00  0.00000000000E+00  0.74505805969E-08  0.10566000000E+00  0.10566000000E+00 0.  1.
     999900   -1    0    0    0    0 -0.00000000000E+00 -0.00000000000E+00 -0.74505805969E-08  0.93827000000E+00  0.93827000000E+00 0. -1.
     999902    2    1    2    0    0 -0.21102490806E-01  0.50837058686E-02 -0.94913657635E-02  0.10202393857E+01  0.10199642929E+01 0.  0.
     999903    2    3    3    0    0 -0.95590209256E-01  0.19233845560E-01  0.86382485572E-01  0.13179105176E+00  0.19987961097E-01 0.  0.
         14    1    1    2    0    0  0.21102490806E-01 -0.50837058686E-02  0.94913657635E-02  0.23690614336E-01  0.00000000000E+00 0. -1.
     999901    1    3    3    0    0  0.74487718450E-01 -0.14150139691E-01 -0.95873851336E-01  0.88844833391E+00  0.88000000000E+00 0. -1.
        -11    1    4    4    0    0 -0.66520936857E-01  0.22607190526E-01  0.60348838470E-01  0.92619455458E-01  0.51100000000E-03 0.  1.
         11    1    4    4    0    0 -0.29069272399E-01 -0.33733449661E-02  0.26033647102E-01  0.39171596298E-01  0.51100000000E-03 0. -1.
</event>
<event>
 8    1  0.1092993E+005  0.1043930E+01  0.7957747E-01            NaN
         13   -1    0    0    0    0  0.00000000000E+00  0.00000000000E+00  0.74505805969E-08  0.10566000000E+00  0.10566000000E+00 0.  1.
     999900   -1    0    0    0    0 -0.00000000000E+00 -0.00000000000E+00 -0.74505805969E-08  0.93827000000E+00  0.93827000000E+00 0. -1.
     999902    2    1    2    0    0 -0.19077373623E-01 -0.11054213350E-01  0.75367433385E-02  0.10206288344E+01  0.10203628146E+01 0.  0.
     999903    2    3    3    0    0  0.73962305221E-01  0.26283966107E-01  0.10136336764E+00  0.12998077996E+00  0.21428984875E-01 0.  0.
         14    1    1    2    0    0  0.19077373623E-01  0.11054213350E-01 -0.75367433385E-02  0.23301165578E-01  0.00000000000E+00 0. -1.
     999901    1    3    3    0    0 -0.93039678844E-01 -0.37338179457E-01 -0.93826624300E-01  0.89064805446E+00  0.88000000000E+00 0. -1.
        -11    1    4    4    0    0  0.36544984485E-01  0.21574275052E-02  0.50625955350E-01  0.62477506837E-01  0.51100000000E-03 0. -1.
         11    1    4    4    0    0  0.37417320736E-01  0.24126538602E-01  0.50737412289E-01  0.67503273126E-01  0.51100000000E-03 0.  1.
</event>
<event>
 8    1  0.1092993E+005  0.1043930E+01  0.7957747E-01            NaN
         13   -1    0    0    0    0  0.00000000000E+00  0.00000000000E+00  0.74505805969E-08  0.10566000000E+00  0.10566000000E+00 0. -1.
     999900   -1    0    0    0    0 -0.00000000000E+00 -0.00000000000E+00 -0.74505805969E-08  0.93827000000E+00  0.93827000000E+00 0. -1.
     999902    2    1    2    0    0 -0.22090370682E-01  0.12172506301E-03 -0.94979834578E-02  0.10198839820E+01  0.10196004736E+01 0.  0.
     999903    2    3    3    0    0  0.40287081612E-01  0.35568324526E-01  0.11492003376E+00  0.12824097549E+00  0.18734433082E-01 0.  0.
         14    1    1    2    0    0  0.22090370682E-01 -0.12172506301E-03  0.94979834578E-02  0.24046018041E-01  0.00000000000E+00 0.  1.
     999901    1    3    3    0    0 -0.62377452295E-01 -0.35446599463E-01 -0.12441801721E+00  0.89164300646E+00  0.88000000000E+00 0. -1.
        -11    1    4    4    0    0  0.53991691905E-02  0.14360374348E-01  0.41228727729E-01  0.43993641478E-01  0.51100000000E-03 0.  1.
         11    1    4    4    0    0  0.34887912422E-01  0.21207950178E-01  0.73691306027E-01  0.84247334017E-01  0.51100000000E-03 0. -1.
</event>
<event>
 8    1  0.1092993E+005  0.1043930E+01  0.7957747E-01            NaN
         13   -1    0    0    0    0  0.00000000000E+00  0.00000000000E+00  0.74505805969E-08  0.10566000000E+00  0.10566000000E+00 0.  1.
     999900   -1    0    0    0    0 -0.00000000000E+00 -0.00000000000E+00 -0.74505805969E-08  0.93827000000E+00  0.93827000000E+00 0.  1.
     999902    2    1    2    0    0 -0.19112945714E-01  0.80445209570E-02 -0.11031183635E-01  0.10204415768E+01  0.10201712139E+01 0.  0.
     999903    2    3    3    0    0 -0.31037958819E-01  0.12694487374E+00 -0.10307903004E-01  0.13236499061E+00  0.18327084300E-01 0.  0.
         14    1    1    2    0    0  0.19112945714E-01 -0.80445209570E-02  0.11031183635E-01  0.23488423184E-01  0.00000000000E+00 0.  1.
     999901    1    3    3    0    0  0.11925013105E-01 -0.11890035278E+00 -0.72328063144E-03  0.88807658620E+00  0.88000000000E+00 0. -1.
        -11    1    4    4    0    0  0.10000773505E-02  0.23715284327E-01  0.42174978767E-03  0.23745607158E-01  0.51100000000E-03 0. -1.
         11    1    4    4    0    0 -0.32038036170E-01  0.10322958941E+00 -0.10729652792E-01  0.10861938345E+00  0.51100000000E-03 0.  1.
</event>
<event>
 8    1  0.1092993E+005  0.1043930E+01  0.7957747E-01            NaN
         13   -1    0    0    0    0  0.00000000000E+00  0.00000000000E+00  0.74505805969E-08  0.10566000000E+00  0.10566000000E+00 0.  1.
     999900   -1    0    0    0    0 -0.00000000000E+00 -0.00000000000E+00 -0.74505805969E-08  0.93827000000E+00  0.93827000000E+00 0. -1.
     999902    2    1    2    0    0  0.21700116009E-01  0.90626891269E-02  0.33475113692E-02  0.10201764066E+01  0.10198998320E+01 0.  0.
     999903    2    3    3    0    0  0.12448095008E+00 -0.41549572737E-01  0.14938510734E-03  0.13274430836E+00  0.19978867820E-01 0.  0.
         14    1    1    2    0    0 -0.21700116009E-01 -0.90626891269E-02 -0.33475113692E-02  0.23753593441E-01  0.00000000000E+00 0.  1.
     999901    1    3    3    0    0 -0.10278083407E+00  0.50612261864E-01  0.31981262619E-02  0.88743209820E+00  0.88000000000E+00 0. -1.
        -11    1    4    4    0    0  0.24721485463E-01 -0.61855156429E-02  0.77153717447E-02  0.26630819165E-01  0.51100000000E-03 0. -1.
         11    1    4    4    0    0  0.99759464614E-01 -0.35364057094E-01 -0.75659866374E-02  0.10611348919E+00  0.51100000000E-03 0.  1.
</event>
<event>
 8    1  0.1092993E+005  0.1043930E+01  0.7957747E-01            NaN
         13   -1    0    0    0    0  0.00000000000E+00  0.00000000000E+00  0.74505805969E-08  0.10566000000E+00  0.10566000000E+00 0. -1.
     999900   -1    0    0    0    0 -0.00000000000E+00 -0.00000000000E+00 -0.74505805969E-08  0.93827000000E+00  0.93827000000E+00 0.  1.
     999902    2    1    2    0    0  0.29749076662E-02  0.20242864910E-01  0.12656244606E-01  0.10198716505E+01  0.10195878477E+01 0.  0.
     999903    2    3    3    0    0  0.33444285287E-01 -0.71553724987E-01  0.10143993925E+00  0.13013149663E+00  0.20141731846E-01 0.  0.
         14    1    1    2    0    0 -0.29749076662E-02 -0.20242864910E-01 -0.12656244606E-01  0.24058349546E-01  0.00000000000E+00 0.  1.
     999901    1    3    3    0    0 -0.30469377621E-01  0.91796589896E-01 -0.88783694648E-01  0.88974015382E+00  0.88000000000E+00 0.  1.
        -11    1    4    4    0    0  0.14722447750E-01 -0.46243550911E-01  0.49014027927E-01  0.68977188427E-01  0.51100000000E-03 0. -1.
         11    1    4    4    0    0  0.18721837537E-01 -0.25310174076E-01  0.52425911327E-01  0.61154308204E-01  0.51100000000E-03 0.  1.
</event>
<event>
 8    1  0.1092993E+005  0.1043930E+01  0.7957747E-01            NaN
         13   -1    0    0    0    0  0.00000000000E+00  0.00000000000E+00  0.74505805969E-08  0.10566000000E+00  0.10566000000E+00 0.  1.
     999900   -1    0    0    0    0 -0.00000000000E+00 -0.00000000000E+00 -0.74505805969E-08  0.93827000000E+00  0.93827000000E+00 0. -1.
     999902    2    1    2    0    0  0.38910180823E-02 -0.13515179394E-01 -0.18962126925E-01  0.10203214771E+01  0.10200483098E+01 0.  0.
     999903    2    3    3    0    0  0.21727895561E-01  0.65001529485E-01  0.10677533857E+00  0.12774490448E+00  0.14848818600E-01 0.  0.
         14    1    1    2    0    0 -0.38910180823E-02  0.13515179394E-01  0.18962126925E-01  0.23608522895E-01  0.00000000000E+00 0.  1.
     999901    1    3    3    0    0 -0.17836877479E-01 -0.78516708879E-01 -0.12573746549E+00  0.89257657263E+00  0.88000000000E+00 0.  1.
        -11    1    4    4    0    0  0.18886291300E-01  0.59243886672E-01  0.86936000955E-01  0.10688619878E+00  0.51100000000E-03 0. -1.
         11    1    4    4    0    0  0.28416042607E-02  0.57576428128E-02  0.19839337611E-01  0.20858705697E-01  0.51100000000E-03 0.  1.
</event>
<event>
 8    1  0.1092993E+005  0.1043930E+01  0.7957747E-01            NaN
         13   -1    0    0    0    0  0.00000000000E+00  0.00000000000E+00  0.74505805969E-08  0.10566000000E+00  0.10566000000E+00 0. -1.
     999900   -1    0    0    0    0 -0.00000000000E+00 -0.00000000000E+00 -0.74505805969E-08  0.93827000000E+00  0.93827000000E+00 0.  1.
     999902    2    1    2    0    0  0.69548591516E-02  0.10182158295E-01  0.19950131358E-01  0.10204767667E+01  0.10202072226E+01 0.  0.
     999903    2    3    3    0    0  0.10815771247E+00 -0.64307749278E-01  0.32370723762E-01  0.13146324877E+00  0.20028595486E-01 0.  0.
         14    1    1    2    0    0 -0.69548591516E-02 -0.10182158295E-01 -0.19950131358E-01  0.23453233349E-01  0.00000000000E+00 0.  1.
     999901    1    3    3    0    0 -0.10120285332E+00  0.74489907572E-01 -0.12420592405E-01  0.88901351788E+00  0.88000000000E+00 0.  1.
        -11    1    4    4    0    0  0.48804059263E-01 -0.18161333960E-01  0.16446328681E-01  0.54611474068E-01  0.51100000000E-03 0. -1.
         11    1    4    4    0    0  0.59353653209E-01 -0.46146415317E-01  0.15924395082E-01  0.76851774707E-01  0.51100000000E-03 0.  1.
</event>
<event>
 8    1  0.1092993E+005  0.1043930E+01  0.7957747E-01            NaN
         13   -1    0    0    0    0  0.00000000000E+00  0.00000000000E+00  0.74505805969E-08  0.10566000000E+00  0.10566000000E+00 0. -1.
     999900   -1    0    0    0    0 -0.00000000000E+00 -0.00000000000E+00 -0.74505805969E-08  0.93827000000E+00  0.93827000000E+00 0. -1.
     999902    2    1    2    0    0 -0.82406347493E-02  0.90365736140E-02  0.20978811095E-01  0.10196467087E+01  0.10193575095E+01 0.  0.
     999903    2    3    3    0    0 -0.11254536351E+00 -0.17752887532E-01  0.63724311460E-01  0.13205202104E+00  0.19882769583E-01 0.  0.
         14    1    1    2    0    0  0.82406347493E-02 -0.90365736140E-02 -0.20978811095E-01  0.24283291348E-01  0.00000000000E+00 0.  1.
     999901    1    3    3    0    0  0.10430472876E+00  0.26789461146E-01 -0.42745500365E-01  0.88759468761E+00  0.88000000000E+00 0.  1.
        -11    1    4    4    0    0 -0.56348874975E-01 -0.94182242865E-02  0.20629169606E-01  0.60743085362E-01  0.51100000000E-03 0.  1.
         11    1    4    4    0    0 -0.56196488538E-01 -0.83346632455E-02  0.43095141854E-01  0.71308935680E-01  0.51100000000E-03 0. -1.
</event>
<event>
 8    1  0.1092993E+005  0.1043930E+01  0.7957747E-01            NaN
         13   -1    0    0    0    0  0.00000000000E+00  0.00000000000E+00  0.74505805969E-08  0.10566000000E+00  0.10566000000E+00 0.  1.
     999900   -1    0    0    0    0 -0.00000000000E+00 -0.00000000000E+00 -0.74505805969E-08  0.93827000000E+00  0.93827000000E+00 0. -1.
     999902    2    1    2    0    0 -0.45602948318E-02 -0.80782789380E-02  0.22021370008E-01  0.10200344854E+01  0.10197545567E+01 0.  0.
     999903    2    3    3    0    0  0.78331429380E-01 -0.61713541238E-01  0.84527957847E-01  0.13230994886E+00  0.20410117799E-01 0.  0.
         14    1    1    2    0    0  0.45602948318E-02  0.80782789380E-02 -0.22021370008E-01  0.23895514571E-01  0.00000000000E+00 0. -1.
     999901    1    3    3    0    0 -0.82891724211E-01  0.53635262300E-01 -0.62506587839E-01  0.88772453657E+00  0.88000000000E+00 0.  1.
        -11    1    4    4    0    0  0.41064565880E-01 -0.42478489258E-01  0.41359497059E-01  0.72122047521E-01  0.51100000000E-03 0. -1.
         11    1    4    4    0    0  0.37266863499E-01 -0.19235051980E-01  0.43168460788E-01  0.60187901339E-01  0.51100000000E-03 0.  1.
</event>
<event>
 8    1  0.1092993E+005  0.1043930E+01  0.7957747E-01            NaN
         13   -1    0    0    0    0  0.00000000000E+00  0.00000000000E+00  0.74505805969E-08  0.10566000000E+00  0.10566000000E+00 0.  1.
     999900   -1    0    0    0    0 -0.00000000000E+00 -0.00000000000E+00 -0.74505805969E-08  0.93827000000E+00  0.93827000000E+00 0. -1.
     999902    2    1    2    0    0 -0.22086285997E-01 -0.71502489750E-02  0.97583022327E-03  0.10206946318E+01  0.10204301295E+01 0.  0.
     999903    2    3    3    0    0 -0.80017335486E-01 -0.49685243775E-03 -0.10375566282E+00  0.13256797430E+00  0.20149674975E-01 0.  0.
         14    1    1    2    0    0  0.22086285997E-01  0.71502489750E-02 -0.97583022327E-03  0.23235368174E-01  0.00000000000E+00 0.  1.
     999901    1    3    3    0    0  0.57931049489E-01 -0.66533965373E-02  0.10473149304E+00  0.88812665753E+00  0.88000000000E+00 0.  1.
        -11    1    4    4    0    0 -0.29934408441E-01 -0.99217144612E-02 -0.40779112825E-01  0.51552947446E-01  0.51100000000E-03 0.  1.
         11    1    4    4    0    0 -0.50082927045E-01  0.94248620235E-02 -0.62976549993E-01  0.81015026850E-01  0.51100000000E-03 0. -1.
</event>
<event>
 8    1  0.1092993E+005  0.1043930E+01  0.7957747E-01            NaN
         13   -1    0    0    0    0  0.00000000000E+00  0.00000000000E+00  0.74505805969E-08  0.10566000000E+00  0.10566000000E+00 0.  1.
     999900   -1    0    0    0    0 -0.00000000000E+00 -0.00000000000E+00 -0.74505805969E-08  0.93827000000E+00  0.93827000000E+00 0. -1.
     999902    2    1    2    0    0 -0.16738957580E-01 -0.15396117145E-01 -0.10891814142E-01  0.10187136414E+01  0.10184015016E+01 0.  0.
     999903    2    3    3    0    0  0.33750027902E-01  0.10439882221E+00 -0.62260426960E-01  0.12768126294E+00  0.19696844377E-01 0.  0.
         14    1    1    2    0    0  0.16738957580E-01  0.15396117145E-01  0.10891814142E-01  0.25216358566E-01  0.00000000000E+00 0. -1.
     999901    1    3    3    0    0 -0.50488985482E-01 -0.11979493935E+00  0.51368612818E-01  0.89103237850E+00  0.88000000000E+00 0.  1.
        -11    1    4    4    0    0  0.18848221019E-01  0.75944137295E-01 -0.35746483950E-01  0.86028132962E-01  0.51100000000E-03 0. -1.
         11    1    4    4    0    0  0.14901806883E-01  0.28454684910E-01 -0.26513943009E-01  0.41653129974E-01  0.51100000000E-03 0.  1.
</event>
<event>
 8    1  0.1092993E+005  0.1043930E+01  0.7957747E-01            NaN
         13   -1    0    0    0    0  0.00000000000E+00  0.00000000000E+00  0.74505805969E-08  0.10566000000E+00  0.10566000000E+00 0. -1.
     999900   -1    0    0    0    0 -0.00000000000E+00 -0.00000000000E+00 -0.74505805969E-08  0.93827000000E+00  0.93827000000E+00 0.  1.
     999902    2    1    2    0    0  0.68344127513E-02 -0.15636771691E-01  0.16609058068E-01  0.10201165870E+01  0.10198386012E+01 0.  0.
     999903    2    3    3    0    0  0.53752324107E-01  0.38466542994E-01  0.11225002005E+00  0.13204246138E+00  0.21590676942E-01 0.  0.
         14    1    1    2    0    0 -0.68344127513E-02  0.15636771691E-01 -0.16609058068E-01  0.23813412954E-01  0.00000000000E+00 0.  1.
     999901    1    3    3    0    0 -0.46917911356E-01 -0.54103314686E-01 -0.95640961977E-01  0.88807412566E+00  0.88000000000E+00 0.  1.
        -11    1    4    4    0    0  0.32809966875E-01  0.29686320117E-01  0.55951259959E-01  0.71334256430E-01  0.51100000000E-03 0.  1.
         11    1    4    4    0    0  0.20942357231E-01  0.87802228768E-02  0.56298760087E-01  0.60708204952E-01  0.51100000000E-03 0. -1.
</event>
<event>
 8    1  0.1092993E+005  0.1043930E+01  0.7957747E-01            NaN
         13   -1    0    0    0    0  0.00000000000E+00  0.00000000000E+00  0.74505805969E-08  0.10566000000E+00  0.10566000000E+00 0. -1.
     999900   -1    0    0    0    0 -0.00000000000E+00 -0.00000000000E+00 -0.74505805969E-08  0.93827000000E+00  0.93827000000E+00 0.  1.
     999902    2    1    2    0    0  0.27494517600E-02  0.19881431634E-01  0.13427755742E-01  0.10197818027E+01  0.10194958507E+01 0.  0.
     999903    2    3    3    0    0 -0.97053865152E-01  0.50384221159E-01 -0.67328644156E-01  0.12994321151E+00  0.19851181612E-01 0.  0.
         14    1    1    2    0    0 -0.27494517600E-02 -0.19881431634E-01 -0.13427755742E-01  0.24148197305E-01  0.00000000000E+00 0.  1.
     999901    1    3    3    0    0  0.99803316912E-01 -0.30502789525E-01  0.80756399899E-01  0.88983859118E+00  0.88000000000E+00 0. -1.
        -11    1    4    4    0    0 -0.90977789759E-01  0.50233492104E-01 -0.58643075021E-01  0.11932993475E+00  0.51100000000E-03 0. -1.
         11    1    4    4    0    0 -0.60760753925E-02  0.15072905435E-03 -0.86855691352E-02  0.10613276762E-01  0.51100000000E-03 0.  1.
</event>
<event>
 8    1  0.1092993E+005  0.1043930E+01  0.7957747E-01            NaN
         13   -1    0    0    0    0  0.00000000000E+00  0.00000000000E+00  0.74505805969E-08  0.10566000000E+00  0.10566000000E+00 0.  1.
     999900   -1    0    0    0    0 -0.00000000000E+00 -0.00000000000E+00 -0.74505805969E-08  0.93827000000E+00  0.93827000000E+00 0. -1.
     999902    2    1    2    0    0 -0.14318378038E-01  0.13823445596E-01  0.13375171534E-01  0.10199508672E+01  0.10196689525E+01 0.  0.
     999903    2    3    3    0    0 -0.52923829670E-01  0.14944747778E-01 -0.11575489304E+00  0.12968898896E+00  0.19893751854E-01 0.  0.
         14    1    1    2    0    0  0.14318378038E-01 -0.13823445596E-01 -0.13375171534E-01  0.23979132832E-01  0.00000000000E+00 0.  1.
     999901    1    3    3    0    0  0.38605451632E-01 -0.11213021813E-02  0.12913006457E+00  0.89026187821E+00  0.88000000000E+00 0.  1.
        -11    1    4    4    0    0 -0.16217738325E-01  0.11366897725E-01 -0.56709031668E-01  0.60069932529E-01  0.51100000000E-03 0.  1.
         11    1    4    4    0    0 -0.36706091344E-01  0.35778500524E-02 -0.59045861367E-01  0.69619056431E-01  0.51100000000E-03 0. -1.
</event>
<event>
 8    1  0.1092993E+005  0.1043930E+01  0.7957747E-01            NaN
         13   -1    0    0    0    0  0.00000000000E+00  0.00000000000E+00  0.74505805969E-08  0.10566000000E+00  0.10566000000E+00 0. -1.
     999900   -1    0    0    0    0 -0.00000000000E+00 -0.00000000000E+00 -0.74505805969E-08  0.93827000000E+00  0.93827000000E+00 0.  1.
     999902    2    1    2    0    0  0.45397346074E-02 -0.99510032599E-02 -0.20912740273E-01  0.10203296957E+01  0.10200567208E+01 0.  0.
     999903    2    3    3    0    0  0.22885427190E-01  0.11504765259E+00  0.48881298977E-01  0.12857163643E+00  0.19534051294E-01 0.  0.
         14    1    1    2    0    0 -0.45397346074E-02  0.99510032599E-02  0.20912740273E-01  0.23600304276E-01  0.00000000000E+00 0. -1.
     999901    1    3    3    0    0 -0.18345692583E-01 -0.12499865585E+00 -0.69794039250E-01  0.89175805929E+00  0.88000000000E+00 0. -1.
        -11    1    4    4    0    0  0.21991731693E-01  0.10696585009E+00  0.39456842816E-01  0.11611387908E+00  0.51100000000E-03 0. -1.
         11    1    4    4    0    0  0.89369549754E-03  0.80818025012E-02  0.94244561608E-02  0.12457757352E-01  0.51100000000E-03 0.  1.
</event>
<event>
 8    1  0.1092993E+005  0.1043930E+01  0.7957747E-01            NaN
         13   -1    0    0    0    0  0.00000000000E+00  0.00000000000E+00  0.74505805969E-08  0.10566000000E+00  0.10566000000E+00 0. -1.
     999900   -1    0    0    0    0 -0.00000000000E+00 -0.00000000000E+00 -0.74505805969E-08  0.93827000000E+00  0.93827000000E+00 0. -1.
     999902    2    1    2    0    0 -0.62014507378E-02  0.20767850296E-01 -0.12498886680E-01  0.10189103324E+01  0.10186031032E+01 0.  0.
     999903    2    3    3    0    0 -0.87333638405E-01  0.89776161391E-01 -0.38030410754E-01  0.13212036992E+00  0.17959856782E-01 0.  0.
         14    1    1    2    0    0  0.62014507378E-02 -0.20767850296E-01  0.12498886680E-01  0.25019667572E-01  0.00000000000E+00 0. -1.
     999901    1    3    3    0    0  0.81132187668E-01 -0.69008311094E-01  0.25531524074E-01  0.88678996250E+00  0.88000000000E+00 0. -1.
        -11    1    4    4    0    0 -0.70211205660E-01  0.60855479166E-01 -0.27980724864E-01  0.97037028137E-01  0.51100000000E-03 0. -1.
         11    1    4    4    0    0 -0.17122432745E-01  0.28920682225E-01 -0.10049685890E-01  0.35083341787E-01  0.51100000000E-03 0.  1.
</event>
<event>
 8    1  0.1092993E+005  0.1043930E+01  0.7957747E-01            NaN
         13   -1    0    0    0    0  0.00000000000E+00  0.00000000000E+00  0.74505805969E-08  0.10566000000E+00  0.10566000000E+00 0.  1.
     999900   -1    0    0    0    0 -0.00000000000E+00 -0.00000000000E+00 -0.74505805969E-08  0.93827000000E+00  0.93827000000E+00 0. -1.
     999902    2    1    2    0    0  0.11449786045E-01 -0.20508829189E-01  0.22262358238E-02  0.10203362339E+01  0.10200634119E+01 0.  0.
     999903    2    3    3    0    0  0.12723070858E+00  0.12112266734E-01 -0.25351560203E-01  0.13172501810E+00  0.19349898618E-01 0.  0.
         14    1    1    2    0    0 -0.11449786045E-01  0.20508829189E-01 -0.22262358238E-02  0.23593766149E-01  0.00000000000E+00 0.  1.
     999901    1    3    3    0    0 -0.11578092254E+00 -0.32621095922E-01  0.27577796027E-01  0.88861121575E+00  0.88000000000E+00 0.  1.
        -11    1    4    4    0    0  0.94824700687E-01  0.90369358267E-03 -0.21299736834E-01  0.97193006089E-01  0.51100000000E-03 0. -1.
         11    1    4    4    0    0  0.32406007898E-01  0.11208573151E-01 -0.40518233691E-02  0.34532012012E-01  0.51100000000E-03 0.  1.
</event>
<event>
 8    1  0.1092993E+005  0.1043930E+01  0.7957747E-01            NaN
         13   -1    0    0    0    0  0.00000000000E+00  0.00000000000E+00  0.74505805969E-08  0.10566000000E+00  0.10566000000E+00 0. -1.
     999900   -1    0    0    0    0 -0.00000000000E+00 -0.00000000000E+00 -0.74505805969E-08  0.93827000000E+00  0.93827000000E+00 0.  1.
     999902    2    1    2    0    0 -0.12639672130E-01  0.16395140631E-01 -0.13125237522E-01  0.10194180884E+01  0.10191233513E+01 0.  0.
     999903    2    3    3    0    0  0.23417415672E-01 -0.11007526439E+00 -0.58166255706E-01  0.12850643725E+00  0.21578969469E-01 0.  0.
         14    1    1    2    0    0  0.12639672130E-01 -0.16395140631E-01  0.13125237522E-01  0.24511911550E-01  0.00000000000E+00 0. -1.
     999901    1    3    3    0    0 -0.36057087802E-01  0.12647040502E+00  0.45041018184E-01  0.89091165120E+00  0.88000000000E+00 0. -1.
        -11    1    4    4    0    0  0.17063918756E-01 -0.35388512477E-01 -0.15360515136E-01  0.42186854409E-01  0.51100000000E-03 0. -1.
         11    1    4    4    0    0  0.63534969165E-02 -0.74686751916E-01 -0.42805740569E-01  0.86319582839E-01  0.51100000000E-03 0.  1.
</event>
<event>
 8    1  0.1092993E+005  0.1043930E+01  0.7957747E-01            NaN
         13   -1    0    0    0    0  0.00000000000E+00  0.00000000000E+00  0.74505805969E-08  0.10566000000E+00  0.10566000000E+00 0.  1.
     999900   -1    0    0    0    0 -0.00000000000E+00 -0.00000000000E+00 -0.74505805969E-08  0.93827000000E+00  0.93827000000E+00 0.  1.
     999902    2    1    2    0    0  0.18906386811E-01  0.83285569357E-02 -0.10758932016E-01  0.10206368478E+01  0.10203710130E+01 0.  0.
     999903    2    3    3    0    0  0.13583738626E-01 -0.12765128209E+00  0.27234194474E-02  0.13007487855E+00  0.20801183660E-01 0.  0.
         14    1    1    2    0    0 -0.18906386811E-01 -0.83285569357E-02  0.10758932016E-01  0.23293152234E-01  0.00000000000E+00 0.  1.
     999901    1    3    3    0    0  0.53226481855E-02  0.13597983903E+00 -0.13482351463E-01  0.89056196921E+00  0.88000000000E+00 0.  1.
        -11    1    4    4    0    0  0.11553662221E-01 -0.29733641051E-01 -0.24563304416E-02  0.31997987454E-01  0.51100000000E-03 0.  1.
         11    1    4    4    0    0  0.20300764050E-02 -0.97917641044E-01  0.51797498890E-02  0.98076891099E-01  0.51100000000E-03 0. -1.
</event>
<event>
 8    1  0.1092993E+005  0.1043930E+01  0.7957747E-01            NaN
         13   -1    0    0    0    0  0.00000000000E+00  0.00000000000E+00  0.74505805969E-08  0.10566000000E+00  0.10566000000E+00 0.  1.
     999900   -1    0    0    0    0 -0.00000000000E+00 -0.00000000000E+00 -0.74505805969E-08  0.93827000000E+00  0.93827000000E+00 0. -1.
     999902    2    1    2    0    0 -0.10055981457E-01 -0.20805493025E-01 -0.29733664048E-02  0.10206312401E+01  0.10203652758E+01 0.  0.
     999903    2    3    3    0    0  0.11373655555E-02  0.11775319468E+00  0.47202647891E-01  0.12830762543E+00  0.19174157604E-01 0.  0.
         14    1    1    2    0    0  0.10055981457E-01  0.20805493025E-01  0.29733664048E-02  0.23298759857E-01  0.00000000000E+00 0.  1.
     999901    1    3    3    0    0 -0.11193347013E-01 -0.13855868770E+00 -0.50176014296E-01  0.89232361471E+00  0.88000000000E+00 0. -1.
        -11    1    4    4    0    0  0.27686149060E-03  0.10879707247E+00  0.48649811220E-01  0.11918030409E+00  0.51100000000E-03 0.  1.
         11    1    4    4    0    0  0.86050406491E-03  0.89561222025E-02 -0.14471633292E-02  0.91273213406E-02  0.51100000000E-03 0. -1.
</event>
<event>
 7    1  0.1092993E+005  0.1043930E+01  0.7957747E-01            NaN
         13   -1    0    0    0    0  0.00000000000E+00  0.00000000000E+00  0.74505805969E-08  0.10566000000E+00  0.10566000000E+00 0.  1.
     999900   -1    0    0    0    0 -0.00000000000E+00 -0.00000000000E+00 -0.74505805969E-08  0.93827000000E+00  0.93827000000E+00 0. -1.
     999903    2    1    2    0    0  0.27696704920E-01  0.23749393665E-01 -0.20874713149E-01  0.46507187262E-01  0.19900343090E-01 0.  0.
         14    1    1    2    0    0  0.92439643281E-01  0.39738216251E-01  0.36000498648E-01  0.10686556688E+00  0.00000000000E+00 0. -1.
     999901    1    1    2    0    0 -0.12013634820E+00 -0.63487609915E-01 -0.15125785498E-01  0.89055724586E+00  0.88000000000E+00 0. -1.
        -11    1    3    3    0    0  0.12716761370E-01  0.10805976448E-01 -0.20840373474E-01  0.26703322532E-01  0.51100000000E-03 0. -1.
         11    1    3    3    0    0  0.14979943550E-01  0.12943417216E-01 -0.34339675173E-04  0.19803864729E-01  0.51100000000E-03 0.  1.
</event>
<event>
 8    1  0.1092993E+005  0.1043930E+01  0.7957747E-01            NaN
         13   -1    0    0    0    0  0.00000000000E+00  0.00000000000E+00  0.74505805969E-08  0.10566000000E+00  0.10566000000E+00 0. -1.
     999900   -1    0    0    0    0 -0.00000000000E+00 -0.00000000000E+00 -0.74505805969E-08  0.93827000000E+00  0.93827000000E+00 0. -1.
     999902    2    1    2    0    0 -0.23540176595E-01 -0.53542470162E-02  0.45379275639E-02  0.10193657849E+01  0.10190697733E+01 0.  0.
     999903    2    3    3    0    0 -0.52923421297E-01 -0.10281032363E+00  0.60121469334E-01  0.13175630321E+00  0.19346348334E-01 0.  0.
         14    1    1    2    0    0  0.23540176595E-01  0.53542470162E-02 -0.45379275639E-02  0.24564215066E-01  0.00000000000E+00 0.  1.
     999901    1    3    3    0    0  0.29383244702E-01  0.97456076610E-01 -0.55583541770E-01  0.88760948173E+00  0.88000000000E+00 0. -1.
        -11    1    4    4    0    0 -0.39334528791E-01 -0.91089768303E-01  0.52481499488E-01  0.11224580150E+00  0.51100000000E-03 0.  1.
         11    1    4    4    0    0 -0.13588892505E-01 -0.11720555323E-01  0.76399698460E-02  0.19510501707E-01  0.51100000000E-03 0. -1.
</event>
<event>
 8    1  0.1092993E+005  0.1043930E+01  0.7957747E-01            NaN
         13   -1    0    0    0    0  0.00000000000E+00  0.00000000000E+00  0.74505805969E-08  0.10566000000E+00  0.10566000000E+00 0.  1.
     999900   -1    0    0    0    0 -0.00000000000E+00 -0.00000000000E+00 -0.74505805969E-08  0.93827000000E+00  0.93827000000E+00 0.  1.
     999902    2    1    2    0    0  0.14131508510E-01 -0.16200901600E-01 -0.11109630800E-01  0.10197309785E+01  0.10194438071E+01 0.  0.
     999903    2    3    3    0    0  0.93995511912E-01 -0.87363533806E-01 -0.28482540457E-01  0.13308324841E+00  0.20793090171E-01 0.  0.
         14    1    1    2    0    0 -0.14131508510E-01  0.16200901600E-01  0.11109630800E-01  0.24199021508E-01  0.00000000000E+00 0. -1.
     999901    1    3    3    0    0 -0.79864003403E-01  0.71162632206E-01  0.17372909657E-01  0.88664773008E+00  0.88000000000E+00 0. -1.
        -11    1    4    4    0    0  0.28733786215E-01 -0.19032596289E-01 -0.26840313526E-03  0.34470325687E-01  0.51100000000E-03 0. -1.
         11    1    4    4    0    0  0.65261725698E-01 -0.68330937517E-01 -0.28214137322E-01  0.98612922727E-01  0.51100000000E-03 0.  1.
</event>
<event>
 8    1  0.1092993E+005  0.1043930E+01  0.7957747E-01            NaN
         13   -1    0    0    0    0  0.00000000000E+00  0.00000000000E+00  0.74505805969E-08  0.10566000000E+00  0.10566000000E+00 0. -1.
     999900   -1    0    0    0    0 -0.00000000000E+00 -0.00000000000E+00 -0.74505805969E-08  0.93827000000E+00  0.93827000000E+00 0.  1.
     999902    2    1    2    0    0  0.13863250176E-01  0.13241334522E-01 -0.17330180402E-01  0.10180870552E+01  0.10177590059E+01 0.  0.
     999903    2    3    3    0    0  0.57666294485E-01 -0.10422665058E+00  0.40593921928E-01  0.12731624521E+00  0.19312265178E-01 0.  0.
         14    1    1    2    0    0 -0.13863250176E-01 -0.13241334522E-01  0.17330180402E-01  0.25842944843E-01  0.00000000000E+00 0. -1.
     999901    1    3    3    0    0 -0.43803044308E-01  0.11746798511E+00 -0.57924102330E-01  0.89077080994E+00  0.88000000000E+00 0. -1.
        -11    1    4    4    0    0  0.26040106993E-01 -0.45931598674E-01  0.79590742940E-02  0.53398566587E-01  0.51100000000E-03 0. -1.
         11    1    4    4    0    0  0.31626187492E-01 -0.58295051910E-01  0.32634847634E-01  0.73917678627E-01  0.51100000000E-03 0.  1.
</event>
<event>
 8    1  0.1092993E+005  0.1043930E+01  0.7957747E-01            NaN
         13   -1    0    0    0    0  0.00000000000E+00  0.00000000000E+00  0.74505805969E-08  0.10566000000E+00  0.10566000000E+00 0.  1.
     999900   -1    0    0    0    0 -0.00000000000E+00 -0.00000000000E+00 -0.74505805969E-08  0.93827000000E+00  0.93827000000E+00 0.  1.
     999902    2    1    2    0    0  0.59021362041E-02 -0.10386660571E-01  0.31941088295E-01  0.10098279319E+01  0.10092519512E+01 0.  0.
     999903    2    3    3    0    0 -0.28523707046E-01 -0.11697138626E+00  0.11217488064E-01  0.12248644741E+00  0.19524105456E-01 0.  0.
         14    1    1    2    0    0 -0.59021362041E-02  0.10386660571E-01 -0.31941088295E-01  0.34102068135E-01  0.00000000000E+00 0. -1.
     999901    1    3    3    0    0  0.34425843250E-01  0.10658472568E+00  0.20723600231E-01  0.88734148446E+00  0.88000000000E+00 0.  1.
        -11    1    4    4    0    0 -0.15836137942E-01 -0.42398657259E-01  0.12038017365E-01  0.46835930496E-01  0.51100000000E-03 0. -1.
         11    1    4    4    0    0 -0.12687569104E-01 -0.74572728996E-01 -0.82052930073E-03  0.75650516912E-01  0.51100000000E-03 0.  1.
</event>
<event>
 8    1  0.1092993E+005  0.1043930E+01  0.7957747E-01            NaN
         13   -1    0    0    0    0  0.00000000000E+00  0.00000000000E+00  0.74505805969E-08  0.10566000000E+00  0.10566000000E+00 0.  1.
     999900   -1    0    0    0    0 -0.00000000000E+00 -0.00000000000E+00 -0.74505805969E-08  0.93827000000E+00  0.93827000000E+00 0.  1.
     999902    2    1    2    0    0 -0.12366570714E-01 -0.25039351701E-02  0.17242689796E-01  0.10225638559E+01  0.10223406122E+01 0.  0.
     999903    2    3    3    0    0  0.10935124381E+00 -0.58605786518E-01 -0.36438533542E-01  0.13079913477E+00  0.19705689408E-01 0.  0.
         14    1    1    2    0    0  0.12366570714E-01  0.25039351701E-02 -0.17242689796E-01  0.21366144106E-01  0.00000000000E+00 0. -1.
     999901    1    3    3    0    0 -0.12171781452E+00  0.56101851348E-01  0.53681223337E-01  0.89176472112E+00  0.88000000000E+00 0. -1.
        -11    1    4    4    0    0  0.23129507850E-01 -0.42453173107E-02 -0.42004335780E-02  0.23893547575E-01  0.51100000000E-03 0. -1.
         11    1    4    4    0    0  0.86221735957E-01 -0.54360469207E-01 -0.32238099963E-01  0.10690558720E+00  0.51100000000E-03 0.  1.
</event>
<event>
 8    1  0.1092993E+005  0.1043930E+01  0.7957747E-01            NaN
         13   -1    0    0    0    0  0.00000000000E+00  0.00000000000E+00  0.74505805969E-08  0.10566000000E+00  0.10566000000E+00 0. -1.
     999900   -1    0    0    0    0 -0.00000000000E+00 -0.00000000000E+00 -0.74505805969E-08  0.93827000000E+00  0.93827000000E+00 0.  1.
     999902    2    1    2    0    0  0.13465033906E-01 -0.96367188845E-02  0.10141629194E-01  0.10245128392E+01  0.10243288201E+01 0.  0.
     999903    2    3    3    0    0  0.52745547364E-01  0.31530113124E-01 -0.11676189874E+00  0.13359074827E+00  0.20902301879E-01 0.  0.
         14    1    1    2    0    0 -0.13465033906E-01  0.96367188845E-02 -0.10141629194E-01  0.19417160752E-01  0.00000000000E+00 0.  1.
     999901    1    3    3    0    0 -0.39280513458E-01 -0.41166832009E-01  0.12690352794E+00  0.89092209098E+00  0.88000000000E+00 0. -1.
        -11    1    4    4    0    0  0.26102809499E-01  0.27417289765E-01 -0.71562919303E-01  0.80960342032E-01  0.51100000000E-03 0.  1.
         11    1    4    4    0    0  0.26642737865E-01  0.41128233595E-02 -0.45198979440E-01  0.52630406234E-01  0.51100000000E-03 0. -1.
</event>
<event>
 8    1  0.1092993E+005  0.1043930E+01  0.7957747E-01            NaN
         13   -1    0    0    0    0  0.00000000000E+00  0.00000000000E+00  0.74505805969E-08  0.10566000000E+00  0.10566000000E+00 0. -1.
     999900   -1    0    0    0    0 -0.00000000000E+00 -0.00000000000E+00 -0.74505805969E-08  0.93827000000E+00  0.93827000000E+00 0. -1.
     999902    2    1    2    0    0 -0.83148961425E-02 -0.14677115017E-01  0.16578239770E-01  0.10202785046E+01  0.10200043302E+01 0.  0.
     999903    2    3    3    0    0 -0.52127060178E-01 -0.55704062292E-01  0.10778508941E+00  0.13353084848E+00  0.19816383120E-01 0.  0.
         14    1    1    2    0    0  0.83148961425E-02  0.14677115017E-01 -0.16578239770E-01  0.23651495448E-01  0.00000000000E+00 0.  1.
     999901    1    3    3    0    0  0.43812164036E-01  0.41026947276E-01 -0.91206849637E-01  0.88674765607E+00  0.88000000000E+00 0. -1.
        -11    1    4    4    0    0 -0.23256716702E-01 -0.34117236298E-01  0.70242931899E-01  0.81481232730E-01  0.51100000000E-03 0. -1.
         11    1    4    4    0    0 -0.28870343476E-01 -0.21586825994E-01  0.37542157508E-01  0.52049615755E-01  0.51100000000E-03 0.  1.
</event>
<event>
 8    1  0.1092993E+005  0.1043930E+01  0.7957747E-01            NaN
         13   -1    0    0    0    0  0.00000000000E+00  0.00000000000E+00  0.74505805969E-08  0.10566000000E+00  0.10566000000E+00 0. -1.
     999900   -1    0    0    0    0 -0.00000000000E+00 -0.00000000000E+00 -0.74505805969E-08  0.93827000000E+00  0.93827000000E+00 0. -1.
     999902    2    1    2    0    0 -0.14473544399E-01  0.16807359587E-01 -0.11769075127E-02  0.10217183829E+01  0.10214769199E+01 0.  0.
     999903    2    3    3    0    0 -0.92190741056E-01 -0.90075735565E-01  0.17376666696E-01  0.13165760192E+00  0.20469604890E-01 0.  0.
         14    1    1    2    0    0  0.14473544399E-01 -0.16807359587E-01  0.11769075127E-02  0.22211617119E-01  0.00000000000E+00 0.  1.
     999901    1    3    3    0    0  0.77717196658E-01  0.10688309515E+00 -0.18553574209E-01  0.89006078096E+00  0.88000000000E+00 0. -1.
        -11    1    4    4    0    0 -0.17266145624E-01 -0.19992391523E-01  0.11729654112E-01  0.28907808809E-01  0.51100000000E-03 0. -1.
         11    1    4    4    0    0 -0.74924595432E-01 -0.70083344042E-01  0.56470125843E-02  0.10274979311E+00  0.51100000000E-03 0.  1.
</event>
<event>
 8    1  0.1092993E+005  0.1043930E+01  0.7957747E-01            NaN
         13   -1    0    0    0    0  0.00000000000E+00  0.00000000000E+00  0.74505805969E-08  0.10566000000E+00  0.10566000000E+00 0.  1.
     999900   -1    0    0    0    0 -0.00000000000E+00 -0.00000000000E+00 -0.74505805969E-08  0.93827000000E+00  0.93827000000E+00 0.  1.
     999902    2    1    2    0    0 -0.14774344005E-01  0.17998288617E-01 -0.13860349036E-03  0.10206439775E+01  0.10203783073E+01 0.  0.
     999903    2    3    3    0    0 -0.50718389907E-01 -0.42003087693E-02 -0.11964162658E+00  0.13156258374E+00  0.20114595766E-01 0.  0.
         14    1    1    2    0    0  0.14774344005E-01 -0.17998288617E-01  0.13860349036E-03  0.23286022521E-01  0.00000000000E+00 0.  1.
     999901    1    3    3    0    0  0.35944045903E-01  0.22198597386E-01  0.11950302309E+00  0.88908139374E+00  0.88000000000E+00 0. -1.
        -11    1    4    4    0    0 -0.32795031339E-02  0.49780179561E-02 -0.87477542497E-02  0.10598119125E-01  0.51100000000E-03 0. -1.
         11    1    4    4    0    0 -0.47438886773E-01 -0.91783267254E-02 -0.11089387233E+00  0.12096446462E+00  0.51100000000E-03 0.  1.
</event>
<event>
 8    1  0.1092993E+005  0.1043930E+01  0.7957747E-01            NaN
         13   -1    0    0    0    0  0.00000000000E+00  0.00000000000E+00  0.74505805969E-08  0.10566000000E+00  0.10566000000E+00 0.  1.
     999900   -1    0    0    0    0 -0.00000000000E+00 -0.00000000000E+00 -0.74505805969E-08  0.93827000000E+00  0.93827000000E+00 0.  1.
     999902    2    1    2    0    0 -0.15534744849E-01  0.30219133903E-02 -0.18126575324E-01  0.10198668956E+01  0.10195829794E+01 0.  0.
     999903    2    3    3    0    0 -0.30138752770E-01 -0.67608791994E-01  0.10333745268E+00  0.12860067073E+00  0.19498979754E-01 0.  0.
         14    1    1    2    0    0  0.15534744849E-01 -0.30219133903E-02  0.18126575324E-01  0.24063104351E-01  0.00000000000E+00 0.  1.
     999901    1    3    3    0    0  0.14604007921E-01  0.70630705384E-01 -0.12146402800E+00  0.89126622492E+00  0.88000000000E+00 0.  1.
        -11    1    4    4    0    0 -0.98111302323E-02 -0.11087818586E-01  0.32548364831E-01  0.35761084598E-01  0.51100000000E-03 0. -1.
         11    1    4    4    0    0 -0.20327622537E-01 -0.56520973408E-01  0.70789087848E-01  0.92839586128E-01  0.51100000000E-03 0.  1.
</event>
<event>
 8    1  0.1092993E+005  0.1043930E+01  0.7957747E-01            NaN
         13   -1    0    0    0    0  0.00000000000E+00  0.00000000000E+00  0.74505805969E-08  0.10566000000E+00  0.10566000000E+00 0. -1.
     999900   -1    0    0    0    0 -0.00000000000E+00 -0.00000000000E+00 -0.74505805969E-08  0.93827000000E+00  0.93827000000E+00 0.  1.
     999902    2    1    2    0    0  0.18401969921E-01 -0.57424238478E-02 -0.13026793175E-01  0.10206640320E+01  0.10203988244E+01 0.  0.
     999903    2    3    3    0    0  0.63034428444E-01 -0.13978752733E-01  0.11164177655E+00  0.13071900796E+00  0.21326698596E-01 0.  0.
         14    1    1    2    0    0 -0.18401969921E-01  0.57424238478E-02  0.13026793175E-01  0.23265968044E-01  0.00000000000E+00 0. -1.
     999901    1    3    3    0    0 -0.44632458523E-01  0.82363288852E-02 -0.12466856972E+00  0.88994502400E+00  0.88000000000E+00 0.  1.
        -11    1    4    4    0    0  0.40100410385E-01 -0.99562811171E-02  0.89525287418E-01  0.98601260920E-01  0.51100000000E-03 0. -1.
         11    1    4    4    0    0  0.22934018059E-01 -0.40224716159E-02  0.22116489129E-01  0.32117747035E-01  0.51100000000E-03 0.  1.
</event>
<event>
 8    1  0.1092993E+005  0.1043930E+01  0.7957747E-01            NaN
         13   -1    0    0    0    0  0.00000000000E+00  0.00000000000E+00  0.74505805969E-08  0.10566000000E+00  0.10566000000E+00 0.  1.
     999900   -1    0    0    0    0 -0.00000000000E+00 -0.00000000000E+00 -0.74505805969E-08  0.93827000000E+00  0.93827000000E+00 0. -1.
     999902    2    1    2    0    0 -0.23757103931E-01 -0.79876062843E-02  0.14429164822E-01  0.10150093735E+01  0.10145972726E+01 0.  0.
     999903    2    3    3    0    0 -0.39214783518E-01  0.11702976858E+00 -0.12385104631E-01  0.12563471174E+00  0.19922951553E-01 0.  0.
         14    1    1    2    0    0  0.23757103931E-01  0.79876062843E-02 -0.14429164822E-01  0.28920626529E-01  0.00000000000E+00 0. -1.
     999901    1    3    3    0    0  0.15457679587E-01 -0.12501737486E+00  0.26814269452E-01  0.88937466173E+00  0.88000000000E+00 0.  1.
        -11    1    4    4    0    0 -0.36813621059E-01  0.86507945076E-01 -0.13572704844E-01  0.94991297993E-01  0.51100000000E-03 0.  1.
         11    1    4    4    0    0 -0.24011624596E-02  0.30521823502E-01  0.11876002129E-02  0.30643413751E-01  0.51100000000E-03 0. -1.
</event>
<event>
 7    1  0.1092993E+005  0.1043930E+01  0.7957747E-01            NaN
         13   -1    0    0    0    0  0.00000000000E+00  0.00000000000E+00  0.74505805969E-08  0.10566000000E+00  0.10566000000E+00 0.  1.
     999900   -1    0    0    0    0 -0.00000000000E+00 -0.00000000000E+00 -0.74505805969E-08  0.93827000000E+00  0.93827000000E+00 0. -1.
     999903    2    1    2    0    0 -0.19599476815E-01  0.14106675761E-02  0.32988887116E-01  0.43562374152E-01  0.20573874069E-01 0.  0.
         14    1    1    2    0    0  0.11393227490E+00 -0.12905759169E-01 -0.68548321910E-02  0.11486561978E+00  0.00000000000E+00 0.  1.
     999901    1    1    2    0    0 -0.94332798082E-01  0.11495091593E-01 -0.26134054925E-01  0.88550200607E+00  0.88000000000E+00 0.  1.
        -11    1    3    3    0    0 -0.75512598854E-02 -0.74210531910E-02  0.47580661910E-02  0.11618686294E-01  0.51100000000E-03 0. -1.
         11    1    3    3    0    0 -0.12048216929E-01  0.88317207670E-02  0.28230820925E-01  0.31943687858E-01  0.51100000000E-03 0.  1.
</event>
<event>
 8    1  0.1092993E+005  0.1043930E+01  0.7957747E-01            NaN
         13   -1    0    0    0    0  0.00000000000E+00  0.00000000000E+00  0.74505805969E-08  0.10566000000E+00  0.10566000000E+00 0.  1.
     999900   -1    0    0    0    0 -0.00000000000E+00 -0.00000000000E+00 -0.74505805969E-08  0.93827000000E+00  0.93827000000E+00 0.  1.
     999902    2    1    2    0    0 -0.14720100664E-01 -0.51038728897E-02  0.17831076830E-01  0.10202513560E+01  0.10199765444E+01 0.  0.
     999903    2    3    3    0    0 -0.84825078304E-01 -0.86422231522E-01  0.51390421366E-01  0.13309093477E+00  0.20202116217E-01 0.  0.
         14    1    1    2    0    0  0.14720100664E-01  0.51038728897E-02 -0.17831076830E-01  0.23678644027E-01  0.00000000000E+00 0. -1.
     999901    1    3    3    0    0  0.70104977640E-01  0.81318358633E-01 -0.33559344535E-01  0.88716042120E+00  0.88000000000E+00 0.  1.
        -11    1    4    4    0    0 -0.88069388525E-02 -0.62609468711E-02 -0.91971354286E-03  0.10856731630E-01  0.51100000000E-03 0. -1.
         11    1    4    4    0    0 -0.76018139452E-01 -0.80161284651E-01  0.52310134908E-01  0.12223420314E+00  0.51100000000E-03 0.  1.
</event>
<event>
 8    1  0.1092993E+005  0.1043930E+01  0.7957747E-01            NaN
         13   -1    0    0    0    0  0.00000000000E+00  0.00000000000E+00  0.74505805969E-08  0.10566000000E+00  0.10566000000E+00 0.  1.
     999900   -1    0    0    0    0 -0.00000000000E+00 -0.00000000000E+00 -0.74505805969E-08  0.93827000000E+00  0.93827000000E+00 0. -1.
     999902    2    1    2    0    0  0.45641766468E-03 -0.60289916519E-02 -0.23243629741E-01  0.10199128524E+01  0.10196300324E+01 0.  0.
     999903    2    3    3    0    0  0.76964288371E-01 -0.80438339733E-01 -0.68521416183E-01  0.13230917767E+00  0.20413373994E-01 0.  0.
         14    1    1    2    0    0 -0.45641766468E-03  0.60289916519E-02  0.23243629741E-01  0.24017147644E-01  0.00000000000E+00 0.  1.
     999901    1    3    3    0    0 -0.76507870707E-01  0.74409348081E-01  0.45277786442E-01  0.88760367468E+00  0.88000000000E+00 0. -1.
        -11    1    4    4    0    0  0.23362664116E-01 -0.14136706140E-01 -0.22715282404E-01  0.35523312215E-01  0.51100000000E-03 0. -1.
         11    1    4    4    0    0  0.53601624255E-01 -0.66301633593E-01 -0.45806133780E-01  0.96785865459E-01  0.51100000000E-03 0.  1.
</event>
<event>
 8    1  0.1092993E+005  0.1043930E+01  0.7957747E-01            NaN
         13   -1    0    0    0    0  0.00000000000E+00  0.00000000000E+00  0.74505805969E-08  0.10566000000E+00  0.10566000000E+00 0.  1.
     999900   -1    0    0    0    0 -0.00000000000E+00 -0.00000000000E+00 -0.74505805969E-08  0.93827000000E+00  0.93827000000E+00 0. -1.
     999902    2    1    2    0    0 -0.85515849067E-02 -0.12927146173E-01  0.16040507498E-01  0.10216244269E+01  0.10213808942E+01 0.  0.
     999903    2    3    3    0    0  0.70406837488E-02 -0.94059692689E-01  0.93659648207E-01  0.13435313804E+00  0.19540700674E-01 0.  0.
         14    1    1    2    0    0  0.85515849067E-02  0.12927146173E-01 -0.16040507498E-01  0.22305573147E-01  0.00000000000E+00 0.  1.
     999901    1    3    3    0    0 -0.15592268655E-01  0.81132546516E-01 -0.77619140709E-01  0.88727128881E+00  0.88000000000E+00 0. -1.
        -11    1    4    4    0    0 -0.27763569901E-02 -0.13296789773E-01  0.22388068507E-01  0.26191592332E-01  0.51100000000E-03 0.  1.
         11    1    4    4    0    0  0.98170407389E-02 -0.80762902916E-01  0.71271579700E-01  0.10816154571E+00  0.51100000000E-03 0. -1.
</event>
<event>
 8    1  0.1092993E+005  0.1043930E+01  0.7957747E-01            NaN
         13   -1    0    0    0    0  0.00000000000E+00  0.00000000000E+00  0.74505805969E-08  0.10566000000E+00  0.10566000000E+00 0.  1.
     999900   -1    0    0    0    0 -0.00000000000E+00 -0.00000000000E+00 -0.74505805969E-08  0.93827000000E+00  0.93827000000E+00 0. -1.
     999902    2    1    2    0    0  0.22005868404E-01 -0.19143514785E-02 -0.61943945779E-02  0.10209889122E+01  0.10207311425E+01 0.  0.
     999903    2    3    3    0    0  0.83783412257E-01 -0.98788421773E-01  0.22435750182E-01  0.13305832053E+00  0.20550944734E-01 0.  0.
         14    1    1    2    0    0 -0.22005868404E-01  0.19143514785E-02  0.61943945779E-02  0.22941087811E-01  0.00000000000E+00 0. -1.
     999901    1    3    3    0    0 -0.61777543853E-01  0.96874070294E-01 -0.28630144760E-01  0.88793059166E+00  0.88000000000E+00 0. -1.
        -11    1    4    4    0    0  0.19396385679E-01 -0.32015865779E-01  0.13790315027E-01  0.39895730956E-01  0.51100000000E-03 0. -1.
         11    1    4    4    0    0  0.64387026578E-01 -0.66772555993E-01  0.86454351550E-02  0.93162589571E-01  0.51100000000E-03 0.  1.
</event>
<event>
 8    1  0.1092993E+005  0.1043930E+01  0.7957747E-01            NaN
         13   -1    0    0    0    0  0.00000000000E+00  0.00000000000E+00  0.74505805969E-08  0.10566000000E+00  0.10566000000E+00 0. -1.
     999900   -1    0    0    0    0 -0.00000000000E+00 -0.00000000000E+00 -0.74505805969E-08  0.93827000000E+00  0.93827000000E+00 0.  1.
     999902    2    1    2    0    0 -0.89172835672E-02  0.20641074393E-01 -0.28148376223E-02  0.10212695673E+01  0.10210181359E+01 0.  0.
     999903    2    3    3    0    0 -0.10817648540E+00  0.49498337348E-01 -0.57331324844E-01  0.13354372104E+00  0.19869756638E-01 0.  0.
         14    1    1    2    0    0  0.89172835672E-02 -0.20641074393E-01  0.28148376223E-02  0.22660432678E-01  0.00000000000E+00 0. -1.
     999901    1    3    3    0    0  0.99259201828E-01 -0.28857262955E-01  0.54516487221E-01  0.88772584628E+00  0.88000000000E+00 0. -1.
        -11    1    4    4    0    0 -0.32698546179E-01  0.73681284199E-02 -0.22363899298E-01  0.40297510487E-01  0.51100000000E-03 0.  1.
         11    1    4    4    0    0 -0.75477939217E-01  0.42130208928E-01 -0.34967425545E-01  0.93246210556E-01  0.51100000000E-03 0. -1.
</event>
<event>
 8    1  0.1092993E+005  0.1043930E+01  0.7957747E-01            NaN
         13   -1    0    0    0    0  0.00000000000E+00  0.00000000000E+00  0.74505805969E-08  0.10566000000E+00  0.10566000000E+00 0.  1.
     999900   -1    0    0    0    0 -0.00000000000E+00 -0.00000000000E+00 -0.74505805969E-08  0.93827000000E+00  0.93827000000E+00 0. -1.
     999902    2    1    2    0    0  0.10982125395E-01  0.16429306599E-01  0.13553522715E-01  0.10199669624E+01  0.10196854305E+01 0.  0.
     999903    2    3    3    0    0 -0.54167141839E-01 -0.10880429683E+00  0.33759654525E-01  0.12848719806E+00  0.24429316963E-01 0.  0.
         14    1    1    2    0    0 -0.10982125395E-01 -0.16429306599E-01 -0.13553522715E-01  0.23963037610E-01  0.00000000000E+00 0. -1.
     999901    1    3    3    0    0  0.65149267234E-01  0.12523360343E+00 -0.20206131809E-01  0.89147976433E+00  0.88000000000E+00 0. -1.
        -11    1    4    4    0    0 -0.46999292913E-01 -0.69150907027E-01  0.20885536290E-01  0.86181484230E-01  0.51100000000E-03 0.  1.
         11    1    4    4    0    0 -0.71678489262E-02 -0.39653389805E-01  0.12874118235E-01  0.42305713829E-01  0.51100000000E-03 0. -1.
</event>
<event>
 8    1  0.1092993E+005  0.1043930E+01  0.7957747E-01            NaN
         13   -1    0    0    0    0  0.00000000000E+00  0.00000000000E+00  0.74505805969E-08  0.10566000000E+00  0.10566000000E+00 0.  1.
     999900   -1    0    0    0    0 -0.00000000000E+00 -0.00000000000E+00 -0.74505805969E-08  0.93827000000E+00  0.93827000000E+00 0. -1.
     999902    2    1    2    0    0 -0.54753271920E-02 -0.65605251454E-02 -0.21952868956E-01  0.10203726624E+01  0.10201006921E+01 0.  0.
     999903    2    3    3    0    0  0.30724842321E-01 -0.19863800564E-01  0.12093574761E+00  0.12801366172E+00  0.20578047209E-01 0.  0.
         14    1    1    2    0    0  0.54753271920E-02  0.65605251454E-02  0.21952868956E-01  0.23557337572E-01  0.00000000000E+00 0.  1.
     999901    1    3    3    0    0 -0.36200169513E-01  0.13303275418E-01 -0.14288861657E+00  0.89235900071E+00  0.88000000000E+00 0. -1.
        -11    1    4    4    0    0  0.11432052683E-01 -0.19341716533E-01  0.71178993190E-01  0.74642508128E-01  0.51100000000E-03 0.  1.
         11    1    4    4    0    0  0.19292789638E-01 -0.52208403044E-03  0.49756754421E-01  0.53371153588E-01  0.51100000000E-03 0. -1.
</event>
<event>
 8    1  0.1092993E+005  0.1043930E+01  0.7957747E-01            NaN
         13   -1    0    0    0    0  0.00000000000E+00  0.00000000000E+00  0.74505805969E-08  0.10566000000E+00  0.10566000000E+00 0. -1.
     999900   -1    0    0    0    0 -0.00000000000E+00 -0.00000000000E+00 -0.74505805969E-08  0.93827000000E+00  0.93827000000E+00 0.  1.
     999902    2    1    2    0    0 -0.24062213145E-01  0.36163119807E-02  0.58379586990E-02  0.10189070191E+01  0.10185997074E+01 0.  0.
     999903    2    3    3    0    0 -0.27949539342E-01  0.19430780343E-01  0.12460708833E+00  0.13077903567E+00  0.20432761286E-01 0.  0.
         14    1    1    2    0    0  0.24062213145E-01 -0.36163119807E-02 -0.58379586990E-02  0.25022980948E-01  0.00000000000E+00 0.  1.
     999901    1    3    3    0    0  0.38873261974E-02 -0.15814468362E-01 -0.11876912963E+00  0.88812798338E+00  0.88000000000E+00 0.  1.
        -11    1    4    4    0    0 -0.28802283107E-01  0.10738099064E-01  0.91053695430E-01  0.96103667236E-01  0.51100000000E-03 0.  1.
         11    1    4    4    0    0  0.85274376482E-03  0.86926812794E-02  0.33553392901E-01  0.34675368433E-01  0.51100000000E-03 0. -1.
</event>
<event>
 8    1  0.1092993E+005  0.1043930E+01  0.7957747E-01            NaN
         13   -1    0    0    0    0  0.00000000000E+00  0.00000000000E+00  0.74505805969E-08  0.10566000000E+00  0.10566000000E+00 0. -1.
     999900   -1    0    0    0    0 -0.00000000000E+00 -0.00000000000E+00 -0.74505805969E-08  0.93827000000E+00  0.93827000000E+00 0. -1.
     999902    2    1    2    0    0  0.14154390950E-01  0.97088878960E-02 -0.15299121584E-01  0.10209371227E+01  0.10206781746E+01 0.  0.
     999903    2    3    3    0    0  0.58455770092E-01 -0.62048366409E-01  0.95818917087E-01  0.12994950531E+00  0.20941161100E-01 0.  0.
         14    1    1    2    0    0 -0.14154390950E-01 -0.97088878960E-02  0.15299121584E-01  0.22992877345E-01  0.00000000000E+00 0. -1.
     999901    1    3    3    0    0 -0.44301379142E-01  0.71757254305E-01 -0.11111803867E+00  0.89098761734E+00  0.88000000000E+00 0.  1.
        -11    1    4    4    0    0  0.44532723487E-01 -0.54869226619E-01  0.68298351197E-01  0.98278794194E-01  0.51100000000E-03 0. -1.
         11    1    4    4    0    0  0.13923046605E-01 -0.71791397907E-02  0.27520565890E-01  0.31670711119E-01  0.51100000000E-03 0.  1.
</event>
<event>
 8    1  0.1092993E+005  0.1043930E+01  0.7957747E-01            NaN
         13   -1    0    0    0    0  0.00000000000E+00  0.00000000000E+00  0.74505805969E-08  0.10566000000E+00  0.10566000000E+00 0.  1.
     999900   -1    0    0    0    0 -0.00000000000E+00 -0.00000000000E+00 -0.74505805969E-08  0.93827000000E+00  0.93827000000E+00 0. -1.
     999902    2    1    2    0    0  0.69465558059E-02 -0.12035099381E-01 -0.74195371228E-03  0.10300142266E+01  0.10299202193E+01 0.  0.
     999903    2    3    3    0    0 -0.55087392423E-01 -0.11449759019E+00  0.55412691737E-01  0.14012652750E+00  0.20507519132E-01 0.  0.
         14    1    1    2    0    0 -0.69465558059E-02  0.12035099381E-01  0.74195371228E-03  0.13915773424E-01  0.00000000000E+00 0.  1.
     999901    1    3    3    0    0  0.62033948229E-01  0.10246249081E+00 -0.56154645449E-01  0.88988769907E+00  0.88000000000E+00 0. -1.
        -11    1    4    4    0    0 -0.55497412882E-01 -0.10224131577E+00  0.48488203047E-01  0.12603418760E+00  0.51100000000E-03 0. -1.
         11    1    4    4    0    0  0.41002045924E-03 -0.12256274421E-01  0.69244886899E-02  0.14092339908E-01  0.51100000000E-03 0.  1.
</event>
<event>
 8    1  0.1092993E+005  0.1043930E+01  0.7957747E-01            NaN
         13   -1    0    0    0    0  0.00000000000E+00  0.00000000000E+00  0.74505805969E-08  0.10566000000E+00  0.10566000000E+00 0.  1.
     999900   -1    0    0    0    0 -0.00000000000E+00 -0.00000000000E+00 -0.74505805969E-08  0.93827000000E+00  0.93827000000E+00 0.  1.
     999902    2    1    2    0    0  0.14706898079E-02  0.24066891112E-01  0.36052279175E-02  0.10195501755E+01  0.10192586445E+01 0.  0.
     999903    2    3    3    0    0  0.11042714736E+00  0.23578469199E-01  0.63757406386E-01  0.13079259728E+00  0.17076227608E-01 0.  0.
         14    1    1    2    0    0 -0.14706898079E-02 -0.24066891112E-01 -0.36052279175E-02  0.24379824540E-01  0.00000000000E+00 0.  1.
     999901    1    3    3    0    0 -0.10895645756E+00  0.48842191263E-03 -0.60152178469E-01  0.88875757818E+00  0.88000000000E+00 0.  1.
        -11    1    4    4    0    0  0.62484538274E-01  0.21816204486E-01  0.35316407991E-01  0.75018491693E-01  0.51100000000E-03 0.  1.
         11    1    4    4    0    0  0.47942609089E-01  0.17622647126E-02  0.28440998395E-01  0.55774105586E-01  0.51100000000E-03 0. -1.
</event>
<event>
 8    1  0.1092993E+005  0.1043930E+01  0.7957747E-01            NaN
         13   -1    0    0    0    0  0.00000000000E+00  0.00000000000E+00  0.74505805969E-08  0.10566000000E+00  0.10566000000E+00 0. -1.
     999900   -1    0    0    0    0 -0.00000000000E+00 -0.00000000000E+00 -0.74505805969E-08  0.93827000000E+00  0.93827000000E+00 0.  1.
     999902    2    1    2    0    0 -0.15425622297E-02 -0.22603468835E-01  0.98099022465E-02  0.10192413288E+01  0.10189422731E+01 0.  0.
     999903    2    3    3    0    0 -0.12530767925E+00 -0.90414275966E-02  0.28175591041E-01  0.13028743145E+00  0.19929600410E-01 0.  0.
         14    1    1    2    0    0  0.15425622297E-02  0.22603468835E-01 -0.98099022465E-02  0.24688671161E-01  0.00000000000E+00 0.  1.
     999901    1    3    3    0    0  0.12376511702E+00 -0.13562041239E-01 -0.18365688794E-01  0.88895389739E+00  0.88000000000E+00 0. -1.
        -11    1    4    4    0    0 -0.53542083485E-01 -0.55472173380E-02  0.22057797057E-01  0.58175027771E-01  0.51100000000E-03 0. -1.
         11    1    4    4    0    0 -0.71765595763E-01 -0.34942102587E-02  0.61177939836E-02  0.72112403682E-01  0.51100000000E-03 0.  1.
</event>
<event>
 8    1  0.1092993E+005  0.1043930E+01  0.7957747E-01            NaN
         13   -1    0    0    0    0  0.00000000000E+00  0.00000000000E+00  0.74505805969E-08  0.10566000000E+00  0.10566000000E+00 0. -1.
     999900   -1    0    0    0    0 -0.00000000000E+00 -0.00000000000E+00 -0.74505805969E-08  0.93827000000E+00  0.93827000000E+00 0. -1.
     999902    2    1    2    0    0  0.21536305128E-01 -0.21077012452E-02  0.11317707191E-01  0.10195098170E+01  0.10192173083E+01 0.  0.
     999903    2    3    3    0    0  0.78942532158E-01  0.95862033941E-01  0.40011283809E-01  0.13175035335E+00  0.18324842166E-01 0.  0.
         14    1    1    2    0    0 -0.21536305128E-01  0.21077012452E-02 -0.11317707191E-01  0.24420183029E-01  0.00000000000E+00 0.  1.
     999901    1    3    3    0    0 -0.57406227030E-01 -0.97969735186E-01 -0.28693576618E-01  0.88775946362E+00  0.88000000000E+00 0. -1.
        -11    1    4    4    0    0  0.25800587428E-01  0.40693858430E-01  0.22458982957E-01  0.53163215309E-01  0.51100000000E-03 0.  1.
         11    1    4    4    0    0  0.53141944730E-01  0.55168175511E-01  0.17552300852E-01  0.78587138038E-01  0.51100000000E-03 0. -1.
</event>
<event>
 8    1  0.1092993E+005  0.1043930E+01  0.7957747E-01            NaN
         13   -1    0    0    0    0  0.00000000000E+00  0.00000000000E+00  0.74505805969E-08  0.10566000000E+00  0.10566000000E+00 0.  1.
     999900   -1    0    0    0    0 -0.00000000000E+00 -0.00000000000E+00 -0.74505805969E-08  0.93827000000E+00  0.93827000000E+00 0. -1.
     999902    2    1    2    0    0  0.20780050316E-01  0.10759931413E-01 -0.53683923114E-02  0.10199215379E+01  0.10196389250E+01 0.  0.
     999903    2    3    3    0    0  0.25508960931E-01  0.74280533110E-01  0.10299915588E+00  0.13098916989E+00  0.19520036641E-01 0.  0.
         14    1    1    2    0    0 -0.20780050316E-01 -0.10759931413E-01  0.53683923114E-02  0.24008462074E-01  0.00000000000E+00 0.  1.
     999901    1    3    3    0    0 -0.47289106151E-02 -0.63520601697E-01 -0.10836754819E+00  0.88893236803E+00  0.88000000000E+00 0. -1.
        -11    1    4    4    0    0  0.11848395025E-01  0.52044628766E-01  0.56937337384E-01  0.78045815759E-01  0.51100000000E-03 0. -1.
         11    1    4    4    0    0  0.13660565905E-01  0.22235904344E-01  0.46061818496E-01  0.52943354134E-01  0.51100000000E-03 0.  1.
</event>
<event>
 8    1  0.1092993E+005  0.1043930E+01  0.7957747E-01            NaN
         13   -1    0    0    0    0  0.00000000000E+00  0.00000000000E+00  0.74505805969E-08  0.10566000000E+00  0.10566000000E+00 0.  1.
     999900   -1    0    0    0    0 -0.00000000000E+00 -0.00000000000E+00 -0.74505805969E-08  0.93827000000E+00  0.93827000000E+00 0. -1.
     999902    2    1    2    0    0 -0.19901469670E-01 -0.84289418454E-02 -0.97408375005E-02  0.10202234720E+01  0.10199480052E+01 0.  0.
     999903    2    3    3    0    0  0.51549876224E-01 -0.10612140964E+00  0.51048042290E-01  0.12986152254E+00  0.18411113287E-01 0.  0.
         14    1    1    2    0    0  0.19901469670E-01  0.84289418454E-02  0.97408375005E-02  0.23706528023E-01  0.00000000000E+00 0.  1.
     999901    1    3    3    0    0 -0.71451345894E-01  0.97692467797E-01 -0.60788879790E-01  0.89036194943E+00  0.88000000000E+00 0. -1.
        -11    1    4    4    0    0  0.23534285158E-01 -0.64495430452E-01  0.35726893754E-01  0.77396351241E-01  0.51100000000E-03 0.  1.
         11    1    4    4    0    0  0.28015591066E-01 -0.41625979190E-01  0.15321148536E-01  0.52465171302E-01  0.51100000000E-03 0. -1.
</event>
<event>
 8    1  0.1092993E+005  0.1043930E+01  0.7957747E-01            NaN
         13   -1    0    0    0    0  0.00000000000E+00  0.00000000000E+00  0.74505805969E-08  0.10566000000E+00  0.10566000000E+00 0.  1.
     999900   -1    0    0    0    0 -0.00000000000E+00 -0.00000000000E+00 -0.74505805969E-08  0.93827000000E+00  0.93827000000E+00 0. -1.
     999902    2    1    2    0    0  0.13775136342E-01  0.13785258380E-01  0.14688867804E-01  0.10195260952E+01  0.10192339811E+01 0.  0.
     999903    2    3    3    0    0  0.60557940437E-02 -0.11636423051E+00 -0.48254137873E-01  0.12769634711E+00  0.20014706080E-01 0.  0.
         14    1    1    2    0    0 -0.13775136342E-01 -0.13785258380E-01 -0.14688867804E-01  0.24403904753E-01  0.00000000000E+00 0. -1.
     999901    1    3    3    0    0  0.77193422980E-02  0.13014948889E+00  0.62943005676E-01  0.89182974814E+00  0.88000000000E+00 0.  1.
        -11    1    4    4    0    0  0.69147359834E-02 -0.69764019480E-01 -0.38828188949E-01  0.80141882719E-01  0.51100000000E-03 0. -1.
         11    1    4    4    0    0 -0.85894193973E-03 -0.46600211028E-01 -0.94259489236E-02  0.47554464388E-01  0.51100000000E-03 0.  1.
</event>
<event>
 8    1  0.1092993E+005  0.1043930E+01  0.7957747E-01            NaN
         13   -1    0    0    0    0  0.00000000000E+00  0.00000000000E+00  0.74505805969E-08  0.10566000000E+00  0.10566000000E+00 0.  1.
     999900   -1    0    0    0    0 -0.00000000000E+00 -0.00000000000E+00 -0.74505805969E-08  0.93827000000E+00  0.93827000000E+00 0. -1.
     999902    2    1    2    0    0  0.80433716489E-02  0.21916445763E-01 -0.16364086167E-02  0.10205269178E+01  0.10202585387E+01 0.  0.
     999903    2    3    3    0    0  0.11733604795E+00  0.59201711253E-01 -0.31018386389E-02  0.13298129781E+00  0.20045283711E-01 0.  0.
         14    1    1    2    0    0 -0.80433716489E-02 -0.21916445763E-01  0.16364086167E-02  0.23403082180E-01  0.00000000000E+00 0.  1.
     999901    1    3    3    0    0 -0.10929267631E+00 -0.37285265490E-01  0.14654300222E-02  0.88754562001E+00  0.88000000000E+00 0.  1.
        -11    1    4    4    0    0  0.83326031795E-01  0.51130002294E-01 -0.56738819102E-02  0.97928334849E-01  0.51100000000E-03 0. -1.
         11    1    4    4    0    0  0.34010016159E-01  0.80717089589E-02  0.25720432713E-02  0.35052962960E-01  0.51100000000E-03 0.  1.
</event>
<event>
 8    1  0.1092993E+005  0.1043930E+01  0.7957747E-01            NaN
         13   -1    0    0    0    0  0.00000000000E+00  0.00000000000E+00  0.74505805969E-08  0.10566000000E+00  0.10566000000E+00 0.  1.
     999900   -1    0    0    0    0 -0.00000000000E+00 -0.00000000000E+00 -0.74505805969E-08  0.93827000000E+00  0.93827000000E+00 0. -1.
     999902    2    1    2    0    0  0.19957920004E-02  0.31106197458E-02 -0.22813256630E-01  0.10208193137E+01  0.10205576748E+01 0.  0.
     999903    2    3    3    0    0 -0.11206446620E+00 -0.23301596144E-01  0.56945635054E-01  0.12948950473E+00  0.20574681420E-01 0.  0.
         14    1    1    2    0    0 -0.19957920004E-02 -0.31106197458E-02  0.22813256630E-01  0.23110686250E-01  0.00000000000E+00 0.  1.
     999901    1    3    3    0    0  0.11406025820E+00  0.26412215890E-01 -0.79758891684E-01  0.89132980902E+00  0.88000000000E+00 0. -1.
        -11    1    4    4    0    0 -0.10282538331E+00 -0.19269863970E-01  0.45091920773E-01  0.11392071607E+00  0.51100000000E-03 0.  1.
         11    1    4    4    0    0 -0.92390828890E-02 -0.40317321744E-02  0.11853714281E-01  0.15568788656E-01  0.51100000000E-03 0. -1.
</event>
<event>
 8    1  0.1092993E+005  0.1043930E+01  0.7957747E-01            NaN
         13   -1    0    0    0    0  0.00000000000E+00  0.00000000000E+00  0.74505805969E-08  0.10566000000E+00  0.10566000000E+00 0. -1.
     999900   -1    0    0    0    0 -0.00000000000E+00 -0.00000000000E+00 -0.74505805969E-08  0.93827000000E+00  0.93827000000E+00 0.  1.
     999902    2    1    2    0    0 -0.99057473444E-02  0.86019470124E-02  0.19258038340E-01  0.10206278678E+01  0.10203618256E+01 0.  0.
     999903    2    3    3    0    0 -0.11449595604E+00  0.29752075469E-01  0.58496963505E-01  0.13331386877E+00  0.18872809064E-01 0.  0.
         14    1    1    2    0    0  0.99057473444E-02 -0.86019470124E-02 -0.19258038340E-01  0.23302132167E-01  0.00000000000E+00 0.  1.
     999901    1    3    3    0    0  0.10459020870E+00 -0.21150128457E-01 -0.39238925165E-01  0.88731399907E+00  0.88000000000E+00 0.  1.
        -11    1    4    4    0    0 -0.65213216789E-01  0.19719311551E-01  0.23624520887E-01  0.72110983908E-01  0.51100000000E-03 0. -1.
         11    1    4    4    0    0 -0.49282739253E-01  0.10032763918E-01  0.34872442617E-01  0.61202884860E-01  0.51100000000E-03 0.  1.
</event>
<event>
 8    1  0.1092993E+005  0.1043930E+01  0.7957747E-01            NaN
         13   -1    0    0    0    0  0.00000000000E+00  0.00000000000E+00  0.74505805969E-08  0.10566000000E+00  0.10566000000E+00 0.  1.
     999900   -1    0    0    0    0 -0.00000000000E+00 -0.00000000000E+00 -0.74505805969E-08  0.93827000000E+00  0.93827000000E+00 0. -1.
     999902    2    1    2    0    0 -0.22529194829E-01  0.66730407930E-02 -0.65225044985E-03  0.10204242662E+01  0.10201534999E+01 0.  0.
     999903    2    3    3    0    0  0.41400480074E-01  0.55254746078E-01  0.10844380743E+00  0.13005965810E+00  0.19707069325E-01 0.  0.
         14    1    1    2    0    0  0.22529194829E-01 -0.66730407930E-02  0.65225044985E-03  0.23505733848E-01  0.00000000000E+00 0.  1.
     999901    1    3    3    0    0 -0.63929674904E-01 -0.48581705285E-01 -0.10909605788E+00  0.89036460805E+00  0.88000000000E+00 0. -1.
        -11    1    4    4    0    0 -0.11551591683E-02  0.79665631813E-02  0.14680072721E-01  0.16750109782E-01  0.51100000000E-03 0.  1.
         11    1    4    4    0    0  0.42555639243E-01  0.47288182897E-01  0.93763734709E-01  0.11330954832E+00  0.51100000000E-03 0. -1.
</event>
<event>
 8    1  0.1092993E+005  0.1043930E+01  0.7957747E-01            NaN
         13   -1    0    0    0    0  0.00000000000E+00  0.00000000000E+00  0.74505805969E-08  0.10566000000E+00  0.10566000000E+00 0.  1.
     999900   -1    0    0    0    0 -0.00000000000E+00 -0.00000000000E+00 -0.74505805969E-08  0.93827000000E+00  0.93827000000E+00 0. -1.
     999902    2    1    2    0    0 -0.17426500982E-01  0.15322495186E-01 -0.37127743485E-02  0.10204300747E+01  0.10201594439E+01 0.  0.
     999903    2    3    3    0    0 -0.32345438083E-01 -0.52121858155E-02  0.12462803067E+00  0.13075844425E+00  0.22186267602E-01 0.  0.
         14    1    1    2    0    0  0.17426500982E-01 -0.15322495186E-01  0.37127743485E-02  0.23499925288E-01  0.00000000000E+00 0. -1.
     999901    1    3    3    0    0  0.14918937102E-01  0.20534681002E-01 -0.12834080502E+00  0.88967163046E+00  0.88000000000E+00 0. -1.
        -11    1    4    4    0    0 -0.53488371813E-02 -0.74027120299E-02  0.59835118218E-01  0.60530262661E-01  0.51100000000E-03 0.  1.
         11    1    4    4    0    0 -0.26996600902E-01  0.21905262144E-02  0.64792912449E-01  0.70228181594E-01  0.51100000000E-03 0. -1.
</event>
<event>
 8    1  0.1092993E+005  0.1043930E+01  0.7957747E-01            NaN
         13   -1    0    0    0    0  0.00000000000E+00  0.00000000000E+00  0.74505805969E-08  0.10566000000E+00  0.10566000000E+00 0.  1.
     999900   -1    0    0    0    0 -0.00000000000E+00 -0.00000000000E+00 -0.74505805969E-08  0.93827000000E+00  0.93827000000E+00 0.  1.
     999902    2    1    2    0    0 -0.15321194450E-01  0.14774351357E-01  0.11410457162E-01  0.10197800727E+01  0.10194940792E+01 0.  0.
     999903    2    3    3    0    0 -0.89346210105E-01 -0.87046391385E-01 -0.29642499700E-01  0.12987417210E+00  0.20707565720E-01 0.  0.
         14    1    1    2    0    0  0.15321194450E-01 -0.14774351357E-01 -0.11410457162E-01  0.24149927330E-01  0.00000000000E+00 0.  1.
     999901    1    3    3    0    0  0.74025015654E-01  0.10182074274E+00  0.41052956862E-01  0.88990590057E+00  0.88000000000E+00 0.  1.
        -11    1    4    4    0    0 -0.69022693728E-01 -0.72311720730E-01 -0.31186726518E-01  0.10471862411E+00  0.51100000000E-03 0. -1.
         11    1    4    4    0    0 -0.20323516377E-01 -0.14734670655E-01  0.15442268179E-02  0.25155547990E-01  0.51100000000E-03 0.  1.
</event>
<event>
 8    1  0.1092993E+005  0.1043930E+01  0.7957747E-01            NaN
         13   -1    0    0    0    0  0.00000000000E+00  0.00000000000E+00  0.74505805969E-08  0.10566000000E+00  0.10566000000E+00 0. -1.
     999900   -1    0    0    0    0 -0.00000000000E+00 -0.00000000000E+00 -0.74505805969E-08  0.93827000000E+00  0.93827000000E+00 0.  1.
     999902    2    1    2    0    0  0.26004703902E-01  0.74044166251E-03  0.15851462711E-01  0.10134658941E+01  0.10130079253E+01 0.  0.
     999903    2    3    3    0    0  0.68970291798E-01 -0.30378667142E-01  0.10100782385E+00  0.12776501540E+00  0.21013189002E-01 0.  0.
         14    1    1    2    0    0 -0.26004703902E-01 -0.74044166251E-03 -0.15851462711E-01  0.30464105911E-01  0.00000000000E+00 0.  1.
     999901    1    3    3    0    0 -0.42965587895E-01  0.31119108805E-01 -0.85156361139E-01  0.88570087869E+00  0.88000000000E+00 0.  1.
        -11    1    4    4    0    0  0.51614003244E-01 -0.16877827309E-01  0.83713846335E-01  0.99785447710E-01  0.51100000000E-03 0.  1.
         11    1    4    4    0    0  0.17356288554E-01 -0.13500839833E-01  0.17293977515E-01  0.27979567685E-01  0.51100000000E-03 0. -1.
</event>
<event>
 8    1  0.1092993E+005  0.1043930E+01  0.7957747E-01            NaN
         13   -1    0    0    0    0  0.00000000000E+00  0.00000000000E+00  0.74505805969E-08  0.10566000000E+00  0.10566000000E+00 0. -1.
     999900   -1    0    0    0    0 -0.00000000000E+00 -0.00000000000E+00 -0.74505805969E-08  0.93827000000E+00  0.93827000000E+00 0.  1.
     999902    2    1    2    0    0  0.23047960484E-01  0.16281882019E-02 -0.45648400516E-02  0.10203779885E+01  0.10201061426E+01 0.  0.
     999903    2    3    3    0    0 -0.63743764968E-01  0.61514319877E-01 -0.92730969765E-01  0.12970834226E+00  0.19440734949E-01 0.  0.
         14    1    1    2    0    0 -0.23047960484E-01 -0.16281882019E-02  0.45648400516E-02  0.23552011464E-01  0.00000000000E+00 0. -1.
     999901    1    3    3    0    0  0.86791725452E-01 -0.59886131675E-01  0.88166129714E-01  0.89066964628E+00  0.88000000000E+00 0. -1.
        -11    1    4    4    0    0 -0.27057322287E-01  0.16815007028E-01 -0.24018868452E-01  0.39900003927E-01  0.51100000000E-03 0.  1.
         11    1    4    4    0    0 -0.36686442681E-01  0.44699312848E-01 -0.68712101313E-01  0.89808338330E-01  0.51100000000E-03 0. -1.
</event>
<event>
 8    1  0.1092993E+005  0.1043930E+01  0.7957747E-01            NaN
         13   -1    0    0    0    0  0.00000000000E+00  0.00000000000E+00  0.74505805969E-08  0.10566000000E+00  0.10566000000E+00 0. -1.
     999900   -1    0    0    0    0 -0.00000000000E+00 -0.00000000000E+00 -0.74505805969E-08  0.93827000000E+00  0.93827000000E+00 0.  1.
     999902    2    1    2    0    0  0.92422870150E-02  0.46240052909E-02  0.21056069259E-01  0.10204745242E+01  0.10202049280E+01 0.  0.
     999903    2    3    3    0    0 -0.71843490948E-01 -0.98510772925E-01  0.41852114078E-01  0.13050589474E+00  0.20355086256E-01 0.  0.
         14    1    1    2    0    0 -0.92422870150E-02 -0.46240052909E-02 -0.21056069259E-01  0.23455475839E-01  0.00000000000E+00 0.  1.
     999901    1    3    3    0    0  0.81085777963E-01  0.10313477822E+00 -0.20796044819E-01  0.88996862942E+00  0.88000000000E+00 0. -1.
        -11    1    4    4    0    0 -0.33894052995E-01 -0.36950068576E-01  0.84715482620E-02  0.50854131072E-01  0.51100000000E-03 0. -1.
         11    1    4    4    0    0 -0.37949437953E-01 -0.61560704349E-01  0.33380565816E-01  0.79651763672E-01  0.51100000000E-03 0.  1.
</event>
<event>
 8    1  0.1092993E+005  0.1043930E+01  0.7957747E-01            NaN
         13   -1    0    0    0    0  0.00000000000E+00  0.00000000000E+00  0.74505805969E-08  0.10566000000E+00  0.10566000000E+00 0. -1.
     999900   -1    0    0    0    0 -0.00000000000E+00 -0.00000000000E+00 -0.74505805969E-08  0.93827000000E+00  0.93827000000E+00 0.  1.
     999902    2    1    2    0    0 -0.16967304398E-01 -0.10512307550E-01  0.10770689714E-01  0.10212494845E+01  0.10209976022E+01 0.  0.
     999903    2    3    3    0    0 -0.10368736627E+00  0.59393673350E-01  0.54029771986E-01  0.13317371995E+00  0.23180704636E-01 0.  0.
         14    1    1    2    0    0  0.16967304398E-01  0.10512307550E-01 -0.10770689714E-01  0.22680515547E-01  0.00000000000E+00 0.  1.
     999901    1    3    3    0    0  0.86720061868E-01 -0.69905980900E-01 -0.43259082272E-01  0.88807576450E+00  0.88000000000E+00 0.  1.
        -11    1    4    4    0    0 -0.26218306091E-01  0.60873505508E-02  0.18416998813E-01  0.32617516418E-01  0.51100000000E-03 0. -1.
         11    1    4    4    0    0 -0.77469060176E-01  0.53306322799E-01  0.35612773173E-01  0.10055620353E+00  0.51100000000E-03 0.  1.
</event>
<event>
 8    1  0.1092993E+005  0.1043930E+01  0.7957747E-01            NaN
         13   -1    0    0    0    0  0.00000000000E+00  0.00000000000E+00  0.74505805969E-08  0.10566000000E+00  0.10566000000E+00 0.  1.
     999900   -1    0    0    0    0 -0.00000000000E+00 -0.00000000000E+00 -0.74505805969E-08  0.93827000000E+00  0.93827000000E+00 0. -1.
     999902    2    1    2    0    0 -0.22665902157E-01  0.69840781571E-02 -0.74857343032E-02  0.10190592001E+01  0.10187556609E+01 0.  0.
     999903    2    3    3    0    0  0.75445250808E-01  0.14152479437E-01 -0.10127839052E+00  0.12862433633E+00  0.19865270353E-01 0.  0.
         14    1    1    2    0    0  0.22665902157E-01 -0.69840781571E-02  0.74857343032E-02  0.24870799873E-01  0.00000000000E+00 0.  1.
     999901    1    3    3    0    0 -0.98111152964E-01 -0.71684012804E-02  0.93792656212E-01  0.89043486380E+00  0.88000000000E+00 0.  1.
        -11    1    4    4    0    0  0.65478410193E-02  0.76490271589E-02 -0.12530170241E-01  0.16082541023E-01  0.51100000000E-03 0. -1.
         11    1    4    4    0    0  0.68897409788E-01  0.65034522785E-02 -0.88748220274E-01  0.11254179530E+00  0.51100000000E-03 0.  1.
</event>
<event>
 8    1  0.1092993E+005  0.1043930E+01  0.7957747E-01            NaN
         13   -1    0    0    0    0  0.00000000000E+00  0.00000000000E+00  0.74505805969E-08  0.10566000000E+00  0.10566000000E+00 0.  1.
     999900   -1    0    0    0    0 -0.00000000000E+00 -0.00000000000E+00 -0.74505805969E-08  0.93827000000E+00  0.93827000000E+00 0. -1.
     999902    2    1    2    0    0  0.13003498153E-02  0.18184619051E-01 -0.20593736690E-01  0.10164259408E+01  0.10160537485E+01 0.  0.
     999903    2    3    3    0    0 -0.10654075420E+00  0.53697287009E-01 -0.45430671147E-01  0.12878427518E+00  0.16944400700E-01 0.  0.
         14    1    1    2    0    0 -0.13003498153E-02 -0.18184619051E-01  0.20593736690E-01  0.27504059165E-01  0.00000000000E+00 0.  1.
     999901    1    3    3    0    0  0.10784110401E+00 -0.35512667958E-01  0.24836934457E-01  0.88764166566E+00  0.88000000000E+00 0. -1.
        -11    1    4    4    0    0 -0.47758916263E-01  0.14943252220E-01 -0.17029882807E-01  0.52862963395E-01  0.51100000000E-03 0. -1.
         11    1    4    4    0    0 -0.58781837934E-01  0.38754034790E-01 -0.28400788340E-01  0.75921311782E-01  0.51100000000E-03 0.  1.
</event>
<event>
 8    1  0.1092993E+005  0.1043930E+01  0.7957747E-01            NaN
         13   -1    0    0    0    0  0.00000000000E+00  0.00000000000E+00  0.74505805969E-08  0.10566000000E+00  0.10566000000E+00 0. -1.
     999900   -1    0    0    0    0 -0.00000000000E+00 -0.00000000000E+00 -0.74505805969E-08  0.93827000000E+00  0.93827000000E+00 0.  1.
     999902    2    1    2    0    0  0.19288740635E-01  0.23638903458E-02  0.96894407049E-02  0.10222152872E+01  0.10219846205E+01 0.  0.
     999903    2    3    3    0    0  0.12842024567E+00 -0.64483261474E-02  0.34963903179E-01  0.13507035029E+00  0.22094899693E-01 0.  0.
         14    1    1    2    0    0 -0.19288740635E-01 -0.23638903458E-02 -0.96894407049E-02  0.21714712847E-01  0.00000000000E+00 0.  1.
     999901    1    3    3    0    0 -0.10913150504E+00  0.88122164931E-02 -0.25274462474E-01  0.88714493686E+00  0.88000000000E+00 0.  1.
        -11    1    4    4    0    0  0.96368212797E-01 -0.98950969422E-02  0.34469014538E-01  0.10282567513E+00  0.51100000000E-03 0.  1.
         11    1    4    4    0    0  0.32052032877E-01  0.34467707949E-02  0.49488864054E-03  0.32244675161E-01  0.51100000000E-03 0. -1.
</event>
<event>
 8    1  0.1092993E+005  0.1043930E+01  0.7957747E-01            NaN
         13   -1    0    0    0    0  0.00000000000E+00  0.00000000000E+00  0.74505805969E-08  0.10566000000E+00  0.10566000000E+00 0. -1.
     999900   -1    0    0    0    0 -0.00000000000E+00 -0.00000000000E+00 -0.74505805969E-08  0.93827000000E+00  0.93827000000E+00 0.  1.
     999902    2    1    2    0    0 -0.95391196837E-02  0.10068097408E-01 -0.19480569664E-01  0.10200165313E+01  0.10197361768E+01 0.  0.
     999903    2    3    3    0    0  0.68410013085E-01  0.97638249076E-01 -0.52354608227E-01  0.13163299862E+00  0.19315376020E-01 0.  0.
         14    1    1    2    0    0  0.95391196837E-02 -0.10068097408E-01  0.19480569664E-01  0.23913468677E-01  0.00000000000E+00 0. -1.
     999901    1    3    3    0    0 -0.77949132769E-01 -0.87570151667E-01  0.32874038563E-01  0.88838353270E+00  0.88000000000E+00 0.  1.
        -11    1    4    4    0    0  0.43060915160E-01  0.76271601267E-01 -0.36717084142E-01  0.94973706694E-01  0.51100000000E-03 0.  1.
         11    1    4    4    0    0  0.25349097925E-01  0.21366647809E-01 -0.15637524085E-01  0.36659291928E-01  0.51100000000E-03 0. -1.
</event>
<event>
 8    1  0.1092993E+005  0.1043930E+01  0.7957747E-01            NaN
         13   -1    0    0    0    0  0.00000000000E+00  0.00000000000E+00  0.74505805969E-08  0.10566000000E+00  0.10566000000E+00 0.  1.
     999900   -1    0    0    0    0 -0.00000000000E+00 -0.00000000000E+00 -0.74505805969E-08  0.93827000000E+00  0.93827000000E+00 0. -1.
     999902    2    1    2    0    0 -0.19973118351E-01  0.19207500953E-01  0.14777063266E-01  0.10125259374E+01  0.10120388129E+01 0.  0.
     999903    2    3    3    0    0  0.11069437688E+00 -0.38770349925E-01  0.21787498716E-01  0.12096294371E+00  0.20023824421E-01 0.  0.
         14    1    1    2    0    0  0.19973118351E-01 -0.19207500953E-01 -0.14777063266E-01  0.31404062608E-01  0.00000000000E+00 0.  1.
     999901    1    3    3    0    0 -0.13066749523E+00  0.57977850878E-01 -0.70104354501E-02  0.89156299368E+00  0.88000000000E+00 0. -1.
        -11    1    4    4    0    0  0.41662662127E-01 -0.87440051449E-02  0.15923841409E-01  0.45453986488E-01  0.51100000000E-03 0.  1.
         11    1    4    4    0    0  0.69031714752E-01 -0.30026344780E-01  0.58636573064E-02  0.75508957220E-01  0.51100000000E-03 0. -1.
</event>
<event>
 7    1  0.1092993E+005  0.1043930E+01  0.7957747E-01            NaN
         13   -1    0    0    0    0  0.00000000000E+00  0.00000000000E+00  0.74505805969E-08  0.10566000000E+00  0.10566000000E+00 0.  1.
     999900   -1    0    0    0    0 -0.00000000000E+00 -0.00000000000E+00 -0.74505805969E-08  0.93827000000E+00  0.93827000000E+00 0.  1.
     999903    2    1    2    0    0 -0.30509861102E-01 -0.35667625505E-01  0.44617399190E-01  0.67832563394E-01  0.20186956494E-01 0.  0.
         14    1    1    2    0    0 -0.76725761619E-01 -0.32632957983E-01  0.15992686063E-01  0.84897105076E-01  0.00000000000E+00 0.  1.
     999901    1    1    2    0    0  0.10723562272E+00  0.68300583488E-01 -0.60610085253E-01  0.89120033153E+00  0.88000000000E+00 0.  1.
        -11    1    3    3    0    0 -0.17429359617E-01 -0.56292505345E-02  0.15612735690E-01  0.24072591779E-01  0.51100000000E-03 0. -1.
         11    1    3    3    0    0 -0.13080501484E-01 -0.30038374970E-01  0.29004663500E-01  0.43759971614E-01  0.51100000000E-03 0.  1.
</event>
<event>
 8    1  0.1092993E+005  0.1043930E+01  0.7957747E-01            NaN
         13   -1    0    0    0    0  0.00000000000E+00  0.00000000000E+00  0.74505805969E-08  0.10566000000E+00  0.10566000000E+00 0. -1.
     999900   -1    0    0    0    0 -0.00000000000E+00 -0.00000000000E+00 -0.74505805969E-08  0.93827000000E+00  0.93827000000E+00 0. -1.
     999902    2    1    2    0    0 -0.21263768598E-01  0.55740223036E-02 -0.81927493669E-02  0.10204707007E+01  0.10202010157E+01 0.  0.
     999903    2    3    3    0    0 -0.94497344886E-01 -0.67502470347E-01  0.59250599671E-01  0.13184708199E+00  0.19664378295E-01 0.  0.
         14    1    1    2    0    0  0.21263768598E-01 -0.55740223036E-02  0.81927493669E-02  0.23459299261E-01  0.00000000000E+00 0. -1.
     999901    1    3    3    0    0  0.73233576288E-01  0.73076492650E-01 -0.67443349037E-01  0.88862361875E+00  0.88000000000E+00 0. -1.
        -11    1    4    4    0    0 -0.45514402887E-01 -0.21468525487E-01  0.29514626373E-01  0.58342375232E-01  0.51100000000E-03 0. -1.
         11    1    4    4    0    0 -0.48982941999E-01 -0.46033944859E-01  0.29735973298E-01  0.73504706755E-01  0.51100000000E-03 0.  1.
</event>
<event>
 7    1  0.1092993E+005  0.1043930E+01  0.7957747E-01            NaN
         13   -1    0    0    0    0  0.00000000000E+00  0.00000000000E+00  0.74505805969E-08  0.10566000000E+00  0.10566000000E+00 0.  1.
     999900   -1    0    0    0    0 -0.00000000000E+00 -0.00000000000E+00 -0.74505805969E-08  0.93827000000E+00  0.93827000000E+00 0. -1.
     999903    2    1    2    0    0 -0.51333474885E-01  0.73313167782E-01  0.71413774314E-01  0.11623742538E+00  0.20031617095E-01 0.  0.
         14    1    1    2    0    0 -0.33827914934E-01 -0.18182247902E-01  0.42473811646E-02  0.38638869216E-01  0.00000000000E+00 0.  1.
     999901    1    1    2    0    0  0.85161389819E-01 -0.55130919879E-01 -0.75661155479E-01  0.88905370540E+00  0.88000000000E+00 0. -1.
        -11    1    3    3    0    0 -0.50804812306E-01  0.70599958667E-01  0.63092640225E-01  0.10745429488E+00  0.51100000000E-03 0.  1.
         11    1    3    3    0    0 -0.52866257942E-03  0.27132091146E-02  0.83211340885E-02  0.87831304977E-02  0.51100000000E-03 0. -1.
</event>
<event>
 8    1  0.1092993E+005  0.1043930E+01  0.7957747E-01            NaN
         13   -1    0    0    0    0  0.00000000000E+00  0.00000000000E+00  0.74505805969E-08  0.10566000000E+00  0.10566000000E+00 0.  1.
     999900   -1    0    0    0    0 -0.00000000000E+00 -0.00000000000E+00 -0.74505805969E-08  0.93827000000E+00  0.93827000000E+00 0. -1.
     999902    2    1    2    0    0  0.87208166482E-02 -0.21512759959E-01 -0.55470697469E-02  0.10200632560E+01  0.10197840089E+01 0.  0.
     999903    2    3    3    0    0 -0.33049510795E-01 -0.11268127927E+00  0.57016574890E-01  0.13216085781E+00  0.20646105270E-01 0.  0.
         14    1    1    2    0    0 -0.87208166482E-02  0.21512759959E-01  0.55470697469E-02  0.23866743951E-01  0.00000000000E+00 0.  1.
     999901    1    3    3    0    0  0.41770327443E-01  0.91168519313E-01 -0.62563644637E-01  0.88790239824E+00  0.88000000000E+00 0.  1.
        -11    1    4    4    0    0 -0.64692723536E-02 -0.51029050457E-02  0.22779301339E-02  0.85639483526E-02  0.51100000000E-03 0. -1.
         11    1    4    4    0    0 -0.26580238441E-01 -0.10757837423E+00  0.54738644756E-01  0.12359690946E+00  0.51100000000E-03 0.  1.
</event>
<event>
 8    1  0.1092993E+005  0.1043930E+01  0.7957747E-01            NaN
         13   -1    0    0    0    0  0.00000000000E+00  0.00000000000E+00  0.74505805969E-08  0.10566000000E+00  0.10566000000E+00 0.  1.
     999900   -1    0    0    0    0 -0.00000000000E+00 -0.00000000000E+00 -0.74505805969E-08  0.93827000000E+00  0.93827000000E+00 0.  1.
     999902    2    1    2    0    0  0.23277438252E-01  0.33846395262E-02  0.29597912502E-02  0.10202222949E+01  0.10199468005E+01 0.  0.
     999903    2    3    3    0    0 -0.87892567462E-01  0.89440753046E-01  0.21700076529E-01  0.12886623635E+00  0.20269726905E-01 0.  0.
         14    1    1    2    0    0 -0.23277438252E-01 -0.33846395262E-02 -0.29597912502E-02  0.23707705088E-01  0.00000000000E+00 0. -1.
     999901    1    3    3    0    0  0.11117000571E+00 -0.86056113520E-01 -0.18740285279E-01  0.89135605856E+00  0.88000000000E+00 0. -1.
        -11    1    4    4    0    0 -0.35338716601E-01  0.48994782375E-01  0.14742326052E-01  0.62184490746E-01  0.51100000000E-03 0.  1.
         11    1    4    4    0    0 -0.52553850862E-01  0.40445970671E-01  0.69577504772E-02  0.66681745602E-01  0.51100000000E-03 0. -1.
</event>
<event>
 8    1  0.1092993E+005  0.1043930E+01  0.7957747E-01            NaN
         13   -1    0    0    0    0  0.00000000000E+00  0.00000000000E+00  0.74505805969E-08  0.10566000000E+00  0.10566000000E+00 0. -1.
     999900   -1    0    0    0    0 -0.00000000000E+00 -0.00000000000E+00 -0.74505805969E-08  0.93827000000E+00  0.93827000000E+00 0. -1.
     999902    2    1    2    0    0  0.68357499457E-02 -0.19424353889E-01  0.12528510706E-01  0.10198261293E+01  0.10195412387E+01 0.  0.
     999903    2    3    3    0    0 -0.20138297590E-01 -0.28902880298E-01 -0.12249217502E+00  0.12906913256E+00  0.20336679125E-01 0.  0.
         14    1    1    2    0    0 -0.68357499457E-02  0.19424353889E-01 -0.12528510706E-01  0.24103870682E-01  0.00000000000E+00 0. -1.
     999901    1    3    3    0    0  0.26974047536E-01  0.94785264084E-02  0.13502068573E+00  0.89075699676E+00  0.88000000000E+00 0.  1.
        -11    1    4    4    0    0 -0.22737505289E-01 -0.18568424978E-01 -0.99122445657E-01  0.10337940272E+00  0.51100000000E-03 0. -1.
         11    1    4    4    0    0  0.25992076988E-02 -0.10334455319E-01 -0.23369729366E-01  0.25689729836E-01  0.51100000000E-03 0.  1.
</event>
<event>
 8    1  0.1092993E+005  0.1043930E+01  0.7957747E-01            NaN
         13   -1    0    0    0    0  0.00000000000E+00  0.00000000000E+00  0.74505805969E-08  0.10566000000E+00  0.10566000000E+00 0.  1.
     999900   -1    0    0    0    0 -0.00000000000E+00 -0.00000000000E+00 -0.74505805969E-08  0.93827000000E+00  0.93827000000E+00 0.  1.
     999902    2    1    2    0    0 -0.30141063870E-02  0.22899824198E-01 -0.38879827859E-02  0.10205077201E+01  0.10202388954E+01 0.  0.
     999903    2    3    3    0    0 -0.29533615082E-01  0.11978409058E+00  0.46231846354E-01  0.13337647688E+00  0.20771090311E-01 0.  0.
         14    1    1    2    0    0  0.30141063870E-02 -0.22899824198E-01  0.38879827859E-02  0.23422279901E-01  0.00000000000E+00 0. -1.
     999901    1    3    3    0    0  0.26519508695E-01 -0.96884266383E-01 -0.50119829140E-01  0.88713124321E+00  0.88000000000E+00 0.  1.
        -11    1    4    4    0    0 -0.26270955553E-01  0.68865478748E-01  0.32361034498E-01  0.80499161136E-01  0.51100000000E-03 0. -1.
         11    1    4    4    0    0 -0.32626595293E-02  0.50918611833E-01  0.13870811856E-01  0.52877315748E-01  0.51100000000E-03 0.  1.
</event>
<event>
 8    1  0.1092993E+005  0.1043930E+01  0.7957747E-01            NaN
         13   -1    0    0    0    0  0.00000000000E+00  0.00000000000E+00  0.74505805969E-08  0.10566000000E+00  0.10566000000E+00 0.  1.
     999900   -1    0    0    0    0 -0.00000000000E+00 -0.00000000000E+00 -0.74505805969E-08  0.93827000000E+00  0.93827000000E+00 0.  1.
     999902    2    1    2    0    0 -0.62206891083E-02  0.11186267608E-01  0.19895065707E-01  0.10202732209E+01  0.10199989226E+01 0.  0.
     999903    2    3    3    0    0 -0.38492929586E-01 -0.10403569947E+00  0.66594964243E-01  0.13094848850E+00  0.20186257352E-01 0.  0.
         14    1    1    2    0    0  0.62206891083E-02 -0.11186267608E-01 -0.19895065707E-01  0.23656779059E-01  0.00000000000E+00 0. -1.
     999901    1    3    3    0    0  0.32272240477E-01  0.11522196708E+00 -0.46699898537E-01  0.88932473244E+00  0.88000000000E+00 0.  1.
        -11    1    4    4    0    0 -0.23652345148E-01 -0.82054903089E-01  0.43807576389E-01  0.95978150753E-01  0.51100000000E-03 0.  1.
         11    1    4    4    0    0 -0.14840584437E-01 -0.21980796383E-01  0.22787387855E-01  0.34970337749E-01  0.51100000000E-03 0. -1.
</event>
<event>
 8    1  0.1092993E+005  0.1043930E+01  0.7957747E-01            NaN
         13   -1    0    0    0    0  0.00000000000E+00  0.00000000000E+00  0.74505805969E-08  0.10566000000E+00  0.10566000000E+00 0. -1.
     999900   -1    0    0    0    0 -0.00000000000E+00 -0.00000000000E+00 -0.74505805969E-08  0.93827000000E+00  0.93827000000E+00 0.  1.
     999902    2    1    2    0    0  0.21388255197E-01  0.52585241913E-02  0.58340447345E-02  0.10211452328E+01  0.10208910034E+01 0.  0.
     999903    2    3    3    0    0  0.24106987584E-02 -0.12371713793E+00  0.38879207254E-01  0.13092792687E+00  0.17854623815E-01 0.  0.
         14    1    1    2    0    0 -0.21388255197E-01 -0.52585241913E-02 -0.58340447345E-02  0.22784767171E-01  0.00000000000E+00 0. -1.
     999901    1    3    3    0    0  0.18977556439E-01  0.12897566212E+00 -0.33045162519E-01  0.89021730596E+00  0.88000000000E+00 0.  1.
        -11    1    4    4    0    0  0.63819147182E-02 -0.50182218330E-01  0.86590256916E-02  0.51324689175E-01  0.51100000000E-03 0.  1.
         11    1    4    4    0    0 -0.39712159598E-02 -0.73534919598E-01  0.30220181562E-01  0.79603237693E-01  0.51100000000E-03 0. -1.
</event>
<event>
 8    1  0.1092993E+005  0.1043930E+01  0.7957747E-01            NaN
         13   -1    0    0    0    0  0.00000000000E+00  0.00000000000E+00  0.74505805969E-08  0.10566000000E+00  0.10566000000E+00 0. -1.
     999900   -1    0    0    0    0 -0.00000000000E+00 -0.00000000000E+00 -0.74505805969E-08  0.93827000000E+00  0.93827000000E+00 0.  1.
     999902    2    1    2    0    0 -0.23751390273E-01  0.86023741593E-03  0.32202016273E-02  0.10199458751E+01  0.10196638416E+01 0.  0.
     999903    2    3    3    0    0 -0.87945170441E-01 -0.92465507745E-01  0.28509788016E-01  0.13232540480E+00  0.20321949159E-01 0.  0.
         14    1    1    2    0    0  0.23751390273E-01 -0.86023741593E-03 -0.32202016273E-02  0.23984124892E-01  0.00000000000E+00 0.  1.
     999901    1    3    3    0    0  0.64193780168E-01  0.93325745161E-01 -0.25289586388E-01  0.88762047030E+00  0.88000000000E+00 0. -1.
        -11    1    4    4    0    0 -0.72997935951E-01 -0.86182697152E-01  0.26157052628E-01  0.11593363819E+00  0.51100000000E-03 0.  1.
         11    1    4    4    0    0 -0.14947234490E-01 -0.62828105930E-02  0.23527353874E-02  0.16391766612E-01  0.51100000000E-03 0. -1.
</event>
<event>
 8    1  0.1092993E+005  0.1043930E+01  0.7957747E-01            NaN
         13   -1    0    0    0    0  0.00000000000E+00  0.00000000000E+00  0.74505805969E-08  0.10566000000E+00  0.10566000000E+00 0. -1.
     999900   -1    0    0    0    0 -0.00000000000E+00 -0.00000000000E+00 -0.74505805969E-08  0.93827000000E+00  0.93827000000E+00 0. -1.
     999902    2    1    2    0    0 -0.14376082843E-01  0.71248595843E-03  0.19031539797E-01  0.10200683383E+01  0.10197892115E+01 0.  0.
     999903    2    3    3    0    0 -0.58348878518E-01  0.11065302982E+00  0.36829593244E-01  0.13195950447E+00  0.20204139360E-01 0.  0.
         14    1    1    2    0    0  0.14376082843E-01 -0.71248595843E-03 -0.19031539797E-01  0.23861661744E-01  0.00000000000E+00 0.  1.
     999901    1    3    3    0    0  0.43972795675E-01 -0.10994054387E+00 -0.17798053447E-01  0.88810883379E+00  0.88000000000E+00 0. -1.
        -11    1    4    4    0    0 -0.30271770824E-02  0.17454465764E-01  0.78160685115E-03  0.17739622500E-01  0.51100000000E-03 0. -1.
         11    1    4    4    0    0 -0.55321701436E-01  0.93198564061E-01  0.36047986393E-01  0.11421988197E+00  0.51100000000E-03 0.  1.
</event>
<event>
 8    1  0.1092993E+005  0.1043930E+01  0.7957747E-01            NaN
         13   -1    0    0    0    0  0.00000000000E+00  0.00000000000E+00  0.74505805969E-08  0.10566000000E+00  0.10566000000E+00 0.  1.
     999900   -1    0    0    0    0 -0.00000000000E+00 -0.00000000000E+00 -0.74505805969E-08  0.93827000000E+00  0.93827000000E+00 0. -1.
     999902    2    1    2    0    0  0.87704986871E-02 -0.69358864383E-02 -0.16321227919E-01  0.10241458991E+01  0.10239547900E+01 0.  0.
     999903    2    3    3    0    0  0.97609222331E-01 -0.58536819732E-01  0.68252777971E-01  0.13414155213E+00  0.19529330746E-01 0.  0.
         14    1    1    2    0    0 -0.87704986871E-02  0.69358864383E-02  0.16321227919E-01  0.19784100907E-01  0.00000000000E+00 0. -1.
     999901    1    3    3    0    0 -0.88838723644E-01  0.51600933294E-01 -0.84574005890E-01  0.89000434696E+00  0.88000000000E+00 0. -1.
        -11    1    4    4    0    0  0.52530635166E-01 -0.41350922701E-01  0.34256043144E-01  0.75120596723E-01  0.51100000000E-03 0. -1.
         11    1    4    4    0    0  0.45078587165E-01 -0.17185897031E-01  0.33996734827E-01  0.59020955409E-01  0.51100000000E-03 0.  1.
</event>
<event>
 8    1  0.1092993E+005  0.1043930E+01  0.7957747E-01            NaN
         13   -1    0    0    0    0  0.00000000000E+00  0.00000000000E+00  0.74505805969E-08  0.10566000000E+00  0.10566000000E+00 0.  1.
     999900   -1    0    0    0    0 -0.00000000000E+00 -0.00000000000E+00 -0.74505805969E-08  0.93827000000E+00  0.93827000000E+00 0.  1.
     999902    2    1    2    0    0  0.63784687757E-02 -0.22131673112E-01  0.29391584500E-02  0.10207107306E+01  0.10204465989E+01 0.  0.
     999903    2    3    3    0    0  0.21608692707E-01 -0.71401236066E-01  0.10828432991E+00  0.13292863195E+00  0.19479552743E-01 0.  0.
         14    1    1    2    0    0 -0.63784687757E-02  0.22131673112E-01 -0.29391584500E-02  0.23219269391E-01  0.00000000000E+00 0. -1.
     999901    1    3    3    0    0 -0.15230223931E-01  0.49269562953E-01 -0.10534517146E+00  0.88778209866E+00  0.88000000000E+00 0.  1.
        -11    1    4    4    0    0  0.27625886535E-02 -0.34463872721E-01  0.38469988064E-01  0.51726120304E-01  0.51100000000E-03 0. -1.
         11    1    4    4    0    0  0.18846104054E-01 -0.36937363344E-01  0.69814341845E-01  0.81202511643E-01  0.51100000000E-03 0.  1.
</event>
<event>
 8    1  0.1092993E+005  0.1043930E+01  0.7957747E-01            NaN
         13   -1    0    0    0    0  0.00000000000E+00  0.00000000000E+00  0.74505805969E-08  0.10566000000E+00  0.10566000000E+00 0. -1.
     999900   -1    0    0    0    0 -0.00000000000E+00 -0.00000000000E+00 -0.74505805969E-08  0.93827000000E+00  0.93827000000E+00 0.  1.
     999902    2    1    2    0    0  0.30307165632E-02 -0.23610751734E-01  0.29084631576E-02  0.10199485072E+01  0.10196665363E+01 0.  0.
     999903    2    3    3    0    0 -0.11732534789E+00 -0.96360207957E-02  0.51535511568E-01  0.13031629935E+00  0.21641136074E-01 0.  0.
         14    1    1    2    0    0 -0.30307165632E-02  0.23610751734E-01 -0.29084631576E-02  0.23981492828E-01  0.00000000000E+00 0. -1.
     999901    1    3    3    0    0  0.12035606445E+00 -0.13974730938E-01 -0.48627048410E-01  0.88963220782E+00  0.88000000000E+00 0.  1.
        -11    1    4    4    0    0 -0.60094772313E-01 -0.64479424865E-02  0.38077427554E-01  0.71436049945E-01  0.51100000000E-03 0.  1.
         11    1    4    4    0    0 -0.57230575574E-01 -0.31880783092E-02  0.13458084014E-01  0.58880249406E-01  0.51100000000E-03 0. -1.
</event>
<event>
 8    1  0.1092993E+005  0.1043930E+01  0.7957747E-01            NaN
         13   -1    0    0    0    0  0.00000000000E+00  0.00000000000E+00  0.74505805969E-08  0.10566000000E+00  0.10566000000E+00 0.  1.
     999900   -1    0    0    0    0 -0.00000000000E+00 -0.00000000000E+00 -0.74505805969E-08  0.93827000000E+00  0.93827000000E+00 0.  1.
     999902    2    1    2    0    0 -0.12731039540E-01 -0.63195524601E-02 -0.18645450049E-01  0.10204849809E+01  0.10202156279E+01 0.  0.
     999903    2    3    3    0    0 -0.24136757052E-02 -0.26266954912E-01  0.12434215263E+00  0.12866111864E+00  0.19923196964E-01 0.  0.
         14    1    1    2    0    0  0.12731039540E-01  0.63195524601E-02  0.18645450049E-01  0.23445019057E-01  0.00000000000E+00 0.  1.
     999901    1    3    3    0    0 -0.10317363834E-01  0.19947402452E-01 -0.14298760268E+00  0.89182386231E+00  0.88000000000E+00 0.  1.
        -11    1    4    4    0    0 -0.73020593702E-02 -0.11847386063E-02  0.31910991632E-01  0.32761199376E-01  0.51100000000E-03 0. -1.
         11    1    4    4    0    0  0.48883836650E-02 -0.25082216306E-01  0.92431160998E-01  0.95899919260E-01  0.51100000000E-03 0.  1.
</event>
<event>
 8    1  0.1092993E+005  0.1043930E+01  0.7957747E-01            NaN
         13   -1    0    0    0    0  0.00000000000E+00  0.00000000000E+00  0.74505805969E-08  0.10566000000E+00  0.10566000000E+00 0. -1.
     999900   -1    0    0    0    0 -0.00000000000E+00 -0.00000000000E+00 -0.74505805969E-08  0.93827000000E+00  0.93827000000E+00 0.  1.
     999902    2    1    2    0    0  0.21643465122E-01  0.89730676300E-02  0.22600923973E-02  0.10203914456E+01  0.10201199139E+01 0.  0.
     999903    2    3    3    0    0 -0.11354354824E-01  0.12540770517E+00  0.23802798262E-01  0.13184771055E+00  0.31003736600E-01 0.  0.
         14    1    1    2    0    0 -0.21643465122E-01 -0.89730676300E-02 -0.22600923973E-02  0.23538554391E-01  0.00000000000E+00 0. -1.
     999901    1    3    3    0    0  0.32997819946E-01 -0.11643463754E+00 -0.21542705865E-01  0.88854373506E+00  0.88000000000E+00 0. -1.
        -11    1    4    4    0    0 -0.29056827793E-02  0.58534706139E-01 -0.44109697020E-02  0.58774761505E-01  0.51100000000E-03 0.  1.
         11    1    4    4    0    0 -0.84486720445E-02  0.66872999027E-01  0.28213767964E-01  0.73072949043E-01  0.51100000000E-03 0. -1.
</event>
<event>
 8    1  0.1092993E+005  0.1043930E+01  0.7957747E-01            NaN
         13   -1    0    0    0    0  0.00000000000E+00  0.00000000000E+00  0.74505805969E-08  0.10566000000E+00  0.10566000000E+00 0.  1.
     999900   -1    0    0    0    0 -0.00000000000E+00 -0.00000000000E+00 -0.74505805969E-08  0.93827000000E+00  0.93827000000E+00 0. -1.
     999902    2    1    2    0    0 -0.97632093348E-02 -0.50390939278E-02 -0.20754819180E-01  0.10204464900E+01  0.10201762415E+01 0.  0.
     999903    2    3    3    0    0 -0.61223382868E-01  0.80423702931E-01 -0.83490881976E-01  0.13259072878E+00  0.19831777076E-01 0.  0.
         14    1    1    2    0    0  0.97632093348E-02  0.50390939278E-02  0.20754819180E-01  0.23483510030E-01  0.00000000000E+00 0. -1.
     999901    1    3    3    0    0  0.51460173533E-01 -0.85462796859E-01  0.62736062796E-01  0.88785576119E+00  0.88000000000E+00 0.  1.
        -11    1    4    4    0    0 -0.50215708023E-01  0.64441298224E-01 -0.56451798205E-01  0.99304405193E-01  0.51100000000E-03 0.  1.
         11    1    4    4    0    0 -0.11007674844E-01  0.15982404707E-01 -0.27039083770E-01  0.33286323585E-01  0.51100000000E-03 0. -1.
</event>
<event>
 8    1  0.1092993E+005  0.1043930E+01  0.7957747E-01            NaN
         13   -1    0    0    0    0  0.00000000000E+00  0.00000000000E+00  0.74505805969E-08  0.10566000000E+00  0.10566000000E+00 0.  1.
     999900   -1    0    0    0    0 -0.00000000000E+00 -0.00000000000E+00 -0.74505805969E-08  0.93827000000E+00  0.93827000000E+00 0.  1.
     999902    2    1    2    0    0 -0.16567661977E-02 -0.13933982915E-01  0.23890604502E-01  0.10162232907E+01  0.10158455173E+01 0.  0.
     999903    2    3    3    0    0  0.10412614300E-01 -0.12093748152E+00  0.40439215890E-01  0.12950502929E+00  0.20048078628E-01 0.  0.
         14    1    1    2    0    0  0.16567661977E-02  0.13933982915E-01 -0.23890604502E-01  0.27706709252E-01  0.00000000000E+00 0. -1.
     999901    1    3    3    0    0 -0.12069380498E-01  0.10700349861E+00 -0.16548611388E-01  0.88671826146E+00  0.88000000000E+00 0.  1.
        -11    1    4    4    0    0 -0.61274568770E-03 -0.26279471882E-01  0.17184502797E-01  0.31409462859E-01  0.51100000000E-03 0.  1.
         11    1    4    4    0    0  0.11025359988E-01 -0.94658009640E-01  0.23254713093E-01  0.98095566433E-01  0.51100000000E-03 0. -1.
</event>
<event>
 8    1  0.1092993E+005  0.1043930E+01  0.7957747E-01            NaN
         13   -1    0    0    0    0  0.00000000000E+00  0.00000000000E+00  0.74505805969E-08  0.10566000000E+00  0.10566000000E+00 0.  1.
     999900   -1    0    0    0    0 -0.00000000000E+00 -0.00000000000E+00 -0.74505805969E-08  0.93827000000E+00  0.93827000000E+00 0. -1.
     999902    2    1    2    0    0  0.12826451040E-01 -0.13289265427E-01  0.12231014742E-01  0.10217777960E+01  0.10215376372E+01 0.  0.
     999903    2    3    3    0    0 -0.10755401956E+00 -0.73101066087E-01 -0.32977557978E-02  0.13143513614E+00  0.18779958252E-01 0.  0.
         14    1    1    2    0    0 -0.12826451040E-01  0.13289265427E-01 -0.12231014742E-01  0.22152204033E-01  0.00000000000E+00 0. -1.
     999901    1    3    3    0    0  0.12038047060E+00  0.59811800660E-01  0.15528770540E-01  0.89034265983E+00  0.88000000000E+00 0. -1.
        -11    1    4    4    0    0 -0.40842014220E-01 -0.21456419294E-01 -0.84700205198E-02  0.46908958878E-01  0.51100000000E-03 0. -1.
         11    1    4    4    0    0 -0.66712005338E-01 -0.51644646793E-01  0.51722647220E-02  0.84526177259E-01  0.51100000000E-03 0.  1.
</event>
<event>
 8    1  0.1092993E+005  0.1043930E+01  0.7957747E-01            NaN
         13   -1    0    0    0    0  0.00000000000E+00  0.00000000000E+00  0.74505805969E-08  0.10566000000E+00  0.10566000000E+00 0.  1.
     999900   -1    0    0    0    0 -0.00000000000E+00 -0.00000000000E+00 -0.74505805969E-08  0.93827000000E+00  0.93827000000E+00 0. -1.
     999902    2    1    2    0    0  0.20840851586E-01 -0.12382897813E-01 -0.21861001883E-02  0.10195895750E+01  0.10192989970E+01 0.  0.
     999903    2    3    3    0    0  0.75452668062E-01 -0.19558927927E-01  0.10393272624E+00  0.13150447145E+00  0.20390136038E-01 0.  0.
         14    1    1    2    0    0 -0.20840851586E-01  0.12382897813E-01  0.21861001883E-02  0.24340424957E-01  0.00000000000E+00 0.  1.
     999901    1    3    3    0    0 -0.54611816476E-01  0.71760301137E-02 -0.10611882643E+00  0.88808510360E+00  0.88000000000E+00 0. -1.
        -11    1    4    4    0    0  0.23211549413E-01  0.20624702976E-02  0.22734840041E-01  0.32560157902E-01  0.51100000000E-03 0. -1.
         11    1    4    4    0    0  0.52241118649E-01 -0.21621398224E-01  0.81197886198E-01  0.98944313545E-01  0.51100000000E-03 0.  1.
</event>
<event>
 8    1  0.1092993E+005  0.1043930E+01  0.7957747E-01            NaN
         13   -1    0    0    0    0  0.00000000000E+00  0.00000000000E+00  0.74505805969E-08  0.10566000000E+00  0.10566000000E+00 0. -1.
     999900   -1    0    0    0    0 -0.00000000000E+00 -0.00000000000E+00 -0.74505805969E-08  0.93827000000E+00  0.93827000000E+00 0. -1.
     999902    2    1    2    0    0  0.91041944340E-02  0.14347816506E-01 -0.16735728351E-01  0.10200798260E+01  0.10198009711E+01 0.  0.
     999903    2    3    3    0    0 -0.86170080001E-01 -0.92679611365E-01 -0.11604747640E-01  0.12847543806E+00  0.18880544688E-01 0.  0.
         14    1    1    2    0    0 -0.91041944340E-02 -0.14347816506E-01  0.16735728351E-01  0.23850173966E-01  0.00000000000E+00 0. -1.
     999901    1    3    3    0    0  0.95274274435E-01  0.10702742787E+00 -0.51309807108E-02  0.89160438797E+00  0.88000000000E+00 0. -1.
        -11    1    4    4    0    0 -0.65720862324E-01 -0.81002533067E-01 -0.11275910020E-01  0.10491925169E+00  0.51100000000E-03 0.  1.
         11    1    4    4    0    0 -0.20449217677E-01 -0.11677078298E-01 -0.32883762024E-03  0.23556186371E-01  0.51100000000E-03 0. -1.
</event>
<event>
 8    1  0.1092993E+005  0.1043930E+01  0.7957747E-01            NaN
         13   -1    0    0    0    0  0.00000000000E+00  0.00000000000E+00  0.74505805969E-08  0.10566000000E+00  0.10566000000E+00 0.  1.
     999900   -1    0    0    0    0 -0.00000000000E+00 -0.00000000000E+00 -0.74505805969E-08  0.93827000000E+00  0.93827000000E+00 0.  1.
     999902    2    1    2    0    0  0.11665381010E-01 -0.77310863907E-02 -0.17726257216E-01  0.10213452484E+01  0.10210955124E+01 0.  0.
     999903    2    3    3    0    0  0.56728213792E-01 -0.99419634378E-01  0.61104447826E-01  0.13193435976E+00  0.23886561120E-01 0.  0.
         14    1    1    2    0    0 -0.11665381010E-01  0.77310863907E-02  0.17726257216E-01  0.22584751621E-01  0.00000000000E+00 0.  1.
     999901    1    3    3    0    0 -0.45062832782E-01  0.91688547987E-01 -0.78830705042E-01  0.88941088862E+00  0.88000000000E+00 0.  1.
        -11    1    4    4    0    0  0.36476533361E-01 -0.48191279549E-01  0.21763317121E-01  0.64240485706E-01  0.51100000000E-03 0.  1.
         11    1    4    4    0    0  0.20251680431E-01 -0.51228354829E-01  0.39341130705E-01  0.67693874058E-01  0.51100000000E-03 0. -1.
</event>
<event>
 8    1  0.1092993E+005  0.1043930E+01  0.7957747E-01            NaN
         13   -1    0    0    0    0  0.00000000000E+00  0.00000000000E+00  0.74505805969E-08  0.10566000000E+00  0.10566000000E+00 0.  1.
     999900   -1    0    0    0    0 -0.00000000000E+00 -0.00000000000E+00 -0.74505805969E-08  0.93827000000E+00  0.93827000000E+00 0.  1.
     999902    2    1    2    0    0  0.80223087468E-02  0.19703707735E-01 -0.70959757261E-02  0.10215035333E+01  0.10212573242E+01 0.  0.
     999903    2    3    3    0    0 -0.11716498857E+00  0.31384066190E-02 -0.55032681774E-01  0.13119785750E+00  0.21137587543E-01 0.  0.
         14    1    1    2    0    0 -0.80223087468E-02 -0.19703707735E-01  0.70959757261E-02  0.22426466678E-01  0.00000000000E+00 0.  1.
     999901    1    3    3    0    0  0.12518729732E+00  0.16565301116E-01  0.47936706048E-01  0.89030567582E+00  0.88000000000E+00 0. -1.
        -11    1    4    4    0    0 -0.10024173859E+00  0.94405198970E-02 -0.42954189993E-01  0.10946621913E+00  0.51100000000E-03 0.  1.
         11    1    4    4    0    0 -0.16923249980E-01 -0.63021132780E-02 -0.12078491782E-01  0.21731638373E-01  0.51100000000E-03 0. -1.
</event>
<event>
 8    1  0.1092993E+005  0.1043930E+01  0.7957747E-01            NaN
         13   -1    0    0    0    0  0.00000000000E+00  0.00000000000E+00  0.74505805969E-08  0.10566000000E+00  0.10566000000E+00 0.  1.
     999900   -1    0    0    0    0 -0.00000000000E+00 -0.00000000000E+00 -0.74505805969E-08  0.93827000000E+00  0.93827000000E+00 0.  1.
     999902    2    1    2    0    0  0.17256377624E-01  0.13157413931E-01 -0.10741032206E-01  0.10197169894E+01  0.10194294819E+01 0.  0.
     999903    2    3    3    0    0 -0.56536082768E-01  0.75256134428E-01  0.86239382693E-01  0.12915156272E+00  0.19572444978E-01 0.  0.
         14    1    1    2    0    0 -0.17256377624E-01 -0.13157413931E-01  0.10741032206E-01  0.24213010612E-01  0.00000000000E+00 0.  1.
     999901    1    3    3    0    0  0.73792460392E-01 -0.62098720497E-01 -0.96980414899E-01  0.89056542667E+00  0.88000000000E+00 0.  1.
        -11    1    4    4    0    0 -0.17137708131E-01  0.38722462693E-01  0.35773968270E-01  0.55436162239E-01  0.51100000000E-03 0. -1.
         11    1    4    4    0    0 -0.39398374637E-01  0.36533671735E-01  0.50465414424E-01  0.73715400483E-01  0.51100000000E-03 0.  1.
</event>
<event>
 8    1  0.1092993E+005  0.1043930E+01  0.7957747E-01            NaN
         13   -1    0    0    0    0  0.00000000000E+00  0.00000000000E+00  0.74505805969E-08  0.10566000000E+00  0.10566000000E+00 0. -1.
     999900   -1    0    0    0    0 -0.00000000000E+00 -0.00000000000E+00 -0.74505805969E-08  0.93827000000E+00  0.93827000000E+00 0. -1.
     999902    2    1    2    0    0 -0.13212257640E-01  0.18247970611E-01  0.75253100821E-02  0.10201774743E+01  0.10199009249E+01 0.  0.
     999903    2    3    3    0    0  0.12583462480E+00 -0.16139369607E-01  0.65646613477E-02  0.12859604366E+00  0.19975375299E-01 0.  0.
         14    1    1    2    0    0  0.13212257640E-01 -0.18247970611E-01 -0.75253100821E-02  0.23752525659E-01  0.00000000000E+00 0.  1.
     999901    1    3    3    0    0 -0.13904688244E+00  0.34387340218E-01  0.96064873440E-03  0.89158143068E+00  0.88000000000E+00 0.  1.
        -11    1    4    4    0    0  0.46070164000E-01 -0.14478003543E-01 -0.21240271757E-02  0.48340926864E-01  0.51100000000E-03 0. -1.
         11    1    4    4    0    0  0.79764460796E-01 -0.16613660641E-02  0.86886885233E-02  0.80255116800E-01  0.51100000000E-03 0.  1.
</event>
<event>
 8    1  0.1092993E+005  0.1043930E+01  0.7957747E-01            NaN
         13   -1    0    0    0    0  0.00000000000E+00  0.00000000000E+00  0.74505805969E-08  0.10566000000E+00  0.10566000000E+00 0.  1.
     999900   -1    0    0    0    0 -0.00000000000E+00 -0.00000000000E+00 -0.74505805969E-08  0.93827000000E+00  0.93827000000E+00 0. -1.
     999902    2    1    2    0    0 -0.11793645138E-01 -0.17124057954E-01 -0.15083909375E-01  0.10182424982E+01  0.10179184336E+01 0.  0.
     999903    2    3    3    0    0 -0.27991688040E-01 -0.12621253191E+00 -0.13636959724E-01  0.13135763228E+00  0.18860622419E-01 0.  0.
         14    1    1    2    0    0  0.11793645138E-01  0.17124057954E-01  0.15083909375E-01  0.25687501795E-01  0.00000000000E+00 0.  1.
     999901    1    3    3    0    0  0.16198042902E-01  0.10908847395E+00 -0.14469496508E-02  0.88688486592E+00  0.88000000000E+00 0.  1.
        -11    1    4    4    0    0 -0.50154578123E-02 -0.49153170804E-01  0.19413879725E-02  0.49449156974E-01  0.51100000000E-03 0. -1.
         11    1    4    4    0    0 -0.22976230227E-01 -0.77059361103E-01 -0.15578347696E-01  0.81908475306E-01  0.51100000000E-03 0.  1.
</event>
<event>
 8    1  0.1092993E+005  0.1043930E+01  0.7957747E-01            NaN
         13   -1    0    0    0    0  0.00000000000E+00  0.00000000000E+00  0.74505805969E-08  0.10566000000E+00  0.10566000000E+00 0. -1.
     999900   -1    0    0    0    0 -0.00000000000E+00 -0.00000000000E+00 -0.74505805969E-08  0.93827000000E+00  0.93827000000E+00 0.  1.
     999902    2    1    2    0    0  0.42534155455E-02  0.21834600365E-01  0.69584368467E-02  0.10206220365E+01  0.10203558597E+01 0.  0.
     999903    2    3    3    0    0  0.12483537727E+00 -0.24110968098E-01 -0.22383226881E-01  0.13072769564E+00  0.20579391620E-01 0.  0.
         14    1    1    2    0    0 -0.42534155455E-02 -0.21834600365E-01 -0.69584368467E-02  0.23307963451E-01  0.00000000000E+00 0. -1.
     999901    1    3    3    0    0 -0.12058196173E+00  0.45945568462E-01  0.29341663727E-01  0.88989434091E+00  0.88000000000E+00 0. -1.
        -11    1    4    4    0    0  0.93736652192E-01 -0.12568784821E-01 -0.91799993652E-02  0.95021407196E-01  0.51100000000E-03 0.  1.
         11    1    4    4    0    0  0.31098725081E-01 -0.11542183276E-01 -0.13203227515E-01  0.35706288442E-01  0.51100000000E-03 0. -1.
</event>
<event>
 8    1  0.1092993E+005  0.1043930E+01  0.7957747E-01            NaN
         13   -1    0    0    0    0  0.00000000000E+00  0.00000000000E+00  0.74505805969E-08  0.10566000000E+00  0.10566000000E+00 0.  1.
     999900   -1    0    0    0    0 -0.00000000000E+00 -0.00000000000E+00 -0.74505805969E-08  0.93827000000E+00  0.93827000000E+00 0.  1.
     999902    2    1    2    0    0  0.77004332483E-03 -0.60174989172E-02 -0.26458451806E-01  0.10167849649E+01  0.10164225558E+01 0.  0.
     999903    2    3    3    0    0  0.12448794586E+00  0.17006022637E-01 -0.70196536668E-02  0.12762014954E+00  0.21240846536E-01 0.  0.
         14    1    1    2    0    0 -0.77004332483E-03  0.60174989172E-02  0.26458451806E-01  0.27145035124E-01  0.00000000000E+00 0.  1.
     999901    1    3    3    0    0 -0.12371790253E+00 -0.23023521555E-01 -0.19438798139E-01  0.88916481533E+00  0.88000000000E+00 0. -1.
        -11    1    4    4    0    0  0.62174682406E-01 -0.21269689381E-02 -0.47491101460E-02  0.62394152750E-01  0.51100000000E-03 0.  1.
         11    1    4    4    0    0  0.62313263453E-01  0.19132991575E-01 -0.22705435208E-02  0.65225996793E-01  0.51100000000E-03 0. -1.
</event>
<event>
 8    1  0.1092993E+005  0.1043930E+01  0.7957747E-01            NaN
         13   -1    0    0    0    0  0.00000000000E+00  0.00000000000E+00  0.74505805969E-08  0.10566000000E+00  0.10566000000E+00 0. -1.
     999900   -1    0    0    0    0 -0.00000000000E+00 -0.00000000000E+00 -0.74505805969E-08  0.93827000000E+00  0.93827000000E+00 0.  1.
     999902    2    1    2    0    0  0.21542054792E-02  0.27164766513E-01 -0.63350763143E-02  0.10159532537E+01  0.10155679767E+01 0.  0.
     999903    2    3    3    0    0 -0.10946778712E+00 -0.53421089058E-01 -0.20647628826E-01  0.12513430549E+00  0.19881163506E-01 0.  0.
         14    1    1    2    0    0 -0.21542054792E-02 -0.27164766513E-01  0.63350763143E-02  0.27976746287E-01  0.00000000000E+00 0.  1.
     999901    1    3    3    0    0  0.11162199260E+00  0.80585855571E-01  0.14312552512E-01  0.89081894822E+00  0.88000000000E+00 0. -1.
        -11    1    4    4    0    0 -0.59013064166E-01 -0.28551695400E-01 -0.21126254063E-01  0.68879030076E-01  0.51100000000E-03 0.  1.
         11    1    4    4    0    0 -0.50454722951E-01 -0.24869393658E-01  0.47862523741E-03  0.56255275416E-01  0.51100000000E-03 0. -1.
</event>
<event>
 8    1  0.1092993E+005  0.1043930E+01  0.7957747E-01            NaN
         13   -1    0    0    0    0  0.00000000000E+00  0.00000000000E+00  0.74505805969E-08  0.10566000000E+00  0.10566000000E+00 0.  1.
     999900   -1    0    0    0    0 -0.00000000000E+00 -0.00000000000E+00 -0.74505805969E-08  0.93827000000E+00  0.93827000000E+00 0. -1.
     999902    2    1    2    0    0  0.32818138364E-02  0.15384737268E-01 -0.18053697391E-01  0.10199843024E+01  0.10197031827E+01 0.  0.
     999903    2    3    3    0    0  0.49247024720E-01 -0.10332319170E+00  0.53635265458E-01  0.12793963964E+00  0.19770136681E-01 0.  0.
         14    1    1    2    0    0 -0.32818138364E-02 -0.15384737268E-01  0.18053697391E-01  0.23945697575E-01  0.00000000000E+00 0.  1.
     999901    1    3    3    0    0 -0.45965210884E-01  0.11870792896E+00 -0.71688962849E-01  0.89204466279E+00  0.88000000000E+00 0. -1.
        -11    1    4    4    0    0  0.31705281109E-01 -0.44840114778E-01  0.28914104144E-01  0.62065669118E-01  0.51100000000E-03 0. -1.
         11    1    4    4    0    0  0.17541743611E-01 -0.58483076917E-01  0.24721161313E-01  0.65873970522E-01  0.51100000000E-03 0.  1.
</event>
<event>
 8    1  0.1092993E+005  0.1043930E+01  0.7957747E-01            NaN
         13   -1    0    0    0    0  0.00000000000E+00  0.00000000000E+00  0.74505805969E-08  0.10566000000E+00  0.10566000000E+00 0.  1.
     999900   -1    0    0    0    0 -0.00000000000E+00 -0.00000000000E+00 -0.74505805969E-08  0.93827000000E+00  0.93827000000E+00 0.  1.
     999902    2    1    2    0    0 -0.12570311376E-01 -0.19710742662E-01  0.48494580076E-02  0.10200544194E+01  0.10197749630E+01 0.  0.
     999903    2    3    3    0    0 -0.11201611268E+00  0.62935856519E-01 -0.12762521357E-01  0.13043084197E+00  0.18460526812E-01 0.  0.
         14    1    1    2    0    0  0.12570311376E-01  0.19710742662E-01 -0.48494580076E-02  0.23875580566E-01  0.00000000000E+00 0. -1.
     999901    1    3    3    0    0  0.99445801309E-01 -0.82646599181E-01  0.17611979365E-01  0.88962357746E+00  0.88000000000E+00 0. -1.
        -11    1    4    4    0    0 -0.44041897418E-01  0.31826749008E-01 -0.12100243624E-01  0.55671426220E-01  0.51100000000E-03 0.  1.
         11    1    4    4    0    0 -0.67974215267E-01  0.31109107511E-01 -0.66227773268E-03  0.74759415755E-01  0.51100000000E-03 0. -1.
</event>
<event>
 8    1  0.1092993E+005  0.1043930E+01  0.7957747E-01            NaN
         13   -1    0    0    0    0  0.00000000000E+00  0.00000000000E+00  0.74505805969E-08  0.10566000000E+00  0.10566000000E+00 0. -1.
     999900   -1    0    0    0    0 -0.00000000000E+00 -0.00000000000E+00 -0.74505805969E-08  0.93827000000E+00  0.93827000000E+00 0. -1.
     999902    2    1    2    0    0  0.15429735504E-01  0.13197877404E-01 -0.12618965254E-01  0.10200239550E+01  0.10197437765E+01 0.  0.
     999903    2    3    3    0    0 -0.20936858239E-01  0.45127976819E-01 -0.12164576356E+00  0.13197615042E+00  0.12046832004E-01 0.  0.
         14    1    1    2    0    0 -0.15429735504E-01 -0.13197877404E-01  0.12618965254E-01  0.23906045047E-01  0.00000000000E+00 0.  1.
     999901    1    3    3    0    0  0.36366593743E-01 -0.31930099416E-01  0.10902679831E+00  0.88804780453E+00  0.88000000000E+00 0.  1.
        -11    1    4    4    0    0 -0.11866348781E-01  0.19283327026E-01 -0.69118072804E-01  0.72733940109E-01  0.51100000000E-03 0. -1.
         11    1    4    4    0    0 -0.90705094576E-02  0.25844649793E-01 -0.52527690761E-01  0.59242210310E-01  0.51100000000E-03 0.  1.
</event>
<event>
 8    1  0.1170188E+005  0.1043930E+01  0.7957747E-01            NaN
         13   -1    0    0    0    0  0.00000000000E+00  0.00000000000E+00  0.74505805969E-08  0.10566000000E+00  0.10566000000E+00 0. -1.
     999900   -1    0    0    0    0 -0.00000000000E+00 -0.00000000000E+00 -0.74505805969E-08  0.93827000000E+00  0.93827000000E+00 0. -1.
     999902    2    1    2    0    0 -0.26272537675E-02 -0.22925630415E-01  0.50541817551E-02  0.10203073044E+01  0.10200338052E+01 0.  0.
     999903    2    3    3    0    0 -0.27282959766E-01  0.43114499404E-01 -0.11709177937E+00  0.12907846828E+00  0.18642591696E-01 0.  0.
         14    1    1    2    0    0  0.26272537675E-02  0.22925630415E-01 -0.50541817551E-02  0.23622695560E-01  0.00000000000E+00 0. -1.
     999901    1    3    3    0    0  0.24655705998E-01 -0.66040129819E-01  0.12214596112E+00  0.89122883616E+00  0.88000000000E+00 0.  1.
        -11    1    4    4    0    0 -0.20935460920E-01  0.16874643674E-01 -0.66489239931E-01  0.71722571557E-01  0.51100000000E-03 0.  1.
         11    1    4    4    0    0 -0.63474988451E-02  0.26239855730E-01 -0.50602539438E-01  0.57355896723E-01  0.51100000000E-03 0. -1.
</event>
<event>
 8    1  0.1092993E+005  0.1043930E+01  0.7957747E-01            NaN
         13   -1    0    0    0    0  0.00000000000E+00  0.00000000000E+00  0.74505805969E-08  0.10566000000E+00  0.10566000000E+00 0.  1.
     999900   -1    0    0    0    0 -0.00000000000E+00 -0.00000000000E+00 -0.74505805969E-08  0.93827000000E+00  0.93827000000E+00 0. -1.
     999902    2    1    2    0    0 -0.13246115361E-01 -0.85640567124E-02  0.19152970275E-01  0.10191179281E+01  0.10188158384E+01 0.  0.
     999903    2    3    3    0    0 -0.51620832985E-01 -0.11758562457E+00  0.20191257660E-01  0.13155981779E+00  0.20228921562E-01 0.  0.
         14    1    1    2    0    0  0.13246115361E-01  0.85640567124E-02 -0.19152970275E-01  0.24812071858E-01  0.00000000000E+00 0. -1.
     999901    1    3    3    0    0  0.38374717624E-01  0.10902156786E+00 -0.10382873847E-02  0.88755811035E+00  0.88000000000E+00 0. -1.
        -11    1    4    4    0    0 -0.39546659269E-01 -0.92306668009E-01  0.24087321285E-01  0.10327109657E+00  0.51100000000E-03 0.  1.
         11    1    4    4    0    0 -0.12074173716E-01 -0.25278956560E-01 -0.38960636250E-02  0.28288721224E-01  0.51100000000E-03 0. -1.
</event>
<event>
 8    1  0.1092993E+005  0.1043930E+01  0.7957747E-01            NaN
         13   -1    0    0    0    0  0.00000000000E+00  0.00000000000E+00  0.74505805969E-08  0.10566000000E+00  0.10566000000E+00 0. -1.
     999900   -1    0    0    0    0 -0.00000000000E+00 -0.00000000000E+00 -0.74505805969E-08  0.93827000000E+00  0.93827000000E+00 0.  1.
     999902    2    1    2    0    0  0.35092099610E-02 -0.22610675574E-01 -0.50298116139E-02  0.10205023196E+01  0.10202333694E+01 0.  0.
     999903    2    3    3    0    0  0.92748049071E-01  0.85301960845E-01 -0.21143281479E-01  0.12928497718E+00  0.19721608505E-01 0.  0.
         14    1    1    2    0    0 -0.35092099610E-02  0.22610675574E-01  0.50298116139E-02  0.23427680409E-01  0.00000000000E+00 0.  1.
     999901    1    3    3    0    0 -0.89238839110E-01 -0.10791263642E+00  0.16113469865E-01  0.89121734241E+00  0.88000000000E+00 0. -1.
        -11    1    4    4    0    0  0.50522443058E-02  0.61454848404E-02 -0.64149184847E-02  0.10232519563E-01  0.51100000000E-03 0. -1.
         11    1    4    4    0    0  0.87695804765E-01  0.79156476005E-01 -0.14728362994E-01  0.11905245762E+00  0.51100000000E-03 0.  1.
</event>
<event>
 8    1  0.1092993E+005  0.1043930E+01  0.7957747E-01            NaN
         13   -1    0    0    0    0  0.00000000000E+00  0.00000000000E+00  0.74505805969E-08  0.10566000000E+00  0.10566000000E+00 0.  1.
     999900   -1    0    0    0    0 -0.00000000000E+00 -0.00000000000E+00 -0.74505805969E-08  0.93827000000E+00  0.93827000000E+00 0. -1.
     999902    2    1    2    0    0 -0.20122575451E-01  0.88039645281E-02  0.87479694646E-02  0.10202877750E+01  0.10200138180E+01 0.  0.
     999903    2    3    3    0    0 -0.13124626065E+00  0.10799506481E-01 -0.54508620382E-03  0.13324842045E+00  0.20313398496E-01 0.  0.
         14    1    1    2    0    0  0.20122575451E-01 -0.88039645281E-02 -0.87479694646E-02  0.23642225021E-01  0.00000000000E+00 0. -1.
     999901    1    3    3    0    0  0.11112368520E+00 -0.19955419528E-02  0.92930556685E-02  0.88703935453E+00  0.88000000000E+00 0.  1.
        -11    1    4    4    0    0 -0.52077256907E-01  0.14139029032E-01  0.14080594070E-02  0.53983299096E-01  0.51100000000E-03 0. -1.
         11    1    4    4    0    0 -0.79169003743E-01 -0.33395225507E-02 -0.19531456109E-02  0.79265121354E-01  0.51100000000E-03 0.  1.
</event>
<event>
 8    1  0.1092993E+005  0.1043930E+01  0.7957747E-01            NaN
         13   -1    0    0    0    0  0.00000000000E+00  0.00000000000E+00  0.74505805969E-08  0.10566000000E+00  0.10566000000E+00 0. -1.
     999900   -1    0    0    0    0 -0.00000000000E+00 -0.00000000000E+00 -0.74505805969E-08  0.93827000000E+00  0.93827000000E+00 0. -1.
     999902    2    1    2    0    0 -0.51192848268E-02  0.43011862406E-02 -0.23146999427E-01  0.10198366220E+01  0.10195519824E+01 0.  0.
     999903    2    3    3    0    0 -0.27114302192E-01  0.12649735105E+00 -0.38753816470E-02  0.13091194650E+00  0.19650800224E-01 0.  0.
         14    1    1    2    0    0  0.51192848268E-02 -0.43011862406E-02  0.23146999427E-01  0.24093377984E-01  0.00000000000E+00 0. -1.
     999901    1    3    3    0    0  0.21995017366E-01 -0.12219616481E+00 -0.19271617780E-01  0.88892467551E+00  0.88000000000E+00 0. -1.
        -11    1    4    4    0    0 -0.35573319159E-03  0.45289547050E-01  0.48645087801E-03  0.45296438861E-01  0.51100000000E-03 0. -1.
         11    1    4    4    0    0 -0.26758569001E-01  0.81207803997E-01 -0.43618325250E-02  0.85615507643E-01  0.51100000000E-03 0.  1.
</event>
<event>
 8    1  0.1092993E+005  0.1043930E+01  0.7957747E-01            NaN
         13   -1    0    0    0    0  0.00000000000E+00  0.00000000000E+00  0.74505805969E-08  0.10566000000E+00  0.10566000000E+00 0.  1.
     999900   -1    0    0    0    0 -0.00000000000E+00 -0.00000000000E+00 -0.74505805969E-08  0.93827000000E+00  0.93827000000E+00 0. -1.
     999902    2    1    2    0    0 -0.15760225146E-01 -0.63572410725E-02 -0.17308224587E-01  0.10196735813E+01  0.10193850296E+01 0.  0.
     999903    2    3    3    0    0  0.91896863843E-01 -0.82934282973E-01  0.27755898531E-01  0.12867141106E+00  0.21513094695E-01 0.  0.
         14    1    1    2    0    0  0.15760225146E-01  0.63572410725E-02  0.17308224587E-01  0.24256418719E-01  0.00000000000E+00 0. -1.
     999901    1    3    3    0    0 -0.10765708899E+00  0.76577041900E-01 -0.45064123118E-01  0.89100217023E+00  0.88000000000E+00 0. -1.
        -11    1    4    4    0    0  0.59894544443E-02 -0.10876049493E-02  0.49070430839E-02  0.78356009274E-02  0.51100000000E-03 0. -1.
         11    1    4    4    0    0  0.85907409399E-01 -0.81846678023E-01  0.22848855447E-01  0.12083581013E+00  0.51100000000E-03 0.  1.
</event>
<event>
 8    1  0.1092993E+005  0.1043930E+01  0.7957747E-01            NaN
         13   -1    0    0    0    0  0.00000000000E+00  0.00000000000E+00  0.74505805969E-08  0.10566000000E+00  0.10566000000E+00 0.  1.
     999900   -1    0    0    0    0 -0.00000000000E+00 -0.00000000000E+00 -0.74505805969E-08  0.93827000000E+00  0.93827000000E+00 0.  1.
     999902    2    1    2    0    0  0.23082122363E-01  0.37134858095E-02  0.34638318942E-02  0.10202958620E+01  0.10200220946E+01 0.  0.
     999903    2    3    3    0    0  0.93887233092E-01  0.57000371431E-01 -0.72503869512E-01  0.13258873258E+00  0.16096770882E-01 0.  0.
         14    1    1    2    0    0 -0.23082122363E-01 -0.37134858095E-02 -0.34638318942E-02  0.23634138043E-01  0.00000000000E+00 0.  1.
     999901    1    3    3    0    0 -0.70805110728E-01 -0.53286885621E-01  0.75967701406E-01  0.88770712937E+00  0.88000000000E+00 0. -1.
        -11    1    4    4    0    0  0.66802901452E-01  0.44128281126E-01 -0.60200682863E-01  0.10017143393E+00  0.51100000000E-03 0. -1.
         11    1    4    4    0    0  0.27084331639E-01  0.12872090305E-01 -0.12303186649E-01  0.32417298652E-01  0.51100000000E-03 0.  1.
</event>
<event>
 8    1  0.1092993E+005  0.1043930E+01  0.7957747E-01            NaN
         13   -1    0    0    0    0  0.00000000000E+00  0.00000000000E+00  0.74505805969E-08  0.10566000000E+00  0.10566000000E+00 0.  1.
     999900   -1    0    0    0    0 -0.00000000000E+00 -0.00000000000E+00 -0.74505805969E-08  0.93827000000E+00  0.93827000000E+00 0.  1.
     999902    2    1    2    0    0  0.69949575136E-02  0.19635067699E-01  0.10947009238E-01  0.10203863740E+01  0.10201147239E+01 0.  0.
     999903    2    3    3    0    0  0.89556094919E-01  0.22701636029E-01 -0.90360528333E-01  0.13072971976E+00  0.19737683078E-01 0.  0.
         14    1    1    2    0    0 -0.69949575136E-02 -0.19635067699E-01 -0.10947009238E-01  0.23543626004E-01  0.00000000000E+00 0.  1.
     999901    1    3    3    0    0 -0.82561137406E-01 -0.30665683293E-02  0.10130753757E+00  0.88965665423E+00  0.88000000000E+00 0.  1.
        -11    1    4    4    0    0  0.58055246240E-01  0.23166025362E-01 -0.65995595380E-01  0.90899703397E-01  0.51100000000E-03 0.  1.
         11    1    4    4    0    0  0.31500848679E-01 -0.46438933374E-03 -0.24364932953E-01  0.39830016366E-01  0.51100000000E-03 0. -1.
</event>
<event>
 8    1  0.1092993E+005  0.1043930E+01  0.7957747E-01            NaN
         13   -1    0    0    0    0  0.00000000000E+00  0.00000000000E+00  0.74505805969E-08  0.10566000000E+00  0.10566000000E+00 0.  1.
     999900   -1    0    0    0    0 -0.00000000000E+00 -0.00000000000E+00 -0.74505805969E-08  0.93827000000E+00  0.93827000000E+00 0. -1.
     999902    2    1    2    0    0  0.21873098644E-01 -0.12348705750E-02  0.95483751553E-02  0.10200316984E+01  0.10197517036E+01 0.  0.
     999903    2    3    3    0    0 -0.84247553423E-01  0.89135997580E-01  0.34115072349E-01  0.12872254375E+00  0.19046752656E-01 0.  0.
         14    1    1    2    0    0 -0.21873098644E-01  0.12348705750E-02 -0.95483751553E-02  0.23898301566E-01  0.00000000000E+00 0.  1.
     999901    1    3    3    0    0  0.10612065207E+00 -0.90370868155E-01 -0.24566697193E-01  0.89130915468E+00  0.88000000000E+00 0. -1.
        -11    1    4    4    0    0 -0.29755634164E-01  0.43713092225E-01  0.10194447175E-01  0.53855548188E-01  0.51100000000E-03 0. -1.
         11    1    4    4    0    0 -0.54491919259E-01  0.45422905355E-01  0.23920625174E-01  0.74866995566E-01  0.51100000000E-03 0.  1.
</event>
<event>
 8    1  0.1092993E+005  0.1043930E+01  0.7957747E-01            NaN
         13   -1    0    0    0    0  0.00000000000E+00  0.00000000000E+00  0.74505805969E-08  0.10566000000E+00  0.10566000000E+00 0. -1.
     999900   -1    0    0    0    0 -0.00000000000E+00 -0.00000000000E+00 -0.74505805969E-08  0.93827000000E+00  0.93827000000E+00 0. -1.
     999902    2    1    2    0    0  0.14641737086E-01 -0.26154719258E-02  0.17502176665E-01  0.10209616011E+01  0.10207032104E+01 0.  0.
     999903    2    3    3    0    0 -0.12570619512E+00 -0.44552448114E-02  0.25138581421E-01  0.12980547479E+00  0.19890105881E-01 0.  0.
         14    1    1    2    0    0 -0.14641737086E-01  0.26154719258E-02 -0.17502176665E-01  0.22968398863E-01  0.00000000000E+00 0.  1.
     999901    1    3    3    0    0  0.14034793221E+00  0.18397728855E-02 -0.76364047562E-02  0.89115612634E+00  0.88000000000E+00 0.  1.
        -11    1    4    4    0    0 -0.80302986707E-01 -0.42927680663E-02  0.25603660526E-01  0.84396718450E-01  0.51100000000E-03 0. -1.
         11    1    4    4    0    0 -0.45403208417E-01 -0.16247674511E-03 -0.46507910456E-03  0.45408756345E-01  0.51100000000E-03 0.  1.
</event>
<event>
 8    1  0.1142958E+005  0.1043930E+01  0.7957747E-01            NaN
         13   -1    0    0    0    0  0.00000000000E+00  0.00000000000E+00  0.74505805969E-08  0.10566000000E+00  0.10566000000E+00 0. -1.
     999900   -1    0    0    0    0 -0.00000000000E+00 -0.00000000000E+00 -0.74505805969E-08  0.93827000000E+00  0.93827000000E+00 0.  1.
     999902    2    1    2    0    0 -0.49764373942E-02 -0.11843089400E-01  0.20466086013E-01  0.10197663005E+01  0.10194799769E+01 0.  0.
     999903    2    3    3    0    0 -0.52066470684E-01  0.65810592103E-01  0.99431271576E-01  0.13157540549E+00  0.19584640943E-01 0.  0.
         14    1    1    2    0    0  0.49764373942E-02  0.11843089400E-01 -0.20466086013E-01  0.24163699476E-01  0.00000000000E+00 0.  1.
     999901    1    3    3    0    0  0.47090033289E-01 -0.77653681503E-01 -0.78965185563E-01  0.88819089503E+00  0.88000000000E+00 0.  1.
        -11    1    4    4    0    0 -0.15658191337E-01  0.32832784454E-01  0.50494585073E-01  0.62234515613E-01  0.51100000000E-03 0. -1.
         11    1    4    4    0    0 -0.36408279346E-01  0.32977807649E-01  0.48936686503E-01  0.69340889879E-01  0.51100000000E-03 0.  1.
</event>
<event>
 8    1  0.1092993E+005  0.1043930E+01  0.7957747E-01            NaN
         13   -1    0    0    0    0  0.00000000000E+00  0.00000000000E+00  0.74505805969E-08  0.10566000000E+00  0.10566000000E+00 0. -1.
     999900   -1    0    0    0    0 -0.00000000000E+00 -0.00000000000E+00 -0.74505805969E-08  0.93827000000E+00  0.93827000000E+00 0. -1.
     999902    2    1    2    0    0 -0.78914202582E-03 -0.26843932339E-01 -0.11048931163E-01  0.10148904007E+01  0.10144748529E+01 0.  0.
     999903    2    3    3    0    0 -0.29666079323E-01 -0.17038897048E-01  0.11857988795E+00  0.12487149809E+00  0.19007917664E-01 0.  0.
         14    1    1    2    0    0  0.78914202582E-03  0.26843932339E-01  0.11048931163E-01  0.29039599316E-01  0.00000000000E+00 0. -1.
     999901    1    3    3    0    0  0.28876937298E-01 -0.98050352915E-02 -0.12962881912E+00  0.89001890259E+00  0.88000000000E+00 0. -1.
        -11    1    4    4    0    0 -0.16772204021E-01 -0.14972374879E-02  0.74536354427E-01  0.76416475972E-01  0.51100000000E-03 0.  1.
         11    1    4    4    0    0 -0.12893875302E-01 -0.15541659560E-01  0.44043533526E-01  0.48455022120E-01  0.51100000000E-03 0. -1.
</event>
<event>
 8    1  0.1092993E+005  0.1043930E+01  0.7957747E-01            NaN
         13   -1    0    0    0    0  0.00000000000E+00  0.00000000000E+00  0.74505805969E-08  0.10566000000E+00  0.10566000000E+00 0.  1.
     999900   -1    0    0    0    0 -0.00000000000E+00 -0.00000000000E+00 -0.74505805969E-08  0.93827000000E+00  0.93827000000E+00 0.  1.
     999902    2    1    2    0    0 -0.13889322563E-01 -0.11494915520E-01 -0.53087314421E-02  0.10251356127E+01  0.10249633142E+01 0.  0.
     999903    2    3    3    0    0 -0.12058440556E+00  0.59118759375E-01 -0.58047913549E-02  0.13588290516E+00  0.19870624967E-01 0.  0.
         14    1    1    2    0    0  0.13889322563E-01  0.11494915520E-01  0.53087314421E-02  0.18794387290E-01  0.00000000000E+00 0. -1.
     999901    1    3    3    0    0  0.10669508300E+00 -0.70613674895E-01  0.49605991280E-03  0.88925270755E+00  0.88000000000E+00 0.  1.
        -11    1    4    4    0    0 -0.47248873358E-01  0.16587273440E-01  0.53957824101E-02  0.50368335913E-01  0.51100000000E-03 0. -1.
         11    1    4    4    0    0 -0.73335532201E-01  0.42531485935E-01 -0.11200573765E-01  0.85514569242E-01  0.51100000000E-03 0.  1.
</event>
<event>
 8    1  0.1092993E+005  0.1043930E+01  0.7957747E-01            NaN
         13   -1    0    0    0    0  0.00000000000E+00  0.00000000000E+00  0.74505805969E-08  0.10566000000E+00  0.10566000000E+00 0.  1.
     999900   -1    0    0    0    0 -0.00000000000E+00 -0.00000000000E+00 -0.74505805969E-08  0.93827000000E+00  0.93827000000E+00 0.  1.
     999902    2    1    2    0    0  0.84733210938E-03  0.11827823622E-01  0.21617676956E-01  0.10192735741E+01  0.10189753085E+01 0.  0.
     999903    2    3    3    0    0  0.49470696904E-01  0.11848836875E+00 -0.14195854390E-01  0.13077860360E+00  0.20363631715E-01 0.  0.
         14    1    1    2    0    0 -0.84733210938E-03 -0.11827823622E-01 -0.21617676956E-01  0.24656425943E-01  0.00000000000E+00 0. -1.
     999901    1    3    3    0    0 -0.48623364795E-01 -0.10666054513E+00  0.35813531345E-01  0.88849497045E+00  0.88000000000E+00 0.  1.
        -11    1    4    4    0    0  0.35281825294E-01  0.60017723762E-01 -0.11355912972E-01  0.70541847453E-01  0.51100000000E-03 0.  1.
         11    1    4    4    0    0  0.14188871610E-01  0.58470644992E-01 -0.28399414177E-02  0.60236756151E-01  0.51100000000E-03 0. -1.
</event>
<event>
 8    1  0.1092993E+005  0.1043930E+01  0.7957747E-01            NaN
         13   -1    0    0    0    0  0.00000000000E+00  0.00000000000E+00  0.74505805969E-08  0.10566000000E+00  0.10566000000E+00 0. -1.
     999900   -1    0    0    0    0 -0.00000000000E+00 -0.00000000000E+00 -0.74505805969E-08  0.93827000000E+00  0.93827000000E+00 0.  1.
     999902    2    1    2    0    0 -0.11738450188E-01 -0.74612063985E-02 -0.18938789063E-01  0.10204323715E+01  0.10201617942E+01 0.  0.
     999903    2    3    3    0    0 -0.12069330293E+00 -0.28059555436E-01  0.40089404901E-01  0.13151180160E+00  0.18275162109E-01 0.  0.
         14    1    1    2    0    0  0.11738450188E-01  0.74612063985E-02  0.18938789063E-01  0.23497628496E-01  0.00000000000E+00 0. -1.
     999901    1    3    3    0    0  0.10895485275E+00  0.20598349038E-01 -0.59028193964E-01  0.88892056991E+00  0.88000000000E+00 0. -1.
        -11    1    4    4    0    0 -0.10118889183E+00 -0.23104720717E-01  0.40398085427E-01  0.11137902126E+00  0.51100000000E-03 0. -1.
         11    1    4    4    0    0 -0.19504411100E-01 -0.49548347197E-02 -0.30868052604E-03  0.20132780337E-01  0.51100000000E-03 0.  1.
</event>
<event>
 8    1  0.1092993E+005  0.1043930E+01  0.7957747E-01            NaN
         13   -1    0    0    0    0  0.00000000000E+00  0.00000000000E+00  0.74505805969E-08  0.10566000000E+00  0.10566000000E+00 0. -1.
     999900   -1    0    0    0    0 -0.00000000000E+00 -0.00000000000E+00 -0.74505805969E-08  0.93827000000E+00  0.93827000000E+00 0. -1.
     999902    2    1    2    0    0  0.15370104157E-01 -0.97919741766E-03  0.18706169108E-01  0.10196994471E+01  0.10194115179E+01 0.  0.
     999903    2    3    3    0    0 -0.10439475931E+00 -0.69734940517E-01  0.18646401825E-01  0.12892956759E+00  0.22669746322E-01 0.  0.
         14    1    1    2    0    0 -0.15370104157E-01  0.97919741766E-03 -0.18706169108E-01  0.24230552864E-01  0.00000000000E+00 0.  1.
     999901    1    3    3    0    0  0.11976486347E+00  0.68755743099E-01  0.59767283303E-04  0.89076987954E+00  0.88000000000E+00 0. -1.
        -11    1    4    4    0    0 -0.40798640277E-01 -0.17841068198E-01  0.14138032992E-01  0.46722348622E-01  0.51100000000E-03 0. -1.
         11    1    4    4    0    0 -0.63596119033E-01 -0.51893872319E-01  0.45083688329E-02  0.82207218970E-01  0.51100000000E-03 0.  1.
</event>
<event>
 8    1  0.1092993E+005  0.1043930E+01  0.7957747E-01            NaN
         13   -1    0    0    0    0  0.00000000000E+00  0.00000000000E+00  0.74505805969E-08  0.10566000000E+00  0.10566000000E+00 0. -1.
     999900   -1    0    0    0    0 -0.00000000000E+00 -0.00000000000E+00 -0.74505805969E-08  0.93827000000E+00  0.93827000000E+00 0.  1.
     999902    2    1    2    0    0 -0.15509425941E-01 -0.15163617850E-01 -0.85052945482E-02  0.10206315530E+01  0.10203655959E+01 0.  0.
     999903    2    3    3    0    0 -0.46899742172E-01  0.19839489677E-01 -0.12041840351E+00  0.13229878116E+00  0.20228307549E-01 0.  0.
         14    1    1    2    0    0  0.15509425941E-01  0.15163617850E-01  0.85052945482E-02  0.23298447044E-01  0.00000000000E+00 0. -1.
     999901    1    3    3    0    0  0.31390316231E-01 -0.35003107527E-01  0.11191310896E+00  0.88833277180E+00  0.88000000000E+00 0. -1.
        -11    1    4    4    0    0 -0.29903884154E-01  0.22087700774E-01 -0.74051429564E-01  0.82861234328E-01  0.51100000000E-03 0.  1.
         11    1    4    4    0    0 -0.16995858018E-01 -0.22482110967E-02 -0.46366973945E-01  0.49437546831E-01  0.51100000000E-03 0. -1.
</event>
<event>
 8    1  0.1092993E+005  0.1043930E+01  0.7957747E-01            NaN
         13   -1    0    0    0    0  0.00000000000E+00  0.00000000000E+00  0.74505805969E-08  0.10566000000E+00  0.10566000000E+00 0. -1.
     999900   -1    0    0    0    0 -0.00000000000E+00 -0.00000000000E+00 -0.74505805969E-08  0.93827000000E+00  0.93827000000E+00 0. -1.
     999902    2    1    2    0    0 -0.16204755987E-01  0.43889794607E-03  0.17889329240E-01  0.10197884415E+01  0.10195026486E+01 0.  0.
     999903    2    3    3    0    0 -0.10527631817E+00  0.72825301109E-01 -0.23008889378E-01  0.13139314721E+00  0.18658041019E-01 0.  0.
         14    1    1    2    0    0  0.16204755987E-01 -0.43889794607E-03 -0.17889329240E-01  0.24141558538E-01  0.00000000000E+00 0.  1.
     999901    1    3    3    0    0  0.89071562187E-01 -0.72386403163E-01  0.40898218618E-01  0.88839529425E+00  0.88000000000E+00 0.  1.
        -11    1    4    4    0    0 -0.89365115111E-01  0.63941939478E-01 -0.13156501752E-01  0.11067090893E+00  0.51100000000E-03 0.  1.
         11    1    4    4    0    0 -0.15911203063E-01  0.88833616310E-02 -0.98523876263E-02  0.20722238289E-01  0.51100000000E-03 0. -1.
</event>
<event>
 8    1  0.1092993E+005  0.1043930E+01  0.7957747E-01            NaN
         13   -1    0    0    0    0  0.00000000000E+00  0.00000000000E+00  0.74505805969E-08  0.10566000000E+00  0.10566000000E+00 0. -1.
     999900   -1    0    0    0    0 -0.00000000000E+00 -0.00000000000E+00 -0.74505805969E-08  0.93827000000E+00  0.93827000000E+00 0.  1.
     999902    2    1    2    0    0  0.23401154161E-01 -0.40433420967E-02  0.15103918716E-02  0.10201341198E+01  0.10198565480E+01 0.  0.
     999903    2    3    3    0    0  0.21257254087E-01 -0.53068958645E-01  0.11661848846E+00  0.13128206164E+00  0.19155224733E-01 0.  0.
         14    1    1    2    0    0 -0.23401154161E-01  0.40433420967E-02 -0.15103918716E-02  0.23795880210E-01  0.00000000000E+00 0.  1.
     999901    1    3    3    0    0  0.21439000738E-02  0.49025616548E-01 -0.11510809658E+00  0.88885205815E+00  0.88000000000E+00 0.  1.
        -11    1    4    4    0    0  0.19008833004E-01 -0.37335986957E-01  0.99262556287E-01  0.10774334251E+00  0.51100000000E-03 0.  1.
         11    1    4    4    0    0  0.22484210827E-02 -0.15732971687E-01  0.17355932170E-01  0.23538719123E-01  0.51100000000E-03 0. -1.
</event>
<event>
 8    1  0.1092993E+005  0.1043930E+01  0.7957747E-01            NaN
         13   -1    0    0    0    0  0.00000000000E+00  0.00000000000E+00  0.74505805969E-08  0.10566000000E+00  0.10566000000E+00 0. -1.
     999900   -1    0    0    0    0 -0.00000000000E+00 -0.00000000000E+00 -0.74505805969E-08  0.93827000000E+00  0.93827000000E+00 0.  1.
     999902    2    1    2    0    0  0.21090371975E-01  0.87322478906E-02 -0.44738884662E-02  0.10206690537E+01  0.10204039620E+01 0.  0.
     999903    2    3    3    0    0 -0.27133625242E-01 -0.12458556965E+00  0.58430178346E-02  0.12926250623E+00  0.20417073138E-01 0.  0.
         14    1    1    2    0    0 -0.21090371975E-01 -0.87322478906E-02  0.44738884662E-02  0.23260946268E-01  0.00000000000E+00 0.  1.
     999901    1    3    3    0    0  0.48223997217E-01  0.13331781754E+00 -0.10316906301E-01  0.89140654751E+00  0.88000000000E+00 0. -1.
        -11    1    4    4    0    0 -0.10869755912E-01 -0.84067062984E-01 -0.25163444208E-02  0.84805753240E-01  0.51100000000E-03 0.  1.
         11    1    4    4    0    0 -0.16263869331E-01 -0.40518506663E-01  0.83593622554E-02  0.44456752986E-01  0.51100000000E-03 0. -1.
</event>
<event>
 8    1  0.1092993E+005  0.1043930E+01  0.7957747E-01            NaN
         13   -1    0    0    0    0  0.00000000000E+00  0.00000000000E+00  0.74505805969E-08  0.10566000000E+00  0.10566000000E+00 0. -1.
     999900   -1    0    0    0    0 -0.00000000000E+00 -0.00000000000E+00 -0.74505805969E-08  0.93827000000E+00  0.93827000000E+00 0.  1.
     999902    2    1    2    0    0 -0.59472983035E-02 -0.20413399721E-01  0.10212867606E-01  0.10203422932E+01  0.10200696131E+01 0.  0.
     999903    2    3    3    0    0 -0.56414100795E-01  0.73057173067E-01 -0.87279472290E-01  0.12860892364E+00  0.20066082101E-01 0.  0.
         14    1    1    2    0    0  0.59472983035E-02  0.20413399721E-01 -0.10212867606E-01  0.23587706756E-01  0.00000000000E+00 0.  1.
     999901    1    3    3    0    0  0.50466802492E-01 -0.93470572788E-01  0.97492339896E-01  0.89173336961E+00  0.88000000000E+00 0. -1.
        -11    1    4    4    0    0 -0.60211309090E-02  0.14313988220E-01 -0.24215117615E-01  0.28771119517E-01  0.51100000000E-03 0. -1.
         11    1    4    4    0    0 -0.50392969886E-01  0.58743184847E-01 -0.63064354675E-01  0.99837804120E-01  0.51100000000E-03 0.  1.
</event>
<event>
 8    1  0.1092993E+005  0.1043930E+01  0.7957747E-01            NaN
         13   -1    0    0    0    0  0.00000000000E+00  0.00000000000E+00  0.74505805969E-08  0.10566000000E+00  0.10566000000E+00 0. -1.
     999900   -1    0    0    0    0 -0.00000000000E+00 -0.00000000000E+00 -0.74505805969E-08  0.93827000000E+00  0.93827000000E+00 0.  1.
     999902    2    1    2    0    0  0.10877124919E-01  0.19194254237E-01  0.10846463731E-01  0.10193459194E+01  0.10190494230E+01 0.  0.
     999903    2    3    3    0    0 -0.16731346334E-01  0.10184538303E+00  0.80378627890E-01  0.13231257246E+00  0.19836154218E-01 0.  0.
         14    1    1    2    0    0 -0.10877124919E-01 -0.19194254237E-01 -0.10846463731E-01  0.24584080574E-01  0.00000000000E+00 0.  1.
     999901    1    3    3    0    0  0.27608471253E-01 -0.82651128796E-01 -0.69532164159E-01  0.88703334697E+00  0.88000000000E+00 0. -1.
        -11    1    4    4    0    0 -0.14698955983E-01  0.63351970063E-01  0.60992892144E-01  0.89162354337E-01  0.51100000000E-03 0. -1.
         11    1    4    4    0    0 -0.20323903510E-02  0.38493412971E-01  0.19385735746E-01  0.43150218123E-01  0.51100000000E-03 0.  1.
</event>
<event>
 8    1  0.1092993E+005  0.1043930E+01  0.7957747E-01            NaN
         13   -1    0    0    0    0  0.00000000000E+00  0.00000000000E+00  0.74505805969E-08  0.10566000000E+00  0.10566000000E+00 0. -1.
     999900   -1    0    0    0    0 -0.00000000000E+00 -0.00000000000E+00 -0.74505805969E-08  0.93827000000E+00  0.93827000000E+00 0. -1.
     999902    2    1    2    0    0 -0.16217165292E-02  0.21598585046E-01 -0.29595779122E-02  0.10220693518E+01  0.10218355405E+01 0.  0.
     999903    2    3    3    0    0 -0.37296398079E-01 -0.76688612295E-01  0.96522215062E-01  0.13031283610E+00  0.19817484387E-01 0.  0.
         14    1    1    2    0    0  0.16217165292E-02 -0.21598585046E-01  0.29595779122E-02  0.21860648250E-01  0.00000000000E+00 0.  1.
     999901    1    3    3    0    0  0.35674681549E-01  0.98287197341E-01 -0.99481792975E-01  0.89175651565E+00  0.88000000000E+00 0. -1.
        -11    1    4    4    0    0 -0.24646387037E-01 -0.28407906223E-01  0.42982658136E-01  0.57115878278E-01  0.51100000000E-03 0.  1.
         11    1    4    4    0    0 -0.12650011042E-01 -0.48280706071E-01  0.53539556926E-01  0.73196957826E-01  0.51100000000E-03 0. -1.
</event>
<event>
 8    1  0.1092993E+005  0.1043930E+01  0.7957747E-01            NaN
         13   -1    0    0    0    0  0.00000000000E+00  0.00000000000E+00  0.74505805969E-08  0.10566000000E+00  0.10566000000E+00 0. -1.
     999900   -1    0    0    0    0 -0.00000000000E+00 -0.00000000000E+00 -0.74505805969E-08  0.93827000000E+00  0.93827000000E+00 0. -1.
     999902    2    1    2    0    0 -0.17040731706E-01  0.11624911735E-02  0.16379688270E-01  0.10202650024E+01  0.10199905113E+01 0.  0.
     999903    2    3    3    0    0 -0.66276296944E-01 -0.10239764233E+00 -0.42229917559E-01  0.13089223016E+00  0.21716014568E-01 0.  0.
         14    1    1    2    0    0  0.17040731706E-01 -0.11624911735E-02 -0.16379688270E-01  0.23664997584E-01  0.00000000000E+00 0. -1.
     999901    1    3    3    0    0  0.49235565238E-01  0.10356013350E+00  0.58609605829E-01  0.88937277226E+00  0.88000000000E+00 0. -1.
        -11    1    4    4    0    0 -0.59136200406E-01 -0.88751141090E-01 -0.44022954435E-01  0.11537823400E+00  0.51100000000E-03 0.  1.
         11    1    4    4    0    0 -0.71400965381E-02 -0.13646501237E-01  0.17930368757E-02  0.15513996159E-01  0.51100000000E-03 0. -1.
</event>
<event>
 8    1  0.1092993E+005  0.1043930E+01  0.7957747E-01            NaN
         13   -1    0    0    0    0  0.00000000000E+00  0.00000000000E+00  0.74505805969E-08  0.10566000000E+00  0.10566000000E+00 0.  1.
     999900   -1    0    0    0    0 -0.00000000000E+00 -0.00000000000E+00 -0.74505805969E-08  0.93827000000E+00  0.93827000000E+00 0.  1.
     999902    2    1    2    0    0  0.11615755050E-01  0.22161217297E-01  0.55925971093E-02  0.10182916994E+01  0.10179688907E+01 0.  0.
     999903    2    3    3    0    0  0.36114822806E-01 -0.47667214699E-02  0.12310116582E+00  0.12973467703E+00  0.18713293070E-01 0.  0.
         14    1    1    2    0    0 -0.11615755050E-01 -0.22161217297E-01 -0.55925971093E-02  0.25638300643E-01  0.00000000000E+00 0. -1.
     999901    1    3    3    0    0 -0.24499067756E-01  0.26927938766E-01 -0.11750856871E+00  0.88855702233E+00  0.88000000000E+00 0.  1.
        -11    1    4    4    0    0  0.23562928682E-01  0.60309334232E-02  0.69736738274E-01  0.73858361423E-01  0.51100000000E-03 0.  1.
         11    1    4    4    0    0  0.12551894124E-01 -0.10797654893E-01  0.53364427547E-01  0.55876315606E-01  0.51100000000E-03 0. -1.
</event>
<event>
 8    1  0.1092993E+005  0.1043930E+01  0.7957747E-01            NaN
         13   -1    0    0    0    0  0.00000000000E+00  0.00000000000E+00  0.74505805969E-08  0.10566000000E+00  0.10566000000E+00 0. -1.
     999900   -1    0    0    0    0 -0.00000000000E+00 -0.00000000000E+00 -0.74505805969E-08  0.93827000000E+00  0.93827000000E+00 0.  1.
     999902    2    1    2    0    0  0.79949871932E-02 -0.20926053061E-01  0.14813663452E-01  0.10170736387E+01  0.10167189987E+01 0.  0.
     999903    2    3    3    0    0  0.37634665207E-01 -0.84418439864E-01 -0.87180884963E-01  0.12841584090E+00  0.18635462903E-01 0.  0.
         14    1    1    2    0    0 -0.79949871932E-02  0.20926053061E-01 -0.14813663452E-01  0.26856361291E-01  0.00000000000E+00 0.  1.
     999901    1    3    3    0    0 -0.29639678014E-01  0.63492386802E-01  0.10199454842E+00  0.88865779781E+00  0.88000000000E+00 0. -1.
        -11    1    4    4    0    0  0.22714651273E-01 -0.62277194816E-01 -0.52031094944E-01  0.84272773413E-01  0.51100000000E-03 0. -1.
         11    1    4    4    0    0  0.14920013934E-01 -0.22141245047E-01 -0.35149790019E-01  0.44143067490E-01  0.51100000000E-03 0.  1.
</event>
<event>
 8    1  0.1092993E+005  0.1043930E+01  0.7957747E-01            NaN
         13   -1    0    0    0    0  0.00000000000E+00  0.00000000000E+00  0.74505805969E-08  0.10566000000E+00  0.10566000000E+00 0.  1.
     999900   -1    0    0    0    0 -0.00000000000E+00 -0.00000000000E+00 -0.74505805969E-08  0.93827000000E+00  0.93827000000E+00 0.  1.
     999902    2    1    2    0    0  0.20703589502E-01  0.72105424452E-02 -0.73494964417E-02  0.10208075944E+01  0.10205456870E+01 0.  0.
     999903    2    3    3    0    0  0.85406099721E-01  0.99685279737E-01 -0.14787008352E-01  0.13356844492E+00  0.19761502905E-01 0.  0.
         14    1    1    2    0    0 -0.20703589502E-01 -0.72105424452E-02  0.73494964417E-02  0.23122405553E-01  0.00000000000E+00 0.  1.
     999901    1    3    3    0    0 -0.64702510219E-01 -0.92474737292E-01  0.74375119106E-02  0.88723914952E+00  0.88000000000E+00 0.  1.
        -11    1    4    4    0    0  0.80892972477E-01  0.86668818973E-01 -0.10006972784E-01  0.11897713143E+00  0.51100000000E-03 0.  1.
         11    1    4    4    0    0  0.45131272436E-02  0.13016460765E-01 -0.47800355683E-02  0.14591313491E-01  0.51100000000E-03 0. -1.
</event>
<event>
 8    1  0.1092993E+005  0.1043930E+01  0.7957747E-01            NaN
         13   -1    0    0    0    0  0.00000000000E+00  0.00000000000E+00  0.74505805969E-08  0.10566000000E+00  0.10566000000E+00 0.  1.
     999900   -1    0    0    0    0 -0.00000000000E+00 -0.00000000000E+00 -0.74505805969E-08  0.93827000000E+00  0.93827000000E+00 0.  1.
     999902    2    1    2    0    0  0.16828502437E-01  0.15016855220E-01  0.58956348781E-02  0.10206177083E+01  0.10203514314E+01 0.  0.
     999903    2    3    3    0    0  0.54441261865E-02 -0.66116649983E-01 -0.10920492569E+00  0.12934873163E+00  0.20107925390E-01 0.  0.
         14    1    1    2    0    0 -0.16828502437E-01 -0.15016855220E-01 -0.58956348781E-02  0.23312291727E-01  0.00000000000E+00 0.  1.
     999901    1    3    3    0    0  0.11384376250E-01  0.81133505203E-01  0.11510056057E+00  0.89126897665E+00  0.88000000000E+00 0. -1.
        -11    1    4    4    0    0  0.14085682290E-02 -0.60394616609E-01 -0.10507245265E+00  0.12120220792E+00  0.51100000000E-03 0.  1.
         11    1    4    4    0    0  0.40355579574E-02 -0.57220333741E-02 -0.41324730440E-02  0.81465237016E-02  0.51100000000E-03 0. -1.
</event>
<event>
 8    1  0.1092993E+005  0.1043930E+01  0.7957747E-01            NaN
         13   -1    0    0    0    0  0.00000000000E+00  0.00000000000E+00  0.74505805969E-08  0.10566000000E+00  0.10566000000E+00 0.  1.
     999900   -1    0    0    0    0 -0.00000000000E+00 -0.00000000000E+00 -0.74505805969E-08  0.93827000000E+00  0.93827000000E+00 0.  1.
     999902    2    1    2    0    0  0.21472413608E-01  0.85420350115E-02 -0.64795094332E-02  0.10199296885E+01  0.10196472697E+01 0.  0.
     999903    2    3    3    0    0  0.82767486988E-01  0.78469862944E-01  0.63831456756E-01  0.13224133155E+00  0.20133022791E-01 0.  0.
         14    1    1    2    0    0 -0.21472413608E-01 -0.85420350115E-02  0.64795094332E-02  0.24000311473E-01  0.00000000000E+00 0.  1.
     999901    1    3    3    0    0 -0.61295073379E-01 -0.69927827933E-01 -0.70310966190E-01  0.88768835697E+00  0.88000000000E+00 0.  1.
        -11    1    4    4    0    0  0.47590771201E-01  0.33292457591E-01  0.38118460179E-01  0.69473357220E-01  0.51100000000E-03 0. -1.
         11    1    4    4    0    0  0.35176715787E-01  0.45177405354E-01  0.25712996577E-01  0.62767974334E-01  0.51100000000E-03 0.  1.
</event>
<event>
 8    1  0.1092993E+005  0.1043930E+01  0.7957747E-01            NaN
         13   -1    0    0    0    0  0.00000000000E+00  0.00000000000E+00  0.74505805969E-08  0.10566000000E+00  0.10566000000E+00 0.  1.
     999900   -1    0    0    0    0 -0.00000000000E+00 -0.00000000000E+00 -0.74505805969E-08  0.93827000000E+00  0.93827000000E+00 0. -1.
     999902    2    1    2    0    0  0.49596125054E-02  0.24810477480E-01 -0.20856427661E-02  0.10185428486E+01  0.10182264125E+01 0.  0.
     999903    2    3    3    0    0  0.11591078188E+00  0.51762813836E-01 -0.24312053107E-01  0.13088829660E+00  0.20639089330E-01 0.  0.
         14    1    1    2    0    0 -0.49596125054E-02 -0.24810477480E-01  0.20856427661E-02  0.25387151371E-01  0.00000000000E+00 0.  1.
     999901    1    3    3    0    0 -0.11095116937E+00 -0.26952336356E-01  0.22226410341E-01  0.88765455203E+00  0.88000000000E+00 0.  1.
        -11    1    4    4    0    0  0.11209568900E+00  0.49987120725E-01 -0.19171615140E-01  0.12422547113E+00  0.51100000000E-03 0. -1.
         11    1    4    4    0    0  0.38150928846E-02  0.17756931109E-02 -0.51404379662E-02  0.66628254688E-02  0.51100000000E-03 0.  1.
</event>
<event>
 8    1  0.1092993E+005  0.1043930E+01  0.7957747E-01            NaN
         13   -1    0    0    0    0  0.00000000000E+00  0.00000000000E+00  0.74505805969E-08  0.10566000000E+00  0.10566000000E+00 0. -1.
     999900   -1    0    0    0    0 -0.00000000000E+00 -0.00000000000E+00 -0.74505805969E-08  0.93827000000E+00  0.93827000000E+00 0.  1.
     999902    2    1    2    0    0 -0.55929400198E-02 -0.70338852986E-02  0.20592407788E-01  0.10214621612E+01  0.10212150327E+01 0.  0.
     999903    2    3    3    0    0  0.11939042638E+00  0.44931892109E-01 -0.14709317246E-01  0.13041362401E+00  0.22768409520E-01 0.  0.
         14    1    1    2    0    0  0.55929400198E-02  0.70338852986E-02 -0.20592407788E-01  0.22467838769E-01  0.00000000000E+00 0.  1.
     999901    1    3    3    0    0 -0.12498336640E+00 -0.51965777407E-01  0.35301725034E-01  0.89104853722E+00  0.88000000000E+00 0. -1.
        -11    1    4    4    0    0  0.63818914673E-01  0.12474591127E-01 -0.10967825762E-01  0.65947127434E-01  0.51100000000E-03 0.  1.
         11    1    4    4    0    0  0.55571511711E-01  0.32457300981E-01 -0.37414914840E-02  0.64466496573E-01  0.51100000000E-03 0. -1.
</event>
<event>
 8    1  0.1092993E+005  0.1043930E+01  0.7957747E-01            NaN
         13   -1    0    0    0    0  0.00000000000E+00  0.00000000000E+00  0.74505805969E-08  0.10566000000E+00  0.10566000000E+00 0. -1.
     999900   -1    0    0    0    0 -0.00000000000E+00 -0.00000000000E+00 -0.74505805969E-08  0.93827000000E+00  0.93827000000E+00 0. -1.
     999902    2    1    2    0    0 -0.23430193263E-01 -0.54642995037E-03  0.12027192449E-03  0.10204931272E+01  0.10202239635E+01 0.  0.
     999903    2    3    3    0    0 -0.11583593637E+00 -0.87183459708E-02 -0.62645586137E-01  0.13339383482E+00  0.19377099748E-01 0.  0.
         14    1    1    2    0    0  0.23430193263E-01  0.54642995037E-03 -0.12027192449E-03  0.23436872815E-01  0.00000000000E+00 0.  1.
     999901    1    3    3    0    0  0.92405743110E-01  0.81719160205E-02  0.62765858061E-01  0.88709929236E+00  0.88000000000E+00 0.  1.
        -11    1    4    4    0    0 -0.15437832295E-01 -0.75461467602E-02 -0.11767070777E-01  0.20832572394E-01  0.51100000000E-03 0.  1.
         11    1    4    4    0    0 -0.10039810408E+00 -0.11721992107E-02 -0.50878515360E-01  0.11256126243E+00  0.51100000000E-03 0. -1.
</event>
<event>
 8    1  0.1092993E+005  0.1043930E+01  0.7957747E-01            NaN
         13   -1    0    0    0    0  0.00000000000E+00  0.00000000000E+00  0.74505805969E-08  0.10566000000E+00  0.10566000000E+00 0. -1.
     999900   -1    0    0    0    0 -0.00000000000E+00 -0.00000000000E+00 -0.74505805969E-08  0.93827000000E+00  0.93827000000E+00 0.  1.
     999902    2    1    2    0    0 -0.86179976356E-02 -0.12145308441E-01  0.18513439298E-01  0.10201702476E+01  0.10198935279E+01 0.  0.
     999903    2    3    3    0    0 -0.73299664286E-01  0.49641410077E-01  0.96314612482E-01  0.13222073374E+00  0.19201757050E-01 0.  0.
         14    1    1    2    0    0  0.86179976356E-02  0.12145308441E-01 -0.18513439298E-01  0.23759752419E-01  0.00000000000E+00 0.  1.
     999901    1    3    3    0    0  0.64681666651E-01 -0.61786718518E-01 -0.77801173184E-01  0.88794951384E+00  0.88000000000E+00 0.  1.
        -11    1    4    4    0    0 -0.69182242113E-01  0.42280374201E-01  0.80305858209E-01  0.11411881812E+00  0.51100000000E-03 0. -1.
         11    1    4    4    0    0 -0.41174221728E-02  0.73610358757E-02  0.16008754273E-01  0.18101915614E-01  0.51100000000E-03 0.  1.
</event>
<event>
 8    1  0.1092993E+005  0.1043930E+01  0.7957747E-01            NaN
         13   -1    0    0    0    0  0.00000000000E+00  0.00000000000E+00  0.74505805969E-08  0.10566000000E+00  0.10566000000E+00 0. -1.
     999900   -1    0    0    0    0 -0.00000000000E+00 -0.00000000000E+00 -0.74505805969E-08  0.93827000000E+00  0.93827000000E+00 0.  1.
     999902    2    1    2    0    0 -0.47683923844E-02  0.29952642694E-02 -0.22850822170E-01  0.10203955731E+01  0.10201241378E+01 0.  0.
     999903    2    3    3    0    0  0.94412905100E-01  0.61375480589E-01  0.59468757822E-01  0.12909220577E+00  0.21154625187E-01 0.  0.
         14    1    1    2    0    0  0.47683923844E-02 -0.29952642694E-02  0.22850822170E-01  0.23534426864E-01  0.00000000000E+00 0. -1.
     999901    1    3    3    0    0 -0.99181297484E-01 -0.58380216319E-01 -0.82319579992E-01  0.89130336737E+00  0.88000000000E+00 0.  1.
        -11    1    4    4    0    0  0.55477620797E-01  0.31680436401E-01  0.22497061622E-01  0.67733266291E-01  0.51100000000E-03 0. -1.
         11    1    4    4    0    0  0.38935284303E-01  0.29695044188E-01  0.36971696200E-01  0.61358939479E-01  0.51100000000E-03 0.  1.
</event>
<event>
 8    1  0.1092993E+005  0.1043930E+01  0.7957747E-01            NaN
         13   -1    0    0    0    0  0.00000000000E+00  0.00000000000E+00  0.74505805969E-08  0.10566000000E+00  0.10566000000E+00 0.  1.
     999900   -1    0    0    0    0 -0.00000000000E+00 -0.00000000000E+00 -0.74505805969E-08  0.93827000000E+00  0.93827000000E+00 0.  1.
     999902    2    1    2    0    0  0.14054998597E-02 -0.10149341480E-01  0.20358911677E-01  0.10211381188E+01  0.10208837289E+01 0.  0.
     999903    2    3    3    0    0 -0.12823031439E+00 -0.42346364087E-02 -0.15333213828E-01  0.13090536506E+00  0.20980025767E-01 0.  0.
         14    1    1    2    0    0 -0.14054998597E-02  0.10149341480E-01 -0.20358911677E-01  0.22791881164E-01  0.00000000000E+00 0.  1.
     999901    1    3    3    0    0  0.12963581425E+00 -0.59147050708E-02  0.35692125505E-01  0.89023275378E+00  0.88000000000E+00 0. -1.
        -11    1    4    4    0    0 -0.88611325465E-01 -0.10033281976E-01 -0.17178703291E-01  0.90818515269E-01  0.51100000000E-03 0.  1.
         11    1    4    4    0    0 -0.39618988925E-01  0.57986455669E-02  0.18454894630E-02  0.40086849791E-01  0.51100000000E-03 0. -1.
</event>
<event>
 8    1  0.1092993E+005  0.1043930E+01  0.7957747E-01            NaN
         13   -1    0    0    0    0  0.00000000000E+00  0.00000000000E+00  0.74505805969E-08  0.10566000000E+00  0.10566000000E+00 0. -1.
     999900   -1    0    0    0    0 -0.00000000000E+00 -0.00000000000E+00 -0.74505805969E-08  0.93827000000E+00  0.93827000000E+00 0. -1.
     999902    2    1    2    0    0 -0.16918252870E-01  0.13716749440E-01  0.98899879926E-02  0.10200095410E+01  0.10197290206E+01 0.  0.
     999903    2    3    3    0    0 -0.34618650580E-01 -0.14701296649E-01  0.12484896966E+00  0.13190118226E+00  0.19901697566E-01 0.  0.
         14    1    1    2    0    0  0.16918252870E-01 -0.13716749440E-01 -0.98899879926E-02  0.23920458981E-01  0.00000000000E+00 0.  1.
     999901    1    3    3    0    0  0.17700397710E-01  0.28418046088E-01 -0.11495898167E+00  0.88810835875E+00  0.88000000000E+00 0. -1.
        -11    1    4    4    0    0 -0.29075637747E-01 -0.46085569321E-02  0.10389456741E+00  0.10798598874E+00  0.51100000000E-03 0. -1.
         11    1    4    4    0    0 -0.55430128330E-02 -0.10092739717E-01  0.20954402257E-01  0.23915193522E-01  0.51100000000E-03 0.  1.
</event>
<event>
 8    1  0.1092993E+005  0.1043930E+01  0.7957747E-01            NaN
         13   -1    0    0    0    0  0.00000000000E+00  0.00000000000E+00  0.74505805969E-08  0.10566000000E+00  0.10566000000E+00 0.  1.
     999900   -1    0    0    0    0 -0.00000000000E+00 -0.00000000000E+00 -0.74505805969E-08  0.93827000000E+00  0.93827000000E+00 0. -1.
     999902    2    1    2    0    0 -0.30717087122E-01 -0.20186716943E-01  0.73896180450E-02  0.10064380084E+01  0.10057394370E+01 0.  0.
     999903    2    3    3    0    0  0.74106075622E-02  0.84537286945E-01  0.77580667931E-01  0.11663599579E+00  0.19588912391E-01 0.  0.
         14    1    1    2    0    0  0.30717087122E-01  0.20186716943E-01 -0.73896180450E-02  0.37491991639E-01  0.00000000000E+00 0. -1.
     999901    1    3    3    0    0 -0.38127694684E-01 -0.10472400389E+00 -0.70191049886E-01  0.88980201257E+00  0.88000000000E+00 0. -1.
        -11    1    4    4    0    0 -0.15980004611E-02  0.69106287755E-01  0.59439273452E-01  0.91167543360E-01  0.51100000000E-03 0. -1.
         11    1    4    4    0    0  0.90086080233E-02  0.15430999191E-01  0.18141394479E-01  0.25468452430E-01  0.51100000000E-03 0.  1.
</event>
<event>
 8    1  0.1092993E+005  0.1043930E+01  0.7957747E-01            NaN
         13   -1    0    0    0    0  0.00000000000E+00  0.00000000000E+00  0.74505805969E-08  0.10566000000E+00  0.10566000000E+00 0.  1.
     999900   -1    0    0    0    0 -0.00000000000E+00 -0.00000000000E+00 -0.74505805969E-08  0.93827000000E+00  0.93827000000E+00 0.  1.
     999902    2    1    2    0    0  0.19231753367E-01  0.13672556871E-01  0.63679778960E-02  0.10194892494E+01  0.10191962418E+01 0.  0.
     999903    2    3    3    0    0 -0.91107418784E-01  0.89662012447E-01 -0.85333006125E-03  0.12932000840E+00  0.19572893709E-01 0.  0.
         14    1    1    2    0    0 -0.19231753367E-01 -0.13672556871E-01 -0.63679778960E-02  0.24440750631E-01  0.00000000000E+00 0.  1.
     999901    1    3    3    0    0  0.11033917215E+00 -0.75989455576E-01  0.72213079573E-02  0.89016924096E+00  0.88000000000E+00 0. -1.
        -11    1    4    4    0    0 -0.58135934293E-01  0.69075414796E-01  0.23335849538E-02  0.90315594031E-01  0.51100000000E-03 0.  1.
         11    1    4    4    0    0 -0.32971484490E-01  0.20586597651E-01 -0.31869150150E-02  0.39004414374E-01  0.51100000000E-03 0. -1.
</event>
<event>
 8    1  0.1092993E+005  0.1043930E+01  0.7957747E-01            NaN
         13   -1    0    0    0    0  0.00000000000E+00  0.00000000000E+00  0.74505805969E-08  0.10566000000E+00  0.10566000000E+00 0.  1.
     999900   -1    0    0    0    0 -0.00000000000E+00 -0.00000000000E+00 -0.74505805969E-08  0.93827000000E+00  0.93827000000E+00 0. -1.
     999902    2    1    2    0    0  0.26500585022E-01  0.31178456474E-02 -0.61317940594E-02  0.10165511602E+01  0.10161823953E+01 0.  0.
     999903    2    3    3    0    0 -0.60777076631E-01  0.61506709826E-01  0.88390745854E-01  0.12528175079E+00  0.20141120372E-01 0.  0.
         14    1    1    2    0    0 -0.26500585022E-01 -0.31178456474E-02  0.61317940594E-02  0.27378839756E-01  0.00000000000E+00 0.  1.
     999901    1    3    3    0    0  0.87277661653E-01 -0.58388864179E-01 -0.94522539914E-01  0.89126940946E+00  0.88000000000E+00 0. -1.
        -11    1    4    4    0    0 -0.31134159335E-01  0.17963932808E-01  0.39547987073E-01  0.53444767395E-01  0.51100000000E-03 0. -1.
         11    1    4    4    0    0 -0.29642917296E-01  0.43542777018E-01  0.48842758782E-01  0.71836983391E-01  0.51100000000E-03 0.  1.
</event>
<event>
 8    1  0.1092993E+005  0.1043930E+01  0.7957747E-01            NaN
         13   -1    0    0    0    0  0.00000000000E+00  0.00000000000E+00  0.74505805969E-08  0.10566000000E+00  0.10566000000E+00 0.  1.
     999900   -1    0    0    0    0 -0.00000000000E+00 -0.00000000000E+00 -0.74505805969E-08  0.93827000000E+00  0.93827000000E+00 0. -1.
     999902    2    1    2    0    0  0.64838883156E-02 -0.19403623481E-02  0.27285981282E-01  0.10158171811E+01  0.10154280943E+01 0.  0.
     999903    2    3    3    0    0 -0.52207724232E-01 -0.78131541071E-01 -0.78799444330E-01  0.12424333745E+00  0.19921603711E-01 0.  0.
         14    1    1    2    0    0 -0.64838883156E-02  0.19403623481E-02 -0.27285981282E-01  0.28112818931E-01  0.00000000000E+00 0. -1.
     999901    1    3    3    0    0  0.58691612547E-01  0.76191178723E-01  0.10608542561E+00  0.89157384362E+00  0.88000000000E+00 0.  1.
        -11    1    4    4    0    0 -0.48634818702E-01 -0.77436156561E-01 -0.71528182593E-01  0.11609584816E+00  0.51100000000E-03 0. -1.
         11    1    4    4    0    0 -0.35729055293E-02 -0.69538450992E-03 -0.72712617367E-02  0.81474892931E-02  0.51100000000E-03 0.  1.
</event>
<event>
 8    1  0.1092993E+005  0.1043930E+01  0.7957747E-01            NaN
         13   -1    0    0    0    0  0.00000000000E+00  0.00000000000E+00  0.74505805969E-08  0.10566000000E+00  0.10566000000E+00 0.  1.
     999900   -1    0    0    0    0 -0.00000000000E+00 -0.00000000000E+00 -0.74505805969E-08  0.93827000000E+00  0.93827000000E+00 0. -1.
     999902    2    1    2    0    0  0.68041659113E-02  0.19319820623E-01  0.13840748485E-01  0.10192091897E+01  0.10189093453E+01 0.  0.
     999903    2    3    3    0    0  0.32383748553E-01  0.74628843811E-01  0.10274594574E+00  0.13263288888E+00  0.20410349044E-01 0.  0.
         14    1    1    2    0    0 -0.68041659113E-02 -0.19319820623E-01 -0.13840748485E-01  0.24720810288E-01  0.00000000000E+00 0. -1.
     999901    1    3    3    0    0 -0.25579582642E-01 -0.55309023187E-01 -0.88905197256E-01  0.88657630083E+00  0.88000000000E+00 0. -1.
        -11    1    4    4    0    0  0.19388354389E-01  0.45670415204E-01  0.46258710210E-01  0.67836748906E-01  0.51100000000E-03 0. -1.
         11    1    4    4    0    0  0.12995394164E-01  0.28958428606E-01  0.56487235532E-01  0.64796139976E-01  0.51100000000E-03 0.  1.
</event>
<event>
 8    1  0.1092993E+005  0.1043930E+01  0.7957747E-01            NaN
         13   -1    0    0    0    0  0.00000000000E+00  0.00000000000E+00  0.74505805969E-08  0.10566000000E+00  0.10566000000E+00 0. -1.
     999900   -1    0    0    0    0 -0.00000000000E+00 -0.00000000000E+00 -0.74505805969E-08  0.93827000000E+00  0.93827000000E+00 0. -1.
     999902    2    1    2    0    0  0.16333140609E-01  0.86306889973E-02 -0.15142301013E-01  0.10200438208E+01  0.10197641134E+01 0.  0.
     999903    2    3    3    0    0  0.11922282125E+00  0.50102484036E-01  0.19851009936E-01  0.13238919883E+00  0.20211317597E-01 0.  0.
         14    1    1    2    0    0 -0.16333140609E-01 -0.86306889973E-02  0.15142301013E-01  0.23886179157E-01  0.00000000000E+00 0. -1.
     999901    1    3    3    0    0 -0.10288968064E+00 -0.41471795039E-01 -0.34993310949E-01  0.88765462201E+00  0.88000000000E+00 0. -1.
        -11    1    4    4    0    0  0.75430609431E-01  0.31786765881E-01  0.26534337630E-02  0.81899188983E-01  0.51100000000E-03 0. -1.
         11    1    4    4    0    0  0.43792211817E-01  0.18315718155E-01  0.17197576173E-01  0.50490009850E-01  0.51100000000E-03 0.  1.
</event>
<event>
 8    1  0.1092993E+005  0.1043930E+01  0.7957747E-01            NaN
         13   -1    0    0    0    0  0.00000000000E+00  0.00000000000E+00  0.74505805969E-08  0.10566000000E+00  0.10566000000E+00 0.  1.
     999900   -1    0    0    0    0 -0.00000000000E+00 -0.00000000000E+00 -0.74505805969E-08  0.93827000000E+00  0.93827000000E+00 0.  1.
     999902    2    1    2    0    0  0.93770264943E-02 -0.70822817911E-02  0.22097841651E-01  0.10189019768E+01  0.10185945397E+01 0.  0.
     999903    2    3    3    0    0 -0.72758308730E-02 -0.12644631303E+00 -0.15465847479E-01  0.12989347267E+00  0.24321061046E-01 0.  0.
         14    1    1    2    0    0 -0.93770264943E-02  0.70822817911E-02 -0.22097841651E-01  0.25028023231E-01  0.00000000000E+00 0. -1.
     999901    1    3    3    0    0  0.16652857367E-01  0.11936403124E+00  0.37563689130E-01  0.88900850410E+00  0.88000000000E+00 0.  1.
        -11    1    4    4    0    0 -0.11911943531E-01 -0.38576670895E-01 -0.10701466424E-01  0.41771239396E-01  0.51100000000E-03 0. -1.
         11    1    4    4    0    0  0.46361126580E-02 -0.87869642138E-01 -0.47643810556E-02  0.88122233278E-01  0.51100000000E-03 0.  1.
</event>
<event>
 8    1  0.1092993E+005  0.1043930E+01  0.7957747E-01            NaN
         13   -1    0    0    0    0  0.00000000000E+00  0.00000000000E+00  0.74505805969E-08  0.10566000000E+00  0.10566000000E+00 0.  1.
     999900   -1    0    0    0    0 -0.00000000000E+00 -0.00000000000E+00 -0.74505805969E-08  0.93827000000E+00  0.93827000000E+00 0.  1.
     999902    2    1    2    0    0  0.29889200333E-01 -0.18436938591E-01  0.12441738292E-01  0.10066730295E+01  0.10059833530E+01 0.  0.
     999903    2    3    3    0    0  0.81497543498E-01  0.84538766254E-01 -0.16746684469E-04  0.11907929881E+00  0.19779447098E-01 0.  0.
         14    1    1    2    0    0 -0.29889200333E-01  0.18436938591E-01 -0.12441738292E-01  0.37256970527E-01  0.00000000000E+00 0.  1.
     999901    1    3    3    0    0 -0.51608343165E-01 -0.10297570485E+00  0.12458484976E-01  0.88759373067E+00  0.88000000000E+00 0. -1.
        -11    1    4    4    0    0  0.35205594800E-01  0.22942252871E-01 -0.22514477161E-03  0.42024905510E-01  0.51100000000E-03 0. -1.
         11    1    4    4    0    0  0.46291948698E-01  0.61596513383E-01  0.20839808714E-03  0.77054393295E-01  0.51100000000E-03 0.  1.
</event>
<event>
 8    1  0.1092993E+005  0.1043930E+01  0.7957747E-01            NaN
         13   -1    0    0    0    0  0.00000000000E+00  0.00000000000E+00  0.74505805969E-08  0.10566000000E+00  0.10566000000E+00 0.  1.
     999900   -1    0    0    0    0 -0.00000000000E+00 -0.00000000000E+00 -0.74505805969E-08  0.93827000000E+00  0.93827000000E+00 0.  1.
     999902    2    1    2    0    0 -0.14011164512E-01 -0.16833221329E-01 -0.73124883273E-02  0.10208401200E+01  0.10205789573E+01 0.  0.
     999903    2    3    3    0    0 -0.92966777968E-01 -0.21770035403E-02  0.91848191919E-01  0.13163731183E+00  0.15643860014E-01 0.  0.
         14    1    1    2    0    0  0.14011164512E-01  0.16833221329E-01  0.73124883273E-02  0.23089879966E-01  0.00000000000E+00 0.  1.
     999901    1    3    3    0    0  0.78955613456E-01 -0.14656217788E-01 -0.99160680247E-01  0.88920280821E+00  0.88000000000E+00 0.  1.
        -11    1    4    4    0    0 -0.65197078343E-01  0.96796759848E-04  0.73607301724E-01  0.98330892308E-01  0.51100000000E-03 0.  1.
         11    1    4    4    0    0 -0.27769699625E-01 -0.22738003002E-02  0.18240890196E-01  0.33306419519E-01  0.51100000000E-03 0. -1.
</event>
<event>
 8    1  0.1092993E+005  0.1043930E+01  0.7957747E-01            NaN
         13   -1    0    0    0    0  0.00000000000E+00  0.00000000000E+00  0.74505805969E-08  0.10566000000E+00  0.10566000000E+00 0.  1.
     999900   -1    0    0    0    0 -0.00000000000E+00 -0.00000000000E+00 -0.74505805969E-08  0.93827000000E+00  0.93827000000E+00 0. -1.
     999902    2    1    2    0    0  0.87783834915E-02 -0.28115766161E-01  0.99651546467E-02  0.10128356174E+01  0.10123582010E+01 0.  0.
     999903    2    3    3    0    0  0.11960768752E+00 -0.25569497320E-01  0.21540085257E-01  0.12580484162E+00  0.20076971778E-01 0.  0.
         14    1    1    2    0    0 -0.87783834915E-02  0.28115766161E-01 -0.99651546467E-02  0.31094382622E-01  0.00000000000E+00 0. -1.
     999901    1    3    3    0    0 -0.11082930403E+00 -0.25462688404E-02 -0.11574930611E-01  0.88703077575E+00  0.88000000000E+00 0.  1.
        -11    1    4    4    0    0  0.54413264048E-01 -0.18379011781E-01  0.17698647500E-01  0.60100704012E-01  0.51100000000E-03 0.  1.
         11    1    4    4    0    0  0.65194423473E-01 -0.71904855392E-02  0.38414377573E-02  0.65704137611E-01  0.51100000000E-03 0. -1.
</event>
<event>
 8    1  0.1092993E+005  0.1043930E+01  0.7957747E-01            NaN
         13   -1    0    0    0    0  0.00000000000E+00  0.00000000000E+00  0.74505805969E-08  0.10566000000E+00  0.10566000000E+00 0.  1.
     999900   -1    0    0    0    0 -0.00000000000E+00 -0.00000000000E+00 -0.74505805969E-08  0.93827000000E+00  0.93827000000E+00 0.  1.
     999902    2    1    2    0    0 -0.50098776446E-02  0.17002062747E-01 -0.10750886845E-01  0.10231995736E+01  0.10229895487E+01 0.  0.
     999903    2    3    3    0    0  0.83795524172E-01  0.43730745905E-01  0.90730387897E-01  0.13252608064E+00  0.19927136120E-01 0.  0.
         14    1    1    2    0    0  0.50098776446E-02 -0.17002062747E-01  0.10750886845E-01  0.20730426422E-01  0.00000000000E+00 0.  1.
     999901    1    3    3    0    0 -0.88805401817E-01 -0.26728683158E-01 -0.10148127474E+00  0.89067349294E+00  0.88000000000E+00 0.  1.
        -11    1    4    4    0    0  0.24683703732E-01  0.22206852342E-01  0.37766045162E-01  0.50288813955E-01  0.51100000000E-03 0. -1.
         11    1    4    4    0    0  0.59111820441E-01  0.21523893563E-01  0.52964342735E-01  0.82237266687E-01  0.51100000000E-03 0.  1.
</event>
<event>
 8    1  0.1092993E+005  0.1043930E+01  0.7957747E-01            NaN
         13   -1    0    0    0    0  0.00000000000E+00  0.00000000000E+00  0.74505805969E-08  0.10566000000E+00  0.10566000000E+00 0.  1.
     999900   -1    0    0    0    0 -0.00000000000E+00 -0.00000000000E+00 -0.74505805969E-08  0.93827000000E+00  0.93827000000E+00 0. -1.
     999902    2    1    2    0    0  0.27109614229E-01 -0.21351210624E-02  0.15003593437E-02  0.10166950775E+01  0.10163302316E+01 0.  0.
     999903    2    3    3    0    0 -0.90328021031E-01 -0.83209977741E-01  0.12996583032E-01  0.12512517350E+00  0.20108358783E-01 0.  0.
         14    1    1    2    0    0 -0.27109614229E-01  0.21351210624E-02 -0.15003593437E-02  0.27234922503E-01  0.00000000000E+00 0.  1.
     999901    1    3    3    0    0  0.11743763526E+00  0.81074856678E-01 -0.11496223689E-01  0.89156990400E+00  0.88000000000E+00 0. -1.
        -11    1    4    4    0    0 -0.82751948855E-01 -0.73780685118E-01  0.17435007075E-01  0.11223063365E+00  0.51100000000E-03 0. -1.
         11    1    4    4    0    0 -0.75760721759E-02 -0.94292926224E-02 -0.44384240425E-02  0.12894539850E-01  0.51100000000E-03 0.  1.
</event>
<event>
 8    1  0.1092993E+005  0.1043930E+01  0.7957747E-01            NaN
         13   -1    0    0    0    0  0.00000000000E+00  0.00000000000E+00  0.74505805969E-08  0.10566000000E+00  0.10566000000E+00 0. -1.
     999900   -1    0    0    0    0 -0.00000000000E+00 -0.00000000000E+00 -0.74505805969E-08  0.93827000000E+00  0.93827000000E+00 0. -1.
     999902    2    1    2    0    0  0.10789656842E-01 -0.12957743441E-01 -0.14258833566E-01  0.10218475603E+01  0.10216089283E+01 0.  0.
     999903    2    3    3    0    0  0.10130141319E+00 -0.76607527218E-01 -0.39584372793E-01  0.13455670832E+00  0.20196426525E-01 0.  0.
         14    1    1    2    0    0 -0.10789656842E-01  0.12957743441E-01  0.14258833566E-01  0.22082439732E-01  0.00000000000E+00 0.  1.
     999901    1    3    3    0    0 -0.90511756345E-01  0.63649783777E-01  0.25325539227E-01  0.88729085195E+00  0.88000000000E+00 0.  1.
        -11    1    4    4    0    0  0.36702145067E-01 -0.20996571507E-01 -0.50527930930E-02  0.42587501765E-01  0.51100000000E-03 0. -1.
         11    1    4    4    0    0  0.64599268120E-01 -0.55610955711E-01 -0.34531579700E-01  0.91969206555E-01  0.51100000000E-03 0.  1.
</event>
<event>
 8    1  0.1092993E+005  0.1043930E+01  0.7957747E-01            NaN
         13   -1    0    0    0    0  0.00000000000E+00  0.00000000000E+00  0.74505805969E-08  0.10566000000E+00  0.10566000000E+00 0. -1.
     999900   -1    0    0    0    0 -0.00000000000E+00 -0.00000000000E+00 -0.74505805969E-08  0.93827000000E+00  0.93827000000E+00 0.  1.
     999902    2    1    2    0    0  0.18338323163E-01 -0.99766888083E-02 -0.44610946840E-02  0.10225821715E+01  0.10223593144E+01 0.  0.
     999903    2    3    3    0    0 -0.84462544549E-02 -0.12597162704E+00  0.38476141617E-01  0.13352882914E+00  0.20232268890E-01 0.  0.
         14    1    1    2    0    0 -0.18338323163E-01  0.99766888083E-02  0.44610946840E-02  0.21347828503E-01  0.00000000000E+00 0. -1.
     999901    1    3    3    0    0  0.26784577618E-01  0.11599493823E+00 -0.42937236301E-01  0.88905334236E+00  0.88000000000E+00 0.  1.
        -11    1    4    4    0    0  0.34376334111E-02 -0.60950950979E-01  0.11434459257E-01  0.62111542633E-01  0.51100000000E-03 0. -1.
         11    1    4    4    0    0 -0.11883887866E-01 -0.65020676061E-01  0.27041682360E-01  0.71417286508E-01  0.51100000000E-03 0.  1.
</event>
<event>
 8    1  0.1092993E+005  0.1043930E+01  0.7957747E-01            NaN
         13   -1    0    0    0    0  0.00000000000E+00  0.00000000000E+00  0.74505805969E-08  0.10566000000E+00  0.10566000000E+00 0. -1.
     999900   -1    0    0    0    0 -0.00000000000E+00 -0.00000000000E+00 -0.74505805969E-08  0.93827000000E+00  0.93827000000E+00 0.  1.
     999902    2    1    2    0    0  0.13382435687E-01  0.13792778245E-01  0.13684703848E-01  0.10203375979E+01  0.10200648079E+01 0.  0.
     999903    2    3    3    0    0 -0.37219709111E-01 -0.91617429898E-01 -0.78668948723E-01  0.12781247996E+00  0.19187660959E-01 0.  0.
         14    1    1    2    0    0 -0.13382435687E-01 -0.13792778245E-01 -0.13684703848E-01  0.23592402083E-01  0.00000000000E+00 0.  1.
     999901    1    3    3    0    0  0.50602144798E-01  0.10541020814E+00  0.92353652571E-01  0.89252511796E+00  0.88000000000E+00 0. -1.
        -11    1    4    4    0    0 -0.64431621802E-02 -0.29707493360E-01 -0.33432862064E-01  0.45189234198E-01  0.51100000000E-03 0. -1.
         11    1    4    4    0    0 -0.30776546931E-01 -0.61909936538E-01 -0.45236086659E-01  0.82623245763E-01  0.51100000000E-03 0.  1.
</event>
<event>
 8    1  0.1092993E+005  0.1043930E+01  0.7957747E-01            NaN
         13   -1    0    0    0    0  0.00000000000E+00  0.00000000000E+00  0.74505805969E-08  0.10566000000E+00  0.10566000000E+00 0.  1.
     999900   -1    0    0    0    0 -0.00000000000E+00 -0.00000000000E+00 -0.74505805969E-08  0.93827000000E+00  0.93827000000E+00 0.  1.
     999902    2    1    2    0    0  0.59027036322E-02 -0.12415514212E-01 -0.19256459170E-01  0.10202699467E+01  0.10199955715E+01 0.  0.
     999903    2    3    3    0    0 -0.52724155293E-01 -0.67859300507E-01  0.94550645171E-01  0.12927994728E+00  0.19716973672E-01 0.  0.
         14    1    1    2    0    0 -0.59027036322E-02  0.12415514212E-01  0.19256459170E-01  0.23660053320E-01  0.00000000000E+00 0.  1.
     999901    1    3    3    0    0  0.58626858925E-01  0.55443786294E-01 -0.11380710434E+00  0.89098999940E+00  0.88000000000E+00 0.  1.
        -11    1    4    4    0    0 -0.40259979622E-01 -0.58374968458E-01  0.66861610398E-01  0.97464039357E-01  0.51100000000E-03 0. -1.
         11    1    4    4    0    0 -0.12464175671E-01 -0.94843320483E-02  0.27689034773E-01  0.31815907927E-01  0.51100000000E-03 0.  1.
</event>
<event>
 8    1  0.1092993E+005  0.1043930E+01  0.7957747E-01            NaN
         13   -1    0    0    0    0  0.00000000000E+00  0.00000000000E+00  0.74505805969E-08  0.10566000000E+00  0.10566000000E+00 0.  1.
     999900   -1    0    0    0    0 -0.00000000000E+00 -0.00000000000E+00 -0.74505805969E-08  0.93827000000E+00  0.93827000000E+00 0.  1.
     999902    2    1    2    0    0 -0.13177460200E-01 -0.61377812979E-02  0.18859159107E-01  0.10201185385E+01  0.10198405988E+01 0.  0.
     999903    2    3    3    0    0 -0.62852824735E-02  0.79182558519E-01  0.10353882861E+00  0.13191940040E+00  0.19314678919E-01 0.  0.
         14    1    1    2    0    0  0.13177460200E-01  0.61377812979E-02 -0.18859159107E-01  0.23811461501E-01  0.00000000000E+00 0. -1.
     999901    1    3    3    0    0 -0.68921777268E-02 -0.85320339817E-01 -0.84679669501E-01  0.88819913810E+00  0.88000000000E+00 0.  1.
        -11    1    4    4    0    0  0.29011379590E-02  0.27257920462E-01  0.23716656358E-01  0.36251230864E-01  0.51100000000E-03 0.  1.
         11    1    4    4    0    0 -0.91864204325E-02  0.51924638058E-01  0.79822172251E-01  0.95668169532E-01  0.51100000000E-03 0. -1.
</event>
<event>
 8    1  0.1092993E+005  0.1043930E+01  0.7957747E-01            NaN
         13   -1    0    0    0    0  0.00000000000E+00  0.00000000000E+00  0.74505805969E-08  0.10566000000E+00  0.10566000000E+00 0. -1.
     999900   -1    0    0    0    0 -0.00000000000E+00 -0.00000000000E+00 -0.74505805969E-08  0.93827000000E+00  0.93827000000E+00 0. -1.
     999902    2    1    2    0    0 -0.11858511562E-01 -0.18647502938E-01 -0.82620133835E-02  0.10203373205E+01  0.10200645239E+01 0.  0.
     999903    2    3    3    0    0  0.30959312714E-01 -0.10876818893E+00 -0.66679836135E-01  0.13277450797E+00  0.19846194882E-01 0.  0.
         14    1    1    2    0    0  0.11858511562E-01  0.18647502938E-01  0.82620133835E-02  0.23592679531E-01  0.00000000000E+00 0.  1.
     999901    1    3    3    0    0 -0.42817824276E-01  0.90120685997E-01  0.58417822751E-01  0.88756281250E+00  0.88000000000E+00 0. -1.
        -11    1    4    4    0    0  0.27297607372E-02 -0.89030479779E-03 -0.14082100755E-03  0.29197924364E-02  0.51100000000E-03 0. -1.
         11    1    4    4    0    0  0.28229551977E-01 -0.10787788414E+00 -0.66539015127E-01  0.12985471553E+00  0.51100000000E-03 0.  1.
</event>
<event>
 8    1  0.1092993E+005  0.1043930E+01  0.7957747E-01            NaN
         13   -1    0    0    0    0  0.00000000000E+00  0.00000000000E+00  0.74505805969E-08  0.10566000000E+00  0.10566000000E+00 0. -1.
     999900   -1    0    0    0    0 -0.00000000000E+00 -0.00000000000E+00 -0.74505805969E-08  0.93827000000E+00  0.93827000000E+00 0. -1.
     999902    2    1    2    0    0 -0.34373331138E-02 -0.27302621943E-01  0.77898653327E-02  0.10153305170E+01  0.10149276469E+01 0.  0.
     999903    2    3    3    0    0 -0.98266427880E-01  0.74074204271E-02 -0.75271003803E-01  0.12566965343E+00  0.20395515520E-01 0.  0.
         14    1    1    2    0    0  0.34373331138E-02  0.27302621943E-01 -0.77898653327E-02  0.28599482964E-01  0.00000000000E+00 0.  1.
     999901    1    3    3    0    0  0.94829094766E-01 -0.34710042370E-01  0.83060869136E-01  0.88966086361E+00  0.88000000000E+00 0. -1.
        -11    1    4    4    0    0 -0.46669202731E-01  0.10042729886E-01 -0.45957335542E-01  0.66266195894E-01  0.51100000000E-03 0. -1.
         11    1    4    4    0    0 -0.51597225149E-01 -0.26353094587E-02 -0.29313668261E-01  0.59403457534E-01  0.51100000000E-03 0.  1.
</event>
<event>
 8    1  0.1092993E+005  0.1043930E+01  0.7957747E-01            NaN
         13   -1    0    0    0    0  0.00000000000E+00  0.00000000000E+00  0.74505805969E-08  0.10566000000E+00  0.10566000000E+00 0.  1.
     999900   -1    0    0    0    0 -0.00000000000E+00 -0.00000000000E+00 -0.74505805969E-08  0.93827000000E+00  0.93827000000E+00 0. -1.
     999902    2    1    2    0    0 -0.56629516898E-02 -0.56458655646E-02  0.21770984560E-01  0.10207368849E+01  0.10204733547E+01 0.  0.
     999903    2    3    3    0    0 -0.58364550312E-01 -0.11650350542E+00 -0.25016186632E-02  0.13188592208E+00  0.20202743373E-01 0.  0.
         14    1    1    2    0    0  0.56629516898E-02  0.56458655646E-02 -0.21770984560E-01  0.23193115111E-01  0.00000000000E+00 0. -1.
     999901    1    3    3    0    0  0.52701598622E-01  0.11085763986E+00  0.24272603224E-01  0.88885096280E+00  0.88000000000E+00 0. -1.
        -11    1    4    4    0    0 -0.26982262034E-01 -0.75460648561E-01  0.29718006209E-03  0.80141758046E-01  0.51100000000E-03 0.  1.
         11    1    4    4    0    0 -0.31382288278E-01 -0.41042856859E-01 -0.27987987253E-02  0.51744164038E-01  0.51100000000E-03 0. -1.
</event>
<event>
 8    1  0.1092993E+005  0.1043930E+01  0.7957747E-01            NaN
         13   -1    0    0    0    0  0.00000000000E+00  0.00000000000E+00  0.74505805969E-08  0.10566000000E+00  0.10566000000E+00 0.  1.
     999900   -1    0    0    0    0 -0.00000000000E+00 -0.00000000000E+00 -0.74505805969E-08  0.93827000000E+00  0.93827000000E+00 0. -1.
     999902    2    1    2    0    0  0.60578377700E-02  0.40485480724E-02 -0.22595693113E-01  0.10201886124E+01  0.10199123253E+01 0.  0.
     999903    2    3    3    0    0  0.11619491916E+00 -0.40097936094E-02 -0.60056578976E-01  0.13249585496E+00  0.20761050567E-01 0.  0.
         14    1    1    2    0    0 -0.60578377700E-02 -0.40485480724E-02  0.22595693113E-01  0.23741387642E-01  0.00000000000E+00 0. -1.
     999901    1    3    3    0    0 -0.11013708139E+00  0.80583416818E-02  0.37460885863E-01  0.88769275740E+00  0.88000000000E+00 0. -1.
        -11    1    4    4    0    0  0.34009458753E-01  0.51887653830E-02 -0.10017414413E-01  0.35835405445E-01  0.51100000000E-03 0.  1.
         11    1    4    4    0    0  0.82185460403E-01 -0.91985589924E-02 -0.50039164563E-01  0.96660449514E-01  0.51100000000E-03 0. -1.
</event>
<event>
 8    1  0.1092993E+005  0.1043930E+01  0.7957747E-01            NaN
         13   -1    0    0    0    0  0.00000000000E+00  0.00000000000E+00  0.74505805969E-08  0.10566000000E+00  0.10566000000E+00 0. -1.
     999900   -1    0    0    0    0 -0.00000000000E+00 -0.00000000000E+00 -0.74505805969E-08  0.93827000000E+00  0.93827000000E+00 0. -1.
     999902    2    1    2    0    0 -0.80253491768E-02  0.13548729387E-01  0.18410549801E-01  0.10197035136E+01  0.10194156822E+01 0.  0.
     999903    2    3    3    0    0 -0.25070960376E-01 -0.77945917887E-01 -0.95703644351E-01  0.12746819006E+00  0.19617154862E-01 0.  0.
         14    1    1    2    0    0  0.80253491768E-02 -0.13548729387E-01 -0.18410549801E-01  0.24226486361E-01  0.00000000000E+00 0.  1.
     999901    1    3    3    0    0  0.17045611199E-01  0.91494647275E-01  0.11411419415E+00  0.89223532358E+00  0.88000000000E+00 0.  1.
        -11    1    4    4    0    0 -0.25896597727E-01 -0.63057644239E-01 -0.85693774812E-01  0.10950152708E+00  0.51100000000E-03 0. -1.
         11    1    4    4    0    0  0.82563735102E-03 -0.14888273648E-01 -0.10009869539E-01  0.17966662974E-01  0.51100000000E-03 0.  1.
</event>
<event>
 8    1  0.1092993E+005  0.1043930E+01  0.7957747E-01            NaN
         13   -1    0    0    0    0  0.00000000000E+00  0.00000000000E+00  0.74505805969E-08  0.10566000000E+00  0.10566000000E+00 0. -1.
     999900   -1    0    0    0    0 -0.00000000000E+00 -0.00000000000E+00 -0.74505805969E-08  0.93827000000E+00  0.93827000000E+00 0. -1.
     999902    2    1    2    0    0 -0.21364316116E-01 -0.67781275578E-02 -0.51096766836E-02  0.10209411807E+01  0.10206823250E+01 0.  0.
     999903    2    3    3    0    0 -0.11718535598E+00  0.48475571261E-01 -0.36717203660E-01  0.13345389705E+00  0.19480783520E-01 0.  0.
         14    1    1    2    0    0  0.21364316116E-01  0.67781275578E-02  0.51096766836E-02  0.22988819284E-01  0.00000000000E+00 0. -1.
     999901    1    3    3    0    0  0.95821039866E-01 -0.55253698819E-01  0.31607526976E-01  0.88748728367E+00  0.88000000000E+00 0.  1.
        -11    1    4    4    0    0 -0.71620558411E-01  0.19298269056E-01 -0.22342580876E-01  0.77468571801E-01  0.51100000000E-03 0.  1.
         11    1    4    4    0    0 -0.45564797570E-01  0.29177302206E-01 -0.14374622784E-01  0.55985325245E-01  0.51100000000E-03 0. -1.
</event>
<event>
 8    1  0.1092993E+005  0.1043930E+01  0.7957747E-01            NaN
         13   -1    0    0    0    0  0.00000000000E+00  0.00000000000E+00  0.74505805969E-08  0.10566000000E+00  0.10566000000E+00 0.  1.
     999900   -1    0    0    0    0 -0.00000000000E+00 -0.00000000000E+00 -0.74505805969E-08  0.93827000000E+00  0.93827000000E+00 0.  1.
     999902    2    1    2    0    0 -0.20752617101E-01  0.11197969647E-01 -0.14686307587E-02  0.10203032669E+01  0.10200296731E+01 0.  0.
     999903    2    3    3    0    0  0.92391745886E-01 -0.77005224410E-01  0.38375092354E-01  0.12779613943E+00  0.19828420124E-01 0.  0.
         14    1    1    2    0    0  0.20752617101E-01 -0.11197969647E-01  0.14686307587E-02  0.23626733102E-01  0.00000000000E+00 0.  1.
     999901    1    3    3    0    0 -0.11314436299E+00  0.88203194057E-01 -0.39843723113E-01  0.89250712747E+00  0.88000000000E+00 0.  1.
        -11    1    4    4    0    0  0.27579287443E-01 -0.13547184029E-01  0.49556865652E-02  0.31128174397E-01  0.51100000000E-03 0.  1.
         11    1    4    4    0    0  0.64812458443E-01 -0.63458040381E-01  0.33419405789E-01  0.96667965028E-01  0.51100000000E-03 0. -1.
</event>
<event>
 7    1  0.1192061E+005  0.1043930E+01  0.7957747E-01            NaN
         13   -1    0    0    0    0  0.00000000000E+00  0.00000000000E+00  0.74505805969E-08  0.10566000000E+00  0.10566000000E+00 0. -1.
     999900   -1    0    0    0    0 -0.00000000000E+00 -0.00000000000E+00 -0.74505805969E-08  0.93827000000E+00  0.93827000000E+00 0. -1.
     999903    2    1    2    0    0  0.87910411544E-01 -0.57298528136E-01  0.15939027115E-01  0.10789950940E+00  0.19413648794E-01 0.  0.
         14    1    1    2    0    0 -0.52383744075E-01 -0.46480579044E-02 -0.73135181240E-02  0.53095655500E-01  0.00000000000E+00 0.  1.
     999901    1    1    2    0    0 -0.35526667470E-01  0.61946586041E-01 -0.86255089908E-02  0.88293483510E+00  0.88000000000E+00 0. -1.
        -11    1    3    3    0    0  0.27324114419E-01 -0.17366162575E-01  0.14087888125E-01  0.35311762122E-01  0.51100000000E-03 0. -1.
         11    1    3    3    0    0  0.60586297126E-01 -0.39932365562E-01  0.18511389901E-02  0.72587747281E-01  0.51100000000E-03 0.  1.
</event>
<event>
 8    1  0.1092993E+005  0.1043930E+01  0.7957747E-01            NaN
         13   -1    0    0    0    0  0.00000000000E+00  0.00000000000E+00  0.74505805969E-08  0.10566000000E+00  0.10566000000E+00 0.  1.
     999900   -1    0    0    0    0 -0.00000000000E+00 -0.00000000000E+00 -0.74505805969E-08  0.93827000000E+00  0.93827000000E+00 0. -1.
     999902    2    1    2    0    0 -0.12807411241E-01 -0.10637176989E-01 -0.97546401779E-02  0.10246340854E+01  0.10244523789E+01 0.  0.
     999903    2    3    3    0    0  0.11293960666E+00 -0.68269720393E-01  0.72732594280E-02  0.13366620045E+00  0.19940997080E-01 0.  0.
         14    1    1    2    0    0  0.12807411241E-01  0.10637176989E-01  0.97546401779E-02  0.19295914645E-01  0.00000000000E+00 0.  1.
     999901    1    3    3    0    0 -0.12574701790E+00  0.57632543404E-01 -0.17027899606E-01  0.89096788491E+00  0.88000000000E+00 0.  1.
        -11    1    4    4    0    0  0.67833872181E-01 -0.47702276956E-01  0.12298464773E-01  0.83835880139E-01  0.51100000000E-03 0. -1.
         11    1    4    4    0    0  0.45105734479E-01 -0.20567443437E-01 -0.50252053445E-02  0.49830320310E-01  0.51100000000E-03 0.  1.
</event>
<event>
 8    1  0.1092993E+005  0.1043930E+01  0.7957747E-01            NaN
         13   -1    0    0    0    0  0.00000000000E+00  0.00000000000E+00  0.74505805969E-08  0.10566000000E+00  0.10566000000E+00 0.  1.
     999900   -1    0    0    0    0 -0.00000000000E+00 -0.00000000000E+00 -0.74505805969E-08  0.93827000000E+00  0.93827000000E+00 0.  1.
     999902    2    1    2    0    0  0.14951725922E-01 -0.30719899882E-02 -0.16318773651E-01  0.10215851213E+01  0.10213407201E+01 0.  0.
     999903    2    3    3    0    0  0.10692071554E-02 -0.12971782482E+00 -0.17208441037E-01  0.13240983863E+00  0.20208355768E-01 0.  0.
         14    1    1    2    0    0 -0.14951725922E-01  0.30719899882E-02  0.16318773651E-01  0.22344878697E-01  0.00000000000E+00 0.  1.
     999901    1    3    3    0    0  0.13882518766E-01  0.12664583483E+00  0.88966738590E-03  0.88917528267E+00  0.88000000000E+00 0. -1.
        -11    1    4    4    0    0 -0.89926526527E-02 -0.47413341643E-01 -0.37605194795E-02  0.48407596462E-01  0.51100000000E-03 0. -1.
         11    1    4    4    0    0  0.10061859808E-01 -0.82304483178E-01 -0.13447921557E-01  0.84002242168E-01  0.51100000000E-03 0.  1.
</event>
<event>
 8    1  0.1092993E+005  0.1043930E+01  0.7957747E-01            NaN
         13   -1    0    0    0    0  0.00000000000E+00  0.00000000000E+00  0.74505805969E-08  0.10566000000E+00  0.10566000000E+00 0. -1.
     999900   -1    0    0    0    0 -0.00000000000E+00 -0.00000000000E+00 -0.74505805969E-08  0.93827000000E+00  0.93827000000E+00 0. -1.
     999902    2    1    2    0    0  0.18859119697E-01  0.47591162082E-02  0.22583988311E-02  0.10243489901E+01  0.10241618220E+01 0.  0.
     999903    2    3    3    0    0 -0.81796535976E-01 -0.10077734400E+00 -0.14524167781E-01  0.13218804051E+00  0.20395593741E-01 0.  0.
         14    1    1    2    0    0 -0.18859119697E-01 -0.47591162082E-02 -0.22583988311E-02  0.19581009885E-01  0.00000000000E+00 0. -1.
     999901    1    3    3    0    0  0.10065565567E+00  0.10553646021E+00  0.16782566612E-01  0.89216094960E+00  0.88000000000E+00 0. -1.
        -11    1    4    4    0    0 -0.48336755432E-01 -0.58836554726E-01  0.15948239589E-02  0.76164208669E-01  0.51100000000E-03 0.  1.
         11    1    4    4    0    0 -0.33459780545E-01 -0.41940789271E-01 -0.16118991740E-01  0.56023831844E-01  0.51100000000E-03 0. -1.
</event>
<event>
 8    1  0.1092993E+005  0.1043930E+01  0.7957747E-01            NaN
         13   -1    0    0    0    0  0.00000000000E+00  0.00000000000E+00  0.74505805969E-08  0.10566000000E+00  0.10566000000E+00 0. -1.
     999900   -1    0    0    0    0 -0.00000000000E+00 -0.00000000000E+00 -0.74505805969E-08  0.93827000000E+00  0.93827000000E+00 0. -1.
     999902    2    1    2    0    0  0.19403218939E-01  0.97307504102E-02  0.85358083442E-02  0.10206054972E+01  0.10203389380E+01 0.  0.
     999903    2    3    3    0    0  0.16471970872E-01  0.11933415264E+00  0.44456008283E-01  0.13307422517E+00  0.34934895450E-01 0.  0.
         14    1    1    2    0    0 -0.19403218939E-01 -0.97307504102E-02 -0.85358083442E-02  0.23324502842E-01  0.00000000000E+00 0. -1.
     999901    1    3    3    0    0  0.29312480663E-02 -0.10960340223E+00 -0.35920199939E-01  0.88753127199E+00  0.88000000000E+00 0. -1.
        -11    1    4    4    0    0  0.67667387895E-02  0.57525356953E-02  0.11244778073E-01  0.14338290543E-01  0.51100000000E-03 0. -1.
         11    1    4    4    0    0  0.97052320827E-02  0.11358161695E+00  0.33211230210E-01  0.11873593463E+00  0.51100000000E-03 0.  1.
</event>
<event>
 8    1  0.1092993E+005  0.1043930E+01  0.7957747E-01            NaN
         13   -1    0    0    0    0  0.00000000000E+00  0.00000000000E+00  0.74505805969E-08  0.10566000000E+00  0.10566000000E+00 0. -1.
     999900   -1    0    0    0    0 -0.00000000000E+00 -0.00000000000E+00 -0.74505805969E-08  0.93827000000E+00  0.93827000000E+00 0. -1.
     999902    2    1    2    0    0 -0.21171324269E-01 -0.28487824748E-02  0.10819431592E-01  0.10199842147E+01  0.10197030929E+01 0.  0.
     999903    2    3    3    0    0  0.64135421535E-01 -0.47430905257E-01 -0.98021703670E-01  0.12806986946E+00  0.20750759111E-01 0.  0.
         14    1    1    2    0    0  0.21171324269E-01  0.28487824748E-02 -0.10819431592E-01  0.23945785284E-01  0.00000000000E+00 0.  1.
     999901    1    3    3    0    0 -0.85306745804E-01  0.44582122782E-01  0.10884113526E+00  0.89191434526E+00  0.88000000000E+00 0.  1.
        -11    1    4    4    0    0  0.44160120745E-02 -0.10234049393E-01 -0.20789848970E-01  0.23594827204E-01  0.51100000000E-03 0. -1.
         11    1    4    4    0    0  0.59719409460E-01 -0.37196855864E-01 -0.77231854700E-01  0.10447504225E+00  0.51100000000E-03 0.  1.
</event>
<event>
 8    1  0.1092993E+005  0.1043930E+01  0.7957747E-01            NaN
         13   -1    0    0    0    0  0.00000000000E+00  0.00000000000E+00  0.74505805969E-08  0.10566000000E+00  0.10566000000E+00 0.  1.
     999900   -1    0    0    0    0 -0.00000000000E+00 -0.00000000000E+00 -0.74505805969E-08  0.93827000000E+00  0.93827000000E+00 0. -1.
     999902    2    1    2    0    0  0.77387829123E-02  0.17364020224E-01 -0.11476597324E-01  0.10217239142E+01  0.10214825729E+01 0.  0.
     999903    2    3    3    0    0 -0.15111598016E-01  0.11301157303E+00 -0.68254643814E-01  0.13442783014E+00  0.20301947686E-01 0.  0.
         14    1    1    2    0    0 -0.77387829123E-02 -0.17364020224E-01  0.11476597324E-01  0.22206085775E-01  0.00000000000E+00 0. -1.
     999901    1    3    3    0    0  0.22850380929E-01 -0.95647552811E-01  0.56778046490E-01  0.88729608408E+00  0.88000000000E+00 0.  1.
        -11    1    4    4    0    0 -0.67557260922E-03  0.34683008203E-01 -0.30879226815E-01  0.46445185176E-01  0.51100000000E-03 0.  1.
         11    1    4    4    0    0 -0.14436025407E-01  0.78328564832E-01 -0.37375416999E-01  0.87982644965E-01  0.51100000000E-03 0. -1.
</event>
<event>
 8    1  0.1092993E+005  0.1043930E+01  0.7957747E-01            NaN
         13   -1    0    0    0    0  0.00000000000E+00  0.00000000000E+00  0.74505805969E-08  0.10566000000E+00  0.10566000000E+00 0.  1.
     999900   -1    0    0    0    0 -0.00000000000E+00 -0.00000000000E+00 -0.74505805969E-08  0.93827000000E+00  0.93827000000E+00 0.  1.
     999902    2    1    2    0    0  0.18766960594E-01  0.56152839551E-02  0.12194626715E-01  0.10208553571E+01  0.10205945429E+01 0.  0.
     999903    2    3    3    0    0  0.11551964889E+00 -0.16983719776E-01  0.62375230571E-01  0.13384358116E+00  0.19753450686E-01 0.  0.
         14    1    1    2    0    0 -0.18766960594E-01 -0.56152839551E-02 -0.12194626715E-01  0.23074642891E-01  0.00000000000E+00 0. -1.
     999901    1    3    3    0    0 -0.96752688292E-01  0.22599003731E-01 -0.50180603856E-01  0.88701177594E+00  0.88000000000E+00 0. -1.
        -11    1    4    4    0    0  0.54132762648E-01 -0.98399539345E-03  0.20840027094E-01  0.58016308820E-01  0.51100000000E-03 0. -1.
         11    1    4    4    0    0  0.61386886238E-01 -0.15999724382E-01  0.41535203478E-01  0.75827272344E-01  0.51100000000E-03 0.  1.
</event>
<event>
 8    1  0.1092993E+005  0.1043930E+01  0.7957747E-01            NaN
         13   -1    0    0    0    0  0.00000000000E+00  0.00000000000E+00  0.74505805969E-08  0.10566000000E+00  0.10566000000E+00 0.  1.
     999900   -1    0    0    0    0 -0.00000000000E+00 -0.00000000000E+00 -0.74505805969E-08  0.93827000000E+00  0.93827000000E+00 0. -1.
     999902    2    1    2    0    0 -0.20893226513E-01  0.52720550457E-02 -0.16608592174E-01  0.10167239931E+01  0.10163599320E+01 0.  0.
     999903    2    3    3    0    0 -0.10297053320E+00  0.16099407948E-01 -0.75883654491E-01  0.13085298167E+00  0.22406520245E-01 0.  0.
         14    1    1    2    0    0  0.20893226513E-01 -0.52720550457E-02  0.16608592174E-01  0.27206006920E-01  0.00000000000E+00 0.  1.
     999901    1    3    3    0    0  0.82077306686E-01 -0.10827352902E-01  0.59275062317E-01  0.88587101141E+00  0.88000000000E+00 0. -1.
        -11    1    4    4    0    0 -0.96297794533E-01  0.11690399262E-01 -0.75329220550E-01  0.12281971852E+00  0.51100000000E-03 0.  1.
         11    1    4    4    0    0 -0.66727386657E-02  0.44090086861E-02 -0.55443394087E-03  0.80332631533E-02  0.51100000000E-03 0. -1.
</event>
<event>
 8    1  0.1092993E+005  0.1043930E+01  0.7957747E-01            NaN
         13   -1    0    0    0    0  0.00000000000E+00  0.00000000000E+00  0.74505805969E-08  0.10566000000E+00  0.10566000000E+00 0. -1.
     999900   -1    0    0    0    0 -0.00000000000E+00 -0.00000000000E+00 -0.74505805969E-08  0.93827000000E+00  0.93827000000E+00 0. -1.
     999902    2    1    2    0    0  0.16085781912E-01 -0.18293577370E-01  0.37544774707E-02  0.10192824148E+01  0.10189843658E+01 0.  0.
     999903    2    3    3    0    0 -0.96628993863E-02  0.12489259268E+00 -0.93215818395E-02  0.12724191285E+00  0.20299782449E-01 0.  0.
         14    1    1    2    0    0 -0.16085781912E-01  0.18293577370E-01 -0.37544774707E-02  0.24647585151E-01  0.00000000000E+00 0. -1.
     999901    1    3    3    0    0  0.25748681299E-01 -0.14318617005E+00  0.13076059310E-01  0.89204050200E+00  0.88000000000E+00 0.  1.
        -11    1    4    4    0    0 -0.35895515270E-02  0.11261757219E+00 -0.46824450864E-02  0.11277317437E+00  0.51100000000E-03 0.  1.
         11    1    4    4    0    0 -0.60733478593E-02  0.12275020489E-01 -0.46391367530E-02  0.14468738474E-01  0.51100000000E-03 0. -1.
</event>
<event>
 7    1  0.1092993E+005  0.1043930E+01  0.7957747E-01            NaN
         13   -1    0    0    0    0  0.00000000000E+00  0.00000000000E+00  0.74505805969E-08  0.10566000000E+00  0.10566000000E+00 0.  1.
     999900   -1    0    0    0    0 -0.00000000000E+00 -0.00000000000E+00 -0.74505805969E-08  0.93827000000E+00  0.93827000000E+00 0. -1.
     999903    2    1    2    0    0  0.48241069289E-01 -0.79306387379E-02  0.96751572686E-01  0.11030347071E+00  0.20393455702E-01 0.  0.
         14    1    1    2    0    0  0.39747430689E-01 -0.17475201491E-01 -0.10562087294E-01  0.44685552492E-01  0.00000000000E+00 0. -1.
     999901    1    1    2    0    0 -0.87988499978E-01  0.25405840229E-01 -0.86189485392E-01  0.88894097680E+00  0.88000000000E+00 0. -1.
        -11    1    3    3    0    0  0.24015231665E-01 -0.88792271941E-02  0.30923765967E-01  0.40151120159E-01  0.51100000000E-03 0.  1.
         11    1    3    3    0    0  0.24225837624E-01  0.94858845615E-03  0.65827806720E-01  0.70152350546E-01  0.51100000000E-03 0. -1.
</event>
<event>
 8    1  0.1092993E+005  0.1043930E+01  0.7957747E-01            NaN
         13   -1    0    0    0    0  0.00000000000E+00  0.00000000000E+00  0.74505805969E-08  0.10566000000E+00  0.10566000000E+00 0.  1.
     999900   -1    0    0    0    0 -0.00000000000E+00 -0.00000000000E+00 -0.74505805969E-08  0.93827000000E+00  0.93827000000E+00 0. -1.
     999902    2    1    2    0    0  0.21692585273E-01  0.31210457165E-02  0.96228654938E-02  0.10199944883E+01  0.10197136105E+01 0.  0.
     999903    2    3    3    0    0 -0.12526080323E+00  0.88761103121E-02  0.16210837914E-01  0.12776591858E+00  0.17096330745E-01 0.  0.
         14    1    1    2    0    0 -0.21692585273E-01 -0.31210457165E-02 -0.96228654938E-02  0.23935511745E-01  0.00000000000E+00 0. -1.
     999901    1    3    3    0    0  0.14695338850E+00 -0.57550645956E-02 -0.65879724201E-02  0.89222856967E+00  0.88000000000E+00 0.  1.
        -11    1    4    4    0    0 -0.88955136965E-01  0.12426483864E-01  0.16277871046E-01  0.91283427304E-01  0.51100000000E-03 0. -1.
         11    1    4    4    0    0 -0.36305666266E-01 -0.35503735522E-02 -0.67033132388E-04  0.36482491277E-01  0.51100000000E-03 0.  1.
</event>
<event>
 8    1  0.1092993E+005  0.1043930E+01  0.7957747E-01            NaN
         13   -1    0    0    0    0  0.00000000000E+00  0.00000000000E+00  0.74505805969E-08  0.10566000000E+00  0.10566000000E+00 0. -1.
     999900   -1    0    0    0    0 -0.00000000000E+00 -0.00000000000E+00 -0.74505805969E-08  0.93827000000E+00  0.93827000000E+00 0.  1.
     999902    2    1    2    0    0  0.14232789140E-01 -0.22739507665E-01  0.88113706123E-02  0.10156935387E+01  0.10153009735E+01 0.  0.
     999903    2    3    3    0    0 -0.54041997121E-01 -0.10878919632E+00 -0.35030970258E-01  0.12778129853E+00  0.18581299452E-01 0.  0.
         14    1    1    2    0    0 -0.14232789140E-01  0.22739507665E-01 -0.88113706123E-02  0.28236461315E-01  0.00000000000E+00 0. -1.
     999901    1    3    3    0    0  0.68274786261E-01  0.86049688653E-01  0.43842340870E-01  0.88791224015E+00  0.88000000000E+00 0. -1.
        -11    1    4    4    0    0 -0.28151199439E-01 -0.57435967581E-01 -0.87984408208E-02  0.64568212642E-01  0.51100000000E-03 0.  1.
         11    1    4    4    0    0 -0.25890797682E-01 -0.51353228737E-01 -0.26232529437E-01  0.63213085892E-01  0.51100000000E-03 0. -1.
</event>
<event>
 8    1  0.1092993E+005  0.1043930E+01  0.7957747E-01            NaN
         13   -1    0    0    0    0  0.00000000000E+00  0.00000000000E+00  0.74505805969E-08  0.10566000000E+00  0.10566000000E+00 0.  1.
     999900   -1    0    0    0    0 -0.00000000000E+00 -0.00000000000E+00 -0.74505805969E-08  0.93827000000E+00  0.93827000000E+00 0.  1.
     999902    2    1    2    0    0  0.22502476840E-01  0.74579269690E-02  0.65752897225E-02  0.10193288502E+01  0.10190319368E+01 0.  0.
     999903    2    3    3    0    0  0.25916260441E-01 -0.10422486707E+00 -0.68758291028E-01  0.12907054562E+00  0.19925553712E-01 0.  0.
         14    1    1    2    0    0 -0.22502476840E-01 -0.74579269690E-02 -0.65752897225E-02  0.24601149842E-01  0.00000000000E+00 0. -1.
     999901    1    3    3    0    0 -0.34137836008E-02  0.11168279404E+00  0.75333580750E-01  0.89025830453E+00  0.88000000000E+00 0. -1.
        -11    1    4    4    0    0  0.57806460519E-02 -0.63722654646E-01 -0.41177027273E-01  0.76090743720E-01  0.51100000000E-03 0.  1.
         11    1    4    4    0    0  0.20135614389E-01 -0.40502212428E-01 -0.27581263755E-01  0.52979801903E-01  0.51100000000E-03 0. -1.
</event>
<event>
 8    1  0.1092993E+005  0.1043930E+01  0.7957747E-01            NaN
         13   -1    0    0    0    0  0.00000000000E+00  0.00000000000E+00  0.74505805969E-08  0.10566000000E+00  0.10566000000E+00 0.  1.
     999900   -1    0    0    0    0 -0.00000000000E+00 -0.00000000000E+00 -0.74505805969E-08  0.93827000000E+00  0.93827000000E+00 0. -1.
     999902    2    1    2    0    0 -0.10500251996E-01  0.66353988397E-02  0.94967080309E-02  0.10282944228E+01  0.10281755438E+01 0.  0.
     999903    2    3    3    0    0  0.76316032357E-02 -0.40924565015E-01  0.13140551419E+00  0.13843349474E+00  0.12781311226E-01 0.  0.
         14    1    1    2    0    0  0.10500251996E-01 -0.66353988397E-02 -0.94967080309E-02  0.15635577161E-01  0.00000000000E+00 0. -1.
     999901    1    3    3    0    0 -0.18131855232E-01  0.47559963855E-01 -0.12190880616E+00  0.88986092810E+00  0.88000000000E+00 0. -1.
        -11    1    4    4    0    0 -0.79434518610E-04 -0.25913171229E-01  0.91577741357E-01  0.95174800163E-01  0.51100000000E-03 0.  1.
         11    1    4    4    0    0  0.77110377543E-02 -0.15011393786E-01  0.39827772834E-01  0.43258694577E-01  0.51100000000E-03 0. -1.
</event>
<event>
 8    1  0.1092993E+005  0.1043930E+01  0.7957747E-01            NaN
         13   -1    0    0    0    0  0.00000000000E+00  0.00000000000E+00  0.74505805969E-08  0.10566000000E+00  0.10566000000E+00 0.  1.
     999900   -1    0    0    0    0 -0.00000000000E+00 -0.00000000000E+00 -0.74505805969E-08  0.93827000000E+00  0.93827000000E+00 0. -1.
     999902    2    1    2    0    0 -0.48511779870E-02  0.22758710106E-01  0.24379521589E-02  0.10205326407E+01  0.10202643943E+01 0.  0.
     999903    2    3    3    0    0  0.29050239527E-01 -0.29601041681E-02 -0.12536421076E+00  0.13028314958E+00  0.20120514216E-01 0.  0.
         14    1    1    2    0    0  0.48511779870E-02 -0.22758710106E-01 -0.24379521589E-02  0.23397359344E-01  0.00000000000E+00 0. -1.
     999901    1    3    3    0    0 -0.33901417514E-01  0.25718814274E-01  0.12780216292E+00  0.89024949108E+00  0.88000000000E+00 0.  1.
        -11    1    4    4    0    0  0.28634032008E-01  0.77736120555E-03 -0.84121440514E-01  0.88866135027E-01  0.51100000000E-03 0.  1.
         11    1    4    4    0    0  0.41620751906E-03 -0.37374653736E-02 -0.41242770242E-01  0.41417014551E-01  0.51100000000E-03 0. -1.
</event>
<event>
 8    1  0.1092993E+005  0.1043930E+01  0.7957747E-01            NaN
         13   -1    0    0    0    0  0.00000000000E+00  0.00000000000E+00  0.74505805969E-08  0.10566000000E+00  0.10566000000E+00 0.  1.
     999900   -1    0    0    0    0 -0.00000000000E+00 -0.00000000000E+00 -0.74505805969E-08  0.93827000000E+00  0.93827000000E+00 0.  1.
     999902    2    1    2    0    0 -0.23093522289E-01 -0.15302062202E-02 -0.32272256771E-02  0.10205619173E+01  0.10202943496E+01 0.  0.
     999903    2    3    3    0    0 -0.19070908572E-01 -0.12080931485E+00  0.43046284818E-01  0.13130103043E+00  0.20697532350E-01 0.  0.
         14    1    1    2    0    0  0.23093522289E-01  0.15302062202E-02  0.32272256771E-02  0.23368082685E-01  0.00000000000E+00 0. -1.
     999901    1    3    3    0    0 -0.40226137173E-02  0.11927910863E+00 -0.46273510496E-01  0.88926088689E+00  0.88000000000E+00 0.  1.
        -11    1    4    4    0    0 -0.36257647033E-02 -0.16650747753E-01  0.14025299685E-01  0.22076315877E-01  0.51100000000E-03 0. -1.
         11    1    4    4    0    0 -0.15445143869E-01 -0.10415856710E+00  0.29020985133E-01  0.10922471455E+00  0.51100000000E-03 0.  1.
</event>
<event>
 8    1  0.1092993E+005  0.1043930E+01  0.7957747E-01            NaN
         13   -1    0    0    0    0  0.00000000000E+00  0.00000000000E+00  0.74505805969E-08  0.10566000000E+00  0.10566000000E+00 0. -1.
     999900   -1    0    0    0    0 -0.00000000000E+00 -0.00000000000E+00 -0.74505805969E-08  0.93827000000E+00  0.93827000000E+00 0.  1.
     999902    2    1    2    0    0  0.39059618130E-02 -0.94932982184E-02  0.20793742114E-01  0.10207403696E+01  0.10204769194E+01 0.  0.
     999903    2    3    3    0    0  0.54441192988E-01 -0.32542013875E-01  0.11610649785E+00  0.13385279253E+00  0.20323018067E-01 0.  0.
         14    1    1    2    0    0 -0.39059618130E-02  0.94932982184E-02 -0.20793742114E-01  0.23189630438E-01  0.00000000000E+00 0.  1.
     999901    1    3    3    0    0 -0.50535231175E-01  0.23048715657E-01 -0.95312755741E-01  0.88688757703E+00  0.88000000000E+00 0.  1.
        -11    1    4    4    0    0  0.25341587307E-01 -0.79926797106E-02  0.32489782042E-01  0.41975302671E-01  0.51100000000E-03 0. -1.
         11    1    4    4    0    0  0.29099605681E-01 -0.24549334165E-01  0.83616715813E-01  0.91877489861E-01  0.51100000000E-03 0.  1.
</event>
<event>
 8    1  0.1092993E+005  0.1043930E+01  0.7957747E-01            NaN
         13   -1    0    0    0    0  0.00000000000E+00  0.00000000000E+00  0.74505805969E-08  0.10566000000E+00  0.10566000000E+00 0. -1.
     999900   -1    0    0    0    0 -0.00000000000E+00 -0.00000000000E+00 -0.74505805969E-08  0.93827000000E+00  0.93827000000E+00 0. -1.
     999902    2    1    2    0    0 -0.58620688206E-02 -0.50640555597E-02  0.22606662560E-01  0.10200329353E+01  0.10197529698E+01 0.  0.
     999903    2    3    3    0    0  0.67950368560E-01 -0.82812267856E-01  0.74468581056E-01  0.13201113431E+00  0.20155538267E-01 0.  0.
         14    1    1    2    0    0  0.58620688206E-02  0.50640555597E-02 -0.22606662560E-01  0.23897064708E-01  0.00000000000E+00 0.  1.
     999901    1    3    3    0    0 -0.73812437380E-01  0.77748212296E-01 -0.51861918496E-01  0.88802180098E+00  0.88000000000E+00 0. -1.
        -11    1    4    4    0    0  0.57940102980E-01 -0.62270455161E-01  0.65904361049E-01  0.10760256059E+00  0.51100000000E-03 0. -1.
         11    1    4    4    0    0  0.10010265579E-01 -0.20541812695E-01  0.85642200068E-02  0.24408573721E-01  0.51100000000E-03 0.  1.
</event>
<event>
 8    1  0.1092993E+005  0.1043930E+01  0.7957747E-01            NaN
         13   -1    0    0    0    0  0.00000000000E+00  0.00000000000E+00  0.74505805969E-08  0.10566000000E+00  0.10566000000E+00 0.  1.
     999900   -1    0    0    0    0 -0.00000000000E+00 -0.00000000000E+00 -0.74505805969E-08  0.93827000000E+00  0.93827000000E+00 0. -1.
     999902    2    1    2    0    0  0.21829986325E-01  0.74669783685E-02 -0.79310799655E-02  0.10195331539E+01  0.10192412108E+01 0.  0.
     999903    2    3    3    0    0 -0.21989557453E-01 -0.93108398846E-01 -0.80827599100E-01  0.12973010751E+00  0.33824332136E-01 0.  0.
         14    1    1    2    0    0 -0.21829986325E-01 -0.74669783685E-02  0.79310799655E-02  0.24396846073E-01  0.00000000000E+00 0.  1.
     999901    1    3    3    0    0  0.43819543778E-01  0.10057537721E+00  0.72896519134E-01  0.88980304642E+00  0.88000000000E+00 0.  1.
        -11    1    4    4    0    0  0.16495148537E-02 -0.39355631147E-01 -0.49211803940E-01  0.63036888964E-01  0.51100000000E-03 0.  1.
         11    1    4    4    0    0 -0.23639072307E-01 -0.53752767699E-01 -0.31615795160E-01  0.66693218542E-01  0.51100000000E-03 0. -1.
</event>
<event>
 8    1  0.1092993E+005  0.1043930E+01  0.7957747E-01            NaN
         13   -1    0    0    0    0  0.00000000000E+00  0.00000000000E+00  0.74505805969E-08  0.10566000000E+00  0.10566000000E+00 0. -1.
     999900   -1    0    0    0    0 -0.00000000000E+00 -0.00000000000E+00 -0.74505805969E-08  0.93827000000E+00  0.93827000000E+00 0.  1.
     999902    2    1    2    0    0  0.23198243966E-01 -0.58809406908E-04  0.37398673498E-02  0.10204321578E+01  0.10201615754E+01 0.  0.
     999903    2    3    3    0    0  0.10899858952E+00 -0.41529599406E-01  0.61553956599E-01  0.13340115795E+00  0.20039441739E-01 0.  0.
         14    1    1    2    0    0 -0.23198243966E-01  0.58809406908E-04 -0.37398673498E-02  0.23497842229E-01  0.00000000000E+00 0.  1.
     999901    1    3    3    0    0 -0.85800345559E-01  0.41470790000E-01 -0.57814089249E-01  0.88703099982E+00  0.88000000000E+00 0.  1.
        -11    1    4    4    0    0  0.68763448628E-01 -0.18729914783E-01  0.44953649679E-01  0.84263356897E-01  0.51100000000E-03 0. -1.
         11    1    4    4    0    0  0.40235140896E-01 -0.22799684623E-01  0.16600306919E-01  0.49137801056E-01  0.51100000000E-03 0.  1.
</event>
<event>
 8    1  0.1092993E+005  0.1043930E+01  0.7957747E-01            NaN
         13   -1    0    0    0    0  0.00000000000E+00  0.00000000000E+00  0.74505805969E-08  0.10566000000E+00  0.10566000000E+00 0. -1.
     999900   -1    0    0    0    0 -0.00000000000E+00 -0.00000000000E+00 -0.74505805969E-08  0.93827000000E+00  0.93827000000E+00 0. -1.
     999902    2    1    2    0    0 -0.12870676680E-01  0.14355574724E-01  0.12273116429E-01  0.10210746673E+01  0.10208188429E+01 0.  0.
     999903    2    3    3    0    0  0.11330275667E+00 -0.27563279455E-01 -0.49596276114E-01  0.12893972948E+00  0.23841438557E-01 0.  0.
         14    1    1    2    0    0  0.12870676680E-01 -0.14355574724E-01 -0.12273116429E-01  0.22855332654E-01  0.00000000000E+00 0.  1.
     999901    1    3    3    0    0 -0.12617343335E+00  0.41918854179E-01  0.61869392543E-01  0.89213493786E+00  0.88000000000E+00 0.  1.
        -11    1    4    4    0    0  0.16291211186E-01  0.43849751190E-02 -0.73388408012E-02  0.18405196930E-01  0.51100000000E-03 0.  1.
         11    1    4    4    0    0  0.97011545481E-01 -0.31948254574E-01 -0.42257435313E-01  0.11053453256E+00  0.51100000000E-03 0. -1.
</event>
<event>
 8    1  0.1092993E+005  0.1043930E+01  0.7957747E-01            NaN
         13   -1    0    0    0    0  0.00000000000E+00  0.00000000000E+00  0.74505805969E-08  0.10566000000E+00  0.10566000000E+00 0. -1.
     999900   -1    0    0    0    0 -0.00000000000E+00 -0.00000000000E+00 -0.74505805969E-08  0.93827000000E+00  0.93827000000E+00 0.  1.
     999902    2    1    2    0    0 -0.22121536873E-01 -0.33147675927E-02  0.69952525601E-02  0.10204931991E+01  0.10202240371E+01 0.  0.
     999903    2    3    3    0    0 -0.31452565477E-01 -0.54675718480E-02 -0.12498554461E+00  0.13059959115E+00  0.20388934015E-01 0.  0.
         14    1    1    2    0    0  0.22121536873E-01  0.33147675927E-02 -0.69952525601E-02  0.23436800895E-01  0.00000000000E+00 0. -1.
     999901    1    3    3    0    0  0.93310286041E-02  0.21528042553E-02  0.13198079717E+00  0.88989360796E+00  0.88000000000E+00 0. -1.
        -11    1    4    4    0    0 -0.97627922361E-02  0.74176796491E-02 -0.49923710760E-01  0.51409844395E-01  0.51100000000E-03 0. -1.
         11    1    4    4    0    0 -0.21689773241E-01 -0.12885251497E-01 -0.75061833847E-01  0.79189746753E-01  0.51100000000E-03 0.  1.
</event>
<event>
 8    1  0.1092993E+005  0.1043930E+01  0.7957747E-01            NaN
         13   -1    0    0    0    0  0.00000000000E+00  0.00000000000E+00  0.74505805969E-08  0.10566000000E+00  0.10566000000E+00 0.  1.
     999900   -1    0    0    0    0 -0.00000000000E+00 -0.00000000000E+00 -0.74505805969E-08  0.93827000000E+00  0.93827000000E+00 0.  1.
     999902    2    1    2    0    0 -0.10538572185E-01  0.15601224435E-01  0.54869917978E-03  0.10250949057E+01  0.10249218530E+01 0.  0.
     999903    2    3    3    0    0 -0.83311685293E-01 -0.91396603899E-01  0.48348217271E-01  0.13434844613E+00  0.20439636811E-01 0.  0.
         14    1    1    2    0    0  0.10538572185E-01 -0.15601224435E-01 -0.54869917978E-03  0.18835094329E-01  0.00000000000E+00 0. -1.
     999901    1    3    3    0    0  0.72773113108E-01  0.10699782833E+00 -0.47799518091E-01  0.89074645954E+00  0.88000000000E+00 0. -1.
        -11    1    4    4    0    0 -0.40630216988E-01 -0.46858278093E-01  0.13422590755E-01  0.63458173799E-01  0.51100000000E-03 0. -1.
         11    1    4    4    0    0 -0.42681468305E-01 -0.44538325807E-01  0.34925626516E-01  0.70890272329E-01  0.51100000000E-03 0.  1.
</event>
<event>
 8    1  0.1092993E+005  0.1043930E+01  0.7957747E-01            NaN
         13   -1    0    0    0    0  0.00000000000E+00  0.00000000000E+00  0.74505805969E-08  0.10566000000E+00  0.10566000000E+00 0.  1.
     999900   -1    0    0    0    0 -0.00000000000E+00 -0.00000000000E+00 -0.74505805969E-08  0.93827000000E+00  0.93827000000E+00 0.  1.
     999902    2    1    2    0    0 -0.60377758026E-02  0.24166604296E-01 -0.41153513593E-02  0.10186829087E+01  0.10183699981E+01 0.  0.
     999903    2    3    3    0    0  0.46601158827E-02  0.10690663625E+00 -0.74421514974E-01  0.13194545357E+00  0.20501104173E-01 0.  0.
         14    1    1    2    0    0  0.60377758026E-02 -0.24166604296E-01  0.41153513593E-02  0.25247091251E-01  0.00000000000E+00 0. -1.
     999901    1    3    3    0    0 -0.10697891685E-01 -0.82740031955E-01  0.70306163615E-01  0.88673745518E+00  0.88000000000E+00 0. -1.
        -11    1    4    4    0    0  0.66658351700E-02  0.29502241324E-01 -0.12224891329E-01  0.32627054582E-01  0.51100000000E-03 0.  1.
         11    1    4    4    0    0 -0.20057192873E-02  0.77404394926E-01 -0.62196623645E-01  0.99318398988E-01  0.51100000000E-03 0. -1.
</event>
<event>
 8    1  0.1092993E+005  0.1043930E+01  0.7957747E-01            NaN
         13   -1    0    0    0    0  0.00000000000E+00  0.00000000000E+00  0.74505805969E-08  0.10566000000E+00  0.10566000000E+00 0. -1.
     999900   -1    0    0    0    0 -0.00000000000E+00 -0.00000000000E+00 -0.74505805969E-08  0.93827000000E+00  0.93827000000E+00 0.  1.
     999902    2    1    2    0    0  0.16695426275E-01  0.55378618653E-02 -0.17750879243E-01  0.10189400243E+01  0.10186335328E+01 0.  0.
     999903    2    3    3    0    0  0.39593083164E-01 -0.61611793937E-01 -0.10737065320E+00  0.13154773062E+00  0.20315582108E-01 0.  0.
         14    1    1    2    0    0 -0.16695426275E-01 -0.55378618653E-02  0.17750879243E-01  0.24989975719E-01  0.00000000000E+00 0. -1.
     999901    1    3    3    0    0 -0.22897656889E-01  0.67149655802E-01  0.89619773955E-01  0.88739229366E+00  0.88000000000E+00 0. -1.
        -11    1    4    4    0    0  0.17646450585E-01 -0.43793330992E-01 -0.59605066428E-01  0.76041292220E-01  0.51100000000E-03 0. -1.
         11    1    4    4    0    0  0.21946632578E-01 -0.17818462945E-01 -0.47765586771E-01  0.55506438399E-01  0.51100000000E-03 0.  1.
</event>
<event>
 8    1  0.1092993E+005  0.1043930E+01  0.7957747E-01            NaN
         13   -1    0    0    0    0  0.00000000000E+00  0.00000000000E+00  0.74505805969E-08  0.10566000000E+00  0.10566000000E+00 0. -1.
     999900   -1    0    0    0    0 -0.00000000000E+00 -0.00000000000E+00 -0.74505805969E-08  0.93827000000E+00  0.93827000000E+00 0.  1.
     999902    2    1    2    0    0  0.23194234066E-01  0.46652982042E-03  0.38140711039E-02  0.10204196346E+01  0.10201487604E+01 0.  0.
     999903    2    3    3    0    0 -0.64726907791E-01 -0.66728190341E-01 -0.86849401102E-01  0.12886754816E+00  0.20537831388E-01 0.  0.
         14    1    1    2    0    0 -0.23194234066E-01 -0.46652982042E-03 -0.38140711039E-02  0.23510365424E-01  0.00000000000E+00 0.  1.
     999901    1    3    3    0    0  0.87921141857E-01  0.67194720161E-01  0.90663472206E-01  0.89155208642E+00  0.88000000000E+00 0. -1.
        -11    1    4    4    0    0 -0.19502541016E-01 -0.80381358248E-02 -0.18472701862E-01  0.28043939964E-01  0.51100000000E-03 0.  1.
         11    1    4    4    0    0 -0.45224366775E-01 -0.58690054516E-01 -0.68376699240E-01  0.10082360819E+00  0.51100000000E-03 0. -1.
</event>
<event>
 8    1  0.1092993E+005  0.1043930E+01  0.7957747E-01            NaN
         13   -1    0    0    0    0  0.00000000000E+00  0.00000000000E+00  0.74505805969E-08  0.10566000000E+00  0.10566000000E+00 0.  1.
     999900   -1    0    0    0    0 -0.00000000000E+00 -0.00000000000E+00 -0.74505805969E-08  0.93827000000E+00  0.93827000000E+00 0. -1.
     999902    2    1    2    0    0  0.21316330803E-01 -0.66865169919E-02  0.52928526416E-02  0.10209711290E+01  0.10207129550E+01 0.  0.
     999903    2    3    3    0    0 -0.32787363076E-01 -0.12422292564E+00  0.74124266122E-02  0.13150695904E+00  0.27070090058E-01 0.  0.
         14    1    1    2    0    0 -0.21316330803E-01  0.66865169919E-02 -0.52928526416E-02  0.22958870998E-01  0.00000000000E+00 0. -1.
     999901    1    3    3    0    0  0.54103693879E-01  0.11753640865E+00 -0.21195739707E-02  0.88946416996E+00  0.88000000000E+00 0.  1.
        -11    1    4    4    0    0 -0.68139612533E-02 -0.76706950679E-01  0.72674479333E-02  0.77352849145E-01  0.51100000000E-03 0. -1.
         11    1    4    4    0    0 -0.25973401822E-01 -0.47515974963E-01  0.14497867897E-03  0.54154109897E-01  0.51100000000E-03 0.  1.
</event>
<event>
 8    1  0.1092993E+005  0.1043930E+01  0.7957747E-01            NaN
         13   -1    0    0    0    0  0.00000000000E+00  0.00000000000E+00  0.74505805969E-08  0.10566000000E+00  0.10566000000E+00 0.  1.
     999900   -1    0    0    0    0 -0.00000000000E+00 -0.00000000000E+00 -0.74505805969E-08  0.93827000000E+00  0.93827000000E+00 0. -1.
     999902    2    1    2    0    0  0.75675570382E-03 -0.20301155330E-02 -0.23085807423E-01  0.10207427502E+01  0.10204793548E+01 0.  0.
     999903    2    3    3    0    0  0.44445093609E-02  0.41445665872E-01  0.11949215445E+00  0.12820019195E+00  0.20479681623E-01 0.  0.
         14    1    1    2    0    0 -0.75675570382E-03  0.20301155330E-02  0.23085807423E-01  0.23187249786E-01  0.00000000000E+00 0.  1.
     999901    1    3    3    0    0 -0.36877536571E-02 -0.43475781405E-01 -0.14257796187E+00  0.89254255826E+00  0.88000000000E+00 0. -1.
        -11    1    4    4    0    0  0.66455448101E-02  0.24116328271E-01  0.94140249269E-01  0.97408460662E-01  0.51100000000E-03 0. -1.
         11    1    4    4    0    0 -0.22010354492E-02  0.17329337601E-01  0.25351905177E-01  0.30791731290E-01  0.51100000000E-03 0.  1.
</event>
<event>
 8    1  0.1092993E+005  0.1043930E+01  0.7957747E-01            NaN
         13   -1    0    0    0    0  0.00000000000E+00  0.00000000000E+00  0.74505805969E-08  0.10566000000E+00  0.10566000000E+00 0. -1.
     999900   -1    0    0    0    0 -0.00000000000E+00 -0.00000000000E+00 -0.74505805969E-08  0.93827000000E+00  0.93827000000E+00 0. -1.
     999902    2    1    2    0    0 -0.17680757122E-01  0.14087676152E-01  0.13849518011E-02  0.10212807200E+01  0.10210295389E+01 0.  0.
     999903    2    3    3    0    0 -0.38826677080E-01 -0.11960888986E+00  0.28900509199E-01  0.13050632233E+00  0.19566894198E-01 0.  0.
         14    1    1    2    0    0  0.17680757122E-01 -0.14087676152E-01 -0.13849518011E-02  0.22649279972E-01  0.00000000000E+00 0.  1.
     999901    1    3    3    0    0  0.21145919959E-01  0.13369656602E+00 -0.27515557398E-01  0.89077439770E+00  0.88000000000E+00 0.  1.
        -11    1    4    4    0    0 -0.15682794696E-01 -0.50373040812E-01  0.23095425765E-02  0.52810873861E-01  0.51100000000E-03 0.  1.
         11    1    4    4    0    0 -0.23143882384E-01 -0.69235849052E-01  0.26590966623E-01  0.77695448468E-01  0.51100000000E-03 0. -1.
</event>
<event>
 8    1  0.1092993E+005  0.1043930E+01  0.7957747E-01            NaN
         13   -1    0    0    0    0  0.00000000000E+00  0.00000000000E+00  0.74505805969E-08  0.10566000000E+00  0.10566000000E+00 0. -1.
     999900   -1    0    0    0    0 -0.00000000000E+00 -0.00000000000E+00 -0.74505805969E-08  0.93827000000E+00  0.93827000000E+00 0. -1.
     999902    2    1    2    0    0 -0.56613977259E-02  0.66718270851E-02 -0.15645957371E-01  0.10260034643E+01  0.10258468443E+01 0.  0.
     999903    2    3    3    0    0 -0.17357964746E-01  0.61504199060E-01  0.11652511088E+00  0.13436867919E+00  0.19818552940E-01 0.  0.
         14    1    1    2    0    0  0.56613977259E-02 -0.66718270851E-02  0.15645957371E-01  0.17926535720E-01  0.00000000000E+00 0. -1.
     999901    1    3    3    0    0  0.11696567020E-01 -0.54832371975E-01 -0.13217106825E+00  0.89163478509E+00  0.88000000000E+00 0. -1.
        -11    1    4    4    0    0 -0.62252236421E-02  0.17228019625E-01  0.17565562263E-01  0.25384407974E-01  0.51100000000E-03 0.  1.
         11    1    4    4    0    0 -0.11132741104E-01  0.44276179436E-01  0.98959548615E-01  0.10898427122E+00  0.51100000000E-03 0. -1.
</event>
<event>
 8    1  0.1092993E+005  0.1043930E+01  0.7957747E-01            NaN
         13   -1    0    0    0    0  0.00000000000E+00  0.00000000000E+00  0.74505805969E-08  0.10566000000E+00  0.10566000000E+00 0. -1.
     999900   -1    0    0    0    0 -0.00000000000E+00 -0.00000000000E+00 -0.74505805969E-08  0.93827000000E+00  0.93827000000E+00 0.  1.
     999902    2    1    2    0    0 -0.10325833815E-01 -0.15206356803E-01  0.14658035712E-01  0.10204201267E+01  0.10201492640E+01 0.  0.
     999903    2    3    3    0    0  0.12036711876E+00 -0.18491930910E-01  0.42273795983E-01  0.13033357302E+00  0.19224246141E-01 0.  0.
         14    1    1    2    0    0  0.10325833815E-01  0.15206356803E-01 -0.14658035712E-01  0.23509873291E-01  0.00000000000E+00 0.  1.
     999901    1    3    3    0    0 -0.13069295258E+00  0.32855741061E-02 -0.27615760271E-01  0.89008655369E+00  0.88000000000E+00 0. -1.
        -11    1    4    4    0    0  0.39335372993E-01 -0.14798428093E-01  0.17385443170E-01  0.45483841062E-01  0.51100000000E-03 0.  1.
         11    1    4    4    0    0  0.81031745772E-01 -0.36935028170E-02  0.24888352813E-01  0.84849731954E-01  0.51100000000E-03 0. -1.
</event>
<event>
 8    1  0.1092993E+005  0.1043930E+01  0.7957747E-01            NaN
         13   -1    0    0    0    0  0.00000000000E+00  0.00000000000E+00  0.74505805969E-08  0.10566000000E+00  0.10566000000E+00 0.  1.
     999900   -1    0    0    0    0 -0.00000000000E+00 -0.00000000000E+00 -0.74505805969E-08  0.93827000000E+00  0.93827000000E+00 0. -1.
     999902    2    1    2    0    0  0.21527747730E-01  0.12986190669E-01  0.27887660383E-02  0.10186345007E+01  0.10183203738E+01 0.  0.
     999903    2    3    3    0    0  0.98769312733E-01  0.61331839142E-01  0.58781168342E-01  0.13215905814E+00  0.22222044609E-01 0.  0.
         14    1    1    2    0    0 -0.21527747730E-01 -0.12986190669E-01 -0.27887660383E-02  0.25295499331E-01  0.00000000000E+00 0. -1.
     999901    1    3    3    0    0 -0.77241565003E-01 -0.48345648473E-01 -0.55992402304E-01  0.88647544253E+00  0.88000000000E+00 0. -1.
        -11    1    4    4    0    0  0.49913511453E-01  0.23807921513E-01  0.38173168517E-01  0.67198420130E-01  0.51100000000E-03 0.  1.
         11    1    4    4    0    0  0.48855801280E-01  0.37523917629E-01  0.20607999825E-01  0.64960638010E-01  0.51100000000E-03 0. -1.
</event>
<event>
 8    1  0.1092993E+005  0.1043930E+01  0.7957747E-01            NaN
         13   -1    0    0    0    0  0.00000000000E+00  0.00000000000E+00  0.74505805969E-08  0.10566000000E+00  0.10566000000E+00 0. -1.
     999900   -1    0    0    0    0 -0.00000000000E+00 -0.00000000000E+00 -0.74505805969E-08  0.93827000000E+00  0.93827000000E+00 0.  1.
     999902    2    1    2    0    0  0.10751522842E-01 -0.13863608518E-01  0.15567255754E-01  0.10204750573E+01  0.10202054736E+01 0.  0.
     999903    2    3    3    0    0 -0.14651168213E-01 -0.11555830911E+00  0.61549273389E-01  0.13306227017E+00  0.18678199990E-01 0.  0.
         14    1    1    2    0    0 -0.10751522842E-01  0.13863608518E-01 -0.15567255754E-01  0.23454942684E-01  0.00000000000E+00 0.  1.
     999901    1    3    3    0    0  0.25402691055E-01  0.10169470059E+00 -0.45982017635E-01  0.88741278714E+00  0.88000000000E+00 0. -1.
        -11    1    4    4    0    0 -0.10937263422E-01 -0.79410861775E-01  0.51777981028E-01  0.95430231790E-01  0.51100000000E-03 0.  1.
         11    1    4    4    0    0 -0.37139047908E-02 -0.36147447333E-01  0.97712923609E-02  0.37632038383E-01  0.51100000000E-03 0. -1.
</event>
<event>
 8    1  0.1092993E+005  0.1043930E+01  0.7957747E-01            NaN
         13   -1    0    0    0    0  0.00000000000E+00  0.00000000000E+00  0.74505805969E-08  0.10566000000E+00  0.10566000000E+00 0. -1.
     999900   -1    0    0    0    0 -0.00000000000E+00 -0.00000000000E+00 -0.74505805969E-08  0.93827000000E+00  0.93827000000E+00 0.  1.
     999902    2    1    2    0    0  0.62143305778E-02 -0.50069685914E-02  0.12705320645E-01  0.10289262401E+01  0.10288168422E+01 0.  0.
     999903    2    3    3    0    0 -0.55332363385E-01  0.98053812039E-01  0.77935363807E-01  0.13838456303E+00  0.20003646145E-01 0.  0.
         14    1    1    2    0    0 -0.62143305778E-02  0.50069685914E-02 -0.12705320645E-01  0.15003759919E-01  0.00000000000E+00 0. -1.
     999901    1    3    3    0    0  0.61546693963E-01 -0.10306078063E+00 -0.65230043162E-01  0.89054167706E+00  0.88000000000E+00 0. -1.
        -11    1    4    4    0    0 -0.83149103240E-02  0.18492835306E-01  0.56470727973E-02  0.21054055275E-01  0.51100000000E-03 0.  1.
         11    1    4    4    0    0 -0.47017453061E-01  0.79560976733E-01  0.72288291009E-01  0.11733050775E+00  0.51100000000E-03 0. -1.
</event>
<event>
 8    1  0.1092993E+005  0.1043930E+01  0.7957747E-01            NaN
         13   -1    0    0    0    0  0.00000000000E+00  0.00000000000E+00  0.74505805969E-08  0.10566000000E+00  0.10566000000E+00 0.  1.
     999900   -1    0    0    0    0 -0.00000000000E+00 -0.00000000000E+00 -0.74505805969E-08  0.93827000000E+00  0.93827000000E+00 0.  1.
     999902    2    1    2    0    0  0.67742031933E-02  0.22220212836E-01  0.39047462642E-02  0.10203742209E+01  0.10201022870E+01 0.  0.
     999903    2    3    3    0    0  0.10633489996E+00 -0.48182027986E-01  0.54020379217E-01  0.13055379824E+00  0.22304127256E-01 0.  0.
         14    1    1    2    0    0 -0.67742031933E-02 -0.22220212836E-01 -0.39047462642E-02  0.23555779137E-01  0.00000000000E+00 0. -1.
     999901    1    3    3    0    0 -0.99560696770E-01  0.70402240822E-01 -0.50115632952E-01  0.88982042262E+00  0.88000000000E+00 0. -1.
        -11    1    4    4    0    0  0.47685496550E-01 -0.19639537139E-01  0.35956129197E-01  0.62870679558E-01  0.51100000000E-03 0.  1.
         11    1    4    4    0    0  0.58649403413E-01 -0.28542490847E-01  0.18064250019E-01  0.67683118680E-01  0.51100000000E-03 0. -1.
</event>
<event>
 8    1  0.1092993E+005  0.1043930E+01  0.7957747E-01            NaN
         13   -1    0    0    0    0  0.00000000000E+00  0.00000000000E+00  0.74505805969E-08  0.10566000000E+00  0.10566000000E+00 0. -1.
     999900   -1    0    0    0    0 -0.00000000000E+00 -0.00000000000E+00 -0.74505805969E-08  0.93827000000E+00  0.93827000000E+00 0. -1.
     999902    2    1    2    0    0 -0.21598235774E-02 -0.36554461501E-02 -0.23783221440E-01  0.10197707627E+01  0.10194845461E+01 0.  0.
     999903    2    3    3    0    0  0.92144575563E-01  0.80887734249E-01 -0.40375596010E-01  0.13054853180E+00  0.19475164803E-01 0.  0.
         14    1    1    2    0    0  0.21598235774E-02  0.36554461501E-02  0.23783221440E-01  0.24159237292E-01  0.00000000000E+00 0. -1.
     999901    1    3    3    0    0 -0.94304399140E-01 -0.84543180400E-01  0.16592374569E-01  0.88922223091E+00  0.88000000000E+00 0.  1.
        -11    1    4    4    0    0  0.32178135050E-01  0.33835287961E-01 -0.24327281422E-01  0.52652984997E-01  0.51100000000E-03 0.  1.
         11    1    4    4    0    0  0.59966440513E-01  0.47052446289E-01 -0.16048314587E-01  0.77895546802E-01  0.51100000000E-03 0. -1.
</event>
<event>
 8    1  0.1092993E+005  0.1043930E+01  0.7957747E-01            NaN
         13   -1    0    0    0    0  0.00000000000E+00  0.00000000000E+00  0.74505805969E-08  0.10566000000E+00  0.10566000000E+00 0. -1.
     999900   -1    0    0    0    0 -0.00000000000E+00 -0.00000000000E+00 -0.74505805969E-08  0.93827000000E+00  0.93827000000E+00 0.  1.
     999902    2    1    2    0    0 -0.21340584594E-01 -0.93292452271E-02 -0.54847424832E-02  0.10200022386E+01  0.10197215448E+01 0.  0.
     999903    2    3    3    0    0  0.10804697471E+00 -0.50388361135E-01  0.43019647044E-01  0.12827376683E+00  0.19756860604E-01 0.  0.
         14    1    1    2    0    0  0.21340584594E-01  0.93292452271E-02  0.54847424832E-02  0.23927761438E-01  0.00000000000E+00 0.  1.
     999901    1    3    3    0    0 -0.12938755931E+00  0.41059115908E-01 -0.48504389527E-01  0.89172847174E+00  0.88000000000E+00 0.  1.
        -11    1    4    4    0    0  0.48738160984E-01 -0.21549981892E-01  0.29638523288E-01  0.60979613309E-01  0.51100000000E-03 0.  1.
         11    1    4    4    0    0  0.59308813731E-01 -0.28838379243E-01  0.13381123757E-01  0.67294153517E-01  0.51100000000E-03 0. -1.
</event>
<event>
 8    1  0.1092993E+005  0.1043930E+01  0.7957747E-01            NaN
         13   -1    0    0    0    0  0.00000000000E+00  0.00000000000E+00  0.74505805969E-08  0.10566000000E+00  0.10566000000E+00 0. -1.
     999900   -1    0    0    0    0 -0.00000000000E+00 -0.00000000000E+00 -0.74505805969E-08  0.93827000000E+00  0.93827000000E+00 0.  1.
     999902    2    1    2    0    0 -0.77694492535E-02  0.19083630334E-01  0.12935567302E-01  0.10196014532E+01  0.10193111621E+01 0.  0.
     999903    2    3    3    0    0  0.50448867117E-01  0.67540143596E-01  0.99645307768E-01  0.13210160241E+00  0.20368770452E-01 0.  0.
         14    1    1    2    0    0  0.77694492535E-02 -0.19083630334E-01 -0.12935567302E-01  0.24328546809E-01  0.00000000000E+00 0.  1.
     999901    1    3    3    0    0 -0.58218316370E-01 -0.48456513262E-01 -0.86709740466E-01  0.88749985078E+00  0.88000000000E+00 0.  1.
        -11    1    4    4    0    0  0.21723427082E-01  0.15528556787E-01  0.38348187587E-01  0.46732087181E-01  0.51100000000E-03 0.  1.
         11    1    4    4    0    0  0.28725440035E-01  0.52011586809E-01  0.61297120181E-01  0.85369515233E-01  0.51100000000E-03 0. -1.
</event>
<event>
 8    1  0.1092993E+005  0.1043930E+01  0.7957747E-01            NaN
         13   -1    0    0    0    0  0.00000000000E+00  0.00000000000E+00  0.74505805969E-08  0.10566000000E+00  0.10566000000E+00 0.  1.
     999900   -1    0    0    0    0 -0.00000000000E+00 -0.00000000000E+00 -0.74505805969E-08  0.93827000000E+00  0.93827000000E+00 0. -1.
     999902    2    1    2    0    0 -0.89357959324E-02  0.17723544158E-01 -0.13280492837E-01  0.10200481249E+01  0.10197685194E+01 0.  0.
     999903    2    3    3    0    0  0.34906341874E-01  0.92273139870E-01  0.82853512224E-01  0.13059800144E+00  0.21409073942E-01 0.  0.
         14    1    1    2    0    0  0.89357959324E-02 -0.17723544158E-01  0.13280492837E-01  0.23881875061E-01  0.00000000000E+00 0. -1.
     999901    1    3    3    0    0 -0.43842137806E-01 -0.74549595712E-01 -0.96134005061E-01  0.88945012350E+00  0.88000000000E+00 0. -1.
        -11    1    4    4    0    0  0.78877790748E-02  0.51060326699E-01  0.42530042918E-01  0.66921145335E-01  0.51100000000E-03 0.  1.
         11    1    4    4    0    0  0.27018562799E-01  0.41212813171E-01  0.40323469306E-01  0.63676856102E-01  0.51100000000E-03 0. -1.
</event>
<event>
 8    1  0.1092993E+005  0.1043930E+01  0.7957747E-01            NaN
         13   -1    0    0    0    0  0.00000000000E+00  0.00000000000E+00  0.74505805969E-08  0.10566000000E+00  0.10566000000E+00 0. -1.
     999900   -1    0    0    0    0 -0.00000000000E+00 -0.00000000000E+00 -0.74505805969E-08  0.93827000000E+00  0.93827000000E+00 0. -1.
     999902    2    1    2    0    0 -0.45723997106E-02 -0.53648152387E-02 -0.21663970839E-01  0.10211480836E+01  0.10208939186E+01 0.  0.
     999903    2    3    3    0    0 -0.85295036995E-01  0.70991454900E-01  0.64559435945E-01  0.12997980543E+00  0.20292832384E-01 0.  0.
         14    1    1    2    0    0  0.45723997106E-02  0.53648152387E-02  0.21663970839E-01  0.22781916385E-01  0.00000000000E+00 0. -1.
     999901    1    3    3    0    0  0.80722637284E-01 -0.76356270139E-01 -0.86223406784E-01  0.89116827818E+00  0.88000000000E+00 0. -1.
        -11    1    4    4    0    0 -0.72885016987E-01  0.66334112664E-01  0.50830255130E-01  0.11088920670E+00  0.51100000000E-03 0.  1.
         11    1    4    4    0    0 -0.12410020008E-01  0.46573422362E-02  0.13729180815E-01  0.19090598737E-01  0.51100000000E-03 0. -1.
</event>
<event>
 8    1  0.1092993E+005  0.1043930E+01  0.7957747E-01            NaN
         13   -1    0    0    0    0  0.00000000000E+00  0.00000000000E+00  0.74505805969E-08  0.10566000000E+00  0.10566000000E+00 0. -1.
     999900   -1    0    0    0    0 -0.00000000000E+00 -0.00000000000E+00 -0.74505805969E-08  0.93827000000E+00  0.93827000000E+00 0.  1.
     999902    2    1    2    0    0 -0.19994892377E-01  0.59254695392E-02  0.10827067228E-01  0.10204325045E+01  0.10201619302E+01 0.  0.
     999903    2    3    3    0    0  0.12006943608E-01 -0.89466781585E-01 -0.88359114305E-01  0.12916279352E+00  0.26967062284E-01 0.  0.
         14    1    1    2    0    0  0.19994892377E-01 -0.59254695392E-02 -0.10827067228E-01  0.23497495508E-01  0.00000000000E+00 0. -1.
     999901    1    3    3    0    0 -0.32001835985E-01  0.95392251124E-01  0.99186181533E-01  0.89126971097E+00  0.88000000000E+00 0. -1.
        -11    1    4    4    0    0  0.16580850606E-01 -0.42609054400E-01 -0.32447713965E-01  0.56067560909E-01  0.51100000000E-03 0.  1.
         11    1    4    4    0    0 -0.45739069975E-02 -0.46857727185E-01 -0.55911400340E-01  0.73095232615E-01  0.51100000000E-03 0. -1.
</event>
<event>
 8    1  0.1092993E+005  0.1043930E+01  0.7957747E-01            NaN
         13   -1    0    0    0    0  0.00000000000E+00  0.00000000000E+00  0.74505805969E-08  0.10566000000E+00  0.10566000000E+00 0. -1.
     999900   -1    0    0    0    0 -0.00000000000E+00 -0.00000000000E+00 -0.74505805969E-08  0.93827000000E+00  0.93827000000E+00 0. -1.
     999902    2    1    2    0    0  0.22019303017E-01 -0.70848645452E-02 -0.74378490916E-02  0.10196325390E+01  0.10193429982E+01 0.  0.
     999903    2    3    3    0    0  0.39688713680E-01 -0.10810888327E+00  0.59384405963E-01  0.13116010039E+00  0.20340590615E-01 0.  0.
         14    1    1    2    0    0 -0.22019303017E-01  0.70848645452E-02  0.74378490916E-02  0.24297460980E-01  0.00000000000E+00 0. -1.
     999901    1    3    3    0    0 -0.17669410664E-01  0.10102401873E+00 -0.66822255055E-01  0.88847243863E+00  0.88000000000E+00 0. -1.
        -11    1    4    4    0    0  0.68143052811E-02 -0.46129311951E-01  0.27016787876E-01  0.53893562934E-01  0.51100000000E-03 0.  1.
         11    1    4    4    0    0  0.32874408399E-01 -0.61979571323E-01  0.32367618087E-01  0.77266537457E-01  0.51100000000E-03 0. -1.
</event>
<event>
 8    1  0.1092993E+005  0.1043930E+01  0.7957747E-01            NaN
         13   -1    0    0    0    0  0.00000000000E+00  0.00000000000E+00  0.74505805969E-08  0.10566000000E+00  0.10566000000E+00 0. -1.
     999900   -1    0    0    0    0 -0.00000000000E+00 -0.00000000000E+00 -0.74505805969E-08  0.93827000000E+00  0.93827000000E+00 0.  1.
     999902    2    1    2    0    0 -0.55410576305E-02 -0.16200908850E-01  0.40744732093E-02  0.10263295995E+01  0.10261786748E+01 0.  0.
     999903    2    3    3    0    0  0.54626003761E-01  0.33275777095E-01 -0.11686885648E+00  0.13464843070E+00  0.19508783791E-01 0.  0.
         14    1    1    2    0    0  0.55410576305E-02  0.16200908850E-01 -0.40744732093E-02  0.17600400540E-01  0.00000000000E+00 0.  1.
     999901    1    3    3    0    0 -0.60167061392E-01 -0.49476685945E-01  0.12094332969E+00  0.89168116876E+00  0.88000000000E+00 0. -1.
        -11    1    4    4    0    0  0.41052124336E-01  0.33313405844E-01 -0.86470382058E-01  0.10135308587E+00  0.51100000000E-03 0. -1.
         11    1    4    4    0    0  0.13573879426E-01 -0.37628749845E-04 -0.30398474427E-01  0.33295344826E-01  0.51100000000E-03 0.  1.
</event>
<event>
 8    1  0.1092993E+005  0.1043930E+01  0.7957747E-01            NaN
         13   -1    0    0    0    0  0.00000000000E+00  0.00000000000E+00  0.74505805969E-08  0.10566000000E+00  0.10566000000E+00 0. -1.
     999900   -1    0    0    0    0 -0.00000000000E+00 -0.00000000000E+00 -0.74505805969E-08  0.93827000000E+00  0.93827000000E+00 0. -1.
     999902    2    1    2    0    0 -0.55712572856E-02  0.22060154087E-01  0.59542663889E-02  0.10204110163E+01  0.10201399412E+01 0.  0.
     999903    2    3    3    0    0  0.54057993272E-01  0.10967839956E+00 -0.46862907643E-01  0.13247956718E+00  0.20076992828E-01 0.  0.
         14    1    1    2    0    0  0.55712572856E-02 -0.22060154087E-01 -0.59542663889E-02  0.23518983701E-01  0.00000000000E+00 0.  1.
     999901    1    3    3    0    0 -0.59629250558E-01 -0.87618245472E-01  0.52817174032E-01  0.88793144912E+00  0.88000000000E+00 0. -1.
        -11    1    4    4    0    0  0.40299710166E-01  0.61076642771E-01 -0.31624662214E-01  0.79717020220E-01  0.51100000000E-03 0.  1.
         11    1    4    4    0    0  0.13758283106E-01  0.48601756789E-01 -0.15238245429E-01  0.52762546960E-01  0.51100000000E-03 0. -1.
</event>
<event>
 8    1  0.1092993E+005  0.1043930E+01  0.7957747E-01            NaN
         13   -1    0    0    0    0  0.00000000000E+00  0.00000000000E+00  0.74505805969E-08  0.10566000000E+00  0.10566000000E+00 0. -1.
     999900   -1    0    0    0    0 -0.00000000000E+00 -0.00000000000E+00 -0.74505805969E-08  0.93827000000E+00  0.93827000000E+00 0. -1.
     999902    2    1    2    0    0 -0.17841657509E-01 -0.38790514813E-02  0.14665114944E-01  0.10205112601E+01  0.10202425175E+01 0.  0.
     999903    2    3    3    0    0  0.11400422794E+00  0.44847376416E-01  0.35481869909E-01  0.12911295429E+00  0.20073383183E-01 0.  0.
         14    1    1    2    0    0  0.17841657509E-01  0.38790514813E-02 -0.14665114944E-01  0.23418739918E-01  0.00000000000E+00 0.  1.
     999901    1    3    3    0    0 -0.13184588545E+00 -0.48726427897E-01 -0.20816754966E-01  0.89139830579E+00  0.88000000000E+00 0. -1.
        -11    1    4    4    0    0  0.48004642807E-01  0.20691712759E-01  0.50354699636E-02  0.52518661318E-01  0.51100000000E-03 0. -1.
         11    1    4    4    0    0  0.65999585136E-01  0.24155663657E-01  0.30446399946E-01  0.76594292969E-01  0.51100000000E-03 0.  1.
</event>
<event>
 8    1  0.1092993E+005  0.1043930E+01  0.7957747E-01            NaN
         13   -1    0    0    0    0  0.00000000000E+00  0.00000000000E+00  0.74505805969E-08  0.10566000000E+00  0.10566000000E+00 0.  1.
     999900   -1    0    0    0    0 -0.00000000000E+00 -0.00000000000E+00 -0.74505805969E-08  0.93827000000E+00  0.93827000000E+00 0.  1.
     999902    2    1    2    0    0  0.10399240849E-01  0.56051374965E-02  0.15870725245E-01  0.10241451144E+01  0.10239539901E+01 0.  0.
     999903    2    3    3    0    0 -0.10192199343E+00  0.62689308830E-01 -0.53149498002E-01  0.13249582605E+00  0.20303511886E-01 0.  0.
         14    1    1    2    0    0 -0.10399240849E-01 -0.56051374965E-02 -0.15870725245E-01  0.19784885554E-01  0.00000000000E+00 0. -1.
     999901    1    3    3    0    0  0.11232123428E+00 -0.57084171334E-01  0.69020223247E-01  0.89164928840E+00  0.88000000000E+00 0. -1.
        -11    1    4    4    0    0 -0.36222642630E-01  0.13846933609E-01 -0.23926614071E-01  0.45569303170E-01  0.51100000000E-03 0.  1.
         11    1    4    4    0    0 -0.65699350802E-01  0.48842375221E-01 -0.29222883931E-01  0.86926522875E-01  0.51100000000E-03 0. -1.
</event>
<event>
 8    1  0.1092993E+005  0.1043930E+01  0.7957747E-01            NaN
         13   -1    0    0    0    0  0.00000000000E+00  0.00000000000E+00  0.74505805969E-08  0.10566000000E+00  0.10566000000E+00 0. -1.
     999900   -1    0    0    0    0 -0.00000000000E+00 -0.00000000000E+00 -0.74505805969E-08  0.93827000000E+00  0.93827000000E+00 0.  1.
     999902    2    1    2    0    0  0.10587572222E-01 -0.96681083482E-03  0.19365201955E-01  0.10218383171E+01  0.10215994830E+01 0.  0.
     999903    2    3    3    0    0  0.11026971805E+00  0.25225635525E-03  0.74242893711E-01  0.13451110718E+00  0.20536707049E-01 0.  0.
         14    1    1    2    0    0 -0.10587572222E-01  0.96681083482E-03 -0.19365201955E-01  0.22091682949E-01  0.00000000000E+00 0.  1.
     999901    1    3    3    0    0 -0.99682145829E-01 -0.12190671901E-02 -0.54877691755E-01  0.88732720987E+00  0.88000000000E+00 0.  1.
        -11    1    4    4    0    0  0.96576677740E-01  0.71148174671E-02  0.64325356158E-01  0.11625699066E+00  0.51100000000E-03 0.  1.
         11    1    4    4    0    0  0.13693040311E-01 -0.68625611118E-02  0.99175375526E-02  0.18254116524E-01  0.51100000000E-03 0. -1.
</event>
<event>
 8    1  0.1092993E+005  0.1043930E+01  0.7957747E-01            NaN
         13   -1    0    0    0    0  0.00000000000E+00  0.00000000000E+00  0.74505805969E-08  0.10566000000E+00  0.10566000000E+00 0.  1.
     999900   -1    0    0    0    0 -0.00000000000E+00 -0.00000000000E+00 -0.74505805969E-08  0.93827000000E+00  0.93827000000E+00 0.  1.
     999902    2    1    2    0    0 -0.11581460797E-01  0.18640540640E-01  0.91689903505E-02  0.10201461741E+01  0.10198688868E+01 0.  0.
     999903    2    3    3    0    0 -0.98804140859E-01 -0.62266467822E-02 -0.82923027837E-01  0.13070415086E+00  0.20157309460E-01 0.  0.
         14    1    1    2    0    0  0.11581460797E-01 -0.18640540640E-01 -0.91689903505E-02  0.23783825882E-01  0.00000000000E+00 0. -1.
     999901    1    3    3    0    0  0.87222680063E-01  0.24867187422E-01  0.92092018187E-01  0.88944202326E+00  0.88000000000E+00 0. -1.
        -11    1    4    4    0    0 -0.35728987045E-01 -0.11645561794E-01 -0.34236813331E-01  0.50838962744E-01  0.51100000000E-03 0. -1.
         11    1    4    4    0    0 -0.63075153814E-01  0.54189150120E-02 -0.48686214506E-01  0.79865188114E-01  0.51100000000E-03 0.  1.
</event>
<event>
 8    1  0.1092993E+005  0.1043930E+01  0.7957747E-01            NaN
         13   -1    0    0    0    0  0.00000000000E+00  0.00000000000E+00  0.74505805969E-08  0.10566000000E+00  0.10566000000E+00 0.  1.
     999900   -1    0    0    0    0 -0.00000000000E+00 -0.00000000000E+00 -0.74505805969E-08  0.93827000000E+00  0.93827000000E+00 0.  1.
     999902    2    1    2    0    0 -0.15788861254E-01 -0.17353130116E-01 -0.12896721095E-02  0.10204335637E+01  0.10201630141E+01 0.  0.
     999903    2    3    3    0    0  0.70391498536E-01  0.10109718301E+00 -0.27193565591E-01  0.12794908608E+00  0.21351232767E-01 0.  0.
         14    1    1    2    0    0  0.15788861254E-01  0.17353130116E-01  0.12896721095E-02  0.23496436297E-01  0.00000000000E+00 0.  1.
     999901    1    3    3    0    0 -0.86180359790E-01 -0.11845031313E+00  0.25903893482E-01  0.89248447762E+00  0.88000000000E+00 0.  1.
        -11    1    4    4    0    0  0.31051558072E-01  0.30624525712E-01 -0.31331743032E-02  0.43728008598E-01  0.51100000000E-03 0.  1.
         11    1    4    4    0    0  0.39339940465E-01  0.70472657301E-01 -0.24060391288E-01  0.84221077485E-01  0.51100000000E-03 0. -1.
</event>
<event>
 8    1  0.1092993E+005  0.1043930E+01  0.7957747E-01            NaN
         13   -1    0    0    0    0  0.00000000000E+00  0.00000000000E+00  0.74505805969E-08  0.10566000000E+00  0.10566000000E+00 0.  1.
     999900   -1    0    0    0    0 -0.00000000000E+00 -0.00000000000E+00 -0.74505805969E-08  0.93827000000E+00  0.93827000000E+00 0. -1.
     999902    2    1    2    0    0 -0.86305176444E-02  0.20176854010E-01 -0.13564509661E-01  0.10181310234E+01  0.10178041037E+01 0.  0.
     999903    2    3    3    0    0 -0.12672332993E+00 -0.88070735847E-02  0.13731184253E-01  0.12935037818E+00  0.20164523828E-01 0.  0.
         14    1    1    2    0    0  0.86305176444E-02 -0.20176854010E-01  0.13564509661E-01  0.25798976625E-01  0.00000000000E+00 0.  1.
     999901    1    3    3    0    0  0.11809281228E+00  0.28983927595E-01 -0.27295693913E-01  0.88878064520E+00  0.88000000000E+00 0.  1.
        -11    1    4    4    0    0 -0.95027156702E-01  0.11721137688E-03  0.15886605003E-01  0.96347390151E-01  0.51100000000E-03 0. -1.
         11    1    4    4    0    0 -0.31696173224E-01 -0.89242849616E-02 -0.21554207505E-02  0.33002988027E-01  0.51100000000E-03 0.  1.
</event>
<event>
 8    1  0.1092993E+005  0.1043930E+01  0.7957747E-01            NaN
         13   -1    0    0    0    0  0.00000000000E+00  0.00000000000E+00  0.74505805969E-08  0.10566000000E+00  0.10566000000E+00 0. -1.
     999900   -1    0    0    0    0 -0.00000000000E+00 -0.00000000000E+00 -0.74505805969E-08  0.93827000000E+00  0.93827000000E+00 0.  1.
     999902    2    1    2    0    0  0.98084035426E-03 -0.12411337135E-01  0.18730337991E-01  0.10214393598E+01  0.10211917238E+01 0.  0.
     999903    2    3    3    0    0 -0.98295925474E-01  0.82739811643E-01 -0.53732495266E-02  0.13043397241E+00  0.21821639559E-01 0.  0.
         14    1    1    2    0    0 -0.98084035426E-03  0.12411337135E-01 -0.18730337991E-01  0.22490640243E-01  0.00000000000E+00 0. -1.
     999901    1    3    3    0    0  0.99276765828E-01 -0.95151148778E-01  0.24103587518E-01  0.89100538735E+00  0.88000000000E+00 0. -1.
        -11    1    4    4    0    0 -0.97616395664E-02  0.14605804228E-01 -0.64216772867E-02  0.18711445277E-01  0.51100000000E-03 0.  1.
         11    1    4    4    0    0 -0.88534285908E-01  0.68134007415E-01  0.10484277601E-02  0.11172252713E+00  0.51100000000E-03 0. -1.
</event>
<event>
 8    1  0.1092993E+005  0.1043930E+01  0.7957747E-01            NaN
         13   -1    0    0    0    0  0.00000000000E+00  0.00000000000E+00  0.74505805969E-08  0.10566000000E+00  0.10566000000E+00 0.  1.
     999900   -1    0    0    0    0 -0.00000000000E+00 -0.00000000000E+00 -0.74505805969E-08  0.93827000000E+00  0.93827000000E+00 0.  1.
     999902    2    1    2    0    0 -0.47016459889E-02  0.19276756979E-01  0.15186032071E-01  0.10189437157E+01  0.10186373159E+01 0.  0.
     999903    2    3    3    0    0  0.60779712212E-02 -0.47501351146E-01  0.11944076525E+00  0.13021171711E+00  0.19891575438E-01 0.  0.
         14    1    1    2    0    0  0.47016459889E-02 -0.19276756979E-01 -0.15186032071E-01  0.24986284332E-01  0.00000000000E+00 0. -1.
     999901    1    3    3    0    0 -0.10779617210E-01  0.66778108125E-01 -0.10425473318E+00  0.88873199856E+00  0.88000000000E+00 0.  1.
        -11    1    4    4    0    0 -0.27396267725E-02 -0.33426417810E-01  0.62963374251E-01  0.71340581582E-01  0.51100000000E-03 0. -1.
         11    1    4    4    0    0  0.88175979937E-02 -0.14074933336E-01  0.56477391002E-01  0.58871135527E-01  0.51100000000E-03 0.  1.
</event>
<event>
 7    1  0.1092993E+005  0.1043930E+01  0.7957747E-01            NaN
         13   -1    0    0    0    0  0.00000000000E+00  0.00000000000E+00  0.74505805969E-08  0.10566000000E+00  0.10566000000E+00 0.  1.
     999900   -1    0    0    0    0 -0.00000000000E+00 -0.00000000000E+00 -0.74505805969E-08  0.93827000000E+00  0.93827000000E+00 0.  1.
     999903    2    1    2    0    0 -0.71750613446E-01  0.30465448530E-01 -0.13130574483E-01  0.81690504679E-01  0.20606612638E-01 0.  0.
         14    1    1    2    0    0 -0.82658657465E-02 -0.54822605384E-01 -0.51821897953E-01  0.75890392706E-01  0.00000000000E+00 0. -1.
     999901    1    1    2    0    0  0.80016479192E-01  0.24357156854E-01  0.64952472436E-01  0.88634910262E+00  0.88000000000E+00 0. -1.
        -11    1    3    3    0    0 -0.50269328764E-01  0.28769979558E-01 -0.33440224104E-02  0.58018624122E-01  0.51100000000E-03 0. -1.
         11    1    3    3    0    0 -0.21481284681E-01  0.16954689722E-02 -0.97865520727E-02  0.23671880556E-01  0.51100000000E-03 0.  1.
</event>
<event>
 8    1  0.1092993E+005  0.1043930E+01  0.7957747E-01            NaN
         13   -1    0    0    0    0  0.00000000000E+00  0.00000000000E+00  0.74505805969E-08  0.10566000000E+00  0.10566000000E+00 0.  1.
     999900   -1    0    0    0    0 -0.00000000000E+00 -0.00000000000E+00 -0.74505805969E-08  0.93827000000E+00  0.93827000000E+00 0. -1.
     999902    2    1    2    0    0 -0.93352310162E-02 -0.12387145856E-01 -0.18089666327E-01  0.10201009432E+01  0.10198225877E+01 0.  0.
     999903    2    3    3    0    0  0.80539989107E-01 -0.87114269324E-01 -0.53869795588E-01  0.13165177986E+00  0.18832166586E-01 0.  0.
         14    1    1    2    0    0  0.93352310162E-02  0.12387145856E-01  0.18089666327E-01  0.23829056809E-01  0.00000000000E+00 0.  1.
     999901    1    3    3    0    0 -0.89875220123E-01  0.74727123467E-01  0.35780129261E-01  0.88844916333E+00  0.88000000000E+00 0.  1.
        -11    1    4    4    0    0  0.26215173415E-01 -0.20959566738E-01 -0.22826380784E-01  0.40593639104E-01  0.51100000000E-03 0. -1.
         11    1    4    4    0    0  0.54324815692E-01 -0.66154702585E-01 -0.31043414805E-01  0.91058140756E-01  0.51100000000E-03 0.  1.
</event>
<event>
 8    1  0.1092993E+005  0.1043930E+01  0.7957747E-01            NaN
         13   -1    0    0    0    0  0.00000000000E+00  0.00000000000E+00  0.74505805969E-08  0.10566000000E+00  0.10566000000E+00 0.  1.
     999900   -1    0    0    0    0 -0.00000000000E+00 -0.00000000000E+00 -0.74505805969E-08  0.93827000000E+00  0.93827000000E+00 0.  1.
     999902    2    1    2    0    0 -0.18108922463E-01 -0.59731480155E-03  0.14520652403E-01  0.10207106287E+01  0.10204464946E+01 0.  0.
     999903    2    3    3    0    0  0.86074048524E-01 -0.46222633932E-01 -0.80663682266E-01  0.12830051067E+00  0.20226657741E-01 0.  0.
         14    1    1    2    0    0  0.18108922463E-01  0.59731480155E-03 -0.14520652403E-01  0.23219371308E-01  0.00000000000E+00 0. -1.
     999901    1    3    3    0    0 -0.10418297099E+00  0.45625319131E-01  0.95184334669E-01  0.89241011803E+00  0.88000000000E+00 0. -1.
        -11    1    4    4    0    0  0.68358672425E-01 -0.35662855385E-01 -0.73328043081E-01  0.10640493585E+00  0.51100000000E-03 0.  1.
         11    1    4    4    0    0  0.17715376099E-01 -0.10559778547E-01 -0.73356391849E-02  0.21895574816E-01  0.51100000000E-03 0. -1.
</event>
<event>
 8    1  0.1092993E+005  0.1043930E+01  0.7957747E-01            NaN
         13   -1    0    0    0    0  0.00000000000E+00  0.00000000000E+00  0.74505805969E-08  0.10566000000E+00  0.10566000000E+00 0.  1.
     999900   -1    0    0    0    0 -0.00000000000E+00 -0.00000000000E+00 -0.74505805969E-08  0.93827000000E+00  0.93827000000E+00 0. -1.
     999902    2    1    2    0    0  0.92394772512E-02  0.27286764673E-02 -0.21756929570E-01  0.10201355133E+01  0.10198579743E+01 0.  0.
     999903    2    3    3    0    0  0.52126019145E-01  0.97445386094E-01 -0.70564308181E-01  0.13267133327E+00  0.20239464877E-01 0.  0.
         14    1    1    2    0    0 -0.92394772512E-02 -0.27286764673E-02  0.21756929570E-01  0.23794486744E-01  0.00000000000E+00 0.  1.
     999901    1    3    3    0    0 -0.42886541894E-01 -0.94716709627E-01  0.48807378611E-01  0.88746417999E+00  0.88000000000E+00 0. -1.
        -11    1    4    4    0    0  0.32063351152E-01  0.45170819996E-01 -0.26448997317E-01  0.61386252909E-01  0.51100000000E-03 0.  1.
         11    1    4    4    0    0  0.20062667993E-01  0.52274566098E-01 -0.44115310864E-01  0.71285080356E-01  0.51100000000E-03 0. -1.
</event>
<event>
 8    1  0.1092993E+005  0.1043930E+01  0.7957747E-01            NaN
         13   -1    0    0    0    0  0.00000000000E+00  0.00000000000E+00  0.74505805969E-08  0.10566000000E+00  0.10566000000E+00 0. -1.
     999900   -1    0    0    0    0 -0.00000000000E+00 -0.00000000000E+00 -0.74505805969E-08  0.93827000000E+00  0.93827000000E+00 0. -1.
     999902    2    1    2    0    0 -0.22235749605E-01 -0.68208345930E-02  0.65056549675E-02  0.10197788946E+01  0.10194928730E+01 0.  0.
     999903    2    3    3    0    0  0.73392617593E-01 -0.95405767349E-01  0.43142127946E-01  0.12942261419E+00  0.20005826658E-01 0.  0.
         14    1    1    2    0    0  0.22235749605E-01  0.68208345930E-02 -0.65056549675E-02  0.24151105391E-01  0.00000000000E+00 0. -1.
     999901    1    3    3    0    0 -0.95628367198E-01  0.88584932756E-01 -0.36636472978E-01  0.89035628042E+00  0.88000000000E+00 0.  1.
        -11    1    4    4    0    0  0.67035204885E-01 -0.80987261778E-01  0.31264601647E-01  0.10968314228E+00  0.51100000000E-03 0. -1.
         11    1    4    4    0    0  0.63574127076E-02 -0.14418505571E-01  0.11877526299E-01  0.19739471908E-01  0.51100000000E-03 0.  1.
</event>
<event>
 8    1  0.1092993E+005  0.1043930E+01  0.7957747E-01            NaN
         13   -1    0    0    0    0  0.00000000000E+00  0.00000000000E+00  0.74505805969E-08  0.10566000000E+00  0.10566000000E+00 0. -1.
     999900   -1    0    0    0    0 -0.00000000000E+00 -0.00000000000E+00 -0.74505805969E-08  0.93827000000E+00  0.93827000000E+00 0.  1.
     999902    2    1    2    0    0  0.10381231092E-01 -0.13146211587E-01  0.10001832389E-01  0.10244202719E+01  0.10242344771E+01 0.  0.
     999903    2    3    3    0    0 -0.10084984033E+00  0.23723103897E-01 -0.79342029164E-01  0.13216805240E+00  0.20970467999E-01 0.  0.
         14    1    1    2    0    0 -0.10381231092E-01  0.13146211587E-01 -0.10001832389E-01  0.19509728066E-01  0.00000000000E+00 0. -1.
     999901    1    3    3    0    0  0.11123107143E+00 -0.36869315484E-01  0.89343861553E-01  0.89225221954E+00  0.88000000000E+00 0. -1.
        -11    1    4    4    0    0 -0.53370446737E-01  0.91155892458E-02 -0.53713265246E-01  0.76268437355E-01  0.51100000000E-03 0. -1.
         11    1    4    4    0    0 -0.47479393598E-01  0.14607514651E-01 -0.25628763918E-01  0.55899615040E-01  0.51100000000E-03 0.  1.
</event>
<event>
 8    1  0.1092993E+005  0.1043930E+01  0.7957747E-01            NaN
         13   -1    0    0    0    0  0.00000000000E+00  0.00000000000E+00  0.74505805969E-08  0.10566000000E+00  0.10566000000E+00 0. -1.
     999900   -1    0    0    0    0 -0.00000000000E+00 -0.00000000000E+00 -0.74505805969E-08  0.93827000000E+00  0.93827000000E+00 0.  1.
     999902    2    1    2    0    0 -0.76772279360E-02  0.17446188283E-01  0.13763447445E-01  0.10204195385E+01  0.10201486621E+01 0.  0.
     999903    2    3    3    0    0  0.12086230817E+00  0.23814052290E-01  0.38996237528E-01  0.13070067519E+00  0.19676212300E-01 0.  0.
         14    1    1    2    0    0  0.76772279360E-02 -0.17446188283E-01 -0.13763447445E-01  0.23510461500E-01  0.00000000000E+00 0.  1.
     999901    1    3    3    0    0 -0.12853953611E+00 -0.63678640071E-02 -0.25232790083E-01  0.88971886331E+00  0.88000000000E+00 0.  1.
        -11    1    4    4    0    0  0.78435347687E-01  0.22943472409E-01  0.31608780739E-01  0.87623528996E-01  0.51100000000E-03 0.  1.
         11    1    4    4    0    0  0.42426960485E-01  0.87057988107E-03  0.73874567885E-02  0.43077146193E-01  0.51100000000E-03 0. -1.
</event>
<event>
 8    1  0.1092993E+005  0.1043930E+01  0.7957747E-01            NaN
         13   -1    0    0    0    0  0.00000000000E+00  0.00000000000E+00  0.74505805969E-08  0.10566000000E+00  0.10566000000E+00 0.  1.
     999900   -1    0    0    0    0 -0.00000000000E+00 -0.00000000000E+00 -0.74505805969E-08  0.93827000000E+00  0.93827000000E+00 0. -1.
     999902    2    1    2    0    0  0.15064775960E-01  0.36450896748E-02  0.19662424137E-01  0.10188931257E+01  0.10185854684E+01 0.  0.
     999903    2    3    3    0    0 -0.33644667992E-01  0.68734113545E-01  0.10358655756E+00  0.13116994182E+00  0.24880447783E-01 0.  0.
         14    1    1    2    0    0 -0.15064775960E-01 -0.36450896748E-02 -0.19662424137E-01  0.25036874334E-01  0.00000000000E+00 0. -1.
     999901    1    3    3    0    0  0.48709443952E-01 -0.65089023870E-01 -0.83924133423E-01  0.88772318384E+00  0.88000000000E+00 0. -1.
        -11    1    4    4    0    0 -0.16613370453E-01  0.10450704151E-01  0.28371735384E-01  0.34502721411E-01  0.51100000000E-03 0.  1.
         11    1    4    4    0    0 -0.17031297539E-01  0.58283409394E-01  0.75214822177E-01  0.96667220414E-01  0.51100000000E-03 0. -1.
</event>
<event>
 8    1  0.1092993E+005  0.1043930E+01  0.7957747E-01            NaN
         13   -1    0    0    0    0  0.00000000000E+00  0.00000000000E+00  0.74505805969E-08  0.10566000000E+00  0.10566000000E+00 0. -1.
     999900   -1    0    0    0    0 -0.00000000000E+00 -0.00000000000E+00 -0.74505805969E-08  0.93827000000E+00  0.93827000000E+00 0.  1.
     999902    2    1    2    0    0  0.22944775794E-01 -0.22809697318E-02  0.24977572764E-02  0.10207372350E+01  0.10204737128E+01 0.  0.
     999903    2    3    3    0    0 -0.40769797418E-01  0.49618616257E-01  0.11154104252E+00  0.13020730737E+00  0.19706731443E-01 0.  0.
         14    1    1    2    0    0 -0.22944775794E-01  0.22809697318E-02 -0.24977572764E-02  0.23192765048E-01  0.00000000000E+00 0.  1.
     999901    1    3    3    0    0  0.63714573213E-01 -0.51899585989E-01 -0.10904328525E+00  0.89052992758E+00  0.88000000000E+00 0.  1.
        -11    1    4    4    0    0 -0.20761988692E-01  0.10940355020E-01  0.34963310833E-01  0.42112299484E-01  0.51100000000E-03 0. -1.
         11    1    4    4    0    0 -0.20007808726E-01  0.38678261236E-01  0.76577731690E-01  0.88095007884E-01  0.51100000000E-03 0.  1.
</event>
<event>
 8    1  0.1092993E+005  0.1043930E+01  0.7957747E-01            NaN
         13   -1    0    0    0    0  0.00000000000E+00  0.00000000000E+00  0.74505805969E-08  0.10566000000E+00  0.10566000000E+00 0.  1.
     999900   -1    0    0    0    0 -0.00000000000E+00 -0.00000000000E+00 -0.74505805969E-08  0.93827000000E+00  0.93827000000E+00 0.  1.
     999902    2    1    2    0    0  0.45287721853E-02  0.22710448876E-01  0.68514352582E-02  0.10197801257E+01  0.10194941335E+01 0.  0.
     999903    2    3    3    0    0 -0.87002112344E-01  0.96973376235E-01  0.73653533265E-02  0.13192138165E+00  0.19385542437E-01 0.  0.
         14    1    1    2    0    0 -0.45287721853E-02 -0.22710448876E-01 -0.68514352582E-02  0.24149874343E-01  0.00000000000E+00 0. -1.
     999901    1    3    3    0    0  0.91530884529E-01 -0.74262927358E-01 -0.51391806828E-03  0.88785874401E+00  0.88000000000E+00 0. -1.
        -11    1    4    4    0    0 -0.46370876901E-01  0.56870156544E-01  0.13106577879E-01  0.74542044744E-01  0.51100000000E-03 0.  1.
         11    1    4    4    0    0 -0.40631235442E-01  0.40103219691E-01 -0.57412245521E-02  0.57379336904E-01  0.51100000000E-03 0. -1.
</event>
<event>
 8    1  0.1532063E+005  0.1043930E+01  0.7957747E-01            NaN
         13   -1    0    0    0    0  0.00000000000E+00  0.00000000000E+00  0.74505805969E-08  0.10566000000E+00  0.10566000000E+00 0.  1.
     999900   -1    0    0    0    0 -0.00000000000E+00 -0.00000000000E+00 -0.74505805969E-08  0.93827000000E+00  0.93827000000E+00 0.  1.
     999902    2    1    2    0    0 -0.16996135735E-01 -0.78806794790E-02  0.15239702357E-01  0.10197800048E+01  0.10194940098E+01 0.  0.
     999903    2    3    3    0    0 -0.49842971881E-02 -0.12316625533E+00 -0.38199761147E-01  0.13057202886E+00  0.19876199311E-01 0.  0.
         14    1    1    2    0    0  0.16996135735E-01  0.78806794790E-02 -0.15239702357E-01  0.24149995174E-01  0.00000000000E+00 0. -1.
     999901    1    3    3    0    0 -0.12011838547E-01  0.11528557585E+00  0.53439463503E-01  0.88920797597E+00  0.88000000000E+00 0. -1.
        -11    1    4    4    0    0  0.69119609405E-02 -0.42739762305E-01 -0.93023090336E-02  0.44286076371E-01  0.51100000000E-03 0. -1.
         11    1    4    4    0    0 -0.11896258129E-01 -0.80426493022E-01 -0.28897452113E-01  0.86285952488E-01  0.51100000000E-03 0.  1.
</event>
<event>
 8    1  0.1092993E+005  0.1043930E+01  0.7957747E-01            NaN
         13   -1    0    0    0    0  0.00000000000E+00  0.00000000000E+00  0.74505805969E-08  0.10566000000E+00  0.10566000000E+00 0.  1.
     999900   -1    0    0    0    0 -0.00000000000E+00 -0.00000000000E+00 -0.74505805969E-08  0.93827000000E+00  0.93827000000E+00 0.  1.
     999902    2    1    2    0    0 -0.55029563180E-02  0.25842260371E-01 -0.22679737956E-02  0.10174111642E+01  0.10170654985E+01 0.  0.
     999903    2    3    3    0    0 -0.15975617830E-01 -0.88281193003E-01 -0.86241323697E-01  0.12601598650E+00  0.19841208093E-01 0.  0.
         14    1    1    2    0    0  0.55029563180E-02 -0.25842260371E-01  0.22679737956E-02  0.26518835843E-01  0.00000000000E+00 0. -1.
     999901    1    3    3    0    0  0.10472661512E-01  0.11412345337E+00  0.83973349901E-01  0.89139517765E+00  0.88000000000E+00 0.  1.
        -11    1    4    4    0    0 -0.18761487218E-01 -0.61677377021E-01 -0.67562245337E-01  0.93386349938E-01  0.51100000000E-03 0.  1.
         11    1    4    4    0    0  0.27858693881E-02 -0.26603815983E-01 -0.18679078360E-01  0.32629636567E-01  0.51100000000E-03 0. -1.
</event>
<event>
 8    1  0.1092993E+005  0.1043930E+01  0.7957747E-01            NaN
         13   -1    0    0    0    0  0.00000000000E+00  0.00000000000E+00  0.74505805969E-08  0.10566000000E+00  0.10566000000E+00 0. -1.
     999900   -1    0    0    0    0 -0.00000000000E+00 -0.00000000000E+00 -0.74505805969E-08  0.93827000000E+00  0.93827000000E+00 0. -1.
     999902    2    1    2    0    0 -0.31990508598E-02 -0.25221649597E-01  0.38745548029E-02  0.10182127352E+01  0.10178879095E+01 0.  0.
     999903    2    3    3    0    0 -0.15366362651E-01  0.90287570122E-01 -0.85631016719E-01  0.12607952167E+00  0.13244030376E-01 0.  0.
         14    1    1    2    0    0  0.31990508598E-02  0.25221649597E-01 -0.38745548029E-02  0.25717264818E-01  0.00000000000E+00 0. -1.
     999901    1    3    3    0    0  0.12167311791E-01 -0.11550921972E+00  0.89505571522E-01  0.89213321351E+00  0.88000000000E+00 0.  1.
        -11    1    4    4    0    0 -0.73526420585E-02  0.21621894134E-01 -0.27531224751E-01  0.35774252032E-01  0.51100000000E-03 0.  1.
         11    1    4    4    0    0 -0.80137205920E-02  0.68665675989E-01 -0.58099791969E-01  0.90305269639E-01  0.51100000000E-03 0. -1.
</event>
<event>
 8    1  0.1092993E+005  0.1043930E+01  0.7957747E-01            NaN
         13   -1    0    0    0    0  0.00000000000E+00  0.00000000000E+00  0.74505805969E-08  0.10566000000E+00  0.10566000000E+00 0.  1.
     999900   -1    0    0    0    0 -0.00000000000E+00 -0.00000000000E+00 -0.74505805969E-08  0.93827000000E+00  0.93827000000E+00 0. -1.
     999902    2    1    2    0    0  0.20288164750E-01  0.14574706621E-01 -0.74503235970E-02  0.10178620307E+01  0.10175281689E+01 0.  0.
     999903    2    3    3    0    0  0.29123620501E-01  0.85600842204E-01  0.90934649816E-01  0.12949139847E+00  0.17978383746E-01 0.  0.
         14    1    1    2    0    0 -0.20288164750E-01 -0.14574706621E-01  0.74503235970E-02  0.26067969306E-01  0.00000000000E+00 0.  1.
     999901    1    3    3    0    0 -0.88354557513E-02 -0.71026135583E-01 -0.98384973413E-01  0.88837063223E+00  0.88000000000E+00 0. -1.
        -11    1    4    4    0    0  0.29452342154E-01  0.68751723449E-01  0.68467816535E-01  0.10140188833E+00  0.51100000000E-03 0. -1.
         11    1    4    4    0    0 -0.32872165290E-03  0.16849118756E-01  0.22466833281E-01  0.28089510132E-01  0.51100000000E-03 0.  1.
</event>
<event>
 8    1  0.1092993E+005  0.1043930E+01  0.7957747E-01            NaN
         13   -1    0    0    0    0  0.00000000000E+00  0.00000000000E+00  0.74505805969E-08  0.10566000000E+00  0.10566000000E+00 0. -1.
     999900   -1    0    0    0    0 -0.00000000000E+00 -0.00000000000E+00 -0.74505805969E-08  0.93827000000E+00  0.93827000000E+00 0. -1.
     999902    2    1    2    0    0 -0.18775485470E-01  0.71219159164E-02  0.10314102349E-01  0.10213552077E+01  0.10211056943E+01 0.  0.
     999903    2    3    3    0    0 -0.66966703676E-01  0.49774442444E-01  0.10310863827E+00  0.13413907988E+00  0.19996673307E-01 0.  0.
         14    1    1    2    0    0  0.18775485470E-01 -0.71219159164E-02 -0.10314102349E-01  0.22574792318E-01  0.00000000000E+00 0.  1.
     999901    1    3    3    0    0  0.48191218206E-01 -0.42652526528E-01 -0.92794535922E-01  0.88721612780E+00  0.88000000000E+00 0. -1.
        -11    1    4    4    0    0 -0.55340122105E-01  0.44881448784E-01  0.75683447479E-01  0.10394767387E+00  0.51100000000E-03 0. -1.
         11    1    4    4    0    0 -0.11626581571E-01  0.48929936603E-02  0.27425190792E-01  0.30191406012E-01  0.51100000000E-03 0.  1.
</event>
<event>
 8    1  0.1092993E+005  0.1043930E+01  0.7957747E-01            NaN
         13   -1    0    0    0    0  0.00000000000E+00  0.00000000000E+00  0.74505805969E-08  0.10566000000E+00  0.10566000000E+00 0.  1.
     999900   -1    0    0    0    0 -0.00000000000E+00 -0.00000000000E+00 -0.74505805969E-08  0.93827000000E+00  0.93827000000E+00 0. -1.
     999902    2    1    2    0    0  0.76288214116E-02 -0.20434337851E-01 -0.70671647227E-02  0.10210017228E+01  0.10207442442E+01 0.  0.
     999903    2    3    3    0    0 -0.20523318197E-02  0.95788641018E-01  0.83558055760E-01  0.12869323568E+00  0.20008108692E-01 0.  0.
         14    1    1    2    0    0 -0.76288214116E-02  0.20434337851E-01  0.70671647227E-02  0.22928277230E-01  0.00000000000E+00 0. -1.
     999901    1    3    3    0    0  0.96811532313E-02 -0.11622297887E+00 -0.90625220482E-01  0.89230848709E+00  0.88000000000E+00 0. -1.
        -11    1    4    4    0    0 -0.11041084238E-01  0.55203578422E-01  0.47328485670E-01  0.73549896591E-01  0.51100000000E-03 0.  1.
         11    1    4    4    0    0  0.89887524188E-02  0.40585062597E-01  0.36229570090E-01  0.55143339089E-01  0.51100000000E-03 0. -1.
</event>
<event>
 8    1  0.1092993E+005  0.1043930E+01  0.7957747E-01            NaN
         13   -1    0    0    0    0  0.00000000000E+00  0.00000000000E+00  0.74505805969E-08  0.10566000000E+00  0.10566000000E+00 0.  1.
     999900   -1    0    0    0    0 -0.00000000000E+00 -0.00000000000E+00 -0.74505805969E-08  0.93827000000E+00  0.93827000000E+00 0.  1.
     999902    2    1    2    0    0  0.40353995086E-02  0.10100449861E-01  0.21015719371E-01  0.10202664416E+01  0.10199919842E+01 0.  0.
     999903    2    3    3    0    0  0.72499138496E-01 -0.40248804828E-01 -0.95740944061E-01  0.12849603981E+00  0.21652078547E-01 0.  0.
         14    1    1    2    0    0 -0.40353995086E-02 -0.10100449861E-01 -0.21015719371E-01  0.23663558424E-01  0.00000000000E+00 0. -1.
     999901    1    3    3    0    0 -0.68463738987E-01  0.50349254689E-01  0.11675666343E+00  0.89177040176E+00  0.88000000000E+00 0. -1.
        -11    1    4    4    0    0  0.36362412867E-01 -0.31932965100E-01 -0.58747166272E-01  0.76114584644E-01  0.51100000000E-03 0.  1.
         11    1    4    4    0    0  0.36136725629E-01 -0.83158397278E-02 -0.36993777789E-01  0.52381455170E-01  0.51100000000E-03 0. -1.
</event>
<event>
 8    1  0.1092993E+005  0.1043930E+01  0.7957747E-01            NaN
         13   -1    0    0    0    0  0.00000000000E+00  0.00000000000E+00  0.74505805969E-08  0.10566000000E+00  0.10566000000E+00 0. -1.
     999900   -1    0    0    0    0 -0.00000000000E+00 -0.00000000000E+00 -0.74505805969E-08  0.93827000000E+00  0.93827000000E+00 0.  1.
     999902    2    1    2    0    0 -0.99772415307E-02  0.18607981961E-01  0.10685049289E-01  0.10202662594E+01  0.10199917977E+01 0.  0.
     999903    2    3    3    0    0  0.80306188436E-01 -0.68089457723E-01  0.72170685438E-01  0.12928476282E+00  0.20510580386E-01 0.  0.
         14    1    1    2    0    0  0.99772415307E-02 -0.18607981961E-01 -0.10685049289E-01  0.23663740607E-01  0.00000000000E+00 0. -1.
     999901    1    3    3    0    0 -0.90283429967E-01  0.86697439684E-01 -0.61485636150E-01  0.89098149657E+00  0.88000000000E+00 0.  1.
        -11    1    4    4    0    0  0.56138214139E-01 -0.53208910675E-01  0.62001487423E-01  0.99131896106E-01  0.51100000000E-03 0.  1.
         11    1    4    4    0    0  0.24167974296E-01 -0.14880547048E-01  0.10169198016E-01  0.30152866718E-01  0.51100000000E-03 0. -1.
</event>
<event>
 8    1  0.1092993E+005  0.1043930E+01  0.7957747E-01            NaN
         13   -1    0    0    0    0  0.00000000000E+00  0.00000000000E+00  0.74505805969E-08  0.10566000000E+00  0.10566000000E+00 0.  1.
     999900   -1    0    0    0    0 -0.00000000000E+00 -0.00000000000E+00 -0.74505805969E-08  0.93827000000E+00  0.93827000000E+00 0. -1.
     999902    2    1    2    0    0 -0.65915007299E-02 -0.89550829196E-02 -0.21192192574E-01  0.10199977954E+01  0.10197169961E+01 0.  0.
     999903    2    3    3    0    0  0.39196629549E-01 -0.11030032878E+00  0.52739900168E-01  0.12992287377E+00  0.19897682374E-01 0.  0.
         14    1    1    2    0    0  0.65915007299E-02  0.89550829196E-02  0.21192192574E-01  0.23932204622E-01  0.00000000000E+00 0.  1.
     999901    1    3    3    0    0 -0.45788130279E-01  0.10134524586E+00 -0.73932092742E-01  0.89007492160E+00  0.88000000000E+00 0. -1.
        -11    1    4    4    0    0  0.14809336758E-01 -0.59697261815E-01  0.36166277106E-01  0.71353628108E-01  0.51100000000E-03 0.  1.
         11    1    4    4    0    0  0.24387292790E-01 -0.50603066961E-01  0.16573623062E-01  0.58569245666E-01  0.51100000000E-03 0. -1.
</event>
<event>
 8    1  0.1092993E+005  0.1043930E+01  0.7957747E-01            NaN
         13   -1    0    0    0    0  0.00000000000E+00  0.00000000000E+00  0.74505805969E-08  0.10566000000E+00  0.10566000000E+00 0.  1.
     999900   -1    0    0    0    0 -0.00000000000E+00 -0.00000000000E+00 -0.74505805969E-08  0.93827000000E+00  0.93827000000E+00 0.  1.
     999902    2    1    2    0    0  0.11074121586E-01  0.22032830813E-01 -0.70750254071E-02  0.10182758037E+01  0.10179525896E+01 0.  0.
     999903    2    3    3    0    0 -0.11614846166E-02 -0.89614871228E-01 -0.88071235815E-01  0.12744736595E+00  0.21309958184E-01 0.  0.
         14    1    1    2    0    0 -0.11074121586E-01 -0.22032830813E-01  0.70750254071E-02  0.25654196285E-01  0.00000000000E+00 0.  1.
     999901    1    3    3    0    0  0.12235606202E-01  0.11164770204E+00  0.80996210408E-01  0.89082843776E+00  0.88000000000E+00 0. -1.
        -11    1    4    4    0    0 -0.10024266652E-01 -0.47237156031E-01 -0.39582644161E-01  0.62441025549E-01  0.51100000000E-03 0. -1.
         11    1    4    4    0    0  0.88627820357E-02 -0.42377715197E-01 -0.48488591653E-01  0.65006340401E-01  0.51100000000E-03 0.  1.
</event>
<event>
 8    1  0.1092993E+005  0.1043930E+01  0.7957747E-01            NaN
         13   -1    0    0    0    0  0.00000000000E+00  0.00000000000E+00  0.74505805969E-08  0.10566000000E+00  0.10566000000E+00 0. -1.
     999900   -1    0    0    0    0 -0.00000000000E+00 -0.00000000000E+00 -0.74505805969E-08  0.93827000000E+00  0.93827000000E+00 0. -1.
     999902    2    1    2    0    0  0.27357095422E-02  0.21281233708E-01 -0.10310256251E-01  0.10201250342E+01  0.10198472478E+01 0.  0.
     999903    2    3    3    0    0  0.10508284203E+00  0.53066517008E-02 -0.76551814701E-01  0.13157674235E+00  0.19537004709E-01 0.  0.
         14    1    1    2    0    0 -0.27357095422E-02 -0.21281233708E-01  0.10310256251E-01  0.23804965843E-01  0.00000000000E+00 0.  1.
     999901    1    3    3    0    0 -0.10234713249E+00  0.15974582007E-01  0.66241558450E-01  0.88854829180E+00  0.88000000000E+00 0. -1.
        -11    1    4    4    0    0  0.64820072848E-01  0.57550002566E-02 -0.58271252154E-01  0.87353087069E-01  0.51100000000E-03 0. -1.
         11    1    4    4    0    0  0.40262769184E-01 -0.44834855574E-03 -0.18280562546E-01  0.44223655285E-01  0.51100000000E-03 0.  1.
</event>
<event>
 8    1  0.1092993E+005  0.1043930E+01  0.7957747E-01            NaN
         13   -1    0    0    0    0  0.00000000000E+00  0.00000000000E+00  0.74505805969E-08  0.10566000000E+00  0.10566000000E+00 0. -1.
     999900   -1    0    0    0    0 -0.00000000000E+00 -0.00000000000E+00 -0.74505805969E-08  0.93827000000E+00  0.93827000000E+00 0.  1.
     999902    2    1    2    0    0 -0.18490756598E-02  0.26451897154E-02  0.19335989420E-01  0.10243265157E+01  0.10241389135E+01 0.  0.
     999903    2    3    3    0    0  0.45478120447E-01 -0.42242141903E-02 -0.12253013804E+00  0.13168266158E+00  0.15510809352E-01 0.  0.
         14    1    1    2    0    0  0.18490756598E-02 -0.26451897154E-02 -0.19335989420E-01  0.19603484289E-01  0.00000000000E+00 0.  1.
     999901    1    3    3    0    0 -0.47327196106E-01  0.68694039057E-02  0.14186612746E+00  0.89264385413E+00  0.88000000000E+00 0. -1.
        -11    1    4    4    0    0  0.28900517597E-01 -0.86126035051E-02 -0.89783182833E-01  0.94713768256E-01  0.51100000000E-03 0. -1.
         11    1    4    4    0    0  0.16577602850E-01  0.43883893148E-02 -0.32746955208E-01  0.36968893322E-01  0.51100000000E-03 0.  1.
</event>
<event>
 8    1  0.1092993E+005  0.1043930E+01  0.7957747E-01            NaN
         13   -1    0    0    0    0  0.00000000000E+00  0.00000000000E+00  0.74505805969E-08  0.10566000000E+00  0.10566000000E+00 0.  1.
     999900   -1    0    0    0    0 -0.00000000000E+00 -0.00000000000E+00 -0.74505805969E-08  0.93827000000E+00  0.93827000000E+00 0.  1.
     999902    2    1    2    0    0 -0.17763135718E-01  0.14257440642E-01 -0.53805500749E-03  0.10211463851E+01  0.10208921817E+01 0.  0.
     999903    2    3    3    0    0  0.99973201645E-01  0.75921479061E-01  0.31071692573E-01  0.13060527157E+00  0.18264031643E-01 0.  0.
         14    1    1    2    0    0  0.17763135718E-01 -0.14257440642E-01  0.53805500749E-03  0.22783614889E-01  0.00000000000E+00 0.  1.
     999901    1    3    3    0    0 -0.11773633736E+00 -0.61664038419E-01 -0.31609747580E-01  0.89054111354E+00  0.88000000000E+00 0.  1.
        -11    1    4    4    0    0  0.96172055310E-02  0.56007128099E-02  0.82334277954E-02  0.13853125296E-01  0.51100000000E-03 0. -1.
         11    1    4    4    0    0  0.90355996114E-01  0.70320766251E-01  0.22838264777E-01  0.11675214627E+00  0.51100000000E-03 0.  1.
</event>
<event>
 8    1  0.1092993E+005  0.1043930E+01  0.7957747E-01            NaN
         13   -1    0    0    0    0  0.00000000000E+00  0.00000000000E+00  0.74505805969E-08  0.10566000000E+00  0.10566000000E+00 0. -1.
     999900   -1    0    0    0    0 -0.00000000000E+00 -0.00000000000E+00 -0.74505805969E-08  0.93827000000E+00  0.93827000000E+00 0.  1.
     999902    2    1    2    0    0 -0.23381147097E-01  0.46642332303E-02 -0.24065514329E-02  0.10199670160E+01  0.10196854854E+01 0.  0.
     999903    2    3    3    0    0 -0.23502909744E-01  0.80230370852E-01 -0.99363542952E-01  0.13142274916E+00  0.20236752559E-01 0.  0.
         14    1    1    2    0    0  0.23381147097E-01 -0.46642332303E-02  0.24065514329E-02  0.23962983975E-01  0.00000000000E+00 0. -1.
     999901    1    3    3    0    0  0.12176264720E-03 -0.75566137622E-01  0.96956991520E-01  0.88854426687E+00  0.88000000000E+00 0. -1.
        -11    1    4    4    0    0 -0.16429085716E-01  0.22701713118E-01 -0.30919961637E-01  0.41732335000E-01  0.51100000000E-03 0.  1.
         11    1    4    4    0    0 -0.70738240276E-02  0.57528657734E-01 -0.68443581316E-01  0.89690414156E-01  0.51100000000E-03 0. -1.
</event>
<event>
 8    1  0.1092993E+005  0.1043930E+01  0.7957747E-01            NaN
         13   -1    0    0    0    0  0.00000000000E+00  0.00000000000E+00  0.74505805969E-08  0.10566000000E+00  0.10566000000E+00 0.  1.
     999900   -1    0    0    0    0 -0.00000000000E+00 -0.00000000000E+00 -0.74505805969E-08  0.93827000000E+00  0.93827000000E+00 0. -1.
     999902    2    1    2    0    0  0.27760916596E-02  0.20937386961E-01 -0.11803139570E-01  0.10197350633E+01  0.10194479900E+01 0.  0.
     999903    2    3    3    0    0  0.94712386524E-01  0.32219629636E-01  0.80592962597E-01  0.13006287031E+00  0.20312161798E-01 0.  0.
         14    1    1    2    0    0 -0.27760916596E-02 -0.20937386961E-01  0.11803139570E-01  0.24194936689E-01  0.00000000000E+00 0.  1.
     999901    1    3    3    0    0 -0.91936294864E-01 -0.11282242675E-01 -0.92396102167E-01  0.88967219301E+00  0.88000000000E+00 0. -1.
        -11    1    4    4    0    0  0.63515623180E-01  0.31328896403E-01  0.57734957660E-01  0.91374616797E-01  0.51100000000E-03 0.  1.
         11    1    4    4    0    0  0.31196763344E-01  0.89073323335E-03  0.22858004937E-01  0.38688253508E-01  0.51100000000E-03 0. -1.
</event>
<event>
 8    1  0.1092993E+005  0.1043930E+01  0.7957747E-01            NaN
         13   -1    0    0    0    0  0.00000000000E+00  0.00000000000E+00  0.74505805969E-08  0.10566000000E+00  0.10566000000E+00 0. -1.
     999900   -1    0    0    0    0 -0.00000000000E+00 -0.00000000000E+00 -0.74505805969E-08  0.93827000000E+00  0.93827000000E+00 0.  1.
     999902    2    1    2    0    0 -0.21431076822E-01  0.91451924220E-02  0.48323284120E-02  0.10201334247E+01  0.10198558365E+01 0.  0.
     999903    2    3    3    0    0  0.64093629085E-01  0.35418264024E-03  0.11082510292E+00  0.12961322537E+00  0.20230324212E-01 0.  0.
         14    1    1    2    0    0  0.21431076822E-01 -0.91451924220E-02 -0.48323284120E-02  0.23796575301E-01  0.00000000000E+00 0. -1.
     999901    1    3    3    0    0 -0.85524705907E-01  0.87910097818E-02 -0.10599277451E+00  0.89052019933E+00  0.88000000000E+00 0.  1.
        -11    1    4    4    0    0  0.61708855970E-01  0.39113679597E-02  0.96145711613E-01  0.11431334431E+00  0.51100000000E-03 0. -1.
         11    1    4    4    0    0  0.23847731153E-02 -0.35571853195E-02  0.14679391307E-01  0.15299881056E-01  0.51100000000E-03 0.  1.
</event>
<event>
 7    1  0.1181261E+005  0.1043930E+01  0.7957747E-01            NaN
         13   -1    0    0    0    0  0.00000000000E+00  0.00000000000E+00  0.74505805969E-08  0.10566000000E+00  0.10566000000E+00 0. -1.
     999900   -1    0    0    0    0 -0.00000000000E+00 -0.00000000000E+00 -0.74505805969E-08  0.93827000000E+00  0.93827000000E+00 0.  1.
     999903    2    1    2    0    0 -0.63352214511E-01 -0.90629403657E-01  0.29615427379E-01  0.11608441218E+00  0.19269803372E-01 0.  0.
         14    1    1    2    0    0  0.97046023665E-02  0.22340556921E-01 -0.36098304791E-01  0.43547300714E-01  0.00000000000E+00 0.  1.
     999901    1    1    2    0    0  0.53647612145E-01  0.68288846735E-01  0.64828774120E-02  0.88429828710E+00  0.88000000000E+00 0. -1.
        -11    1    3    3    0    0 -0.28522806069E-01 -0.44520630014E-01  0.23862949284E-01  0.58011537063E-01  0.51100000000E-03 0.  1.
         11    1    3    3    0    0 -0.34829408443E-01 -0.46108773643E-01  0.57524780955E-02  0.58072875119E-01  0.51100000000E-03 0. -1.
</event>
<event>
 8    1  0.1092993E+005  0.1043930E+01  0.7957747E-01            NaN
         13   -1    0    0    0    0  0.00000000000E+00  0.00000000000E+00  0.74505805969E-08  0.10566000000E+00  0.10566000000E+00 0. -1.
     999900   -1    0    0    0    0 -0.00000000000E+00 -0.00000000000E+00 -0.74505805969E-08  0.93827000000E+00  0.93827000000E+00 0.  1.
     999902    2    1    2    0    0  0.22173147529E-01  0.69000253815E-02 -0.47584418177E-02  0.10202255365E+01  0.10199501183E+01 0.  0.
     999903    2    3    3    0    0  0.64108912171E-01 -0.88460549739E-01  0.69397840905E-01  0.13098349863E+00  0.20134425994E-01 0.  0.
         14    1    1    2    0    0 -0.22173147529E-01 -0.69000253815E-02  0.47584418177E-02  0.23704463507E-01  0.00000000000E+00 0. -1.
     999901    1    3    3    0    0 -0.41935764642E-01  0.95360575120E-01 -0.74156282723E-01  0.88924203787E+00  0.88000000000E+00 0.  1.
        -11    1    4    4    0    0  0.13792432614E-01 -0.29854231792E-01  0.28814337679E-01  0.43726805625E-01  0.51100000000E-03 0. -1.
         11    1    4    4    0    0  0.50316479557E-01 -0.58606317947E-01  0.40583503226E-01  0.87256693000E-01  0.51100000000E-03 0.  1.
</event>
<event>
 8    1  0.1092993E+005  0.1043930E+01  0.7957747E-01            NaN
         13   -1    0    0    0    0  0.00000000000E+00  0.00000000000E+00  0.74505805969E-08  0.10566000000E+00  0.10566000000E+00 0. -1.
     999900   -1    0    0    0    0 -0.00000000000E+00 -0.00000000000E+00 -0.74505805969E-08  0.93827000000E+00  0.93827000000E+00 0.  1.
     999902    2    1    2    0    0  0.18228512888E-01  0.10362635084E-01 -0.10914994038E-01  0.10202910495E+01  0.10200171693E+01 0.  0.
     999903    2    3    3    0    0 -0.16907413959E-01  0.73455023079E-01 -0.10659329870E+00  0.13216407612E+00  0.20584232469E-01 0.  0.
         14    1    1    2    0    0 -0.18228512888E-01 -0.10362635084E-01  0.10914994038E-01  0.23638950544E-01  0.00000000000E+00 0. -1.
     999901    1    3    3    0    0  0.35135926847E-01 -0.63092387994E-01  0.95678304667E-01  0.88812697333E+00  0.88000000000E+00 0. -1.
        -11    1    4    4    0    0 -0.10802807083E-01  0.56553551675E-01 -0.64898498613E-01  0.86758752245E-01  0.51100000000E-03 0. -1.
         11    1    4    4    0    0 -0.61046068758E-02  0.16901471404E-01 -0.41694800092E-01  0.45405323877E-01  0.51100000000E-03 0.  1.
</event>
<event>
 8    1  0.1092993E+005  0.1043930E+01  0.7957747E-01            NaN
         13   -1    0    0    0    0  0.00000000000E+00  0.00000000000E+00  0.74505805969E-08  0.10566000000E+00  0.10566000000E+00 0.  1.
     999900   -1    0    0    0    0 -0.00000000000E+00 -0.00000000000E+00 -0.74505805969E-08  0.93827000000E+00  0.93827000000E+00 0.  1.
     999902    2    1    2    0    0 -0.17127381209E-01 -0.19970349295E-02  0.14860578294E-01  0.10211666056E+01  0.10209128584E+01 0.  0.
     999903    2    3    3    0    0  0.91477235044E-01 -0.87650657779E-01  0.22887530385E-01  0.13032658760E+00  0.20259764268E-01 0.  0.
         14    1    1    2    0    0  0.17127381209E-01  0.19970349295E-02 -0.14860578294E-01  0.22763394361E-01  0.00000000000E+00 0. -1.
     999901    1    3    3    0    0 -0.10860461625E+00  0.85653622850E-01 -0.80269520904E-02  0.89084001804E+00  0.88000000000E+00 0. -1.
        -11    1    4    4    0    0  0.28736111866E-01 -0.31014609293E-01  0.17079278684E-01  0.45602993281E-01  0.51100000000E-03 0. -1.
         11    1    4    4    0    0  0.62741123178E-01 -0.56636048486E-01  0.58082517001E-02  0.84723594320E-01  0.51100000000E-03 0.  1.
</event>
<event>
 8    1  0.1092993E+005  0.1043930E+01  0.7957747E-01            NaN
         13   -1    0    0    0    0  0.00000000000E+00  0.00000000000E+00  0.74505805969E-08  0.10566000000E+00  0.10566000000E+00 0.  1.
     999900   -1    0    0    0    0 -0.00000000000E+00 -0.00000000000E+00 -0.74505805969E-08  0.93827000000E+00  0.93827000000E+00 0. -1.
     999902    2    1    2    0    0 -0.22835530739E-01 -0.46956464236E-02  0.44080301432E-02  0.10202036162E+01  0.10199276823E+01 0.  0.
     999903    2    3    3    0    0 -0.50571870236E-01 -0.48190559649E-01  0.11069122270E+00  0.13230878624E+00  0.19319007148E-01 0.  0.
         14    1    1    2    0    0  0.22835530739E-01  0.46956464236E-02 -0.44080301432E-02  0.23726383821E-01  0.00000000000E+00 0. -1.
     999901    1    3    3    0    0  0.27736339497E-01  0.43494913226E-01 -0.10628319255E+00  0.88789482993E+00  0.88000000000E+00 0. -1.
        -11    1    4    4    0    0 -0.25515679691E-01 -0.30082355808E-01  0.77404970063E-01  0.86878009603E-01  0.51100000000E-03 0.  1.
         11    1    4    4    0    0 -0.25056190544E-01 -0.18108203841E-01  0.33286252633E-01  0.45430776642E-01  0.51100000000E-03 0. -1.
</event>
<event>
 8    1  0.1092993E+005  0.1043930E+01  0.7957747E-01            NaN
         13   -1    0    0    0    0  0.00000000000E+00  0.00000000000E+00  0.74505805969E-08  0.10566000000E+00  0.10566000000E+00 0.  1.
     999900   -1    0    0    0    0 -0.00000000000E+00 -0.00000000000E+00 -0.74505805969E-08  0.93827000000E+00  0.93827000000E+00 0. -1.
     999902    2    1    2    0    0  0.17333330866E-01  0.60527905275E-04 -0.16956995587E-01  0.10196815419E+01  0.10193931818E+01 0.  0.
     999903    2    3    3    0    0  0.11160866299E+00 -0.62361062253E-01 -0.27779063383E-01  0.13238147407E+00  0.20193627067E-01 0.  0.
         14    1    1    2    0    0 -0.17333330866E-01 -0.60527905275E-04  0.16956995587E-01  0.24248458134E-01  0.00000000000E+00 0.  1.
     999901    1    3    3    0    0 -0.94275332124E-01  0.62421590158E-01  0.10822067796E-01  0.88730006780E+00  0.88000000000E+00 0.  1.
        -11    1    4    4    0    0  0.73449994880E-01 -0.31096949886E-01 -0.21788160311E-01  0.82685591797E-01  0.51100000000E-03 0.  1.
         11    1    4    4    0    0  0.38158668110E-01 -0.31264112367E-01 -0.59909030715E-02  0.49695882270E-01  0.51100000000E-03 0. -1.
</event>
<event>
 8    1  0.1092993E+005  0.1043930E+01  0.7957747E-01            NaN
         13   -1    0    0    0    0  0.00000000000E+00  0.00000000000E+00  0.74505805969E-08  0.10566000000E+00  0.10566000000E+00 0. -1.
     999900   -1    0    0    0    0 -0.00000000000E+00 -0.00000000000E+00 -0.74505805969E-08  0.93827000000E+00  0.93827000000E+00 0. -1.
     999902    2    1    2    0    0  0.58338250114E-02 -0.23796744815E-01 -0.45418188243E-02  0.10190111979E+01  0.10187064714E+01 0.  0.
     999903    2    3    3    0    0 -0.34664600264E-01 -0.74772736300E-01 -0.10035832771E+00  0.13141924353E+00  0.20164995011E-01 0.  0.
         14    1    1    2    0    0 -0.58338250114E-02  0.23796744815E-01  0.45418188243E-02  0.24918802064E-01  0.00000000000E+00 0. -1.
     999901    1    3    3    0    0  0.40498425275E-01  0.50975991484E-01  0.95816508883E-01  0.88759195441E+00  0.88000000000E+00 0.  1.
        -11    1    4    4    0    0 -0.29849472716E-01 -0.68691117309E-01 -0.79813299829E-01  0.10945265903E+00  0.51100000000E-03 0. -1.
         11    1    4    4    0    0 -0.48151275478E-02 -0.60816189907E-02 -0.20545027878E-01  0.21966584495E-01  0.51100000000E-03 0.  1.
</event>
<event>
 8    1  0.1092993E+005  0.1043930E+01  0.7957747E-01            NaN
         13   -1    0    0    0    0  0.00000000000E+00  0.00000000000E+00  0.74505805969E-08  0.10566000000E+00  0.10566000000E+00 0.  1.
     999900   -1    0    0    0    0 -0.00000000000E+00 -0.00000000000E+00 -0.74505805969E-08  0.93827000000E+00  0.93827000000E+00 0. -1.
     999902    2    1    2    0    0  0.93149047099E-02  0.17370659121E-01  0.13358199361E-01  0.10201193146E+01  0.10198413932E+01 0.  0.
     999903    2    3    3    0    0 -0.92626022687E-01 -0.85882435417E-01 -0.10254310749E-02  0.12812153265E+00  0.21417348780E-01 0.  0.
         14    1    1    2    0    0 -0.93149047099E-02 -0.17370659121E-01 -0.13358199361E-01  0.23810685379E-01  0.00000000000E+00 0.  1.
     999901    1    3    3    0    0  0.10194092740E+00  0.10325309454E+00  0.14383630436E-01  0.89199778197E+00  0.88000000000E+00 0.  1.
        -11    1    4    4    0    0 -0.32161895864E-01 -0.17143321289E-01  0.22013300304E-02  0.36515585512E-01  0.51100000000E-03 0. -1.
         11    1    4    4    0    0 -0.60464126823E-01 -0.68739114127E-01 -0.32267611052E-02  0.91605947142E-01  0.51100000000E-03 0.  1.
</event>
<event>
 8    1  0.1092993E+005  0.1043930E+01  0.7957747E-01            NaN
         13   -1    0    0    0    0  0.00000000000E+00  0.00000000000E+00  0.74505805969E-08  0.10566000000E+00  0.10566000000E+00 0. -1.
     999900   -1    0    0    0    0 -0.00000000000E+00 -0.00000000000E+00 -0.74505805969E-08  0.93827000000E+00  0.93827000000E+00 0.  1.
     999902    2    1    2    0    0  0.57752275996E-03 -0.31491944721E-02 -0.23345666875E-01  0.10203658085E+01  0.10200936781E+01 0.  0.
     999903    2    3    3    0    0  0.37568132603E-01 -0.69965848311E-01  0.99194627898E-01  0.12859852145E+00  0.19784362443E-01 0.  0.
         14    1    1    2    0    0 -0.57752275996E-03  0.31491944721E-02  0.23345666875E-01  0.23564191482E-01  0.00000000000E+00 0. -1.
     999901    1    3    3    0    0 -0.36990609843E-01  0.66816653839E-01 -0.12254029477E+00  0.89176728707E+00  0.88000000000E+00 0.  1.
        -11    1    4    4    0    0  0.17449220121E-01 -0.41120930917E-01  0.41194061889E-01  0.60766916149E-01  0.51100000000E-03 0.  1.
         11    1    4    4    0    0  0.20118912482E-01 -0.28844917394E-01  0.58000566009E-01  0.67831605298E-01  0.51100000000E-03 0. -1.
</event>
<event>
 8    1  0.1092993E+005  0.1043930E+01  0.7957747E-01            NaN
         13   -1    0    0    0    0  0.00000000000E+00  0.00000000000E+00  0.74505805969E-08  0.10566000000E+00  0.10566000000E+00 0.  1.
     999900   -1    0    0    0    0 -0.00000000000E+00 -0.00000000000E+00 -0.74505805969E-08  0.93827000000E+00  0.93827000000E+00 0. -1.
     999902    2    1    2    0    0  0.32866109565E-02 -0.22928347005E-01  0.60917362401E-02  0.10199796314E+01  0.10196984006E+01 0.  0.
     999903    2    3    3    0    0 -0.61510246343E-01 -0.11407775998E+00 -0.19192078437E-01  0.13254167888E+00  0.20042830107E-01 0.  0.
         14    1    1    2    0    0 -0.32866109565E-02  0.22928347005E-01 -0.60917362401E-02  0.23950368648E-01  0.00000000000E+00 0. -1.
     999901    1    3    3    0    0  0.64796857299E-01  0.91149412974E-01  0.25283814677E-01  0.88743795247E+00  0.88000000000E+00 0.  1.
        -11    1    4    4    0    0 -0.21813088263E-01 -0.59224760855E-01 -0.13857129823E-01  0.64619380110E-01  0.51100000000E-03 0.  1.
         11    1    4    4    0    0 -0.39697158080E-01 -0.54852999125E-01 -0.53349486135E-02  0.67922298771E-01  0.51100000000E-03 0. -1.
</event>
<event>
 8    1  0.1092993E+005  0.1043930E+01  0.7957747E-01            NaN
         13   -1    0    0    0    0  0.00000000000E+00  0.00000000000E+00  0.74505805969E-08  0.10566000000E+00  0.10566000000E+00 0. -1.
     999900   -1    0    0    0    0 -0.00000000000E+00 -0.00000000000E+00 -0.74505805969E-08  0.93827000000E+00  0.93827000000E+00 0. -1.
     999902    2    1    2    0    0  0.23834029216E-02  0.20655129303E-01 -0.10522906008E-01  0.10206266413E+01  0.10203605708E+01 0.  0.
     999903    2    3    3    0    0 -0.87739257003E-01 -0.79164369797E-01  0.46796870858E-01  0.12856633893E+00  0.19343777287E-01 0.  0.
         14    1    1    2    0    0 -0.23834029216E-02 -0.20655129303E-01  0.10522906008E-01  0.23303358704E-01  0.00000000000E+00 0. -1.
     999901    1    3    3    0    0  0.90122659924E-01  0.99819499100E-01 -0.57319776866E-01  0.89206030236E+00  0.88000000000E+00 0. -1.
        -11    1    4    4    0    0 -0.42287763415E-01 -0.25453916958E-01  0.18021819919E-01  0.52547159175E-01  0.51100000000E-03 0. -1.
         11    1    4    4    0    0 -0.45451493588E-01 -0.53710452840E-01  0.28775050939E-01  0.76019179758E-01  0.51100000000E-03 0.  1.
</event>
<event>
 8    1  0.1092993E+005  0.1043930E+01  0.7957747E-01            NaN
         13   -1    0    0    0    0  0.00000000000E+00  0.00000000000E+00  0.74505805969E-08  0.10566000000E+00  0.10566000000E+00 0.  1.
     999900   -1    0    0    0    0 -0.00000000000E+00 -0.00000000000E+00 -0.74505805969E-08  0.93827000000E+00  0.93827000000E+00 0. -1.
     999902    2    1    2    0    0 -0.23052140585E-01  0.41123115167E-02 -0.13816231644E-02  0.10204732062E+01  0.10202035794E+01 0.  0.
     999903    2    3    3    0    0 -0.42920182621E-01  0.74265235051E-01 -0.98624712741E-01  0.13211945335E+00  0.19267817144E-01 0.  0.
         14    1    1    2    0    0  0.23052140585E-01 -0.41123115167E-02  0.13816231644E-02  0.23456793774E-01  0.00000000000E+00 0. -1.
     999901    1    3    3    0    0  0.19868042035E-01 -0.70152923534E-01  0.97243089577E-01  0.88835375287E+00  0.88000000000E+00 0.  1.
        -11    1    4    4    0    0 -0.25408107097E-01  0.27396679325E-01 -0.35226658619E-01  0.51354927152E-01  0.51100000000E-03 0.  1.
         11    1    4    4    0    0 -0.17512075524E-01  0.46868555726E-01 -0.63398054122E-01  0.80764526201E-01  0.51100000000E-03 0. -1.
</event>
<event>
 8    1  0.1092993E+005  0.1043930E+01  0.7957747E-01            NaN
         13   -1    0    0    0    0  0.00000000000E+00  0.00000000000E+00  0.74505805969E-08  0.10566000000E+00  0.10566000000E+00 0. -1.
     999900   -1    0    0    0    0 -0.00000000000E+00 -0.00000000000E+00 -0.74505805969E-08  0.93827000000E+00  0.93827000000E+00 0. -1.
     999902    2    1    2    0    0 -0.29026097869E-02  0.47174079289E-02 -0.23730011516E-01  0.10195621415E+01  0.10192709001E+01 0.  0.
     999903    2    3    3    0    0 -0.59192717918E-01 -0.11053817526E+00 -0.27700098394E-01  0.13025444036E+00  0.21827911857E-01 0.  0.
         14    1    1    2    0    0  0.29026097869E-02 -0.47174079289E-02  0.23730011516E-01  0.24367858496E-01  0.00000000000E+00 0. -1.
     999901    1    3    3    0    0  0.56290108131E-01  0.11525558319E+00  0.39700868783E-02  0.88930770115E+00  0.88000000000E+00 0.  1.
        -11    1    4    4    0    0 -0.36292403122E-01 -0.48017788409E-01 -0.18907434165E-01  0.63091986146E-01  0.51100000000E-03 0. -1.
         11    1    4    4    0    0 -0.22900314796E-01 -0.62520386856E-01 -0.87926642295E-02  0.67162454210E-01  0.51100000000E-03 0.  1.
</event>
<event>
 8    1  0.1092993E+005  0.1043930E+01  0.7957747E-01            NaN
         13   -1    0    0    0    0  0.00000000000E+00  0.00000000000E+00  0.74505805969E-08  0.10566000000E+00  0.10566000000E+00 0.  1.
     999900   -1    0    0    0    0 -0.00000000000E+00 -0.00000000000E+00 -0.74505805969E-08  0.93827000000E+00  0.93827000000E+00 0. -1.
     999902    2    1    2    0    0  0.33724616777E-02 -0.22683657215E-01 -0.53735796680E-02  0.10203758674E+01  0.10201039720E+01 0.  0.
     999903    2    3    3    0    0  0.59344644263E-01  0.32127745747E-01  0.10874915183E+00  0.12955536197E+00  0.20105594801E-01 0.  0.
         14    1    1    2    0    0 -0.33724616777E-02  0.22683657215E-01  0.53735796680E-02  0.23554132564E-01  0.00000000000E+00 0.  1.
     999901    1    3    3    0    0 -0.55972182585E-01 -0.54811402962E-01 -0.11412273149E+00  0.89082050547E+00  0.88000000000E+00 0. -1.
        -11    1    4    4    0    0  0.10235529573E-02  0.53808278318E-02  0.14770988811E-01  0.15762112811E-01  0.51100000000E-03 0.  1.
         11    1    4    4    0    0  0.58321091305E-01  0.26746917915E-01  0.93978163015E-01  0.11379324916E+00  0.51100000000E-03 0. -1.
</event>
<event>
 8    1  0.1092993E+005  0.1043930E+01  0.7957747E-01            NaN
         13   -1    0    0    0    0  0.00000000000E+00  0.00000000000E+00  0.74505805969E-08  0.10566000000E+00  0.10566000000E+00 0.  1.
     999900   -1    0    0    0    0 -0.00000000000E+00 -0.00000000000E+00 -0.74505805969E-08  0.93827000000E+00  0.93827000000E+00 0.  1.
     999902    2    1    2    0    0  0.21202222597E-01 -0.12699599621E-02  0.89363784448E-02  0.10208864347E+01  0.10206263306E+01 0.  0.
     999903    2    3    3    0    0  0.10628775365E+00  0.73749383954E-01  0.26023150434E-01  0.13344099564E+00  0.19830197941E-01 0.  0.
         14    1    1    2    0    0 -0.21202222597E-01  0.12699599621E-02 -0.89363784448E-02  0.23043565286E-01  0.00000000000E+00 0. -1.
     999901    1    3    3    0    0 -0.85085531048E-01 -0.75019343916E-01 -0.17086771989E-01  0.88744543907E+00  0.88000000000E+00 0. -1.
        -11    1    4    4    0    0  0.56383967496E-01  0.43183668128E-01  0.23697771177E-01  0.74872067311E-01  0.51100000000E-03 0. -1.
         11    1    4    4    0    0  0.49903786150E-01  0.30565715826E-01  0.23253792569E-02  0.58568928330E-01  0.51100000000E-03 0.  1.
</event>
<event>
 8    1  0.1092993E+005  0.1043930E+01  0.7957747E-01            NaN
         13   -1    0    0    0    0  0.00000000000E+00  0.00000000000E+00  0.74505805969E-08  0.10566000000E+00  0.10566000000E+00 0.  1.
     999900   -1    0    0    0    0 -0.00000000000E+00 -0.00000000000E+00 -0.74505805969E-08  0.93827000000E+00  0.93827000000E+00 0.  1.
     999902    2    1    2    0    0 -0.24018537362E-02  0.95027698705E-02  0.22050461225E-01  0.10197992235E+01  0.10195136889E+01 0.  0.
     999903    2    3    3    0    0 -0.14779116407E-01 -0.12250933815E+00 -0.29425566656E-01  0.12837891028E+00  0.19705847233E-01 0.  0.
         14    1    1    2    0    0  0.24018537362E-02 -0.95027698705E-02 -0.22050461225E-01  0.24130776548E-01  0.00000000000E+00 0. -1.
     999901    1    3    3    0    0  0.12377262671E-01  0.13201210802E+00  0.51476027880E-01  0.89142031318E+00  0.88000000000E+00 0. -1.
        -11    1    4    4    0    0 -0.81614167064E-02 -0.26994619054E-01  0.27608692435E-04  0.28206028855E-01  0.51100000000E-03 0. -1.
         11    1    4    4    0    0 -0.66176997007E-02 -0.95514719096E-01 -0.29453175348E-01  0.10017288142E+00  0.51100000000E-03 0.  1.
</event>
<event>
 8    1  0.1092993E+005  0.1043930E+01  0.7957747E-01            NaN
         13   -1    0    0    0    0  0.00000000000E+00  0.00000000000E+00  0.74505805969E-08  0.10566000000E+00  0.10566000000E+00 0. -1.
     999900   -1    0    0    0    0 -0.00000000000E+00 -0.00000000000E+00 -0.74505805969E-08  0.93827000000E+00  0.93827000000E+00 0. -1.
     999902    2    1    2    0    0  0.95046754659E-03  0.22501224211E-01 -0.55496767133E-02  0.10207350137E+01  0.10204714404E+01 0.  0.
     999903    2    3    3    0    0 -0.23693010605E-01  0.44643634820E-01 -0.12092496338E+00  0.13258578964E+00  0.20043252350E-01 0.  0.
         14    1    1    2    0    0 -0.95046754659E-03 -0.22501224211E-01  0.55496767133E-02  0.23194986337E-01  0.00000000000E+00 0. -1.
     999901    1    3    3    0    0  0.24643478151E-01 -0.22142410609E-01  0.11537528666E+00  0.88814922402E+00  0.88000000000E+00 0.  1.
        -11    1    4    4    0    0 -0.20698485714E-01  0.22105605727E-01 -0.83137240203E-01  0.88482466879E-01  0.51100000000E-03 0. -1.
         11    1    4    4    0    0 -0.29945248910E-02  0.22538029093E-01 -0.37787723174E-01  0.44103322759E-01  0.51100000000E-03 0.  1.
</event>
<event>
 8    1  0.1092993E+005  0.1043930E+01  0.7957747E-01            NaN
         13   -1    0    0    0    0  0.00000000000E+00  0.00000000000E+00  0.74505805969E-08  0.10566000000E+00  0.10566000000E+00 0. -1.
     999900   -1    0    0    0    0 -0.00000000000E+00 -0.00000000000E+00 -0.74505805969E-08  0.93827000000E+00  0.93827000000E+00 0. -1.
     999902    2    1    2    0    0  0.34099005568E-02  0.20038712056E-01  0.10963636662E-01  0.10208350064E+01  0.10205737266E+01 0.  0.
     999903    2    3    3    0    0 -0.93991931851E-01 -0.85759214081E-01  0.94089087158E-02  0.12916088690E+00  0.20121657180E-01 0.  0.
         14    1    1    2    0    0 -0.34099005568E-02 -0.20038712056E-01 -0.10963636662E-01  0.23094993647E-01  0.00000000000E+00 0.  1.
     999901    1    3    3    0    0  0.97401832407E-01  0.10579792614E+00  0.15547279462E-02  0.89167411946E+00  0.88000000000E+00 0.  1.
        -11    1    4    4    0    0 -0.64360968275E-01 -0.61064942132E-01 -0.25992668070E-02  0.88759668228E-01  0.51100000000E-03 0.  1.
         11    1    4    4    0    0 -0.29630963575E-01 -0.24694271949E-01  0.12008175523E-01  0.40401218668E-01  0.51100000000E-03 0. -1.
</event>
<event>
 8    1  0.1092993E+005  0.1043930E+01  0.7957747E-01            NaN
         13   -1    0    0    0    0  0.00000000000E+00  0.00000000000E+00  0.74505805969E-08  0.10566000000E+00  0.10566000000E+00 0. -1.
     999900   -1    0    0    0    0 -0.00000000000E+00 -0.00000000000E+00 -0.74505805969E-08  0.93827000000E+00  0.93827000000E+00 0. -1.
     999902    2    1    2    0    0 -0.21130632679E-01  0.93280072008E-02  0.60398255662E-02  0.10200554351E+01  0.10197760028E+01 0.  0.
     999903    2    3    3    0    0  0.12279290175E+00 -0.21013480142E-01  0.20128957838E-01  0.12773649366E+00  0.19793276680E-01 0.  0.
         14    1    1    2    0    0  0.21130632679E-01 -0.93280072008E-02 -0.60398255662E-02  0.23874564889E-01  0.00000000000E+00 0.  1.
     999901    1    3    3    0    0 -0.14392353443E+00  0.30341487343E-01 -0.14089132271E-01  0.89231894145E+00  0.88000000000E+00 0.  1.
        -11    1    4    4    0    0  0.38049215265E-01 -0.10407421702E-01 -0.20299010256E-02  0.39502390155E-01  0.51100000000E-03 0. -1.
         11    1    4    4    0    0  0.84743686486E-01 -0.10606058440E-01  0.22158858863E-01  0.88234103509E-01  0.51100000000E-03 0.  1.
</event>
<event>
 8    1  0.1092993E+005  0.1043930E+01  0.7957747E-01            NaN
         13   -1    0    0    0    0  0.00000000000E+00  0.00000000000E+00  0.74505805969E-08  0.10566000000E+00  0.10566000000E+00 0.  1.
     999900   -1    0    0    0    0 -0.00000000000E+00 -0.00000000000E+00 -0.74505805969E-08  0.93827000000E+00  0.93827000000E+00 0. -1.
     999902    2    1    2    0    0 -0.21419124426E-01 -0.81867819723E-02 -0.53255079349E-02  0.10203893262E+01  0.10201177450E+01 0.  0.
     999903    2    3    3    0    0 -0.65309618070E-01  0.83935046207E-01  0.73114594853E-01  0.13102682617E+00  0.22624035918E-01 0.  0.
         14    1    1    2    0    0  0.21419124426E-01  0.81867819723E-02  0.53255079349E-02  0.23540673843E-01  0.00000000000E+00 0.  1.
     999901    1    3    3    0    0  0.43890493644E-01 -0.92121828179E-01 -0.78440102788E-01  0.88936249999E+00  0.88000000000E+00 0.  1.
        -11    1    4    4    0    0 -0.27466116864E-01  0.52454369478E-01  0.35146786050E-01  0.68857869147E-01  0.51100000000E-03 0.  1.
         11    1    4    4    0    0 -0.37843501205E-01  0.31480676730E-01  0.37967808803E-01  0.62168957022E-01  0.51100000000E-03 0. -1.
</event>
<event>
 8    1  0.1092993E+005  0.1043930E+01  0.7957747E-01            NaN
         13   -1    0    0    0    0  0.00000000000E+00  0.00000000000E+00  0.74505805969E-08  0.10566000000E+00  0.10566000000E+00 0. -1.
     999900   -1    0    0    0    0 -0.00000000000E+00 -0.00000000000E+00 -0.74505805969E-08  0.93827000000E+00  0.93827000000E+00 0. -1.
     999902    2    1    2    0    0 -0.33458493503E-02  0.40262607576E-02 -0.23258179645E-01  0.10200899412E+01  0.10198113255E+01 0.  0.
     999903    2    3    3    0    0  0.10438092641E+00  0.36112746204E-01  0.65297731736E-01  0.12853133392E+00  0.75499531051E-02 0.  0.
         14    1    1    2    0    0  0.33458493503E-02 -0.40262607576E-02  0.23258179645E-01  0.23840058808E-01  0.00000000000E+00 0. -1.
     999901    1    3    3    0    0 -0.10772677576E+00 -0.32086485447E-01 -0.88555911381E-01  0.89155860727E+00  0.88000000000E+00 0. -1.
        -11    1    4    4    0    0  0.45543154083E-01  0.17770538147E-01  0.32601173645E-01  0.58762816082E-01  0.51100000000E-03 0.  1.
         11    1    4    4    0    0  0.58837772329E-01  0.18342208057E-01  0.32696558091E-01  0.69768517835E-01  0.51100000000E-03 0. -1.
</event>
<event>
 8    1  0.1092993E+005  0.1043930E+01  0.7957747E-01            NaN
         13   -1    0    0    0    0  0.00000000000E+00  0.00000000000E+00  0.74505805969E-08  0.10566000000E+00  0.10566000000E+00 0. -1.
     999900   -1    0    0    0    0 -0.00000000000E+00 -0.00000000000E+00 -0.74505805969E-08  0.93827000000E+00  0.93827000000E+00 0.  1.
     999902    2    1    2    0    0  0.10753114647E-01 -0.10555860386E-01 -0.18682450941E-01  0.10199281327E+01  0.10196456768E+01 0.  0.
     999903    2    3    3    0    0  0.39689842618E-01  0.99879990892E-01  0.67390387222E-01  0.12838904493E+00  0.19773375513E-01 0.  0.
         14    1    1    2    0    0 -0.10753114647E-01  0.10555860386E-01  0.18682450941E-01  0.24001867349E-01  0.00000000000E+00 0. -1.
     999901    1    3    3    0    0 -0.28936727971E-01 -0.11043585128E+00 -0.86072838162E-01  0.89153908773E+00  0.88000000000E+00 0.  1.
        -11    1    4    4    0    0  0.16867307054E-01  0.21326717496E-01  0.12908057253E-01  0.30103388338E-01  0.51100000000E-03 0. -1.
         11    1    4    4    0    0  0.22822535564E-01  0.78553273397E-01  0.54482329969E-01  0.98285656587E-01  0.51100000000E-03 0.  1.
</event>
<event>
 8    1  0.1092993E+005  0.1043930E+01  0.7957747E-01            NaN
         13   -1    0    0    0    0  0.00000000000E+00  0.00000000000E+00  0.74505805969E-08  0.10566000000E+00  0.10566000000E+00 0.  1.
     999900   -1    0    0    0    0 -0.00000000000E+00 -0.00000000000E+00 -0.74505805969E-08  0.93827000000E+00  0.93827000000E+00 0.  1.
     999902    2    1    2    0    0  0.11316123680E-02  0.16490213601E-01  0.16944056957E-01  0.10202591581E+01  0.10199845297E+01 0.  0.
     999903    2    3    3    0    0 -0.11585054030E-01  0.56185055117E-01 -0.11428008919E+00  0.12955316249E+00  0.20811276533E-01 0.  0.
         14    1    1    2    0    0 -0.11316123680E-02 -0.16490213601E-01 -0.16944056957E-01  0.23670841922E-01  0.00000000000E+00 0. -1.
     999901    1    3    3    0    0  0.12716666398E-01 -0.39694841517E-01  0.13122414614E+00  0.89070599559E+00  0.88000000000E+00 0. -1.
        -11    1    4    4    0    0 -0.17020639397E-01  0.46098347868E-01 -0.86257939140E-01  0.99274634360E-01  0.51100000000E-03 0. -1.
         11    1    4    4    0    0  0.54355853665E-02  0.10086707249E-01 -0.28022150047E-01  0.30278528129E-01  0.51100000000E-03 0.  1.
</event>
<event>
 8    1  0.1092993E+005  0.1043930E+01  0.7957747E-01            NaN
         13   -1    0    0    0    0  0.00000000000E+00  0.00000000000E+00  0.74505805969E-08  0.10566000000E+00  0.10566000000E+00 0. -1.
     999900   -1    0    0    0    0 -0.00000000000E+00 -0.00000000000E+00 -0.74505805969E-08  0.93827000000E+00  0.93827000000E+00 0.  1.
     999902    2    1    2    0    0 -0.19085180179E-01  0.11059584418E-01  0.62618733172E-02  0.10210003343E+01  0.10207428242E+01 0.  0.
     999903    2    3    3    0    0  0.99597095768E-01  0.41835448454E-01  0.69958342841E-01  0.13021984698E+00  0.19830597091E-01 0.  0.
         14    1    1    2    0    0  0.19085180179E-01 -0.11059584418E-01 -0.62618733172E-02  0.22929665663E-01  0.00000000000E+00 0.  1.
     999901    1    3    3    0    0 -0.11868227595E+00 -0.30775864036E-01 -0.63696469524E-01  0.89078048736E+00  0.88000000000E+00 0. -1.
        -11    1    4    4    0    0  0.44281894170E-01  0.13537997998E-01  0.40215875913E-01  0.61333036265E-01  0.51100000000E-03 0. -1.
         11    1    4    4    0    0  0.55315201598E-01  0.28297450456E-01  0.29742466929E-01  0.68886810712E-01  0.51100000000E-03 0.  1.
</event>
<event>
 8    1  0.1092993E+005  0.1043930E+01  0.7957747E-01            NaN
         13   -1    0    0    0    0  0.00000000000E+00  0.00000000000E+00  0.74505805969E-08  0.10566000000E+00  0.10566000000E+00 0.  1.
     999900   -1    0    0    0    0 -0.00000000000E+00 -0.00000000000E+00 -0.74505805969E-08  0.93827000000E+00  0.93827000000E+00 0.  1.
     999902    2    1    2    0    0  0.13307041331E-01 -0.19427893915E-01  0.17876197784E-01  0.10143651753E+01  0.10139342336E+01 0.  0.
     999903    2    3    3    0    0  0.24418908581E-01  0.86139149523E-01  0.85494365090E-01  0.12541068222E+00  0.20057830802E-01 0.  0.
         14    1    1    2    0    0 -0.13307041331E-01  0.19427893915E-01 -0.17876197784E-01  0.29564824677E-01  0.00000000000E+00 0. -1.
     999901    1    3    3    0    0 -0.11111867250E-01 -0.10556704344E+00 -0.67618167306E-01  0.88895449310E+00  0.88000000000E+00 0.  1.
        -11    1    4    4    0    0  0.25021189490E-01  0.54172324935E-01  0.52814731236E-01  0.79689131435E-01  0.51100000000E-03 0.  1.
         11    1    4    4    0    0 -0.60228090938E-03  0.31966824588E-01  0.32679633854E-01  0.45721550787E-01  0.51100000000E-03 0. -1.
</event>
<event>
 8    1  0.1092993E+005  0.1043930E+01  0.7957747E-01            NaN
         13   -1    0    0    0    0  0.00000000000E+00  0.00000000000E+00  0.74505805969E-08  0.10566000000E+00  0.10566000000E+00 0.  1.
     999900   -1    0    0    0    0 -0.00000000000E+00 -0.00000000000E+00 -0.74505805969E-08  0.93827000000E+00  0.93827000000E+00 0.  1.
     999902    2    1    2    0    0  0.18535227845E-01 -0.31908289576E-02 -0.12760297776E-01  0.10212020159E+01  0.10209490663E+01 0.  0.
     999903    2    3    3    0    0 -0.93648691815E-01 -0.40414072444E-01 -0.79440482717E-01  0.13079927068E+00  0.19856590469E-01 0.  0.
         14    1    1    2    0    0 -0.18535227845E-01  0.31908289576E-02  0.12760297776E-01  0.22727984073E-01  0.00000000000E+00 0.  1.
     999901    1    3    3    0    0  0.11218391966E+00  0.37223243487E-01  0.66680184941E-01  0.89040274525E+00  0.88000000000E+00 0. -1.
        -11    1    4    4    0    0 -0.38269961549E-01 -0.24172571931E-01 -0.26335449411E-01  0.52370986313E-01  0.51100000000E-03 0. -1.
         11    1    4    4    0    0 -0.55378730266E-01 -0.16241500513E-01 -0.53105033306E-01  0.78428284363E-01  0.51100000000E-03 0.  1.
</event>
<event>
 8    1  0.1092993E+005  0.1043930E+01  0.7957747E-01            NaN
         13   -1    0    0    0    0  0.00000000000E+00  0.00000000000E+00  0.74505805969E-08  0.10566000000E+00  0.10566000000E+00 0. -1.
     999900   -1    0    0    0    0 -0.00000000000E+00 -0.00000000000E+00 -0.74505805969E-08  0.93827000000E+00  0.93827000000E+00 0.  1.
     999902    2    1    2    0    0  0.12810188402E-01  0.10600978259E-01 -0.17326341216E-01  0.10199157591E+01  0.10196330084E+01 0.  0.
     999903    2    3    3    0    0  0.11486131391E+00  0.34595953553E-01  0.48132880028E-01  0.13127910628E+00  0.22965804388E-01 0.  0.
         14    1    1    2    0    0 -0.12810188402E-01 -0.10600978259E-01  0.17326341216E-01  0.24014240918E-01  0.00000000000E+00 0. -1.
     999901    1    3    3    0    0 -0.10205112551E+00 -0.23994975294E-01 -0.65459221244E-01  0.88863665280E+00  0.88000000000E+00 0. -1.
        -11    1    4    4    0    0  0.58995991997E-01  0.25285844735E-01  0.15967380084E-01  0.66144685073E-01  0.51100000000E-03 0.  1.
         11    1    4    4    0    0  0.55865321910E-01  0.93101088185E-02  0.32165499944E-01  0.65134421207E-01  0.51100000000E-03 0. -1.
</event>
<event>
 8    1  0.1092993E+005  0.1043930E+01  0.7957747E-01            NaN
         13   -1    0    0    0    0  0.00000000000E+00  0.00000000000E+00  0.74505805969E-08  0.10566000000E+00  0.10566000000E+00 0. -1.
     999900   -1    0    0    0    0 -0.00000000000E+00 -0.00000000000E+00 -0.74505805969E-08  0.93827000000E+00  0.93827000000E+00 0.  1.
     999902    2    1    2    0    0  0.12315078809E-01  0.15642577623E-01  0.13451963199E-01  0.10199027922E+01  0.10196197325E+01 0.  0.
     999903    2    3    3    0    0 -0.25263056819E-01 -0.67129159190E-01  0.10617424442E+00  0.13037443508E+00  0.24082713526E-01 0.  0.
         14    1    1    2    0    0 -0.12315078809E-01 -0.15642577623E-01 -0.13451963199E-01  0.24027207800E-01  0.00000000000E+00 0.  1.
     999901    1    3    3    0    0  0.37578135628E-01  0.82771736813E-01 -0.92722281217E-01  0.88952835712E+00  0.88000000000E+00 0.  1.
        -11    1    4    4    0    0 -0.14033123345E-01 -0.17194281122E-01  0.48020185351E-01  0.52903413654E-01  0.51100000000E-03 0.  1.
         11    1    4    4    0    0 -0.11229933474E-01 -0.49934878068E-01  0.58154059065E-01  0.77471021423E-01  0.51100000000E-03 0. -1.
</event>
<event>
 8    1  0.1092993E+005  0.1043930E+01  0.7957747E-01            NaN
         13   -1    0    0    0    0  0.00000000000E+00  0.00000000000E+00  0.74505805969E-08  0.10566000000E+00  0.10566000000E+00 0. -1.
     999900   -1    0    0    0    0 -0.00000000000E+00 -0.00000000000E+00 -0.74505805969E-08  0.93827000000E+00  0.93827000000E+00 0.  1.
     999902    2    1    2    0    0  0.70908868013E-02  0.12411752132E-01  0.19016543710E-01  0.10201400609E+01  0.10198626293E+01 0.  0.
     999903    2    3    3    0    0 -0.46233583421E-02 -0.20662137719E-02 -0.12611665894E+00  0.12805795621E+00  0.21628310281E-01 0.  0.
         14    1    1    2    0    0 -0.70908868013E-02 -0.12411752132E-01 -0.19016543710E-01  0.23789939077E-01  0.00000000000E+00 0. -1.
     999901    1    3    3    0    0  0.11714245143E-01  0.14477965904E-01  0.14513320265E+00  0.89208210471E+00  0.88000000000E+00 0. -1.
        -11    1    4    4    0    0  0.85950607981E-03  0.88113381584E-02 -0.33977390633E-01  0.35115561024E-01  0.51100000000E-03 0.  1.
         11    1    4    4    0    0 -0.54828644219E-02 -0.10877551930E-01 -0.92139268305E-01  0.92942395187E-01  0.51100000000E-03 0. -1.
</event>
<event>
 8    1  0.1092993E+005  0.1043930E+01  0.7957747E-01            NaN
         13   -1    0    0    0    0  0.00000000000E+00  0.00000000000E+00  0.74505805969E-08  0.10566000000E+00  0.10566000000E+00 0. -1.
     999900   -1    0    0    0    0 -0.00000000000E+00 -0.00000000000E+00 -0.74505805969E-08  0.93827000000E+00  0.93827000000E+00 0. -1.
     999902    2    1    2    0    0 -0.20824762162E-01 -0.99437226683E-02  0.42300620804E-02  0.10204685046E+01  0.10201987685E+01 0.  0.
     999903    2    3    3    0    0 -0.57237205192E-01 -0.49238699002E-01 -0.10635552343E+00  0.13193086734E+00  0.19842108131E-01 0.  0.
         14    1    1    2    0    0  0.20824762162E-01  0.99437226683E-02 -0.42300620804E-02  0.23461495366E-01  0.00000000000E+00 0.  1.
     999901    1    3    3    0    0  0.36412443030E-01  0.39294976333E-01  0.11058558551E+00  0.88853763730E+00  0.88000000000E+00 0.  1.
        -11    1    4    4    0    0 -0.36095628383E-01 -0.28933469195E-01 -0.80469899611E-01  0.92820826825E-01  0.51100000000E-03 0.  1.
         11    1    4    4    0    0 -0.21141576809E-01 -0.20305229806E-01 -0.25885623816E-01  0.39110040511E-01  0.51100000000E-03 0. -1.
</event>
<event>
 8    1  0.1092993E+005  0.1043930E+01  0.7957747E-01            NaN
         13   -1    0    0    0    0  0.00000000000E+00  0.00000000000E+00  0.74505805969E-08  0.10566000000E+00  0.10566000000E+00 0. -1.
     999900   -1    0    0    0    0 -0.00000000000E+00 -0.00000000000E+00 -0.74505805969E-08  0.93827000000E+00  0.93827000000E+00 0. -1.
     999902    2    1    2    0    0 -0.18651147359E-01 -0.87520120382E-02  0.95605265425E-02  0.10212173013E+01  0.10209646957E+01 0.  0.
     999903    2    3    3    0    0 -0.12980311815E+00 -0.16454428672E-01  0.21390443593E-01  0.13411300377E+00  0.20227431849E-01 0.  0.
         14    1    1    2    0    0  0.18651147359E-01  0.87520120382E-02 -0.95605265425E-02  0.22712698657E-01  0.00000000000E+00 0. -1.
     999901    1    3    3    0    0  0.11115197079E+00  0.77024166340E-02 -0.11829917051E-01  0.88710429757E+00  0.88000000000E+00 0. -1.
        -11    1    4    4    0    0 -0.56034971290E-01 -0.16538064330E-01  0.58031120781E-02  0.58714247079E-01  0.51100000000E-03 0.  1.
         11    1    4    4    0    0 -0.73768146859E-01  0.83635657897E-04  0.15587331515E-01  0.75398756692E-01  0.51100000000E-03 0. -1.
</event>
<event>
 8    1  0.1092993E+005  0.1043930E+01  0.7957747E-01            NaN
         13   -1    0    0    0    0  0.00000000000E+00  0.00000000000E+00  0.74505805969E-08  0.10566000000E+00  0.10566000000E+00 0.  1.
     999900   -1    0    0    0    0 -0.00000000000E+00 -0.00000000000E+00 -0.74505805969E-08  0.93827000000E+00  0.93827000000E+00 0. -1.
     999902    2    1    2    0    0 -0.86730162810E-02 -0.44000580450E-02  0.19635327440E-01  0.10220181811E+01  0.10217832621E+01 0.  0.
     999903    2    3    3    0    0 -0.40581306582E-01  0.11048985205E+00  0.58826626901E-01  0.13311223089E+00  0.20085918703E-01 0.  0.
         14    1    1    2    0    0  0.86730162810E-02  0.44000580450E-02 -0.19635327440E-01  0.21911818863E-01  0.00000000000E+00 0. -1.
     999901    1    3    3    0    0  0.31908290301E-01 -0.11488991009E+00 -0.39191299461E-01  0.88890595025E+00  0.88000000000E+00 0. -1.
        -11    1    4    4    0    0 -0.30769948841E-01  0.62023883384E-01  0.41442875925E-01  0.80694020520E-01  0.51100000000E-03 0.  1.
         11    1    4    4    0    0 -0.98113577412E-02  0.48465968666E-01  0.17383750976E-01  0.52418210370E-01  0.51100000000E-03 0. -1.
</event>
<event>
 8    1  0.1092993E+005  0.1043930E+01  0.7957747E-01            NaN
         13   -1    0    0    0    0  0.00000000000E+00  0.00000000000E+00  0.74505805969E-08  0.10566000000E+00  0.10566000000E+00 0. -1.
     999900   -1    0    0    0    0 -0.00000000000E+00 -0.00000000000E+00 -0.74505805969E-08  0.93827000000E+00  0.93827000000E+00 0.  1.
     999902    2    1    2    0    0 -0.10037406512E-01  0.14270832102E-01  0.41001314833E-02  0.10260074651E+01  0.10258509157E+01 0.  0.
     999903    2    3    3    0    0 -0.50061194112E-01  0.12499988754E+00 -0.19788069889E-01  0.13784448826E+00  0.21873275797E-01 0.  0.
         14    1    1    2    0    0  0.10037406512E-01 -0.14270832102E-01 -0.41001314833E-02  0.17922534881E-01  0.00000000000E+00 0.  1.
     999901    1    3    3    0    0  0.40023787600E-01 -0.11072905544E+00  0.23888201373E-01  0.88816297686E+00  0.88000000000E+00 0. -1.
        -11    1    4    4    0    0 -0.28931583827E-01  0.56978576637E-01 -0.18782301656E-01  0.66608037914E-01  0.51100000000E-03 0. -1.
         11    1    4    4    0    0 -0.21129610285E-01  0.68021310902E-01 -0.10057682328E-02  0.71236450349E-01  0.51100000000E-03 0.  1.
</event>
<event>
 8    1  0.1092993E+005  0.1043930E+01  0.7957747E-01            NaN
         13   -1    0    0    0    0  0.00000000000E+00  0.00000000000E+00  0.74505805969E-08  0.10566000000E+00  0.10566000000E+00 0. -1.
     999900   -1    0    0    0    0 -0.00000000000E+00 -0.00000000000E+00 -0.74505805969E-08  0.93827000000E+00  0.93827000000E+00 0. -1.
     999902    2    1    2    0    0  0.58698066589E-02  0.23209592646E-01 -0.18680640816E-02  0.10199168893E+01  0.10196341656E+01 0.  0.
     999903    2    3    3    0    0  0.46804014578E-01 -0.36024942962E-01  0.11345980745E+00  0.12947606729E+00  0.20062696681E-01 0.  0.
         14    1    1    2    0    0 -0.58698066589E-02 -0.23209592646E-01  0.18680640816E-02  0.24013110678E-01  0.00000000000E+00 0. -1.
     999901    1    3    3    0    0 -0.40934207919E-01  0.59234535608E-01 -0.11532787153E+00  0.89044082203E+00  0.88000000000E+00 0. -1.
        -11    1    4    4    0    0  0.27774476595E-01 -0.21727041298E-01  0.87031551648E-01  0.93905473627E-01  0.51100000000E-03 0.  1.
         11    1    4    4    0    0  0.19029537983E-01 -0.14297901663E-01  0.26428255804E-01  0.35570593664E-01  0.51100000000E-03 0. -1.
</event>
<event>
 8    1  0.1092993E+005  0.1043930E+01  0.7957747E-01            NaN
         13   -1    0    0    0    0  0.00000000000E+00  0.00000000000E+00  0.74505805969E-08  0.10566000000E+00  0.10566000000E+00 0.  1.
     999900   -1    0    0    0    0 -0.00000000000E+00 -0.00000000000E+00 -0.74505805969E-08  0.93827000000E+00  0.93827000000E+00 0. -1.
     999902    2    1    2    0    0 -0.99251508934E-02  0.19891352357E-01 -0.14130222865E-02  0.10216551004E+01  0.10214122444E+01 0.  0.
     999903    2    3    3    0    0  0.27355806085E-01  0.62473110211E-01 -0.11229717932E+00  0.13289283068E+00  0.19965428538E-01 0.  0.
         14    1    1    2    0    0  0.99251508934E-02 -0.19891352357E-01  0.14130222865E-02  0.22274899569E-01  0.00000000000E+00 0.  1.
     999901    1    3    3    0    0 -0.37280956979E-01 -0.42581757854E-01  0.11088415703E+00  0.88876226975E+00  0.88000000000E+00 0.  1.
        -11    1    4    4    0    0  0.83049251978E-02  0.14066834195E-01 -0.13348481887E-01  0.21101912153E-01  0.51100000000E-03 0. -1.
         11    1    4    4    0    0  0.19050880887E-01  0.48406276015E-01 -0.98948697431E-01  0.11179091852E+00  0.51100000000E-03 0.  1.
</event>
<event>
 8    1  0.1092993E+005  0.1043930E+01  0.7957747E-01            NaN
         13   -1    0    0    0    0  0.00000000000E+00  0.00000000000E+00  0.74505805969E-08  0.10566000000E+00  0.10566000000E+00 0.  1.
     999900   -1    0    0    0    0 -0.00000000000E+00 -0.00000000000E+00 -0.74505805969E-08  0.93827000000E+00  0.93827000000E+00 0.  1.
     999902    2    1    2    0    0  0.52401156089E-02 -0.20736276908E-01 -0.37091198287E-02  0.10222226381E+01  0.10219921292E+01 0.  0.
     999903    2    3    3    0    0  0.42100924570E-01  0.92516547837E-01  0.79052153511E-01  0.13035137500E+00  0.20259282203E-01 0.  0.
         14    1    1    2    0    0 -0.52401156089E-02  0.20736276908E-01  0.37091198287E-02  0.21707361920E-01  0.00000000000E+00 0. -1.
     999901    1    3    3    0    0 -0.36860808961E-01 -0.11325282475E+00 -0.82761273339E-01  0.89187126308E+00  0.88000000000E+00 0.  1.
        -11    1    4    4    0    0  0.27023539466E-01  0.42316611774E-01  0.29595372362E-01  0.58284770769E-01  0.51100000000E-03 0.  1.
         11    1    4    4    0    0  0.15077385104E-01  0.50199936063E-01  0.49456781148E-01  0.72066604228E-01  0.51100000000E-03 0. -1.
</event>
<event>
 8    1  0.1092993E+005  0.1043930E+01  0.7957747E-01            NaN
         13   -1    0    0    0    0  0.00000000000E+00  0.00000000000E+00  0.74505805969E-08  0.10566000000E+00  0.10566000000E+00 0.  1.
     999900   -1    0    0    0    0 -0.00000000000E+00 -0.00000000000E+00 -0.74505805969E-08  0.93827000000E+00  0.93827000000E+00 0. -1.
     999902    2    1    2    0    0 -0.13047688901E-02  0.23090899434E-01  0.77242203741E-02  0.10195464884E+01  0.10192548682E+01 0.  0.
     999903    2    3    3    0    0  0.41296841342E-02  0.89072408481E-01 -0.94176923517E-01  0.13119580540E+00  0.19801469363E-01 0.  0.
         14    1    1    2    0    0  0.13047688901E-02 -0.23090899434E-01 -0.77242203741E-02  0.24383511620E-01  0.00000000000E+00 0. -1.
     999901    1    3    3    0    0 -0.54344530243E-02 -0.65981509047E-01  0.10190114389E+00  0.88835068297E+00  0.88000000000E+00 0.  1.
        -11    1    4    4    0    0  0.50748307080E-02  0.72940687115E-01 -0.64973252947E-01  0.97815553278E-01  0.51100000000E-03 0.  1.
         11    1    4    4    0    0 -0.94514657384E-03  0.16131721366E-01 -0.29203670570E-01  0.33380252127E-01  0.51100000000E-03 0. -1.
</event>
<event>
 8    1  0.1092993E+005  0.1043930E+01  0.7957747E-01            NaN
         13   -1    0    0    0    0  0.00000000000E+00  0.00000000000E+00  0.74505805969E-08  0.10566000000E+00  0.10566000000E+00 0. -1.
     999900   -1    0    0    0    0 -0.00000000000E+00 -0.00000000000E+00 -0.74505805969E-08  0.93827000000E+00  0.93827000000E+00 0.  1.
     999902    2    1    2    0    0  0.83805052169E-02  0.53317292108E-02 -0.20624889047E-01  0.10210379435E+01  0.10207812869E+01 0.  0.
     999903    2    3    3    0    0 -0.86133902788E-01  0.31590933360E-01 -0.93587800351E-01  0.13258642225E+00  0.20085982950E-01 0.  0.
         14    1    1    2    0    0 -0.83805052169E-02 -0.53317292108E-02  0.20624889047E-01  0.22892056532E-01  0.00000000000E+00 0. -1.
     999901    1    3    3    0    0  0.94514408005E-01 -0.26259204149E-01  0.72962911304E-01  0.88845152121E+00  0.88000000000E+00 0. -1.
        -11    1    4    4    0    0 -0.52002103838E-01  0.16578351774E-01 -0.68740098329E-01  0.87775411081E-01  0.51100000000E-03 0.  1.
         11    1    4    4    0    0 -0.34131798951E-01  0.15012581585E-01 -0.24847702022E-01  0.44811011172E-01  0.51100000000E-03 0. -1.
</event>
<event>
 8    1  0.1092993E+005  0.1043930E+01  0.7957747E-01            NaN
         13   -1    0    0    0    0  0.00000000000E+00  0.00000000000E+00  0.74505805969E-08  0.10566000000E+00  0.10566000000E+00 0.  1.
     999900   -1    0    0    0    0 -0.00000000000E+00 -0.00000000000E+00 -0.74505805969E-08  0.93827000000E+00  0.93827000000E+00 0. -1.
     999902    2    1    2    0    0 -0.57766833437E-02 -0.74226854590E-02 -0.20320000039E-01  0.10215387354E+01  0.10212933071E+01 0.  0.
     999903    2    3    3    0    0  0.56141118905E-01 -0.96692989375E-01 -0.69932275527E-01  0.13347095684E+00  0.20557571184E-01 0.  0.
         14    1    1    2    0    0  0.57766833437E-02  0.74226854590E-02  0.20320000039E-01  0.22391264624E-01  0.00000000000E+00 0.  1.
     999901    1    3    3    0    0 -0.61917802248E-01  0.89270303916E-01  0.49612275489E-01  0.88806777854E+00  0.88000000000E+00 0. -1.
        -11    1    4    4    0    0  0.21956902090E-01 -0.55667290925E-01 -0.31103149101E-01  0.67443456565E-01  0.51100000000E-03 0. -1.
         11    1    4    4    0    0  0.34184216814E-01 -0.41025698450E-01 -0.38829126426E-01  0.66027500275E-01  0.51100000000E-03 0.  1.
</event>
<event>
 8    1  0.1092993E+005  0.1043930E+01  0.7957747E-01            NaN
         13   -1    0    0    0    0  0.00000000000E+00  0.00000000000E+00  0.74505805969E-08  0.10566000000E+00  0.10566000000E+00 0.  1.
     999900   -1    0    0    0    0 -0.00000000000E+00 -0.00000000000E+00 -0.74505805969E-08  0.93827000000E+00  0.93827000000E+00 0. -1.
     999902    2    1    2    0    0 -0.11759979790E-01 -0.15227269911E-01  0.14760835777E-01  0.10196802753E+01  0.10193918848E+01 0.  0.
     999903    2    3    3    0    0 -0.24645866841E-01 -0.10155473430E+00  0.78773915598E-01  0.13304836096E+00  0.23994869555E-01 0.  0.
         14    1    1    2    0    0  0.11759979790E-01  0.15227269911E-01 -0.14760835777E-01  0.24249724668E-01  0.00000000000E+00 0. -1.
     999901    1    3    3    0    0  0.12885887051E-01  0.86327464387E-01 -0.64013079821E-01  0.88663191437E+00  0.88000000000E+00 0.  1.
        -11    1    4    4    0    0  0.22011047706E-02 -0.37735213014E-01  0.24167731650E-01  0.44867934403E-01  0.51100000000E-03 0.  1.
         11    1    4    4    0    0 -0.26846971611E-01 -0.63819521284E-01  0.54606183948E-01  0.88180426558E-01  0.51100000000E-03 0. -1.
</event>
<event>
 8    1  0.1092993E+005  0.1043930E+01  0.7957747E-01            NaN
         13   -1    0    0    0    0  0.00000000000E+00  0.00000000000E+00  0.74505805969E-08  0.10566000000E+00  0.10566000000E+00 0. -1.
     999900   -1    0    0    0    0 -0.00000000000E+00 -0.00000000000E+00 -0.74505805969E-08  0.93827000000E+00  0.93827000000E+00 0. -1.
     999902    2    1    2    0    0 -0.39771823520E-02  0.11873418840E-01 -0.19946756477E-01  0.10203785850E+01  0.10201067530E+01 0.  0.
     999903    2    3    3    0    0 -0.87691127941E-01  0.44873432202E-01  0.82132472070E-01  0.12991960534E+00  0.20736490669E-01 0.  0.
         14    1    1    2    0    0  0.39771823520E-02 -0.11873418840E-01  0.19946756477E-01  0.23551414997E-01  0.00000000000E+00 0. -1.
     999901    1    3    3    0    0  0.83713945589E-01 -0.33000013362E-01 -0.10207922855E+00  0.89045897967E+00  0.88000000000E+00 0. -1.
        -11    1    4    4    0    0 -0.51219481644E-01  0.35623933749E-01  0.43998911560E-01  0.76345695983E-01  0.51100000000E-03 0.  1.
         11    1    4    4    0    0 -0.36471646297E-01  0.92494984527E-02  0.38133560510E-01  0.53573909353E-01  0.51100000000E-03 0. -1.
</event>
<event>
 8    1  0.1092993E+005  0.1043930E+01  0.7957747E-01            NaN
         13   -1    0    0    0    0  0.00000000000E+00  0.00000000000E+00  0.74505805969E-08  0.10566000000E+00  0.10566000000E+00 0. -1.
     999900   -1    0    0    0    0 -0.00000000000E+00 -0.00000000000E+00 -0.74505805969E-08  0.93827000000E+00  0.93827000000E+00 0.  1.
     999902    2    1    2    0    0  0.15980882043E-01  0.89659284050E-02  0.16303966779E-01  0.10194025502E+01  0.10191074347E+01 0.  0.
     999903    2    3    3    0    0  0.12693261092E-01 -0.12561325362E+00 -0.12823116164E-01  0.12868893084E+00  0.21368206519E-01 0.  0.
         14    1    1    2    0    0 -0.15980882043E-01 -0.89659284050E-02 -0.16303966779E-01  0.24527449842E-01  0.00000000000E+00 0.  1.
     999901    1    3    3    0    0  0.32876209508E-02  0.13457918202E+00  0.29127082943E-01  0.89071361932E+00  0.88000000000E+00 0.  1.
        -11    1    4    4    0    0 -0.16881149177E-02 -0.37702235777E-01  0.42651346160E-02  0.37983691354E-01  0.51100000000E-03 0. -1.
         11    1    4    4    0    0  0.14381376010E-01 -0.87911017841E-01 -0.17088250780E-01  0.90705239482E-01  0.51100000000E-03 0.  1.
</event>
<event>
 8    1  0.1092993E+005  0.1043930E+01  0.7957747E-01            NaN
         13   -1    0    0    0    0  0.00000000000E+00  0.00000000000E+00  0.74505805969E-08  0.10566000000E+00  0.10566000000E+00 0.  1.
     999900   -1    0    0    0    0 -0.00000000000E+00 -0.00000000000E+00 -0.74505805969E-08  0.93827000000E+00  0.93827000000E+00 0. -1.
     999902    2    1    2    0    0 -0.10429554300E-01 -0.70313427766E-02 -0.20967060826E-01  0.10194793758E+01  0.10191861286E+01 0.  0.
     999903    2    3    3    0    0 -0.43495901495E-01  0.11132640619E+00 -0.50781651953E-01  0.13044009101E+00  0.12262911799E-01 0.  0.
         14    1    1    2    0    0  0.10429554300E-01  0.70313427766E-02  0.20967060826E-01  0.24450624201E-01  0.00000000000E+00 0.  1.
     999901    1    3    3    0    0  0.33066347194E-01 -0.11835774896E+00  0.29814591128E-01  0.88903928479E+00  0.88000000000E+00 0.  1.
        -11    1    4    4    0    0 -0.37992642602E-01  0.84422240307E-01 -0.41424979150E-01  0.10142408772E+00  0.51100000000E-03 0.  1.
         11    1    4    4    0    0 -0.55032588927E-02  0.26904165880E-01 -0.93566728035E-02  0.29016003293E-01  0.51100000000E-03 0. -1.
</event>
<event>
 8    1  0.1092993E+005  0.1043930E+01  0.7957747E-01            NaN
         13   -1    0    0    0    0  0.00000000000E+00  0.00000000000E+00  0.74505805969E-08  0.10566000000E+00  0.10566000000E+00 0.  1.
     999900   -1    0    0    0    0 -0.00000000000E+00 -0.00000000000E+00 -0.74505805969E-08  0.93827000000E+00  0.93827000000E+00 0. -1.
     999902    2    1    2    0    0  0.81941874419E-02  0.10723730318E-01 -0.16311819757E-01  0.10227588271E+01  0.10225396813E+01 0.  0.
     999903    2    3    3    0    0  0.11180002610E+00 -0.20761490820E-01 -0.69470149315E-01  0.13452952280E+00  0.18487983121E-01 0.  0.
         14    1    1    2    0    0 -0.81941874419E-02 -0.10723730318E-01  0.16311819757E-01  0.21171172937E-01  0.00000000000E+00 0. -1.
     999901    1    3    3    0    0 -0.10360583866E+00  0.31485221138E-01  0.53158329558E-01  0.88822930427E+00  0.88000000000E+00 0.  1.
        -11    1    4    4    0    0  0.17078887119E-01  0.18419918341E-02 -0.56178921904E-02  0.18080463291E-01  0.51100000000E-03 0.  1.
         11    1    4    4    0    0  0.94721138985E-01 -0.22603482654E-01 -0.63852257125E-01  0.11644905951E+00  0.51100000000E-03 0. -1.
</event>
<event>
 8    1  0.1092993E+005  0.1043930E+01  0.7957747E-01            NaN
         13   -1    0    0    0    0  0.00000000000E+00  0.00000000000E+00  0.74505805969E-08  0.10566000000E+00  0.10566000000E+00 0. -1.
     999900   -1    0    0    0    0 -0.00000000000E+00 -0.00000000000E+00 -0.74505805969E-08  0.93827000000E+00  0.93827000000E+00 0.  1.
     999902    2    1    2    0    0 -0.19503965156E-01  0.89326854269E-02 -0.62285629727E-02  0.10215918595E+01  0.10213476072E+01 0.  0.
     999903    2    3    3    0    0 -0.19626336289E-01 -0.56602008507E-02  0.12770859655E+00  0.13133789008E+00  0.22867548806E-01 0.  0.
         14    1    1    2    0    0  0.19503965156E-01 -0.89326854269E-02  0.62285629727E-02  0.22338140533E-01  0.00000000000E+00 0.  1.
     999901    1    3    3    0    0  0.12237113329E-03  0.14592886278E-01 -0.13393715952E+00  0.89025396939E+00  0.88000000000E+00 0.  1.
        -11    1    4    4    0    0 -0.22262899208E-01 -0.29129527308E-02  0.12393250360E+00  0.12595097675E+00  0.51100000000E-03 0. -1.
         11    1    4    4    0    0  0.26365629190E-02 -0.27472481199E-02  0.37760929466E-02  0.53869133277E-02  0.51100000000E-03 0.  1.
</event>
<event>
 8    1  0.1092993E+005  0.1043930E+01  0.7957747E-01            NaN
         13   -1    0    0    0    0  0.00000000000E+00  0.00000000000E+00  0.74505805969E-08  0.10566000000E+00  0.10566000000E+00 0. -1.
     999900   -1    0    0    0    0 -0.00000000000E+00 -0.00000000000E+00 -0.74505805969E-08  0.93827000000E+00  0.93827000000E+00 0. -1.
     999902    2    1    2    0    0  0.55429761256E-02 -0.31683499380E-01  0.13222625757E-01  0.10091534770E+01  0.10085540807E+01 0.  0.
     999903    2    3    3    0    0 -0.22643515556E-01 -0.52208583700E-01  0.10769722481E+00  0.12341016927E+00  0.19822024034E-01 0.  0.
         14    1    1    2    0    0 -0.55429761256E-02  0.31683499380E-01 -0.13222625757E-01  0.34776522960E-01  0.00000000000E+00 0. -1.
     999901    1    3    3    0    0  0.28186491682E-01  0.20525084320E-01 -0.94474599058E-01  0.88574330777E+00  0.88000000000E+00 0. -1.
        -11    1    4    4    0    0 -0.12738078165E-01 -0.27733306137E-01  0.77500639635E-01  0.83294688723E-01  0.51100000000E-03 0. -1.
         11    1    4    4    0    0 -0.99054373911E-02 -0.24475277563E-01  0.30196585179E-01  0.40115480543E-01  0.51100000000E-03 0.  1.
</event>
<event>
 8    1  0.1092993E+005  0.1043930E+01  0.7957747E-01            NaN
         13   -1    0    0    0    0  0.00000000000E+00  0.00000000000E+00  0.74505805969E-08  0.10566000000E+00  0.10566000000E+00 0.  1.
     999900   -1    0    0    0    0 -0.00000000000E+00 -0.00000000000E+00 -0.74505805969E-08  0.93827000000E+00  0.93827000000E+00 0. -1.
     999902    2    1    2    0    0 -0.77170120246E-02  0.21231789616E-01  0.62256110518E-02  0.10204971300E+01  0.10202280592E+01 0.  0.
     999903    2    3    3    0    0  0.43080312204E-01  0.82064173189E-01 -0.90513780298E-01  0.13165549229E+00  0.23451703663E-01 0.  0.
         14    1    1    2    0    0  0.77170120246E-02 -0.21231789616E-01 -0.62256110518E-02  0.23432870030E-01  0.00000000000E+00 0. -1.
     999901    1    3    3    0    0 -0.50797324228E-01 -0.60832383573E-01  0.96739391350E-01  0.88884163768E+00  0.88000000000E+00 0.  1.
        -11    1    4    4    0    0  0.70073030403E-02  0.15538167481E-01 -0.56850571287E-02  0.17975481638E-01  0.51100000000E-03 0.  1.
         11    1    4    4    0    0  0.36073009163E-01  0.66526005708E-01 -0.84828723170E-01  0.11368001065E+00  0.51100000000E-03 0. -1.
</event>
<event>
 8    1  0.1092993E+005  0.1043930E+01  0.7957747E-01            NaN
         13   -1    0    0    0    0  0.00000000000E+00  0.00000000000E+00  0.74505805969E-08  0.10566000000E+00  0.10566000000E+00 0.  1.
     999900   -1    0    0    0    0 -0.00000000000E+00 -0.00000000000E+00 -0.74505805969E-08  0.93827000000E+00  0.93827000000E+00 0.  1.
     999902    2    1    2    0    0 -0.16777433596E-01  0.17125988170E-01  0.56352482876E-03  0.10199487717E+01  0.10196668072E+01 0.  0.
     999903    2    3    3    0    0  0.33747556345E-01  0.95193411782E-01  0.82114129165E-01  0.13129934800E+00  0.17207712533E-01 0.  0.
         14    1    1    2    0    0  0.16777433596E-01 -0.17125988170E-01 -0.56352482876E-03  0.23981228265E-01  0.00000000000E+00 0.  1.
     999901    1    3    3    0    0 -0.50524989941E-01 -0.78067423612E-01 -0.81550604337E-01  0.88864942374E+00  0.88000000000E+00 0.  1.
        -11    1    4    4    0    0  0.22998948510E-01  0.42866783129E-01  0.44814793679E-01  0.66144837908E-01  0.51100000000E-03 0.  1.
         11    1    4    4    0    0  0.10748607836E-01  0.52326628653E-01  0.37299335486E-01  0.65154510091E-01  0.51100000000E-03 0. -1.
</event>
<event>
 8    1  0.1092993E+005  0.1043930E+01  0.7957747E-01            NaN
         13   -1    0    0    0    0  0.00000000000E+00  0.00000000000E+00  0.74505805969E-08  0.10566000000E+00  0.10566000000E+00 0. -1.
     999900   -1    0    0    0    0 -0.00000000000E+00 -0.00000000000E+00 -0.74505805969E-08  0.93827000000E+00  0.93827000000E+00 0. -1.
     999902    2    1    2    0    0 -0.15098835367E-01 -0.95747820801E-02  0.15961117601E-01  0.10199631780E+01  0.10196815561E+01 0.  0.
     999903    2    3    3    0    0  0.12585939643E+00  0.45208878738E-02  0.15989090671E-01  0.12863388319E+00  0.20736412073E-01 0.  0.
         14    1    1    2    0    0  0.15098835367E-01  0.95747820801E-02 -0.15961117601E-01  0.23966821992E-01  0.00000000000E+00 0.  1.
     999901    1    3    3    0    0 -0.14095823180E+00 -0.14095669954E-01 -0.27973070013E-04  0.89132929482E+00  0.88000000000E+00 0. -1.
        -11    1    4    4    0    0  0.21321387659E-01 -0.42540427786E-02 -0.32142370603E-02  0.21983878014E-01  0.51100000000E-03 0. -1.
         11    1    4    4    0    0  0.10453800877E+00  0.87749306525E-02  0.19203327731E-01  0.10665000517E+00  0.51100000000E-03 0.  1.
</event>
<event>
 8    1  0.1092993E+005  0.1043930E+01  0.7957747E-01            NaN
         13   -1    0    0    0    0  0.00000000000E+00  0.00000000000E+00  0.74505805969E-08  0.10566000000E+00  0.10566000000E+00 0.  1.
     999900   -1    0    0    0    0 -0.00000000000E+00 -0.00000000000E+00 -0.74505805969E-08  0.93827000000E+00  0.93827000000E+00 0.  1.
     999902    2    1    2    0    0 -0.18840906973E-02  0.10949928796E-01  0.21084400930E-01  0.10200971928E+01  0.10198187486E+01 0.  0.
     999903    2    3    3    0    0 -0.21062282920E-01  0.63348324412E-01 -0.10877485921E+00  0.12881899693E+00  0.17485251085E-01 0.  0.
         14    1    1    2    0    0  0.18840906973E-02 -0.10949928796E-01 -0.21084400930E-01  0.23832807241E-01  0.00000000000E+00 0.  1.
     999901    1    3    3    0    0  0.19178192223E-01 -0.52398395616E-01  0.12985926014E+00  0.89127819583E+00  0.88000000000E+00 0. -1.
        -11    1    4    4    0    0 -0.15635639072E-01  0.60543193234E-01 -0.94891012805E-01  0.11364205598E+00  0.51100000000E-03 0. -1.
         11    1    4    4    0    0 -0.54266438481E-02  0.28051311778E-02 -0.13883846405E-01  0.15176940943E-01  0.51100000000E-03 0.  1.
</event>
<event>
 8    1  0.1092993E+005  0.1043930E+01  0.7957747E-01            NaN
         13   -1    0    0    0    0  0.00000000000E+00  0.00000000000E+00  0.74505805969E-08  0.10566000000E+00  0.10566000000E+00 0.  1.
     999900   -1    0    0    0    0 -0.00000000000E+00 -0.00000000000E+00 -0.74505805969E-08  0.93827000000E+00  0.93827000000E+00 0.  1.
     999902    2    1    2    0    0 -0.13921399570E-01 -0.10274215243E-01 -0.14954538999E-01  0.10210607389E+01  0.10208045991E+01 0.  0.
     999903    2    3    3    0    0 -0.73944595518E-01  0.42155681895E-01 -0.10039707398E+00  0.13333775008E+00  0.21318499258E-01 0.  0.
         14    1    1    2    0    0  0.13921399570E-01  0.10274215243E-01  0.14954538999E-01  0.22869261062E-01  0.00000000000E+00 0.  1.
     999901    1    3    3    0    0  0.60023195947E-01 -0.52429897138E-01  0.85442534978E-01  0.88772298886E+00  0.88000000000E+00 0.  1.
        -11    1    4    4    0    0 -0.60692039257E-01  0.41893781026E-01 -0.78284191177E-01  0.10755132834E+00  0.51100000000E-03 0. -1.
         11    1    4    4    0    0 -0.13252556261E-01  0.26190086868E-03 -0.22112882800E-01  0.25786421742E-01  0.51100000000E-03 0.  1.
</event>
<event>
 8    1  0.1092993E+005  0.1043930E+01  0.7957747E-01            NaN
         13   -1    0    0    0    0  0.00000000000E+00  0.00000000000E+00  0.74505805969E-08  0.10566000000E+00  0.10566000000E+00 0.  1.
     999900   -1    0    0    0    0 -0.00000000000E+00 -0.00000000000E+00 -0.74505805969E-08  0.93827000000E+00  0.93827000000E+00 0. -1.
     999902    2    1    2    0    0  0.19149100963E-01  0.11568922701E-01 -0.65771497043E-02  0.10206107603E+01  0.10203443229E+01 0.  0.
     999903    2    3    3    0    0 -0.77248989844E-01  0.62061054111E-02  0.10086573991E+00  0.12883426017E+00  0.20455975432E-01 0.  0.
         14    1    1    2    0    0 -0.19149100963E-01 -0.11568922701E-01  0.65771497043E-02  0.23319239662E-01  0.00000000000E+00 0.  1.
     999901    1    3    3    0    0  0.96398090807E-01  0.53628172903E-02 -0.10744288961E+00  0.89177650017E+00  0.88000000000E+00 0. -1.
        -11    1    4    4    0    0 -0.45274818725E-01 -0.62743578482E-02  0.54179559368E-01  0.70886264898E-01  0.51100000000E-03 0. -1.
         11    1    4    4    0    0 -0.31974171120E-01  0.12480463259E-01  0.46686180539E-01  0.57947995274E-01  0.51100000000E-03 0.  1.
</event>
<event>
 8    1  0.1092993E+005  0.1043930E+01  0.7957747E-01            NaN
         13   -1    0    0    0    0  0.00000000000E+00  0.00000000000E+00  0.74505805969E-08  0.10566000000E+00  0.10566000000E+00 0. -1.
     999900   -1    0    0    0    0 -0.00000000000E+00 -0.00000000000E+00 -0.74505805969E-08  0.93827000000E+00  0.93827000000E+00 0. -1.
     999902    2    1    2    0    0  0.24347187326E-01  0.38587286672E-02 -0.10441834291E-01  0.10171586119E+01  0.10168062424E+01 0.  0.
     999903    2    3    3    0    0  0.94488914984E-01  0.76017288619E-01 -0.44660180187E-01  0.13076275511E+00  0.19939488598E-01 0.  0.
         14    1    1    2    0    0 -0.24347187326E-01 -0.38587286672E-02  0.10441834291E-01  0.26771388103E-01  0.00000000000E+00 0. -1.
     999901    1    3    3    0    0 -0.70141727658E-01 -0.72158559952E-01  0.34218345897E-01  0.88639585679E+00  0.88000000000E+00 0.  1.
        -11    1    4    4    0    0  0.26924427248E-01  0.10958058697E-01 -0.93629422178E-02  0.30543896952E-01  0.51100000000E-03 0. -1.
         11    1    4    4    0    0  0.67564487736E-01  0.65059229922E-01 -0.35297237970E-01  0.10021885816E+00  0.51100000000E-03 0.  1.
</event>
<event>
 8    1  0.1092993E+005  0.1043930E+01  0.7957747E-01            NaN
         13   -1    0    0    0    0  0.00000000000E+00  0.00000000000E+00  0.74505805969E-08  0.10566000000E+00  0.10566000000E+00 0.  1.
     999900   -1    0    0    0    0 -0.00000000000E+00 -0.00000000000E+00 -0.74505805969E-08  0.93827000000E+00  0.93827000000E+00 0. -1.
     999902    2    1    2    0    0  0.14116474311E-01  0.46840437090E-02  0.20007340101E-01  0.10189999224E+01  0.10186949166E+01 0.  0.
     999903    2    3    3    0    0 -0.27708067356E-01  0.93788922504E-01  0.84806117039E-01  0.13114416089E+00  0.21038404576E-01 0.  0.
         14    1    1    2    0    0 -0.14116474311E-01 -0.46840437090E-02 -0.20007340101E-01  0.24930077625E-01  0.00000000000E+00 0. -1.
     999901    1    3    3    0    0  0.41824541667E-01 -0.89104878795E-01 -0.64798776938E-01  0.88785576149E+00  0.88000000000E+00 0.  1.
        -11    1    4    4    0    0 -0.19774847147E-01  0.72123727936E-01  0.52222403235E-01  0.91215772933E-01  0.51100000000E-03 0. -1.
         11    1    4    4    0    0 -0.79332202089E-02  0.21665194567E-01  0.32583713804E-01  0.39928387957E-01  0.51100000000E-03 0.  1.
</event>
<event>
 8    1  0.1092993E+005  0.1043930E+01  0.7957747E-01            NaN
         13   -1    0    0    0    0  0.00000000000E+00  0.00000000000E+00  0.74505805969E-08  0.10566000000E+00  0.10566000000E+00 0. -1.
     999900   -1    0    0    0    0 -0.00000000000E+00 -0.00000000000E+00 -0.74505805969E-08  0.93827000000E+00  0.93827000000E+00 0. -1.
     999902    2    1    2    0    0  0.12151786651E-01 -0.15519293861E-01 -0.53754688012E-02  0.10234993841E+01  0.10232954506E+01 0.  0.
     999903    2    3    3    0    0 -0.40555690533E-01  0.91364237614E-01 -0.83900856341E-01  0.13200154119E+00  0.19820828220E-01 0.  0.
         14    1    1    2    0    0 -0.12151786651E-01  0.15519293861E-01  0.53754688012E-02  0.20430615889E-01  0.00000000000E+00 0.  1.
     999901    1    3    3    0    0  0.52707477184E-01 -0.10688353148E+00  0.78525387540E-01  0.89149784293E+00  0.88000000000E+00 0.  1.
        -11    1    4    4    0    0 -0.15393927281E-01  0.55915011259E-01 -0.41873332466E-01  0.71533898076E-01  0.51100000000E-03 0. -1.
         11    1    4    4    0    0 -0.25161763253E-01  0.35449226355E-01 -0.42027523875E-01  0.60467643110E-01  0.51100000000E-03 0.  1.
</event>
<event>
 8    1  0.1092993E+005  0.1043930E+01  0.7957747E-01            NaN
         13   -1    0    0    0    0  0.00000000000E+00  0.00000000000E+00  0.74505805969E-08  0.10566000000E+00  0.10566000000E+00 0. -1.
     999900   -1    0    0    0    0 -0.00000000000E+00 -0.00000000000E+00 -0.74505805969E-08  0.93827000000E+00  0.93827000000E+00 0.  1.
     999902    2    1    2    0    0  0.13715457529E-01  0.16766571670E-01  0.14182484104E-01  0.10180384076E+01  0.10177091062E+01 0.  0.
     999903    2    3    3    0    0 -0.11435434046E+00 -0.32225972227E-01 -0.36005053074E-01  0.12600649597E+00  0.21583436027E-01 0.  0.
         14    1    1    2    0    0 -0.13715457529E-01 -0.16766571670E-01 -0.14182484104E-01  0.25891592384E-01  0.00000000000E+00 0. -1.
     999901    1    3    3    0    0  0.12806979799E+00  0.48992543896E-01  0.50187537178E-01  0.89203191165E+00  0.88000000000E+00 0. -1.
        -11    1    4    4    0    0 -0.40306139228E-01 -0.45295602635E-02 -0.20466642375E-01  0.45433977888E-01  0.51100000000E-03 0.  1.
         11    1    4    4    0    0 -0.74048201232E-01 -0.27696411963E-01 -0.15538410699E-01  0.80572518077E-01  0.51100000000E-03 0. -1.
</event>
<event>
 8    1  0.1092993E+005  0.1043930E+01  0.7957747E-01            NaN
         13   -1    0    0    0    0  0.00000000000E+00  0.00000000000E+00  0.74505805969E-08  0.10566000000E+00  0.10566000000E+00 0. -1.
     999900   -1    0    0    0    0 -0.00000000000E+00 -0.00000000000E+00 -0.74505805969E-08  0.93827000000E+00  0.93827000000E+00 0.  1.
     999902    2    1    2    0    0  0.41931044323E-02  0.55383811673E-02 -0.22580341303E-01  0.10203052756E+01  0.10200317288E+01 0.  0.
     999903    2    3    3    0    0  0.36182092454E-01 -0.11946044174E+00  0.27161993944E-01  0.12950658844E+00  0.21312943982E-01 0.  0.
         14    1    1    2    0    0 -0.41931044323E-02 -0.55383811673E-02  0.22580341303E-01  0.23624724424E-01  0.00000000000E+00 0. -1.
     999901    1    3    3    0    0 -0.31988988022E-01  0.12499882290E+00 -0.49742335247E-01  0.89079868713E+00  0.88000000000E+00 0. -1.
        -11    1    4    4    0    0  0.84102407190E-02 -0.17626179446E-01 -0.29097786453E-02  0.19752019734E-01  0.51100000000E-03 0. -1.
         11    1    4    4    0    0  0.27771851735E-01 -0.10183426229E+00  0.30071772589E-01  0.10975456871E+00  0.51100000000E-03 0.  1.
</event>
<event>
 8    1  0.1092993E+005  0.1043930E+01  0.7957747E-01            NaN
         13   -1    0    0    0    0  0.00000000000E+00  0.00000000000E+00  0.74505805969E-08  0.10566000000E+00  0.10566000000E+00 0. -1.
     999900   -1    0    0    0    0 -0.00000000000E+00 -0.00000000000E+00 -0.74505805969E-08  0.93827000000E+00  0.93827000000E+00 0. -1.
     999902    2    1    2    0    0  0.13566360213E-02  0.23919614341E-01  0.39171439247E-02  0.10196538300E+01  0.10193648026E+01 0.  0.
     999903    2    3    3    0    0 -0.11098756362E+00 -0.61723443074E-01  0.54686474569E-02  0.12838599171E+00  0.18028700958E-01 0.  0.
         14    1    1    2    0    0 -0.13566360213E-02 -0.23919614341E-01 -0.39171439247E-02  0.24276169962E-01  0.00000000000E+00 0. -1.
     999901    1    3    3    0    0  0.11234419964E+00  0.85643057415E-01 -0.15515035322E-02  0.89126783833E+00  0.88000000000E+00 0. -1.
        -11    1    4    4    0    0 -0.67244424326E-01 -0.46813673532E-01  0.87585503917E-03  0.81941203772E-01  0.51100000000E-03 0. -1.
         11    1    4    4    0    0 -0.43743139297E-01 -0.14909769541E-01  0.45927924177E-02  0.46444787937E-01  0.51100000000E-03 0.  1.
</event>
<event>
 8    1  0.1092993E+005  0.1043930E+01  0.7957747E-01            NaN
         13   -1    0    0    0    0  0.00000000000E+00  0.00000000000E+00  0.74505805969E-08  0.10566000000E+00  0.10566000000E+00 0.  1.
     999900   -1    0    0    0    0 -0.00000000000E+00 -0.00000000000E+00 -0.74505805969E-08  0.93827000000E+00  0.93827000000E+00 0. -1.
     999902    2    1    2    0    0  0.16127184091E-01  0.17168328909E-01  0.38553880794E-02  0.10200615773E+01  0.10197822904E+01 0.  0.
     999903    2    3    3    0    0  0.40118860802E-01 -0.85983067357E-01  0.86475237690E-01  0.12986954710E+00  0.19634705679E-01 0.  0.
         14    1    1    2    0    0 -0.16127184091E-01 -0.17168328909E-01 -0.38553880794E-02  0.23868422685E-01  0.00000000000E+00 0. -1.
     999901    1    3    3    0    0 -0.23991676711E-01  0.10315139627E+00 -0.82619849611E-01  0.89019203021E+00  0.88000000000E+00 0.  1.
        -11    1    4    4    0    0  0.11838007165E-01 -0.10341801343E-01  0.99274927801E-02  0.18598588725E-01  0.51100000000E-03 0.  1.
         11    1    4    4    0    0  0.28280853636E-01 -0.75641266013E-01  0.76547744910E-01  0.11127095838E+00  0.51100000000E-03 0. -1.
</event>
<event>
 8    1  0.1092993E+005  0.1043930E+01  0.7957747E-01            NaN
         13   -1    0    0    0    0  0.00000000000E+00  0.00000000000E+00  0.74505805969E-08  0.10566000000E+00  0.10566000000E+00 0. -1.
     999900   -1    0    0    0    0 -0.00000000000E+00 -0.00000000000E+00 -0.74505805969E-08  0.93827000000E+00  0.93827000000E+00 0.  1.
     999902    2    1    2    0    0 -0.14258327524E-01 -0.14387785149E-01  0.14527654346E-01  0.10190028861E+01  0.10186979537E+01 0.  0.
     999903    2    3    3    0    0  0.90182996145E-01  0.39649836580E-01  0.80581416212E-01  0.12872699961E+00  0.19292315981E-01 0.  0.
         14    1    1    2    0    0  0.14258327524E-01  0.14387785149E-01 -0.14527654346E-01  0.24927113874E-01  0.00000000000E+00 0.  1.
     999901    1    3    3    0    0 -0.10444132367E+00 -0.54037621729E-01 -0.66053761866E-01  0.89027588651E+00  0.88000000000E+00 0.  1.
        -11    1    4    4    0    0  0.73222668360E-01  0.23514199426E-01  0.63677276041E-01  0.99847550503E-01  0.51100000000E-03 0. -1.
         11    1    4    4    0    0  0.16960327786E-01  0.16135637154E-01  0.16904140171E-01  0.28879449110E-01  0.51100000000E-03 0.  1.
</event>
<event>
 8    1  0.1092993E+005  0.1043930E+01  0.7957747E-01            NaN
         13   -1    0    0    0    0  0.00000000000E+00  0.00000000000E+00  0.74505805969E-08  0.10566000000E+00  0.10566000000E+00 0. -1.
     999900   -1    0    0    0    0 -0.00000000000E+00 -0.00000000000E+00 -0.74505805969E-08  0.93827000000E+00  0.93827000000E+00 0.  1.
     999902    2    1    2    0    0  0.19726251187E-01 -0.16965435859E-01  0.54101725524E-02  0.10173551817E+01  0.10170080358E+01 0.  0.
     999903    2    3    3    0    0 -0.44604697436E-01 -0.44030418680E-01 -0.10890657586E+00  0.12722075186E+00  0.19905291691E-01 0.  0.
         14    1    1    2    0    0 -0.19726251187E-01  0.16965435859E-01 -0.54101725524E-02  0.26574818284E-01  0.00000000000E+00 0.  1.
     999901    1    3    3    0    0  0.64330948623E-01  0.27064982821E-01  0.11431674841E+00  0.89013442985E+00  0.88000000000E+00 0. -1.
        -11    1    4    4    0    0 -0.25732606091E-01 -0.35217853609E-01 -0.84779094286E-01  0.95342646166E-01  0.51100000000E-03 0. -1.
         11    1    4    4    0    0 -0.18872091345E-01 -0.88125650710E-02 -0.24127481570E-01  0.31878105696E-01  0.51100000000E-03 0.  1.
</event>
<event>
 8    1  0.1158671E+005  0.1043930E+01  0.7957747E-01            NaN
         13   -1    0    0    0    0  0.00000000000E+00  0.00000000000E+00  0.74505805969E-08  0.10566000000E+00  0.10566000000E+00 0.  1.
     999900   -1    0    0    0    0 -0.00000000000E+00 -0.00000000000E+00 -0.74505805969E-08  0.93827000000E+00  0.93827000000E+00 0.  1.
     999902    2    1    2    0    0  0.79944491854E-02  0.13379301351E-01 -0.22687375633E-01  0.10164048490E+01  0.10160320778E+01 0.  0.
     999903    2    3    3    0    0  0.53859219944E-02 -0.14721744298E-01  0.12201020009E+00  0.12414151257E+00  0.16699949263E-01 0.  0.
         14    1    1    2    0    0 -0.79944491854E-02 -0.13379301351E-01  0.22687375633E-01  0.27525150963E-01  0.00000000000E+00 0.  1.
     999901    1    3    3    0    0  0.26085271910E-02  0.28101045648E-01 -0.14469757573E+00  0.89226333647E+00  0.88000000000E+00 0.  1.
        -11    1    4    4    0    0 -0.37857607101E-02 -0.12347040085E-01  0.57305989614E-01  0.58745373857E-01  0.51100000000E-03 0.  1.
         11    1    4    4    0    0  0.91716827045E-02 -0.23747042132E-02  0.64704210481E-01  0.65396138714E-01  0.51100000000E-03 0. -1.
</event>
<event>
 8    1  0.1092993E+005  0.1043930E+01  0.7957747E-01            NaN
         13   -1    0    0    0    0  0.00000000000E+00  0.00000000000E+00  0.74505805969E-08  0.10566000000E+00  0.10566000000E+00 0.  1.
     999900   -1    0    0    0    0 -0.00000000000E+00 -0.00000000000E+00 -0.74505805969E-08  0.93827000000E+00  0.93827000000E+00 0.  1.
     999902    2    1    2    0    0 -0.91683278858E-02 -0.16376131767E-01  0.17866145047E-01  0.10180179359E+01  0.10176881068E+01 0.  0.
     999903    2    3    3    0    0 -0.48294042717E-01  0.74753970173E-01  0.91546318976E-01  0.12938736862E+00  0.20973603004E-01 0.  0.
         14    1    1    2    0    0  0.91683278858E-02  0.16376131767E-01 -0.17866145047E-01  0.25912064115E-01  0.00000000000E+00 0. -1.
     999901    1    3    3    0    0  0.39125714831E-01 -0.91130101939E-01 -0.73680173929E-01  0.88863056726E+00  0.88000000000E+00 0. -1.
        -11    1    4    4    0    0 -0.31916345112E-01  0.46243779522E-01  0.43016285230E-01  0.70765826115E-01  0.51100000000E-03 0. -1.
         11    1    4    4    0    0 -0.16377697605E-01  0.28510190651E-01  0.48530033746E-01  0.58621542509E-01  0.51100000000E-03 0.  1.
</event>
<event>
 8    1  0.1092993E+005  0.1043930E+01  0.7957747E-01            NaN
         13   -1    0    0    0    0  0.00000000000E+00  0.00000000000E+00  0.74505805969E-08  0.10566000000E+00  0.10566000000E+00 0.  1.
     999900   -1    0    0    0    0 -0.00000000000E+00 -0.00000000000E+00 -0.74505805969E-08  0.93827000000E+00  0.93827000000E+00 0. -1.
     999902    2    1    2    0    0  0.22286634208E-01  0.13606086187E-02 -0.87658785421E-02  0.10199427962E+01  0.10196606894E+01 0.  0.
     999903    2    3    3    0    0  0.22991359814E-01  0.99151624993E-02  0.12571876710E+00  0.12968452077E+00  0.19645698064E-01 0.  0.
         14    1    1    2    0    0 -0.22286634208E-01 -0.13606086187E-02  0.87658785421E-02  0.23987203813E-01  0.00000000000E+00 0. -1.
     999901    1    3    3    0    0 -0.70472560638E-03 -0.85545538805E-02 -0.13448464565E+00  0.89025827541E+00  0.88000000000E+00 0. -1.
        -11    1    4    4    0    0  0.44608851435E-02  0.73708845341E-02  0.77229602310E-01  0.77710372724E-01  0.51100000000E-03 0.  1.
         11    1    4    4    0    0  0.18530474671E-01  0.25442779651E-02  0.48489164794E-01  0.51974148048E-01  0.51100000000E-03 0. -1.
</event>
<event>
 8    1  0.1092993E+005  0.1043930E+01  0.7957747E-01            NaN
         13   -1    0    0    0    0  0.00000000000E+00  0.00000000000E+00  0.74505805969E-08  0.10566000000E+00  0.10566000000E+00 0.  1.
     999900   -1    0    0    0    0 -0.00000000000E+00 -0.00000000000E+00 -0.74505805969E-08  0.93827000000E+00  0.93827000000E+00 0.  1.
     999902    2    1    2    0    0  0.16084976391E-01 -0.14014113932E-01  0.10923132091E-01  0.10199625915E+01  0.10196809557E+01 0.  0.
     999903    2    3    3    0    0  0.15420886388E-01  0.11694482865E+00  0.49190302078E-01  0.12944866015E+00  0.20576032410E-01 0.  0.
         14    1    1    2    0    0 -0.16084976391E-01  0.14014113932E-01 -0.10923132091E-01  0.23967408484E-01  0.00000000000E+00 0.  1.
     999901    1    3    3    0    0  0.66409000291E-03 -0.13095894259E+00 -0.38267169987E-01  0.89051393137E+00  0.88000000000E+00 0.  1.
        -11    1    4    4    0    0  0.11112553622E-01  0.28648209037E-01  0.18494046814E-01  0.35867807538E-01  0.51100000000E-03 0.  1.
         11    1    4    4    0    0  0.43083327659E-02  0.88296619618E-01  0.30696255264E-01  0.93580852611E-01  0.51100000000E-03 0. -1.
</event>
<event>
 8    1  0.1092993E+005  0.1043930E+01  0.7957747E-01            NaN
         13   -1    0    0    0    0  0.00000000000E+00  0.00000000000E+00  0.74505805969E-08  0.10566000000E+00  0.10566000000E+00 0. -1.
     999900   -1    0    0    0    0 -0.00000000000E+00 -0.00000000000E+00 -0.74505805969E-08  0.93827000000E+00  0.93827000000E+00 0.  1.
     999902    2    1    2    0    0 -0.19533553528E-01 -0.94628527956E-02  0.88258234907E-02  0.10204992412E+01  0.10202302196E+01 0.  0.
     999903    2    3    3    0    0 -0.11304865451E+00 -0.50295807703E-01 -0.44996186672E-01  0.13296940336E+00  0.18615554169E-01 0.  0.
         14    1    1    2    0    0  0.19533553528E-01  0.94628527956E-02 -0.88258234907E-02  0.23430758775E-01  0.00000000000E+00 0. -1.
     999901    1    3    3    0    0  0.93515100981E-01  0.40832954907E-01  0.53822010162E-01  0.88752983786E+00  0.88000000000E+00 0.  1.
        -11    1    4    4    0    0 -0.40394766656E-01 -0.26316603823E-01 -0.12248432056E-01  0.49745211014E-01  0.51100000000E-03 0.  1.
         11    1    4    4    0    0 -0.72653887853E-01 -0.23979203880E-01 -0.32747754616E-01  0.83224192349E-01  0.51100000000E-03 0. -1.
</event>
<event>
 8    1  0.1092993E+005  0.1043930E+01  0.7957747E-01            NaN
         13   -1    0    0    0    0  0.00000000000E+00  0.00000000000E+00  0.74505805969E-08  0.10566000000E+00  0.10566000000E+00 0.  1.
     999900   -1    0    0    0    0 -0.00000000000E+00 -0.00000000000E+00 -0.74505805969E-08  0.93827000000E+00  0.93827000000E+00 0.  1.
     999902    2    1    2    0    0  0.76166486112E-02  0.19713477536E-01 -0.11477202548E-01  0.10198808688E+01  0.10195972861E+01 0.  0.
     999903    2    3    3    0    0 -0.69315885855E-01 -0.45137612121E-01 -0.98409832864E-01  0.12989122791E+00  0.18577939203E-01 0.  0.
         14    1    1    2    0    0 -0.76166486112E-02 -0.19713477536E-01  0.11477202548E-01  0.24049131189E-01  0.00000000000E+00 0.  1.
     999901    1    3    3    0    0  0.76932534466E-01  0.64851089657E-01  0.86932630316E-01  0.88998964090E+00  0.88000000000E+00 0. -1.
        -11    1    4    4    0    0 -0.32281086518E-01 -0.10859167586E-01 -0.34834128257E-01  0.48720300490E-01  0.51100000000E-03 0. -1.
         11    1    4    4    0    0 -0.37034799337E-01 -0.34278444534E-01 -0.63575704607E-01  0.81170927424E-01  0.51100000000E-03 0.  1.
</event>
<event>
 8    1  0.1092993E+005  0.1043930E+01  0.7957747E-01            NaN
         13   -1    0    0    0    0  0.00000000000E+00  0.00000000000E+00  0.74505805969E-08  0.10566000000E+00  0.10566000000E+00 0.  1.
     999900   -1    0    0    0    0 -0.00000000000E+00 -0.00000000000E+00 -0.74505805969E-08  0.93827000000E+00  0.93827000000E+00 0. -1.
     999902    2    1    2    0    0 -0.52672594804E-02  0.61390177265E-02 -0.22999867546E-01  0.10195491578E+01  0.10192576022E+01 0.  0.
     999903    2    3    3    0    0 -0.45225112108E-01  0.26852484971E-02  0.11737645678E+00  0.12752109153E+00  0.20781598973E-01 0.  0.
         14    1    1    2    0    0  0.52672594804E-02 -0.61390177265E-02  0.22999867546E-01  0.24380842237E-01  0.00000000000E+00 0.  1.
     999901    1    3    3    0    0  0.39957852627E-01  0.34537692294E-02 -0.14037632432E+00  0.89202806623E+00  0.88000000000E+00 0. -1.
        -11    1    4    4    0    0 -0.20947219221E-01  0.11116429425E-01  0.48128701087E-01  0.53656257655E-01  0.51100000000E-03 0. -1.
         11    1    4    4    0    0 -0.24277892887E-01 -0.84311809275E-02  0.69247755691E-01  0.73864833880E-01  0.51100000000E-03 0.  1.
</event>
<event>
 8    1  0.1092993E+005  0.1043930E+01  0.7957747E-01            NaN
         13   -1    0    0    0    0  0.00000000000E+00  0.00000000000E+00  0.74505805969E-08  0.10566000000E+00  0.10566000000E+00 0.  1.
     999900   -1    0    0    0    0 -0.00000000000E+00 -0.00000000000E+00 -0.74505805969E-08  0.93827000000E+00  0.93827000000E+00 0.  1.
     999902    2    1    2    0    0  0.19306146642E-02 -0.19236239654E-01 -0.10055242775E-01  0.10221385316E+01  0.10219062137E+01 0.  0.
     999903    2    3    3    0    0  0.76986894725E-01 -0.17521423270E-01  0.10353646784E+00  0.13166704832E+00  0.19555797245E-01 0.  0.
         14    1    1    2    0    0 -0.19306146642E-02  0.19236239654E-01  0.10055242775E-01  0.21791468428E-01  0.00000000000E+00 0. -1.
     999901    1    3    3    0    0 -0.75056280061E-01 -0.17148163833E-02 -0.11359171062E+00  0.89047148326E+00  0.88000000000E+00 0.  1.
        -11    1    4    4    0    0  0.61981112333E-01 -0.68452937416E-02  0.86017945456E-01  0.10624436170E+00  0.51100000000E-03 0. -1.
         11    1    4    4    0    0  0.15005782392E-01 -0.10676129529E-01  0.17518522386E-01  0.25422686611E-01  0.51100000000E-03 0.  1.
</event>
<event>
 8    1  0.1092993E+005  0.1043930E+01  0.7957747E-01            NaN
         13   -1    0    0    0    0  0.00000000000E+00  0.00000000000E+00  0.74505805969E-08  0.10566000000E+00  0.10566000000E+00 0. -1.
     999900   -1    0    0    0    0 -0.00000000000E+00 -0.00000000000E+00 -0.74505805969E-08  0.93827000000E+00  0.93827000000E+00 0.  1.
     999902    2    1    2    0    0 -0.20646074197E-01  0.35750463641E-02 -0.10936730173E-01  0.10202941500E+01  0.10200203425E+01 0.  0.
     999903    2    3    3    0    0  0.31093357940E-01  0.10721761951E+00 -0.65066287240E-01  0.13105359724E+00  0.21886269021E-01 0.  0.
         14    1    1    2    0    0  0.20646074197E-01 -0.35750463641E-02  0.10936730173E-01  0.23635849955E-01  0.00000000000E+00 0. -1.
     999901    1    3    3    0    0 -0.51739432137E-01 -0.10364257315E+00  0.54129557067E-01  0.88924055281E+00  0.88000000000E+00 0.  1.
        -11    1    4    4    0    0  0.10519446862E-01  0.56198386498E-01 -0.22296511659E-01  0.61370293795E-01  0.51100000000E-03 0.  1.
         11    1    4    4    0    0  0.20573911079E-01  0.51019233016E-01 -0.42769775580E-01  0.69683303443E-01  0.51100000000E-03 0. -1.
</event>
<event>
 8    1  0.1092993E+005  0.1043930E+01  0.7957747E-01            NaN
         13   -1    0    0    0    0  0.00000000000E+00  0.00000000000E+00  0.74505805969E-08  0.10566000000E+00  0.10566000000E+00 0. -1.
     999900   -1    0    0    0    0 -0.00000000000E+00 -0.00000000000E+00 -0.74505805969E-08  0.93827000000E+00  0.93827000000E+00 0.  1.
     999902    2    1    2    0    0 -0.59072736044E-02  0.16994419000E-01  0.15170246588E-01  0.10203961406E+01  0.10201247184E+01 0.  0.
     999903    2    3    3    0    0 -0.50785741526E-01  0.11869117979E+00 -0.22692503950E-01  0.13259554588E+00  0.19996033320E-01 0.  0.
         14    1    1    2    0    0  0.59072736044E-02 -0.16994419000E-01 -0.15170246588E-01  0.23533859440E-01  0.00000000000E+00 0.  1.
     999901    1    3    3    0    0  0.44878467921E-01 -0.10169676079E+00  0.37862750537E-01  0.88780059468E+00  0.88000000000E+00 0. -1.
        -11    1    4    4    0    0 -0.18918073078E-02  0.23365427930E-01 -0.55846811580E-02  0.24103359556E-01  0.51100000000E-03 0. -1.
         11    1    4    4    0    0 -0.48893934218E-01  0.95325751863E-01 -0.17107822792E-01  0.10849218632E+00  0.51100000000E-03 0.  1.
</event>
<event>
 8    1  0.1092993E+005  0.1043930E+01  0.7957747E-01            NaN
         13   -1    0    0    0    0  0.00000000000E+00  0.00000000000E+00  0.74505805969E-08  0.10566000000E+00  0.10566000000E+00 0. -1.
     999900   -1    0    0    0    0 -0.00000000000E+00 -0.00000000000E+00 -0.74505805969E-08  0.93827000000E+00  0.93827000000E+00 0.  1.
     999902    2    1    2    0    0 -0.20515897993E-01 -0.52504761299E-03  0.10664140775E-01  0.10208020592E+01  0.10205400249E+01 0.  0.
     999903    2    3    3    0    0 -0.69208346038E-01 -0.71507053836E-01 -0.83741295104E-01  0.13157667384E+00  0.19918902695E-01 0.  0.
         14    1    1    2    0    0  0.20515897993E-01  0.52504761299E-03 -0.10664140775E-01  0.23127940763E-01  0.00000000000E+00 0.  1.
     999901    1    3    3    0    0  0.48692448044E-01  0.70982006223E-01  0.94405435879E-01  0.88922538539E+00  0.88000000000E+00 0. -1.
        -11    1    4    4    0    0 -0.57330952578E-01 -0.57370928685E-01 -0.57233251593E-01  0.99268161011E-01  0.51100000000E-03 0. -1.
         11    1    4    4    0    0 -0.11877393460E-01 -0.14136125151E-01 -0.26508043511E-01  0.32308512833E-01  0.51100000000E-03 0.  1.
</event>
<event>
 7    1  0.1092993E+005  0.1043930E+01  0.7957747E-01            NaN
         13   -1    0    0    0    0  0.00000000000E+00  0.00000000000E+00  0.74505805969E-08  0.10566000000E+00  0.10566000000E+00 0.  1.
     999900   -1    0    0    0    0 -0.00000000000E+00 -0.00000000000E+00 -0.74505805969E-08  0.93827000000E+00  0.93827000000E+00 0.  1.
     999903    2    1    2    0    0  0.19932639679E-01 -0.11170262189E+00 -0.13701611146E-02  0.11528677953E+00  0.20356284758E-01 0.  0.
         14    1    1    2    0    0 -0.82343137600E-02  0.84549330903E-02  0.39983454572E-01  0.41688924863E-01  0.00000000000E+00 0.  1.
     999901    1    1    2    0    0 -0.11698325919E-01  0.10324768880E+00 -0.38613293458E-01  0.88695429561E+00  0.88000000000E+00 0. -1.
        -11    1    3    3    0    0  0.14353535328E-01 -0.30125107331E-01 -0.29310854906E-02  0.33502215617E-01  0.51100000000E-03 0. -1.
         11    1    3    3    0    0  0.55791043511E-02 -0.81577514564E-01  0.15609243761E-02  0.81784563908E-01  0.51100000000E-03 0.  1.
</event>
<event>
 8    1  0.1092993E+005  0.1043930E+01  0.7957747E-01            NaN
         13   -1    0    0    0    0  0.00000000000E+00  0.00000000000E+00  0.74505805969E-08  0.10566000000E+00  0.10566000000E+00 0. -1.
     999900   -1    0    0    0    0 -0.00000000000E+00 -0.00000000000E+00 -0.74505805969E-08  0.93827000000E+00  0.93827000000E+00 0. -1.
     999902    2    1    2    0    0  0.14296239731E-01 -0.17425083980E-01  0.65116876268E-02  0.10204690090E+01  0.10201992846E+01 0.  0.
     999903    2    3    3    0    0  0.10400900484E+00 -0.28630087348E-02 -0.78458163871E-01  0.13171690076E+00  0.19172599240E-01 0.  0.
         14    1    1    2    0    0 -0.14296239731E-01  0.17425083980E-01 -0.65116876268E-02  0.23460990983E-01  0.00000000000E+00 0.  1.
     999901    1    3    3    0    0 -0.89712765112E-01 -0.14562075245E-01  0.84969851497E-01  0.88875210825E+00  0.88000000000E+00 0.  1.
        -11    1    4    4    0    0  0.57581349975E-01  0.69154954956E-03 -0.31743247175E-01  0.65757014591E-01  0.51100000000E-03 0. -1.
         11    1    4    4    0    0  0.46427654868E-01 -0.35545582844E-02 -0.46714916695E-01  0.65959886173E-01  0.51100000000E-03 0.  1.
</event>
<event>
 8    1  0.1092993E+005  0.1043930E+01  0.7957747E-01            NaN
         13   -1    0    0    0    0  0.00000000000E+00  0.00000000000E+00  0.74505805969E-08  0.10566000000E+00  0.10566000000E+00 0.  1.
     999900   -1    0    0    0    0 -0.00000000000E+00 -0.00000000000E+00 -0.74505805969E-08  0.93827000000E+00  0.93827000000E+00 0. -1.
     999902    2    1    2    0    0 -0.80766298950E-02 -0.21483072913E-01 -0.43174775523E-03  0.10209748093E+01  0.10207167190E+01 0.  0.
     999903    2    3    3    0    0  0.10884583864E+00  0.39111698538E-01  0.54635083794E-01  0.12947329733E+00  0.20029997239E-01 0.  0.
         14    1    1    2    0    0  0.80766298950E-02  0.21483072913E-01  0.43174775523E-03  0.22955190663E-01  0.00000000000E+00 0. -1.
     999901    1    3    3    0    0 -0.11692246853E+00 -0.60594771450E-01 -0.55066831550E-01  0.89150151201E+00  0.88000000000E+00 0.  1.
        -11    1    4    4    0    0  0.36604206212E-01  0.18929541437E-01  0.28221262853E-01  0.49948936419E-01  0.51100000000E-03 0.  1.
         11    1    4    4    0    0  0.72241632424E-01  0.20182157101E-01  0.26413820942E-01  0.79524360911E-01  0.51100000000E-03 0. -1.
</event>
<event>
 7    1  0.1092993E+005  0.1043930E+01  0.7957747E-01            NaN
         13   -1    0    0    0    0  0.00000000000E+00  0.00000000000E+00  0.74505805969E-08  0.10566000000E+00  0.10566000000E+00 0.  1.
     999900   -1    0    0    0    0 -0.00000000000E+00 -0.00000000000E+00 -0.74505805969E-08  0.93827000000E+00  0.93827000000E+00 0.  1.
     999903    2    1    2    0    0 -0.28722202759E-01  0.69681373760E-01 -0.92683464474E-01  0.12115431805E+00  0.20191221262E-01 0.  0.
         14    1    1    2    0    0 -0.96328633584E-02 -0.29177384907E-01  0.22766884441E-01  0.38241899451E-01  0.00000000000E+00 0.  1.
     999901    1    1    2    0    0  0.38355066117E-01 -0.40503988853E-01  0.69916580033E-01  0.88453378249E+00  0.88000000000E+00 0. -1.
        -11    1    3    3    0    0 -0.11239949471E-01  0.51732939152E-01 -0.61506891407E-01  0.81154126630E-01  0.51100000000E-03 0.  1.
         11    1    3    3    0    0 -0.17482253287E-01  0.17948434608E-01 -0.31176573066E-01  0.40000191425E-01  0.51100000000E-03 0. -1.
</event>
<event>
 8    1  0.1092993E+005  0.1043930E+01  0.7957747E-01            NaN
         13   -1    0    0    0    0  0.00000000000E+00  0.00000000000E+00  0.74505805969E-08  0.10566000000E+00  0.10566000000E+00 0.  1.
     999900   -1    0    0    0    0 -0.00000000000E+00 -0.00000000000E+00 -0.74505805969E-08  0.93827000000E+00  0.93827000000E+00 0.  1.
     999902    2    1    2    0    0  0.75064982313E-02  0.23661887305E-02 -0.19465499470E-01  0.10229335233E+01  0.10227180164E+01 0.  0.
     999903    2    3    3    0    0 -0.79269396775E-01  0.58550355555E-01 -0.88961201736E-01  0.13416112881E+00  0.19321792556E-01 0.  0.
         14    1    1    2    0    0 -0.75064982313E-02 -0.23661887305E-02  0.19465499470E-01  0.20996476714E-01  0.00000000000E+00 0.  1.
     999901    1    3    3    0    0  0.86775895006E-01 -0.56184166824E-01  0.69495702266E-01  0.88877239448E+00  0.88000000000E+00 0. -1.
        -11    1    4    4    0    0 -0.27241649944E-01  0.19479475192E-01 -0.42968906091E-01  0.54480688845E-01  0.51100000000E-03 0. -1.
         11    1    4    4    0    0 -0.52027746831E-01  0.39070880363E-01 -0.45992295645E-01  0.79680439961E-01  0.51100000000E-03 0.  1.
</event>
<event>
 8    1  0.1092993E+005  0.1043930E+01  0.7957747E-01            NaN
         13   -1    0    0    0    0  0.00000000000E+00  0.00000000000E+00  0.74505805969E-08  0.10566000000E+00  0.10566000000E+00 0. -1.
     999900   -1    0    0    0    0 -0.00000000000E+00 -0.00000000000E+00 -0.74505805969E-08  0.93827000000E+00  0.93827000000E+00 0.  1.
     999902    2    1    2    0    0 -0.72455724553E-02 -0.19846044836E-01 -0.11253323226E-01  0.10199925586E+01  0.10197116350E+01 0.  0.
     999903    2    3    3    0    0  0.89676755786E-01 -0.66423438435E-01 -0.66949528975E-01  0.13169899305E+00  0.20208702070E-01 0.  0.
         14    1    1    2    0    0  0.72455724553E-02  0.19846044836E-01  0.11253323226E-01  0.23937441372E-01  0.00000000000E+00 0.  1.
     999901    1    3    3    0    0 -0.96922328241E-01  0.46577393600E-01  0.55696205749E-01  0.88829356557E+00  0.88000000000E+00 0.  1.
        -11    1    4    4    0    0  0.42901304501E-01 -0.29399256520E-01 -0.42731814223E-01  0.67313499980E-01  0.51100000000E-03 0.  1.
         11    1    4    4    0    0  0.46775451285E-01 -0.37024181916E-01 -0.24217714752E-01  0.64385493073E-01  0.51100000000E-03 0. -1.
</event>
<event>
 8    1  0.1092993E+005  0.1043930E+01  0.7957747E-01            NaN
         13   -1    0    0    0    0  0.00000000000E+00  0.00000000000E+00  0.74505805969E-08  0.10566000000E+00  0.10566000000E+00 0.  1.
     999900   -1    0    0    0    0 -0.00000000000E+00 -0.00000000000E+00 -0.74505805969E-08  0.93827000000E+00  0.93827000000E+00 0. -1.
     999902    2    1    2    0    0  0.12694426340E-01 -0.31816316656E-02  0.18994401863E-01  0.10208636058E+01  0.10206029801E+01 0.  0.
     999903    2    3    3    0    0  0.63605631983E-01 -0.90645911904E-01  0.71773420201E-01  0.13349244558E+00  0.20160640239E-01 0.  0.
         14    1    1    2    0    0 -0.12694426340E-01  0.31816316656E-02 -0.18994401863E-01  0.23066394219E-01  0.00000000000E+00 0. -1.
     999901    1    3    3    0    0 -0.50911205643E-01  0.87464280239E-01 -0.52779018339E-01  0.88737116020E+00  0.88000000000E+00 0.  1.
        -11    1    4    4    0    0  0.10538202591E-01 -0.30800542786E-01  0.19897663258E-01  0.38156326788E-01  0.51100000000E-03 0. -1.
         11    1    4    4    0    0  0.53067429392E-01 -0.59845369118E-01  0.51875756943E-01  0.95336118793E-01  0.51100000000E-03 0.  1.
</event>
<event>
 8    1  0.1092993E+005  0.1043930E+01  0.7957747E-01            NaN
         13   -1    0    0    0    0  0.00000000000E+00  0.00000000000E+00  0.74505805969E-08  0.10566000000E+00  0.10566000000E+00 0.  1.
     999900   -1    0    0    0    0 -0.00000000000E+00 -0.00000000000E+00 -0.74505805969E-08  0.93827000000E+00  0.93827000000E+00 0. -1.
     999902    2    1    2    0    0  0.20800643009E-01  0.48096279366E-03 -0.13013467903E-01  0.10193892498E+01  0.10190938103E+01 0.  0.
     999903    2    3    3    0    0  0.10473503333E+00 -0.77714275200E-01 -0.44135014135E-02  0.13190210252E+00  0.19228881329E-01 0.  0.
         14    1    1    2    0    0 -0.20800643009E-01 -0.48096279366E-03  0.13013467903E-01  0.24540750226E-01  0.00000000000E+00 0. -1.
     999901    1    3    3    0    0 -0.83934390321E-01  0.78195237994E-01 -0.85999664893E-02  0.88748714726E+00  0.88000000000E+00 0. -1.
        -11    1    4    4    0    0  0.88165652501E-02 -0.11224642390E-01 -0.51678269548E-02  0.15188547528E-01  0.51100000000E-03 0.  1.
         11    1    4    4    0    0  0.95918468080E-01 -0.66489632811E-01  0.75432554137E-03  0.11671355499E+00  0.51100000000E-03 0. -1.
</event>
<event>
 8    1  0.1092993E+005  0.1043930E+01  0.7957747E-01            NaN
         13   -1    0    0    0    0  0.00000000000E+00  0.00000000000E+00  0.74505805969E-08  0.10566000000E+00  0.10566000000E+00 0. -1.
     999900   -1    0    0    0    0 -0.00000000000E+00 -0.00000000000E+00 -0.74505805969E-08  0.93827000000E+00  0.93827000000E+00 0.  1.
     999902    2    1    2    0    0  0.14229089167E-01 -0.33758107426E-02 -0.16986156058E-01  0.10215158845E+01  0.10212699495E+01 0.  0.
     999903    2    3    3    0    0 -0.53626516022E-01  0.11684640307E+00  0.83404755508E-02  0.13039344502E+00  0.20099797016E-01 0.  0.
         14    1    1    2    0    0 -0.14229089167E-01  0.33758107426E-02  0.16986156058E-01  0.22414115515E-01  0.00000000000E+00 0. -1.
     999901    1    3    3    0    0  0.67855605189E-01 -0.12022221382E+00 -0.25326631609E-01  0.89112243947E+00  0.88000000000E+00 0.  1.
        -11    1    4    4    0    0 -0.59829575790E-02  0.23145078677E-01  0.81862888612E-02  0.25273838147E-01  0.51100000000E-03 0.  1.
         11    1    4    4    0    0 -0.47643558443E-01  0.93701324395E-01  0.15418668961E-03  0.10511960687E+00  0.51100000000E-03 0. -1.
</event>
<event>
 8    1  0.1092993E+005  0.1043930E+01  0.7957747E-01            NaN
         13   -1    0    0    0    0  0.00000000000E+00  0.00000000000E+00  0.74505805969E-08  0.10566000000E+00  0.10566000000E+00 0.  1.
     999900   -1    0    0    0    0 -0.00000000000E+00 -0.00000000000E+00 -0.74505805969E-08  0.93827000000E+00  0.93827000000E+00 0. -1.
     999902    2    1    2    0    0  0.19329142666E-02 -0.16339469159E-01  0.17353536935E-01  0.10200164128E+01  0.10197360554E+01 0.  0.
     999903    2    3    3    0    0 -0.12042287849E+00 -0.41782209128E-01  0.22676532237E-01  0.13117075276E+00  0.21074121624E-01 0.  0.
         14    1    1    2    0    0 -0.19329142666E-02  0.16339469159E-01 -0.17353536935E-01  0.23913587228E-01  0.00000000000E+00 0. -1.
     999901    1    3    3    0    0  0.12235579276E+00  0.25442739968E-01 -0.53229953014E-02  0.88884566001E+00  0.88000000000E+00 0.  1.
        -11    1    4    4    0    0 -0.10216349444E+00 -0.29284471487E-01  0.24152477362E-01  0.10898882122E+00  0.51100000000E-03 0.  1.
         11    1    4    4    0    0 -0.18259384048E-01 -0.12497737640E-01 -0.14759451255E-02  0.22181931543E-01  0.51100000000E-03 0. -1.
</event>
<event>
 8    1  0.1092993E+005  0.1043930E+01  0.7957747E-01            NaN
         13   -1    0    0    0    0  0.00000000000E+00  0.00000000000E+00  0.74505805969E-08  0.10566000000E+00  0.10566000000E+00 0. -1.
     999900   -1    0    0    0    0 -0.00000000000E+00 -0.00000000000E+00 -0.74505805969E-08  0.93827000000E+00  0.93827000000E+00 0. -1.
     999902    2    1    2    0    0 -0.14482521228E-02  0.19307728557E-01 -0.13203163267E-01  0.10204947843E+01  0.10202256590E+01 0.  0.
     999903    2    3    3    0    0 -0.81282702052E-01  0.88435637503E-01 -0.54107610528E-01  0.13323756057E+00  0.19921706677E-01 0.  0.
         14    1    1    2    0    0  0.14482521228E-02 -0.19307728557E-01  0.13203163267E-01  0.23435215734E-01  0.00000000000E+00 0.  1.
     999901    1    3    3    0    0  0.79834449929E-01 -0.69127908946E-01  0.40904447261E-01  0.88725722369E+00  0.88000000000E+00 0.  1.
        -11    1    4    4    0    0 -0.65167984559E-01  0.61404730157E-01 -0.46327467439E-01  0.10081618153E+00  0.51100000000E-03 0. -1.
         11    1    4    4    0    0 -0.16114717493E-01  0.27030907346E-01 -0.77801430890E-02  0.32421379047E-01  0.51100000000E-03 0.  1.
</event>
<event>
 8    1  0.1092993E+005  0.1043930E+01  0.7957747E-01            NaN
         13   -1    0    0    0    0  0.00000000000E+00  0.00000000000E+00  0.74505805969E-08  0.10566000000E+00  0.10566000000E+00 0. -1.
     999900   -1    0    0    0    0 -0.00000000000E+00 -0.00000000000E+00 -0.74505805969E-08  0.93827000000E+00  0.93827000000E+00 0. -1.
     999902    2    1    2    0    0  0.10832365653E-02  0.11609829009E-01 -0.91609714796E-02  0.10291014826E+01  0.10289946436E+01 0.  0.
     999903    2    3    3    0    0 -0.90792248768E-02  0.33503927341E-01  0.13183778247E+00  0.13755043198E+00  0.18274982366E-01 0.  0.
         14    1    1    2    0    0 -0.10832365653E-02 -0.11609829009E-01  0.91609714796E-02  0.14828517442E-01  0.00000000000E+00 0. -1.
     999901    1    3    3    0    0  0.10162461442E-01 -0.21894098333E-01 -0.14099875395E+00  0.89155105057E+00  0.88000000000E+00 0. -1.
        -11    1    4    4    0    0  0.31189066121E-02  0.15622767869E-01  0.76178843378E-01  0.77828502194E-01  0.51100000000E-03 0.  1.
         11    1    4    4    0    0 -0.12198131489E-01  0.17881159473E-01  0.55658939093E-01  0.59721929790E-01  0.51100000000E-03 0. -1.
</event>
<event>
 8    1  0.1092993E+005  0.1043930E+01  0.7957747E-01            NaN
         13   -1    0    0    0    0  0.00000000000E+00  0.00000000000E+00  0.74505805969E-08  0.10566000000E+00  0.10566000000E+00 0.  1.
     999900   -1    0    0    0    0 -0.00000000000E+00 -0.00000000000E+00 -0.74505805969E-08  0.93827000000E+00  0.93827000000E+00 0.  1.
     999902    2    1    2    0    0 -0.33233474750E-02 -0.92641580177E-02 -0.12662477496E-01  0.10278923069E+01  0.10277671852E+01 0.  0.
     999903    2    3    3    0    0 -0.11639496242E+00 -0.23562871080E-01  0.65469857642E-01  0.13710933388E+00  0.20240331217E-01 0.  0.
         14    1    1    2    0    0  0.33233474750E-02  0.92641580177E-02  0.12662477496E-01  0.16037693056E-01  0.00000000000E+00 0.  1.
     999901    1    3    3    0    0  0.11307161495E+00  0.14298713062E-01 -0.78132335138E-01  0.89078297306E+00  0.88000000000E+00 0. -1.
        -11    1    4    4    0    0 -0.38760590858E-02 -0.61564092416E-03 -0.14290308224E-02  0.42078614373E-02  0.51100000000E-03 0. -1.
         11    1    4    4    0    0 -0.11251890333E+00 -0.22947230156E-01  0.66898888465E-01  0.13290147245E+00  0.51100000000E-03 0.  1.
</event>
<event>
 8    1  0.1092993E+005  0.1043930E+01  0.7957747E-01            NaN
         13   -1    0    0    0    0  0.00000000000E+00  0.00000000000E+00  0.74505805969E-08  0.10566000000E+00  0.10566000000E+00 0. -1.
     999900   -1    0    0    0    0 -0.00000000000E+00 -0.00000000000E+00 -0.74505805969E-08  0.93827000000E+00  0.93827000000E+00 0.  1.
     999902    2    1    2    0    0 -0.15928081765E-01  0.10063662160E-01  0.10443201323E-01  0.10223883766E+01  0.10221614115E+01 0.  0.
     999903    2    3    3    0    0 -0.52794207266E-01  0.71660377619E-01 -0.96712872497E-01  0.13298650415E+00  0.20238392671E-01 0.  0.
         14    1    1    2    0    0  0.15928081765E-01 -0.10063662160E-01 -0.10443201323E-01  0.21541623399E-01  0.00000000000E+00 0.  1.
     999901    1    3    3    0    0  0.36866125501E-01 -0.61596715459E-01  0.10715607382E+00  0.88940187245E+00  0.88000000000E+00 0. -1.
        -11    1    4    4    0    0 -0.46894298848E-01  0.51162235696E-01 -0.79807129612E-01  0.10576430723E+00  0.51100000000E-03 0. -1.
         11    1    4    4    0    0 -0.58999084172E-02  0.20498141923E-01 -0.16905742885E-01  0.27222196919E-01  0.51100000000E-03 0.  1.
</event>
<event>
 8    1  0.1092993E+005  0.1043930E+01  0.7957747E-01            NaN
         13   -1    0    0    0    0  0.00000000000E+00  0.00000000000E+00  0.74505805969E-08  0.10566000000E+00  0.10566000000E+00 0.  1.
     999900   -1    0    0    0    0 -0.00000000000E+00 -0.00000000000E+00 -0.74505805969E-08  0.93827000000E+00  0.93827000000E+00 0. -1.
     999902    2    1    2    0    0  0.67586800191E-02 -0.19736072671E-01 -0.11566963736E-01  0.10200765522E+01  0.10197976199E+01 0.  0.
     999903    2    3    3    0    0  0.28379238141E-01 -0.94870212188E-01 -0.86994150547E-01  0.13339631226E+00  0.20514764869E-01 0.  0.
         14    1    1    2    0    0 -0.67586800191E-02  0.19736072671E-01  0.11566963736E-01  0.23853447762E-01  0.00000000000E+00 0.  1.
     999901    1    3    3    0    0 -0.21620558122E-01  0.75134139517E-01  0.75427186810E-01  0.88668023998E+00  0.88000000000E+00 0.  1.
        -11    1    4    4    0    0 -0.15663533394E-02 -0.11776230529E-01 -0.50735173266E-02  0.12928061235E-01  0.51100000000E-03 0. -1.
         11    1    4    4    0    0  0.29945591480E-01 -0.83093981659E-01 -0.81920633220E-01  0.12046825103E+00  0.51100000000E-03 0.  1.
</event>
<event>
 8    1  0.1092993E+005  0.1043930E+01  0.7957747E-01            NaN
         13   -1    0    0    0    0  0.00000000000E+00  0.00000000000E+00  0.74505805969E-08  0.10566000000E+00  0.10566000000E+00 0. -1.
     999900   -1    0    0    0    0 -0.00000000000E+00 -0.00000000000E+00 -0.74505805969E-08  0.93827000000E+00  0.93827000000E+00 0.  1.
     999902    2    1    2    0    0  0.74551112851E-02  0.23436233218E-01  0.31011811856E-02  0.10191418368E+01  0.10188403361E+01 0.  0.
     999903    2    3    3    0    0 -0.65479847863E-01  0.78028908904E-01 -0.79194671924E-01  0.13061920006E+00  0.20333673102E-01 0.  0.
         14    1    1    2    0    0 -0.74551112851E-02 -0.23436233218E-01 -0.31011811856E-02  0.24788163233E-01  0.00000000000E+00 0.  1.
     999901    1    3    3    0    0  0.72934959149E-01 -0.54592675686E-01  0.82295853110E-01  0.88852263671E+00  0.88000000000E+00 0. -1.
        -11    1    4    4    0    0 -0.30799317575E-01  0.33804238793E-01 -0.23195177296E-01  0.51279644053E-01  0.51100000000E-03 0.  1.
         11    1    4    4    0    0 -0.34680530289E-01  0.44224670112E-01 -0.55999494628E-01  0.79339556005E-01  0.51100000000E-03 0. -1.
</event>
<event>
 8    1  0.1092993E+005  0.1043930E+01  0.7957747E-01            NaN
         13   -1    0    0    0    0  0.00000000000E+00  0.00000000000E+00  0.74505805969E-08  0.10566000000E+00  0.10566000000E+00 0. -1.
     999900   -1    0    0    0    0 -0.00000000000E+00 -0.00000000000E+00 -0.74505805969E-08  0.93827000000E+00  0.93827000000E+00 0. -1.
     999902    2    1    2    0    0  0.33580640073E-02  0.16455272780E-01  0.15711524407E-01  0.10209320741E+01  0.10206730110E+01 0.  0.
     999903    2    3    3    0    0  0.28851950056E-01  0.11491639830E+00 -0.55205827974E-01  0.13223988762E+00  0.20037235687E-01 0.  0.
         14    1    1    2    0    0 -0.33580640073E-02 -0.16455272780E-01 -0.15711524407E-01  0.22997925892E-01  0.00000000000E+00 0. -1.
     999901    1    3    3    0    0 -0.25493886049E-01 -0.98461125520E-01  0.70917352380E-01  0.88869218649E+00  0.88000000000E+00 0.  1.
        -11    1    4    4    0    0  0.91163876120E-02  0.72524641782E-01 -0.29044768016E-01  0.78656162243E-01  0.51100000000E-03 0.  1.
         11    1    4    4    0    0  0.19735562444E-01  0.42391756518E-01 -0.26161059958E-01  0.53583725373E-01  0.51100000000E-03 0. -1.
</event>
<event>
 8    1  0.1092993E+005  0.1043930E+01  0.7957747E-01            NaN
         13   -1    0    0    0    0  0.00000000000E+00  0.00000000000E+00  0.74505805969E-08  0.10566000000E+00  0.10566000000E+00 0.  1.
     999900   -1    0    0    0    0 -0.00000000000E+00 -0.00000000000E+00 -0.74505805969E-08  0.93827000000E+00  0.93827000000E+00 0. -1.
     999902    2    1    2    0    0  0.14748717659E-01 -0.14673688151E-01  0.47499673212E-02  0.10225898035E+01  0.10223671074E+01 0.  0.
     999903    2    3    3    0    0  0.68600107169E-01  0.99601155570E-01 -0.48540551624E-01  0.13197283115E+00  0.20839340541E-01 0.  0.
         14    1    1    2    0    0 -0.14748717659E-01  0.14673688151E-01 -0.47499673212E-02  0.21340196487E-01  0.00000000000E+00 0.  1.
     999901    1    3    3    0    0 -0.53851389510E-01 -0.11427484372E+00  0.53290518945E-01  0.89061697237E+00  0.88000000000E+00 0. -1.
        -11    1    4    4    0    0  0.46357521755E-01  0.73890378937E-01 -0.25428598004E-01  0.90860787143E-01  0.51100000000E-03 0.  1.
         11    1    4    4    0    0  0.22242585414E-01  0.25710776632E-01 -0.23111953620E-01  0.41112044002E-01  0.51100000000E-03 0. -1.
</event>
<event>
 8    1  0.1092993E+005  0.1043930E+01  0.7957747E-01            NaN
         13   -1    0    0    0    0  0.00000000000E+00  0.00000000000E+00  0.74505805969E-08  0.10566000000E+00  0.10566000000E+00 0. -1.
     999900   -1    0    0    0    0 -0.00000000000E+00 -0.00000000000E+00 -0.74505805969E-08  0.93827000000E+00  0.93827000000E+00 0.  1.
     999902    2    1    2    0    0 -0.28413486046E-02 -0.83682794152E-02 -0.22431012834E-01  0.10198208379E+01  0.10195358207E+01 0.  0.
     999903    2    3    3    0    0 -0.81275300325E-02  0.12734366295E+00 -0.71000181512E-03  0.12913712445E+00  0.19835008688E-01 0.  0.
         14    1    1    2    0    0  0.28413486046E-02  0.83682794152E-02  0.22431012834E-01  0.24109162139E-01  0.00000000000E+00 0. -1.
     999901    1    3    3    0    0  0.52861814279E-02 -0.13571194237E+00 -0.21721011019E-01  0.89068371341E+00  0.88000000000E+00 0.  1.
        -11    1    4    4    0    0 -0.47995365446E-02  0.12312924330E+00  0.16844252477E-02  0.12323532170E+00  0.51100000000E-03 0.  1.
         11    1    4    4    0    0 -0.33279934879E-02  0.42144196575E-02 -0.23944270628E-02  0.59018027469E-02  0.51100000000E-03 0. -1.
</event>
<event>
 8    1  0.1092993E+005  0.1043930E+01  0.7957747E-01            NaN
         13   -1    0    0    0    0  0.00000000000E+00  0.00000000000E+00  0.74505805969E-08  0.10566000000E+00  0.10566000000E+00 0. -1.
     999900   -1    0    0    0    0 -0.00000000000E+00 -0.00000000000E+00 -0.74505805969E-08  0.93827000000E+00  0.93827000000E+00 0.  1.
     999902    2    1    2    0    0 -0.21861555274E-01  0.29196853298E-02  0.86134491779E-02  0.10202520848E+01  0.10199772904E+01 0.  0.
     999903    2    3    3    0    0  0.94022883139E-01  0.62052542436E-02 -0.84068280536E-01  0.12782287133E+00  0.19809162261E-01 0.  0.
         14    1    1    2    0    0  0.21861555274E-01 -0.29196853298E-02 -0.86134491779E-02  0.23677915198E-01  0.00000000000E+00 0.  1.
     999901    1    3    3    0    0 -0.11588443841E+00 -0.32855689139E-02  0.92681729714E-01  0.89242921347E+00  0.88000000000E+00 0.  1.
        -11    1    4    4    0    0  0.83775148336E-01  0.54980980871E-03 -0.67805951713E-01  0.10777980320E+00  0.51100000000E-03 0.  1.
         11    1    4    4    0    0  0.10247734803E-01  0.56554444349E-02 -0.16262328824E-01  0.20043068131E-01  0.51100000000E-03 0. -1.
</event>
<event>
 8    1  0.1092993E+005  0.1043930E+01  0.7957747E-01            NaN
         13   -1    0    0    0    0  0.00000000000E+00  0.00000000000E+00  0.74505805969E-08  0.10566000000E+00  0.10566000000E+00 0. -1.
     999900   -1    0    0    0    0 -0.00000000000E+00 -0.00000000000E+00 -0.74505805969E-08  0.93827000000E+00  0.93827000000E+00 0.  1.
     999902    2    1    2    0    0  0.20671588492E-01  0.25154705626E-02  0.80108781450E-02  0.10216182020E+01  0.10213745318E+01 0.  0.
     999903    2    3    3    0    0  0.33622004807E-01 -0.10334891674E+00 -0.71672711371E-01  0.13160446262E+00  0.19269645261E-01 0.  0.
         14    1    1    2    0    0 -0.20671588492E-01 -0.25154705626E-02 -0.80108781450E-02  0.22311798035E-01  0.00000000000E+00 0. -1.
     999901    1    3    3    0    0 -0.12950416315E-01  0.10586438730E+00  0.79683589516E-01  0.89001373934E+00  0.88000000000E+00 0.  1.
        -11    1    4    4    0    0  0.21933421549E-01 -0.40477660360E-01 -0.24631078972E-01  0.52215583319E-01  0.51100000000E-03 0.  1.
         11    1    4    4    0    0  0.11688583258E-01 -0.62871256378E-01 -0.47041632398E-01  0.79388879302E-01  0.51100000000E-03 0. -1.
</event>
<event>
 8    1  0.1092993E+005  0.1043930E+01  0.7957747E-01            NaN
         13   -1    0    0    0    0  0.00000000000E+00  0.00000000000E+00  0.74505805969E-08  0.10566000000E+00  0.10566000000E+00 0. -1.
     999900   -1    0    0    0    0 -0.00000000000E+00 -0.00000000000E+00 -0.74505805969E-08  0.93827000000E+00  0.93827000000E+00 0. -1.
     999902    2    1    2    0    0  0.16939884874E-01  0.16182740760E-01  0.10113456600E-01  0.10184128920E+01  0.10180931665E+01 0.  0.
     999903    2    3    3    0    0 -0.23996314691E-01 -0.87667623319E-01 -0.85208885100E-01  0.12625426292E+00  0.20448704317E-01 0.  0.
         14    1    1    2    0    0 -0.16939884874E-01 -0.16182740760E-01 -0.10113456600E-01  0.25517108035E-01  0.00000000000E+00 0.  1.
     999901    1    3    3    0    0  0.40936199566E-01  0.10385036408E+00  0.95322341700E-01  0.89215862905E+00  0.88000000000E+00 0.  1.
        -11    1    4    4    0    0 -0.49250262286E-02 -0.27796975492E-01 -0.39489781284E-01  0.48545150909E-01  0.51100000000E-03 0. -1.
         11    1    4    4    0    0 -0.19071288463E-01 -0.59870647827E-01 -0.45719103816E-01  0.77709112011E-01  0.51100000000E-03 0.  1.
</event>
<event>
 8    1  0.1092993E+005  0.1043930E+01  0.7957747E-01            NaN
         13   -1    0    0    0    0  0.00000000000E+00  0.00000000000E+00  0.74505805969E-08  0.10566000000E+00  0.10566000000E+00 0.  1.
     999900   -1    0    0    0    0 -0.00000000000E+00 -0.00000000000E+00 -0.74505805969E-08  0.93827000000E+00  0.93827000000E+00 0.  1.
     999902    2    1    2    0    0 -0.19861089529E-01  0.97942710355E-02 -0.78330716174E-02  0.10204406911E+01  0.10201703075E+01 0.  0.
     999903    2    3    3    0    0 -0.11293646658E+00  0.16008561317E-01 -0.66398329950E-01  0.13357456099E+00  0.20554941167E-01 0.  0.
         14    1    1    2    0    0  0.19861089529E-01 -0.97942710355E-02  0.78330716174E-02  0.23489308916E-01  0.00000000000E+00 0.  1.
     999901    1    3    3    0    0  0.93075377049E-01 -0.62142902819E-02  0.58565258332E-01  0.88686613009E+00  0.88000000000E+00 0.  1.
        -11    1    4    4    0    0 -0.67925698955E-01  0.18638685001E-01 -0.45666627899E-01  0.83946430429E-01  0.51100000000E-03 0. -1.
         11    1    4    4    0    0 -0.45010767622E-01 -0.26301236831E-02 -0.20731702051E-01  0.49628130565E-01  0.51100000000E-03 0.  1.
</event>
<event>
 8    1  0.1092993E+005  0.1043930E+01  0.7957747E-01            NaN
         13   -1    0    0    0    0  0.00000000000E+00  0.00000000000E+00  0.74505805969E-08  0.10566000000E+00  0.10566000000E+00 0.  1.
     999900   -1    0    0    0    0 -0.00000000000E+00 -0.00000000000E+00 -0.74505805969E-08  0.93827000000E+00  0.93827000000E+00 0.  1.
     999902    2    1    2    0    0  0.19397990140E-01 -0.12102975622E-01  0.89404045339E-02  0.10193801553E+01  0.10190844941E+01 0.  0.
     999903    2    3    3    0    0  0.87898059819E-01 -0.86797430553E-01 -0.41940632344E-01  0.13210319684E+00  0.20793631316E-01 0.  0.
         14    1    1    2    0    0 -0.19397990140E-01  0.12102975622E-01 -0.89404045339E-02  0.24549844676E-01  0.00000000000E+00 0.  1.
     999901    1    3    3    0    0 -0.68500069679E-01  0.74694454932E-01  0.50881036878E-01  0.88727695848E+00  0.88000000000E+00 0. -1.
        -11    1    4    4    0    0  0.19517826493E-01 -0.15537547804E-01 -0.17146193988E-01  0.30275634297E-01  0.51100000000E-03 0. -1.
         11    1    4    4    0    0  0.68380233326E-01 -0.71259882749E-01 -0.24794438356E-01  0.10182756254E+00  0.51100000000E-03 0.  1.
</event>
<event>
 8    1  0.1092993E+005  0.1043930E+01  0.7957747E-01            NaN
         13   -1    0    0    0    0  0.00000000000E+00  0.00000000000E+00  0.74505805969E-08  0.10566000000E+00  0.10566000000E+00 0. -1.
     999900   -1    0    0    0    0 -0.00000000000E+00 -0.00000000000E+00 -0.74505805969E-08  0.93827000000E+00  0.93827000000E+00 0. -1.
     999902    2    1    2    0    0 -0.23051552137E-01 -0.56556119956E-02 -0.29516236974E-02  0.10200119715E+01  0.10197315088E+01 0.  0.
     999903    2    3    3    0    0 -0.15386226509E-01 -0.29383713135E-01  0.12448916885E+00  0.13048235674E+00  0.20687041725E-01 0.  0.
         14    1    1    2    0    0  0.23051552137E-01  0.56556119956E-02  0.29516236974E-02  0.23918028460E-01  0.00000000000E+00 0.  1.
     999901    1    3    3    0    0 -0.76653256279E-02  0.23728101139E-01 -0.12744079255E+00  0.88952961480E+00  0.88000000000E+00 0. -1.
        -11    1    4    4    0    0 -0.56027435334E-02 -0.12661090417E-01  0.88762929642E-01  0.89837702249E-01  0.51100000000E-03 0.  1.
         11    1    4    4    0    0 -0.97834829754E-02 -0.16722622717E-01  0.35726239209E-01  0.40644654491E-01  0.51100000000E-03 0. -1.
</event>
<event>
 8    1  0.1092993E+005  0.1043930E+01  0.7957747E-01            NaN
         13   -1    0    0    0    0  0.00000000000E+00  0.00000000000E+00  0.74505805969E-08  0.10566000000E+00  0.10566000000E+00 0.  1.
     999900   -1    0    0    0    0 -0.00000000000E+00 -0.00000000000E+00 -0.74505805969E-08  0.93827000000E+00  0.93827000000E+00 0.  1.
     999902    2    1    2    0    0 -0.14513032298E-01 -0.15259537903E-01 -0.10663197256E-01  0.10203252255E+01  0.10200521459E+01 0.  0.
     999903    2    3    3    0    0 -0.61769504776E-01 -0.11367764407E+00  0.22685051079E-01  0.13295190864E+00  0.20579601225E-01 0.  0.
         14    1    1    2    0    0  0.14513032298E-01  0.15259537903E-01  0.10663197256E-01  0.23604774500E-01  0.00000000000E+00 0.  1.
     999901    1    3    3    0    0  0.47256472479E-01  0.98418106165E-01 -0.33348248336E-01  0.88737331686E+00  0.88000000000E+00 0. -1.
        -11    1    4    4    0    0 -0.39929641899E-01 -0.71914899026E-01  0.24364676177E-01  0.85790603042E-01  0.51100000000E-03 0. -1.
         11    1    4    4    0    0 -0.21839862877E-01 -0.41762745042E-01 -0.16796250980E-02  0.47161305595E-01  0.51100000000E-03 0.  1.
</event>
<event>
 8    1  0.1098458E+005  0.1043930E+01  0.7957747E-01            NaN
         13   -1    0    0    0    0  0.00000000000E+00  0.00000000000E+00  0.74505805969E-08  0.10566000000E+00  0.10566000000E+00 0.  1.
     999900   -1    0    0    0    0 -0.00000000000E+00 -0.00000000000E+00 -0.74505805969E-08  0.93827000000E+00  0.93827000000E+00 0.  1.
     999902    2    1    2    0    0 -0.90747962380E-03 -0.46534631441E-02 -0.23113194126E-01  0.10203355519E+01  0.10200627140E+01 0.  0.
     999903    2    3    3    0    0  0.64668873663E-01 -0.58187496308E-01  0.92807893870E-01  0.12870566823E+00  0.19595813873E-01 0.  0.
         14    1    1    2    0    0  0.90747962380E-03  0.46534631441E-02  0.23113194126E-01  0.23594448101E-01  0.00000000000E+00 0.  1.
     999901    1    3    3    0    0 -0.65576353287E-01  0.53534033164E-01 -0.11592108800E+00  0.89162988367E+00  0.88000000000E+00 0. -1.
        -11    1    4    4    0    0  0.50825746884E-01 -0.34971148334E-01  0.58460756913E-01  0.84995052692E-01  0.51100000000E-03 0.  1.
         11    1    4    4    0    0  0.13843126779E-01 -0.23216347974E-01  0.34347136956E-01  0.43710615534E-01  0.51100000000E-03 0. -1.
</event>
<event>
 8    1  0.1092993E+005  0.1043930E+01  0.7957747E-01            NaN
         13   -1    0    0    0    0  0.00000000000E+00  0.00000000000E+00  0.74505805969E-08  0.10566000000E+00  0.10566000000E+00 0.  1.
     999900   -1    0    0    0    0 -0.00000000000E+00 -0.00000000000E+00 -0.74505805969E-08  0.93827000000E+00  0.93827000000E+00 0. -1.
     999902    2    1    2    0    0 -0.18522572767E-01 -0.11610138263E-01  0.11314059063E-01  0.10193151885E+01  0.10190179412E+01 0.  0.
     999903    2    3    3    0    0  0.91954659976E-01  0.71998647642E-01 -0.44830206609E-01  0.12670786913E+00  0.20141298903E-01 0.  0.
         14    1    1    2    0    0  0.18522572767E-01  0.11610138263E-01 -0.11314059063E-01  0.24614811494E-01  0.00000000000E+00 0.  1.
     999901    1    3    3    0    0 -0.11047723274E+00 -0.83608785905E-01  0.56144265671E-01  0.89260731938E+00  0.88000000000E+00 0. -1.
        -11    1    4    4    0    0  0.41571514915E-01  0.24620742314E-01 -0.26719946616E-01  0.55214024239E-01  0.51100000000E-03 0.  1.
         11    1    4    4    0    0  0.50383145061E-01  0.47377905328E-01 -0.18110259993E-01  0.71493844892E-01  0.51100000000E-03 0. -1.
</event>
<event>
 8    1  0.1092993E+005  0.1043930E+01  0.7957747E-01            NaN
         13   -1    0    0    0    0  0.00000000000E+00  0.00000000000E+00  0.74505805969E-08  0.10566000000E+00  0.10566000000E+00 0.  1.
     999900   -1    0    0    0    0 -0.00000000000E+00 -0.00000000000E+00 -0.74505805969E-08  0.93827000000E+00  0.93827000000E+00 0. -1.
     999902    2    1    2    0    0  0.21064572491E-01 -0.24604310218E-02  0.10328614358E-01  0.10203408031E+01  0.10200680881E+01 0.  0.
     999903    2    3    3    0    0 -0.74456284980E-01 -0.95151713070E-02  0.10420282647E+00  0.13017993492E+00  0.21314538541E-01 0.  0.
         14    1    1    2    0    0 -0.21064572491E-01  0.24604310218E-02 -0.10328614358E-01  0.23589196883E-01  0.00000000000E+00 0.  1.
     999901    1    3    3    0    0  0.95520857471E-01  0.70547402852E-02 -0.93874212111E-01  0.89016086820E+00  0.88000000000E+00 0. -1.
        -11    1    4    4    0    0 -0.51229725857E-01  0.15937006095E-02  0.58991345543E-01  0.78148990160E-01  0.51100000000E-03 0. -1.
         11    1    4    4    0    0 -0.23226559123E-01 -0.11108871916E-01  0.45211480926E-01  0.52030944758E-01  0.51100000000E-03 0.  1.
</event>
<event>
 8    1  0.1092993E+005  0.1043930E+01  0.7957747E-01            NaN
         13   -1    0    0    0    0  0.00000000000E+00  0.00000000000E+00  0.74505805969E-08  0.10566000000E+00  0.10566000000E+00 0.  1.
     999900   -1    0    0    0    0 -0.00000000000E+00 -0.00000000000E+00 -0.74505805969E-08  0.93827000000E+00  0.93827000000E+00 0. -1.
     999902    2    1    2    0    0 -0.10706274815E-01 -0.84648639108E-02  0.19272125560E-01  0.10203144741E+01  0.10200411428E+01 0.  0.
     999903    2    3    3    0    0 -0.22039732594E-01  0.35083510107E-01 -0.11983617126E+00  0.12825168122E+00  0.19266117875E-01 0.  0.
         14    1    1    2    0    0  0.10706274815E-01  0.84648639108E-02 -0.19272125560E-01  0.23615525932E-01  0.00000000000E+00 0. -1.
     999901    1    3    3    0    0  0.11333457779E-01 -0.43548374018E-01  0.13910829682E+00  0.89206279285E+00  0.88000000000E+00 0.  1.
        -11    1    4    4    0    0 -0.23356151701E-01  0.32159311046E-01 -0.91906893005E-01  0.10013425594E+00  0.51100000000E-03 0.  1.
         11    1    4    4    0    0  0.13164191069E-02  0.29241990609E-02 -0.27929278256E-01  0.28117425279E-01  0.51100000000E-03 0. -1.
</event>
<event>
 8    1  0.1092993E+005  0.1043930E+01  0.7957747E-01            NaN
         13   -1    0    0    0    0  0.00000000000E+00  0.00000000000E+00  0.74505805969E-08  0.10566000000E+00  0.10566000000E+00 0.  1.
     999900   -1    0    0    0    0 -0.00000000000E+00 -0.00000000000E+00 -0.74505805969E-08  0.93827000000E+00  0.93827000000E+00 0. -1.
     999902    2    1    2    0    0  0.18434358459E-01 -0.76937489748E-02  0.13627718455E-01  0.10197487251E+01  0.10194619798E+01 0.  0.
     999903    2    3    3    0    0  0.23604058408E-01 -0.91153652593E-01 -0.87615308699E-01  0.13000582300E+00  0.18945493938E-01 0.  0.
         14    1    1    2    0    0 -0.18434358459E-01  0.76937489748E-02 -0.13627718455E-01  0.24181274891E-01  0.00000000000E+00 0. -1.
     999901    1    3    3    0    0 -0.51696999485E-02  0.83459903619E-01  0.10124302715E+00  0.88974290211E+00  0.88000000000E+00 0.  1.
        -11    1    4    4    0    0  0.25076679981E-01 -0.72527114349E-01 -0.64269376441E-01  0.10009913118E+00  0.51100000000E-03 0.  1.
         11    1    4    4    0    0 -0.14726215737E-02 -0.18626538244E-01 -0.23345932258E-01  0.29906691814E-01  0.51100000000E-03 0. -1.
</event>
<event>
 8    1  0.1092993E+005  0.1043930E+01  0.7957747E-01            NaN
         13   -1    0    0    0    0  0.00000000000E+00  0.00000000000E+00  0.74505805969E-08  0.10566000000E+00  0.10566000000E+00 0. -1.
     999900   -1    0    0    0    0 -0.00000000000E+00 -0.00000000000E+00 -0.74505805969E-08  0.93827000000E+00  0.93827000000E+00 0. -1.
     999902    2    1    2    0    0  0.16423042377E-01 -0.13389172526E-01  0.11319425469E-01  0.10199067684E+01  0.10196238035E+01 0.  0.
     999903    2    3    3    0    0 -0.11377661183E+00 -0.39666027175E-01  0.42858148836E-01  0.12938045545E+00  0.19595158045E-01 0.  0.
         14    1    1    2    0    0 -0.16423042377E-01  0.13389172526E-01 -0.11319425469E-01  0.24023231564E-01  0.00000000000E+00 0. -1.
     999901    1    3    3    0    0  0.13019965421E+00  0.26276854649E-01 -0.31538723367E-01  0.89052631298E+00  0.88000000000E+00 0. -1.
        -11    1    4    4    0    0 -0.17230449688E-01 -0.48431091119E-02  0.14103903112E-01  0.22793097778E-01  0.51100000000E-03 0.  1.
         11    1    4    4    0    0 -0.96546162146E-01 -0.34822918063E-01  0.28754245724E-01  0.10658735767E+00  0.51100000000E-03 0. -1.
</event>
<event>
 8    1  0.1092993E+005  0.1043930E+01  0.7957747E-01            NaN
         13   -1    0    0    0    0  0.00000000000E+00  0.00000000000E+00  0.74505805969E-08  0.10566000000E+00  0.10566000000E+00 0. -1.
     999900   -1    0    0    0    0 -0.00000000000E+00 -0.00000000000E+00 -0.74505805969E-08  0.93827000000E+00  0.93827000000E+00 0.  1.
     999902    2    1    2    0    0  0.15392356229E-01 -0.19604650972E-01  0.79622984422E-03  0.10189920580E+01  0.10186868573E+01 0.  0.
     999903    2    3    3    0    0  0.27946784492E-01  0.54816376588E-01 -0.11124909569E+00  0.12868297795E+00  0.19927107613E-01 0.  0.
         14    1    1    2    0    0 -0.15392356229E-01  0.19604650972E-01 -0.79622984422E-03  0.24937942016E-01  0.00000000000E+00 0.  1.
     999901    1    3    3    0    0 -0.12554428262E-01 -0.74421027561E-01  0.11204532553E+00  0.89030908003E+00  0.88000000000E+00 0. -1.
        -11    1    4    4    0    0  0.22710277510E-01  0.24179397043E-01 -0.64676015345E-01  0.72688706329E-01  0.51100000000E-03 0. -1.
         11    1    4    4    0    0  0.52365069816E-02  0.30636979546E-01 -0.46573080342E-01  0.55994271623E-01  0.51100000000E-03 0.  1.
</event>
<event>
 8    1  0.1092993E+005  0.1043930E+01  0.7957747E-01            NaN
         13   -1    0    0    0    0  0.00000000000E+00  0.00000000000E+00  0.74505805969E-08  0.10566000000E+00  0.10566000000E+00 0.  1.
     999900   -1    0    0    0    0 -0.00000000000E+00 -0.00000000000E+00 -0.74505805969E-08  0.93827000000E+00  0.93827000000E+00 0.  1.
     999902    2    1    2    0    0 -0.11353143894E-01  0.10719363634E-01 -0.17155873047E-01  0.10207325300E+01  0.10204688997E+01 0.  0.
     999903    2    3    3    0    0 -0.11702086920E-01 -0.10451881833E+00  0.71685360814E-01  0.12878369451E+00  0.19629742610E-01 0.  0.
         14    1    1    2    0    0  0.11353143894E-01 -0.10719363634E-01  0.17155873047E-01  0.23197469970E-01  0.00000000000E+00 0. -1.
     999901    1    3    3    0    0  0.34894302582E-03  0.11523818196E+00 -0.88841233861E-01  0.89194883552E+00  0.88000000000E+00 0.  1.
        -11    1    4    4    0    0  0.18646801593E-02 -0.66042384763E-01  0.47211990979E-01  0.81205337451E-01  0.51100000000E-03 0. -1.
         11    1    4    4    0    0 -0.13566767079E-01 -0.38476433565E-01  0.24473369835E-01  0.47578357064E-01  0.51100000000E-03 0.  1.
</event>
<event>
 8    1  0.1092993E+005  0.1043930E+01  0.7957747E-01            NaN
         13   -1    0    0    0    0  0.00000000000E+00  0.00000000000E+00  0.74505805969E-08  0.10566000000E+00  0.10566000000E+00 0. -1.
     999900   -1    0    0    0    0 -0.00000000000E+00 -0.00000000000E+00 -0.74505805969E-08  0.93827000000E+00  0.93827000000E+00 0. -1.
     999902    2    1    2    0    0 -0.47918890069E-02  0.21300399555E-01  0.11131507333E-01  0.10194232728E+01  0.10191286619E+01 0.  0.
     999903    2    3    3    0    0 -0.12024325684E+00  0.46124353136E-01 -0.14931026840E-01  0.13115276071E+00  0.19804401310E-01 0.  0.
         14    1    1    2    0    0  0.47918890069E-02 -0.21300399555E-01 -0.11131507333E-01  0.24506727177E-01  0.00000000000E+00 0. -1.
     999901    1    3    3    0    0  0.11545136783E+00 -0.24823953581E-01  0.26062534173E-01  0.88827051212E+00  0.88000000000E+00 0.  1.
        -11    1    4    4    0    0 -0.41902546374E-01  0.25163743839E-01 -0.10086332941E-01  0.49910245740E-01  0.51100000000E-03 0. -1.
         11    1    4    4    0    0 -0.78340710465E-01  0.20960609297E-01 -0.48446938990E-02  0.81242514968E-01  0.51100000000E-03 0.  1.
</event>
<event>
 8    1  0.1092993E+005  0.1043930E+01  0.7957747E-01            NaN
         13   -1    0    0    0    0  0.00000000000E+00  0.00000000000E+00  0.74505805969E-08  0.10566000000E+00  0.10566000000E+00 0.  1.
     999900   -1    0    0    0    0 -0.00000000000E+00 -0.00000000000E+00 -0.74505805969E-08  0.93827000000E+00  0.93827000000E+00 0. -1.
     999902    2    1    2    0    0  0.42540583368E-03 -0.19023828576E-01 -0.12063992181E-01  0.10213994223E+01  0.10211508963E+01 0.  0.
     999903    2    3    3    0    0 -0.12916335229E+00 -0.13305304815E-01  0.74869684006E-02  0.13167576419E+00  0.20548709664E-01 0.  0.
         14    1    1    2    0    0 -0.42540583368E-03  0.19023828576E-01  0.12063992181E-01  0.22530577693E-01  0.00000000000E+00 0.  1.
     999901    1    3    3    0    0  0.12958875813E+00 -0.57185237618E-02 -0.19550960582E-01  0.88972365811E+00  0.88000000000E+00 0. -1.
        -11    1    4    4    0    0 -0.32941765316E-01 -0.61668472076E-02  0.10552193780E-01  0.35139718571E-01  0.51100000000E-03 0.  1.
         11    1    4    4    0    0 -0.96221586975E-01 -0.71384576070E-02 -0.30652253793E-02  0.96536045624E-01  0.51100000000E-03 0. -1.
</event>
<event>
 8    1  0.1092993E+005  0.1043930E+01  0.7957747E-01            NaN
         13   -1    0    0    0    0  0.00000000000E+00  0.00000000000E+00  0.74505805969E-08  0.10566000000E+00  0.10566000000E+00 0. -1.
     999900   -1    0    0    0    0 -0.00000000000E+00 -0.00000000000E+00 -0.74505805969E-08  0.93827000000E+00  0.93827000000E+00 0.  1.
     999902    2    1    2    0    0  0.14918813877E-01  0.14162738953E-01  0.94128846127E-02  0.10213079625E+01  0.10210573920E+01 0.  0.
     999903    2    3    3    0    0  0.82308915704E-01 -0.52254395536E-01  0.88736510862E-01  0.13268830303E+00  0.15057820060E-01 0.  0.
         14    1    1    2    0    0 -0.14918813877E-01 -0.14162738953E-01 -0.94128846127E-02  0.22622037460E-01  0.00000000000E+00 0.  1.
     999901    1    3    3    0    0 -0.67390101828E-01  0.66417134489E-01 -0.79323626249E-01  0.88861965951E+00  0.88000000000E+00 0.  1.
        -11    1    4    4    0    0  0.19600956935E-01 -0.94832134296E-02  0.12530609916E-01  0.25127796473E-01  0.51100000000E-03 0.  1.
         11    1    4    4    0    0  0.62707958770E-01 -0.42771182106E-01  0.76205900946E-01  0.10756050656E+00  0.51100000000E-03 0. -1.
</event>
<event>
 8    1  0.1092993E+005  0.1043930E+01  0.7957747E-01            NaN
         13   -1    0    0    0    0  0.00000000000E+00  0.00000000000E+00  0.74505805969E-08  0.10566000000E+00  0.10566000000E+00 0. -1.
     999900   -1    0    0    0    0 -0.00000000000E+00 -0.00000000000E+00 -0.74505805969E-08  0.93827000000E+00  0.93827000000E+00 0. -1.
     999902    2    1    2    0    0 -0.85084374840E-03  0.23829283098E-01  0.65152836597E-02  0.10192114323E+01  0.10189116429E+01 0.  0.
     999903    2    3    3    0    0 -0.36692407677E-01 -0.10944993700E+00  0.50035589853E-01  0.12739195210E+00  0.19988189462E-01 0.  0.
         14    1    1    2    0    0  0.85084374840E-03 -0.23829283098E-01 -0.65152836597E-02  0.24718567701E-01  0.00000000000E+00 0.  1.
     999901    1    3    3    0    0  0.35841563928E-01  0.13327922009E+00 -0.43520306193E-01  0.89181948020E+00  0.88000000000E+00 0.  1.
        -11    1    4    4    0    0 -0.30433335767E-01 -0.59775809074E-01  0.29279083595E-01  0.73190580907E-01  0.51100000000E-03 0. -1.
         11    1    4    4    0    0 -0.62590719095E-02 -0.49674127922E-01  0.20756506258E-01  0.54201371191E-01  0.51100000000E-03 0.  1.
</event>
<event>
 7    1  0.1092993E+005  0.1043930E+01  0.7957747E-01            NaN
         13   -1    0    0    0    0  0.00000000000E+00  0.00000000000E+00  0.74505805969E-08  0.10566000000E+00  0.10566000000E+00 0.  1.
     999900   -1    0    0    0    0 -0.00000000000E+00 -0.00000000000E+00 -0.74505805969E-08  0.93827000000E+00  0.93827000000E+00 0.  1.
     999902    2    1    2    0    0  0.19282338377E-01  0.11059940037E-01  0.79941340200E-02  0.10203071927E+01  0.10200336908E+01 0.  0.
         14    1    1    2    0    0 -0.19282338377E-01 -0.11059940037E-01 -0.79941340200E-02  0.23622807319E-01  0.00000000000E+00 0.  1.
     999901    1    3    3    0    0 -0.44710783152E-01  0.11252908843E+00  0.12368792109E-01  0.88837764317E+00  0.88000000000E+00 0.  1.
        -11    1    3    3    0    0  0.47053602265E-01 -0.82649891700E-01  0.19544478085E-01  0.97094252295E-01  0.51100000000E-03 0.  1.
         11    1    3    3    0    0  0.16939519264E-01 -0.18819256696E-01 -0.23919136174E-01  0.34835297211E-01  0.51100000000E-03 0. -1.
</event>
<event>
 8    1  0.1092993E+005  0.1043930E+01  0.7957747E-01            NaN
         13   -1    0    0    0    0  0.00000000000E+00  0.00000000000E+00  0.74505805969E-08  0.10566000000E+00  0.10566000000E+00 0.  1.
     999900   -1    0    0    0    0 -0.00000000000E+00 -0.00000000000E+00 -0.74505805969E-08  0.93827000000E+00  0.93827000000E+00 0. -1.
     999902    2    1    2    0    0 -0.88327719169E-04 -0.16913216463E-01 -0.29867970455E-01  0.10096056595E+01  0.10090220153E+01 0.  0.
     999903    2    3    3    0    0 -0.19645441781E-01 -0.27925281313E-01  0.11124781169E+00  0.11808033160E+00  0.20028089950E-01 0.  0.
         14    1    1    2    0    0  0.88327719169E-04  0.16913216463E-01  0.29867970455E-01  0.34324340518E-01  0.00000000000E+00 0.  1.
     999901    1    3    3    0    0  0.19557114061E-01  0.11012064850E-01 -0.14111578214E+00  0.89152532788E+00  0.88000000000E+00 0. -1.
        -11    1    4    4    0    0 -0.37183029289E-02 -0.33936376019E-02  0.49453298044E-01  0.49711491240E-01  0.51100000000E-03 0. -1.
         11    1    4    4    0    0 -0.15927138852E-01 -0.24531643711E-01  0.61794513642E-01  0.68368840362E-01  0.51100000000E-03 0.  1.
</event>
<event>
 8    1  0.1092993E+005  0.1043930E+01  0.7957747E-01            NaN
         13   -1    0    0    0    0  0.00000000000E+00  0.00000000000E+00  0.74505805969E-08  0.10566000000E+00  0.10566000000E+00 0. -1.
     999900   -1    0    0    0    0 -0.00000000000E+00 -0.00000000000E+00 -0.74505805969E-08  0.93827000000E+00  0.93827000000E+00 0.  1.
     999902    2    1    2    0    0  0.95112046732E-02  0.10152809480E-01  0.19498826509E-01  0.10199769879E+01  0.10196956943E+01 0.  0.
     999903    2    3    3    0    0 -0.24835121444E-01 -0.57417477152E-01  0.11410177485E+00  0.13166672024E+00  0.20083830696E-01 0.  0.
         14    1    1    2    0    0 -0.95112046732E-02 -0.10152809480E-01 -0.19498826509E-01  0.23953012126E-01  0.00000000000E+00 0.  1.
     999901    1    3    3    0    0  0.34346326117E-01  0.67570286631E-01 -0.94602948338E-01  0.88831026764E+00  0.88000000000E+00 0.  1.
        -11    1    4    4    0    0 -0.11971350912E-01 -0.79980017555E-02  0.20778970641E-01  0.25284541061E-01  0.51100000000E-03 0. -1.
         11    1    4    4    0    0 -0.12863770532E-01 -0.49419475396E-01  0.93322804206E-01  0.10638217918E+00  0.51100000000E-03 0.  1.
</event>
<event>
 8    1  0.1092993E+005  0.1043930E+01  0.7957747E-01            NaN
         13   -1    0    0    0    0  0.00000000000E+00  0.00000000000E+00  0.74505805969E-08  0.10566000000E+00  0.10566000000E+00 0.  1.
     999900   -1    0    0    0    0 -0.00000000000E+00 -0.00000000000E+00 -0.74505805969E-08  0.93827000000E+00  0.93827000000E+00 0.  1.
     999902    2    1    2    0    0  0.27831540914E-03  0.22864786932E-01 -0.21545494177E-02  0.10209622395E+01  0.10207038632E+01 0.  0.
     999903    2    3    3    0    0  0.86358768714E-01 -0.31540480336E-03 -0.97171394230E-01  0.13136943007E+00  0.18913246301E-01 0.  0.
         14    1    1    2    0    0 -0.27831540914E-03 -0.22864786932E-01  0.21545494177E-02  0.22967760537E-01  0.00000000000E+00 0. -1.
     999901    1    3    3    0    0 -0.86080453305E-01  0.23180191735E-01  0.95016844812E-01  0.88959280940E+00  0.88000000000E+00 0. -1.
        -11    1    4    4    0    0  0.23292190910E-01 -0.60363818575E-02 -0.18379034647E-01  0.30282240652E-01  0.51100000000E-03 0. -1.
         11    1    4    4    0    0  0.63066577804E-01  0.57209770542E-02 -0.78792359583E-01  0.10108718942E+00  0.51100000000E-03 0.  1.
</event>
<event>
 8    1  0.1092993E+005  0.1043930E+01  0.7957747E-01            NaN
         13   -1    0    0    0    0  0.00000000000E+00  0.00000000000E+00  0.74505805969E-08  0.10566000000E+00  0.10566000000E+00 0. -1.
     999900   -1    0    0    0    0 -0.00000000000E+00 -0.00000000000E+00 -0.74505805969E-08  0.93827000000E+00  0.93827000000E+00 0. -1.
     999902    2    1    2    0    0 -0.17998816161E-01 -0.35867067794E-02 -0.14157718320E-01  0.10207510691E+01  0.10204878648E+01 0.  0.
     999903    2    3    3    0    0 -0.11457752132E+00 -0.65001180106E-01  0.27524387408E-02  0.13317845956E+00  0.19384642488E-01 0.  0.
         14    1    1    2    0    0  0.17998816161E-01  0.35867067794E-02  0.14157718320E-01  0.23178930880E-01  0.00000000000E+00 0.  1.
     999901    1    3    3    0    0  0.96578705164E-01  0.61414473327E-01 -0.16910157061E-01  0.88757260956E+00  0.88000000000E+00 0. -1.
        -11    1    4    4    0    0 -0.41761327326E-01 -0.34612585342E-01  0.72039821870E-03  0.54247761417E-01  0.51100000000E-03 0.  1.
         11    1    4    4    0    0 -0.72816193998E-01 -0.30388594764E-01  0.20320405221E-02  0.78930698146E-01  0.51100000000E-03 0. -1.
</event>
<event>
 8    1  0.1092993E+005  0.1043930E+01  0.7957747E-01            NaN
         13   -1    0    0    0    0  0.00000000000E+00  0.00000000000E+00  0.74505805969E-08  0.10566000000E+00  0.10566000000E+00 0. -1.
     999900   -1    0    0    0    0 -0.00000000000E+00 -0.00000000000E+00 -0.74505805969E-08  0.93827000000E+00  0.93827000000E+00 0.  1.
     999902    2    1    2    0    0 -0.21637166610E-01  0.34207569002E-02 -0.91129313200E-02  0.10202041897E+01  0.10199282694E+01 0.  0.
     999903    2    3    3    0    0 -0.50843136654E-01 -0.11015530972E+00  0.44388286655E-01  0.13081400991E+00  0.20561332493E-01 0.  0.
         14    1    1    2    0    0  0.21637166610E-01 -0.34207569002E-02  0.91129313200E-02  0.23725810290E-01  0.00000000000E+00 0. -1.
     999901    1    3    3    0    0  0.29205970045E-01  0.11357606662E+00 -0.53501217975E-01  0.88939017980E+00  0.88000000000E+00 0. -1.
        -11    1    4    4    0    0 -0.22420140693E-01 -0.47915606865E-01  0.30258249251E-01  0.60945802633E-01  0.51100000000E-03 0.  1.
         11    1    4    4    0    0 -0.28422995961E-01 -0.62239702852E-01  0.14130037404E-01  0.69868207280E-01  0.51100000000E-03 0. -1.
</event>
<event>
 8    1  0.1092993E+005  0.1043930E+01  0.7957747E-01            NaN
         13   -1    0    0    0    0  0.00000000000E+00  0.00000000000E+00  0.74505805969E-08  0.10566000000E+00  0.10566000000E+00 0. -1.
     999900   -1    0    0    0    0 -0.00000000000E+00 -0.00000000000E+00 -0.74505805969E-08  0.93827000000E+00  0.93827000000E+00 0.  1.
     999902    2    1    2    0    0 -0.22828231460E-01  0.19852818802E-02  0.40622770174E-02  0.10206583093E+01  0.10203929697E+01 0.  0.
     999903    2    3    3    0    0 -0.12777492543E+00  0.16708922324E-01 -0.29436513609E-01  0.13366746198E+00  0.19871145071E-01 0.  0.
         14    1    1    2    0    0  0.22828231460E-01 -0.19852818802E-02 -0.40622770174E-02  0.23271690749E-01  0.00000000000E+00 0. -1.
     999901    1    3    3    0    0  0.10494669397E+00 -0.14723640444E-01  0.33498790627E-01  0.88699084727E+00  0.88000000000E+00 0. -1.
        -11    1    4    4    0    0 -0.38326613534E-01  0.93204482441E-02 -0.17383498965E-01  0.43107391683E-01  0.51100000000E-03 0. -1.
         11    1    4    4    0    0 -0.89448311894E-01  0.73884740797E-02 -0.12053014645E-01  0.90560070301E-01  0.51100000000E-03 0.  1.
</event>
<event>
 7    1  0.1092993E+005  0.1043930E+01  0.7957747E-01            NaN
         13   -1    0    0    0    0  0.00000000000E+00  0.00000000000E+00  0.74505805969E-08  0.10566000000E+00  0.10566000000E+00 0. -1.
     999900   -1    0    0    0    0 -0.00000000000E+00 -0.00000000000E+00 -0.74505805969E-08  0.93827000000E+00  0.93827000000E+00 0. -1.
     999903    2    1    2    0    0  0.57037107301E-01  0.31447563086E-01  0.11040802179E-02  0.67440759193E-01  0.17460130991E-01 0.  0.
         14    1    1    2    0    0 -0.10287349957E-01 -0.11469157130E-01  0.89096512437E-01  0.90418801489E-01  0.00000000000E+00 0. -1.
     999901    1    1    2    0    0 -0.46749757344E-01 -0.19978405956E-01 -0.90200592655E-01  0.88607043932E+00  0.88000000000E+00 0. -1.
        -11    1    3    3    0    0  0.20602908952E-01  0.20558851508E-01  0.35839603294E-02  0.29330054982E-01  0.51100000000E-03 0. -1.
         11    1    3    3    0    0  0.36434198348E-01  0.10888711578E-01 -0.24798801115E-02  0.38110704211E-01  0.51100000000E-03 0.  1.
</event>
<event>
 7    1  0.1092993E+005  0.1043930E+01  0.7957747E-01            NaN
         13   -1    0    0    0    0  0.00000000000E+00  0.00000000000E+00  0.74505805969E-08  0.10566000000E+00  0.10566000000E+00 0. -1.
     999900   -1    0    0    0    0 -0.00000000000E+00 -0.00000000000E+00 -0.74505805969E-08  0.93827000000E+00  0.93827000000E+00 0.  1.
     999902    2    1    2    0    0  0.85015012006E-02 -0.12375857376E-02 -0.20260658965E-01  0.10219231501E+01  0.10216861667E+01 0.  0.
         14    1    1    2    0    0 -0.85015012006E-02  0.12375857376E-02  0.20260658965E-01  0.22006849907E-01  0.00000000000E+00 0. -1.
     999901    1    3    3    0    0  0.66652921252E-01 -0.93076669161E-02 -0.13515105670E+00  0.89285780094E+00  0.88000000000E+00 0.  1.
        -11    1    3    3    0    0 -0.45045117500E-01  0.49312076052E-02  0.88144439371E-01  0.99111466199E-01  0.51100000000E-03 0.  1.
         11    1    3    3    0    0 -0.13106302551E-01  0.31388735733E-02  0.26745958368E-01  0.29953882952E-01  0.51100000000E-03 0. -1.
</event>
<event>
 8    1  0.1092993E+005  0.1043930E+01  0.7957747E-01            NaN
         13   -1    0    0    0    0  0.00000000000E+00  0.00000000000E+00  0.74505805969E-08  0.10566000000E+00  0.10566000000E+00 0. -1.
     999900   -1    0    0    0    0 -0.00000000000E+00 -0.00000000000E+00 -0.74505805969E-08  0.93827000000E+00  0.93827000000E+00 0. -1.
     999902    2    1    2    0    0  0.99712954765E-04  0.80902395476E-02  0.22537328955E-01  0.10199843717E+01  0.10197032536E+01 0.  0.
     999903    2    3    3    0    0 -0.27271885517E-01 -0.11892020357E+00 -0.35115960901E-01  0.12857831445E+00  0.20334248926E-01 0.  0.
         14    1    1    2    0    0 -0.99712954765E-04 -0.80902395476E-02 -0.22537328955E-01  0.23945628307E-01  0.00000000000E+00 0.  1.
     999901    1    3    3    0    0  0.27371598472E-01  0.12701044312E+00  0.57653289857E-01  0.89140605725E+00  0.88000000000E+00 0. -1.
        -11    1    4    4    0    0 -0.98040804709E-02 -0.66200249910E-01 -0.28145583053E-01  0.72601846040E-01  0.51100000000E-03 0.  1.
         11    1    4    4    0    0 -0.17467805046E-01 -0.52719953659E-01 -0.69703778485E-02  0.55976468407E-01  0.51100000000E-03 0. -1.
</event>
<event>
 8    1  0.1092993E+005  0.1043930E+01  0.7957747E-01            NaN
         13   -1    0    0    0    0  0.00000000000E+00  0.00000000000E+00  0.74505805969E-08  0.10566000000E+00  0.10566000000E+00 0.  1.
     999900   -1    0    0    0    0 -0.00000000000E+00 -0.00000000000E+00 -0.74505805969E-08  0.93827000000E+00  0.93827000000E+00 0.  1.
     999902    2    1    2    0    0  0.11106290273E-01  0.11368310820E-01 -0.18521220030E-01  0.10195245956E+01  0.10192324451E+01 0.  0.
     999903    2    3    3    0    0 -0.12338796919E+00  0.17176543462E-01  0.23122480444E-01  0.12831382409E+00  0.20252500185E-01 0.  0.
         14    1    1    2    0    0 -0.11106290273E-01 -0.11368310820E-01  0.18521220030E-01  0.24405404441E-01  0.00000000000E+00 0.  1.
     999901    1    3    3    0    0  0.13449425946E+00 -0.58082326419E-02 -0.41643700474E-01  0.89121077147E+00  0.88000000000E+00 0. -1.
        -11    1    4    4    0    0 -0.11394425660E+00  0.15437401227E-01  0.15465837198E-01  0.11602180920E+00  0.51100000000E-03 0. -1.
         11    1    4    4    0    0 -0.94437125915E-02  0.17391422347E-02  0.76566432455E-02  0.12292014888E-01  0.51100000000E-03 0.  1.
</event>
<event>
 8    1  0.1092993E+005  0.1043930E+01  0.7957747E-01            NaN
         13   -1    0    0    0    0  0.00000000000E+00  0.00000000000E+00  0.74505805969E-08  0.10566000000E+00  0.10566000000E+00 0.  1.
     999900   -1    0    0    0    0 -0.00000000000E+00 -0.00000000000E+00 -0.74505805969E-08  0.93827000000E+00  0.93827000000E+00 0.  1.
     999902    2    1    2    0    0 -0.14092333802E-01  0.20731061574E-01 -0.58596586650E-02  0.10181869158E+01  0.10178614292E+01 0.  0.
     999903    2    3    3    0    0 -0.24345218613E-01  0.11627425001E+00 -0.53358099206E-01  0.13168270012E+00  0.19515529112E-01 0.  0.
         14    1    1    2    0    0  0.14092333802E-01 -0.20731061574E-01  0.58596586650E-02  0.25743084230E-01  0.00000000000E+00 0.  1.
     999901    1    3    3    0    0  0.10252884811E-01 -0.95543188436E-01  0.47498440541E-01  0.88650421565E+00  0.88000000000E+00 0. -1.
        -11    1    4    4    0    0 -0.66171659770E-02  0.71124145103E-01 -0.37300673485E-01  0.80585558666E-01  0.51100000000E-03 0. -1.
         11    1    4    4    0    0 -0.17728052636E-01  0.45150104907E-01 -0.16057425721E-01  0.51097141458E-01  0.51100000000E-03 0.  1.
</event>
<event>
 8    1  0.1092993E+005  0.1043930E+01  0.7957747E-01            NaN
         13   -1    0    0    0    0  0.00000000000E+00  0.00000000000E+00  0.74505805969E-08  0.10566000000E+00  0.10566000000E+00 0. -1.
     999900   -1    0    0    0    0 -0.00000000000E+00 -0.00000000000E+00 -0.74505805969E-08  0.93827000000E+00  0.93827000000E+00 0.  1.
     999902    2    1    2    0    0 -0.21848138849E-01  0.54843429983E-02 -0.60325104041E-02  0.10206102579E+01  0.10203438088E+01 0.  0.
     999903    2    3    3    0    0  0.95645157003E-01 -0.75375753973E-01  0.34367469718E-01  0.12821169883E+00  0.20678887729E-01 0.  0.
         14    1    1    2    0    0  0.21848138849E-01 -0.54843429983E-02  0.60325104041E-02  0.23319742088E-01  0.00000000000E+00 0. -1.
     999901    1    3    3    0    0 -0.11749329585E+00  0.80860096971E-01 -0.40399980122E-01  0.89239855908E+00  0.88000000000E+00 0. -1.
        -11    1    4    4    0    0  0.46102736749E-01 -0.47424585834E-01  0.24164256280E-01  0.70418222641E-01  0.51100000000E-03 0. -1.
         11    1    4    4    0    0  0.49542420254E-01 -0.27951168139E-01  0.10203213438E-01  0.57793476192E-01  0.51100000000E-03 0.  1.
</event>
<event>
 8    1  0.1092993E+005  0.1043930E+01  0.7957747E-01            NaN
         13   -1    0    0    0    0  0.00000000000E+00  0.00000000000E+00  0.74505805969E-08  0.10566000000E+00  0.10566000000E+00 0.  1.
     999900   -1    0    0    0    0 -0.00000000000E+00 -0.00000000000E+00 -0.74505805969E-08  0.93827000000E+00  0.93827000000E+00 0. -1.
     999902    2    1    2    0    0 -0.11171038238E-01 -0.15456946829E-01  0.14701087798E-01  0.10198503139E+01  0.10195660015E+01 0.  0.
     999903    2    3    3    0    0 -0.72143892781E-02  0.45395204810E-01 -0.11770947429E+00  0.12785749084E+00  0.19474228954E-01 0.  0.
         14    1    1    2    0    0  0.11171038238E-01  0.15456946829E-01 -0.14701087798E-01  0.24079686107E-01  0.00000000000E+00 0.  1.
     999901    1    3    3    0    0 -0.39566489596E-02 -0.60852151639E-01  0.13241056209E+00  0.89199282306E+00  0.88000000000E+00 0.  1.
        -11    1    4    4    0    0  0.57766999912E-02  0.19918957497E-01 -0.59230450214E-01  0.62758604862E-01  0.51100000000E-03 0. -1.
         11    1    4    4    0    0 -0.12991089269E-01  0.25476247313E-01 -0.58479024075E-01  0.65098885976E-01  0.51100000000E-03 0.  1.
</event>
<event>
 8    1  0.1092993E+005  0.1043930E+01  0.7957747E-01            NaN
         13   -1    0    0    0    0  0.00000000000E+00  0.00000000000E+00  0.74505805969E-08  0.10566000000E+00  0.10566000000E+00 0. -1.
     999900   -1    0    0    0    0 -0.00000000000E+00 -0.00000000000E+00 -0.74505805969E-08  0.93827000000E+00  0.93827000000E+00 0. -1.
     999902    2    1    2    0    0 -0.12216427340E-01 -0.16588806328E-01  0.11866401582E-01  0.10201552008E+01  0.10198781263E+01 0.  0.
     999903    2    3    3    0    0 -0.12023105027E+00 -0.39250352381E-01  0.29180447647E-01  0.13309236160E+00  0.29427581938E-01 0.  0.
         14    1    1    2    0    0  0.12216427340E-01  0.16588806328E-01 -0.11866401582E-01  0.23774799239E-01  0.00000000000E+00 0. -1.
     999901    1    3    3    0    0  0.10801462293E+00  0.22661546053E-01 -0.17314046065E-01  0.88706283917E+00  0.88000000000E+00 0.  1.
        -11    1    4    4    0    0 -0.74509947319E-01 -0.11949870973E-01  0.84096538429E-02  0.75930988829E-01  0.51100000000E-03 0.  1.
         11    1    4    4    0    0 -0.45721102953E-01 -0.27300481408E-01  0.20770793804E-01  0.57161372767E-01  0.51100000000E-03 0. -1.
</event>
<event>
 7    1  0.1092993E+005  0.1043930E+01  0.7957747E-01            NaN
         13   -1    0    0    0    0  0.00000000000E+00  0.00000000000E+00  0.74505805969E-08  0.10566000000E+00  0.10566000000E+00 0.  1.
     999900   -1    0    0    0    0 -0.00000000000E+00 -0.00000000000E+00 -0.74505805969E-08  0.93827000000E+00  0.93827000000E+00 0.  1.
     999902    2    1    2    0    0 -0.14448965036E-01 -0.16625869738E-01  0.86576552016E-02  0.10202625724E+01  0.10199880242E+01 0.  0.
         14    1    1    2    0    0  0.14448965036E-01  0.16625869738E-01 -0.86576552016E-02  0.23667427590E-01  0.00000000000E+00 0.  1.
     999901    1    3    3    0    0  0.24819476511E-01  0.97153078493E-01 -0.48347521480E-01  0.88701308328E+00  0.88000000000E+00 0. -1.
        -11    1    3    3    0    0 -0.35180454791E-01 -0.10193017451E+00  0.52367451118E-01  0.11987508471E+00  0.51100000000E-03 0. -1.
         11    1    3    3    0    0 -0.40879867556E-02 -0.11848773718E-01  0.46377255641E-02  0.13374404426E-01  0.51100000000E-03 0.  1.
</event>
<event>
 8    1  0.1092993E+005  0.1043930E+01  0.7957747E-01            NaN
         13   -1    0    0    0    0  0.00000000000E+00  0.00000000000E+00  0.74505805969E-08  0.10566000000E+00  0.10566000000E+00 0. -1.
     999900   -1    0    0    0    0 -0.00000000000E+00 -0.00000000000E+00 -0.74505805969E-08  0.93827000000E+00  0.93827000000E+00 0.  1.
     999902    2    1    2    0    0 -0.21800247045E-02 -0.22649348734E-01  0.24806331998E-02  0.10210411589E+01  0.10207845753E+01 0.  0.
     999903    2    3    3    0    0  0.10847874062E+00 -0.39868725063E-01 -0.59988937039E-01  0.13174687888E+00  0.20035346893E-01 0.  0.
         14    1    1    2    0    0  0.21800247045E-02  0.22649348734E-01 -0.24806331998E-02  0.22888841099E-01  0.00000000000E+00 0.  1.
     999901    1    3    3    0    0 -0.11065876532E+00  0.17219376329E-01  0.62469570239E-01  0.88929428002E+00  0.88000000000E+00 0. -1.
        -11    1    4    4    0    0  0.17124950937E-01 -0.14568976411E-01 -0.10716894494E-01  0.24912486164E-01  0.51100000000E-03 0.  1.
         11    1    4    4    0    0  0.91353789679E-01 -0.25299748651E-01 -0.49272042545E-01  0.10683439272E+00  0.51100000000E-03 0. -1.
</event>
<event>
 8    1  0.1092993E+005  0.1043930E+01  0.7957747E-01            NaN
         13   -1    0    0    0    0  0.00000000000E+00  0.00000000000E+00  0.74505805969E-08  0.10566000000E+00  0.10566000000E+00 0.  1.
     999900   -1    0    0    0    0 -0.00000000000E+00 -0.00000000000E+00 -0.74505805969E-08  0.93827000000E+00  0.93827000000E+00 0. -1.
     999902    2    1    2    0    0 -0.24710307543E-02 -0.12140011194E-02  0.24131419431E-01  0.10196420360E+01  0.10193527242E+01 0.  0.
     999903    2    3    3    0    0 -0.77215810781E-01  0.10003644270E+00  0.25844788859E-01  0.13068682332E+00  0.21012410013E-01 0.  0.
         14    1    1    2    0    0  0.24710307543E-02  0.12140011194E-02 -0.24131419431E-01  0.24287964004E-01  0.00000000000E+00 0. -1.
     999901    1    3    3    0    0  0.74744780027E-01 -0.10125044382E+00 -0.17133694275E-02  0.88895521268E+00  0.88000000000E+00 0.  1.
        -11    1    4    4    0    0 -0.20651721567E-01  0.42989598188E-01  0.11762650791E-01  0.49124537969E-01  0.51100000000E-03 0. -1.
         11    1    4    4    0    0 -0.56564089215E-01  0.57046844513E-01  0.14082138068E-01  0.81562285347E-01  0.51100000000E-03 0.  1.
</event>
<event>
 8    1  0.1092993E+005  0.1043930E+01  0.7957747E-01            NaN
         13   -1    0    0    0    0  0.00000000000E+00  0.00000000000E+00  0.74505805969E-08  0.10566000000E+00  0.10566000000E+00 0. -1.
     999900   -1    0    0    0    0 -0.00000000000E+00 -0.00000000000E+00 -0.74505805969E-08  0.93827000000E+00  0.93827000000E+00 0.  1.
     999902    2    1    2    0    0 -0.20358276069E-01 -0.13276009602E-01 -0.15422722841E-02  0.10195765518E+01  0.10192856589E+01 0.  0.
     999903    2    3    3    0    0  0.46824869628E-01  0.32834829847E-01  0.11321451699E+00  0.12839256111E+00  0.19910510357E-01 0.  0.
         14    1    1    2    0    0  0.20358276069E-01  0.13276009602E-01  0.15422722841E-02  0.24353448201E-01  0.00000000000E+00 0.  1.
     999901    1    3    3    0    0 -0.67183145697E-01 -0.46110839449E-01 -0.11475678928E+00  0.89118399069E+00  0.88000000000E+00 0.  1.
        -11    1    4    4    0    0  0.27155292093E-01  0.98469064639E-02  0.41598603987E-01  0.50646583599E-01  0.51100000000E-03 0. -1.
         11    1    4    4    0    0  0.19669577534E-01  0.22987923383E-01  0.71615913007E-01  0.77745977508E-01  0.51100000000E-03 0.  1.
</event>
<event>
 8    1  0.1092993E+005  0.1043930E+01  0.7957747E-01            NaN
         13   -1    0    0    0    0  0.00000000000E+00  0.00000000000E+00  0.74505805969E-08  0.10566000000E+00  0.10566000000E+00 0. -1.
     999900   -1    0    0    0    0 -0.00000000000E+00 -0.00000000000E+00 -0.74505805969E-08  0.93827000000E+00  0.93827000000E+00 0.  1.
     999902    2    1    2    0    0  0.12015673146E-01 -0.10540684240E-01  0.12622611432E-01  0.10235630477E+01  0.10233603959E+01 0.  0.
     999903    2    3    3    0    0 -0.25727472675E-01 -0.47519898531E-02  0.13055774824E+00  0.13487482876E+00  0.21480445751E-01 0.  0.
         14    1    1    2    0    0 -0.12015673146E-01  0.10540684240E-01 -0.12622611432E-01  0.20366952270E-01  0.00000000000E+00 0.  1.
     999901    1    3    3    0    0  0.37743145822E-01 -0.57886943868E-02 -0.11793513681E+00  0.88868821897E+00  0.88000000000E+00 0.  1.
        -11    1    4    4    0    0 -0.24926911224E-01 -0.62899618788E-02  0.74957482705E-01  0.79245188233E-01  0.51100000000E-03 0.  1.
         11    1    4    4    0    0 -0.80056145157E-03  0.15379720257E-02  0.55600265537E-01  0.55629640529E-01  0.51100000000E-03 0. -1.
</event>
<event>
 8    1  0.1092993E+005  0.1043930E+01  0.7957747E-01            NaN
         13   -1    0    0    0    0  0.00000000000E+00  0.00000000000E+00  0.74505805969E-08  0.10566000000E+00  0.10566000000E+00 0.  1.
     999900   -1    0    0    0    0 -0.00000000000E+00 -0.00000000000E+00 -0.74505805969E-08  0.93827000000E+00  0.93827000000E+00 0.  1.
     999902    2    1    2    0    0 -0.11716268980E-01 -0.20414025709E-01  0.37862313476E-02  0.10200901394E+01  0.10198115285E+01 0.  0.
     999903    2    3    3    0    0  0.73511280936E-01 -0.56532353881E-01 -0.89595144250E-01  0.13032143341E+00  0.18883079001E-01 0.  0.
         14    1    1    2    0    0  0.11716268980E-01  0.20414025709E-01 -0.37862313476E-02  0.23839860576E-01  0.00000000000E+00 0.  1.
     999901    1    3    3    0    0 -0.85227549916E-01  0.36118328172E-01  0.93381375598E-01  0.88976870601E+00  0.88000000000E+00 0. -1.
        -11    1    4    4    0    0  0.29149108553E-01 -0.29081574608E-01 -0.29020868118E-01  0.50377380028E-01  0.51100000000E-03 0.  1.
         11    1    4    4    0    0  0.44362172383E-01 -0.27450779273E-01 -0.60574276132E-01  0.79944053382E-01  0.51100000000E-03 0. -1.
</event>
<event>
 8    1  0.1092993E+005  0.1043930E+01  0.7957747E-01            NaN
         13   -1    0    0    0    0  0.00000000000E+00  0.00000000000E+00  0.74505805969E-08  0.10566000000E+00  0.10566000000E+00 0. -1.
     999900   -1    0    0    0    0 -0.00000000000E+00 -0.00000000000E+00 -0.74505805969E-08  0.93827000000E+00  0.93827000000E+00 0.  1.
     999902    2    1    2    0    0 -0.22168469575E-01  0.82320642529E-02 -0.26248313041E-02  0.10201371930E+01  0.10198596937E+01 0.  0.
     999903    2    3    3    0    0 -0.69431136915E-01  0.10932577908E+00  0.22062654415E-01  0.13274597666E+00  0.19024322742E-01 0.  0.
         14    1    1    2    0    0  0.22168469575E-01 -0.82320642529E-02  0.26248313041E-02  0.23792806992E-01  0.00000000000E+00 0. -1.
     999901    1    3    3    0    0  0.47262667340E-01 -0.10109371482E+00 -0.24687485719E-01  0.88739121635E+00  0.88000000000E+00 0.  1.
        -11    1    4    4    0    0 -0.22737633883E-01  0.46182260437E-01  0.12213870663E-02  0.51493243062E-01  0.51100000000E-03 0. -1.
         11    1    4    4    0    0 -0.46693503032E-01  0.63143518639E-01  0.20841267349E-01  0.81252733598E-01  0.51100000000E-03 0.  1.
</event>
<event>
 8    1  0.1092993E+005  0.1043930E+01  0.7957747E-01            NaN
         13   -1    0    0    0    0  0.00000000000E+00  0.00000000000E+00  0.74505805969E-08  0.10566000000E+00  0.10566000000E+00 0. -1.
     999900   -1    0    0    0    0 -0.00000000000E+00 -0.00000000000E+00 -0.74505805969E-08  0.93827000000E+00  0.93827000000E+00 0.  1.
     999902    2    1    2    0    0 -0.17909525289E-02 -0.23773104811E-01  0.53176002815E-03  0.10200836000E+01  0.10198048344E+01 0.  0.
     999903    2    3    3    0    0 -0.20388546813E-01 -0.96397795673E-01 -0.86385344037E-01  0.13262948897E+00  0.20492091853E-01 0.  0.
         14    1    1    2    0    0  0.17909525289E-02  0.23773104811E-01 -0.53176002815E-03  0.23846399981E-01  0.00000000000E+00 0.  1.
     999901    1    3    3    0    0  0.18597594284E-01  0.72624690862E-01  0.86917104065E-01  0.88745411105E+00  0.88000000000E+00 0. -1.
        -11    1    4    4    0    0 -0.17038228432E-01 -0.34668703320E-01 -0.29357660306E-01  0.48521681315E-01  0.51100000000E-03 0. -1.
         11    1    4    4    0    0 -0.33503183813E-02 -0.61729092353E-01 -0.57027683731E-01  0.84107807656E-01  0.51100000000E-03 0.  1.
</event>
<event>
 8    1  0.1092993E+005  0.1043930E+01  0.7957747E-01            NaN
         13   -1    0    0    0    0  0.00000000000E+00  0.00000000000E+00  0.74505805969E-08  0.10566000000E+00  0.10566000000E+00 0. -1.
     999900   -1    0    0    0    0 -0.00000000000E+00 -0.00000000000E+00 -0.74505805969E-08  0.93827000000E+00  0.93827000000E+00 0. -1.
     999902    2    1    2    0    0  0.77310026282E-02  0.22613574023E-01  0.11921836580E-02  0.10200017022E+01  0.10197209957E+01 0.  0.
     999903    2    3    3    0    0  0.51838417227E-01 -0.15026060628E-01 -0.11656303852E+00  0.13026663017E+00  0.21666771519E-01 0.  0.
         14    1    1    2    0    0 -0.77310026282E-02 -0.22613574023E-01 -0.11921836580E-02  0.23928297758E-01  0.00000000000E+00 0. -1.
     999901    1    3    3    0    0 -0.44107414598E-01  0.37639634651E-01  0.11775522218E+00  0.88973507207E+00  0.88000000000E+00 0.  1.
        -11    1    4    4    0    0  0.24555584469E-01 -0.89434779924E-02 -0.80491856886E-01  0.84629561462E-01  0.51100000000E-03 0.  1.
         11    1    4    4    0    0  0.27282832757E-01 -0.60825826357E-02 -0.36071181638E-01  0.45637068711E-01  0.51100000000E-03 0. -1.
</event>
<event>
 8    1  0.1092993E+005  0.1043930E+01  0.7957747E-01            NaN
         13   -1    0    0    0    0  0.00000000000E+00  0.00000000000E+00  0.74505805969E-08  0.10566000000E+00  0.10566000000E+00 0.  1.
     999900   -1    0    0    0    0 -0.00000000000E+00 -0.00000000000E+00 -0.74505805969E-08  0.93827000000E+00  0.93827000000E+00 0. -1.
     999902    2    1    2    0    0 -0.19206653224E-02  0.22121310743E-01  0.86009243372E-02  0.10201178761E+01  0.10198399207E+01 0.  0.
     999903    2    3    3    0    0  0.26822483391E-01  0.69110886289E-01 -0.10603760094E+00  0.13097436673E+00  0.20360542910E-01 0.  0.
         14    1    1    2    0    0  0.19206653224E-02 -0.22121310743E-01 -0.86009243372E-02  0.23812123881E-01  0.00000000000E+00 0. -1.
     999901    1    3    3    0    0 -0.28743148713E-01 -0.46989575546E-01  0.11463852528E+00  0.88914350939E+00  0.88000000000E+00 0.  1.
        -11    1    4    4    0    0  0.26129441523E-02  0.34664710730E-01 -0.48765860649E-01  0.59890232367E-01  0.51100000000E-03 0.  1.
         11    1    4    4    0    0  0.24209539239E-01  0.34446175559E-01 -0.57271740296E-01  0.71084134364E-01  0.51100000000E-03 0. -1.
</event>
<event>
 8    1  0.1092993E+005  0.1043930E+01  0.7957747E-01            NaN
         13   -1    0    0    0    0  0.00000000000E+00  0.00000000000E+00  0.74505805969E-08  0.10566000000E+00  0.10566000000E+00 0.  1.
     999900   -1    0    0    0    0 -0.00000000000E+00 -0.00000000000E+00 -0.74505805969E-08  0.93827000000E+00  0.93827000000E+00 0. -1.
     999902    2    1    2    0    0 -0.13464639219E-01  0.91743120030E-02  0.14400657585E-01  0.10221850362E+01  0.10219537195E+01 0.  0.
     999903    2    3    3    0    0 -0.78398512597E-01  0.10658734567E+00  0.12448043444E-01  0.13442970973E+00  0.20228792340E-01 0.  0.
         14    1    1    2    0    0  0.13464639219E-01 -0.91743120030E-02 -0.14400657585E-01  0.21744963759E-01  0.00000000000E+00 0. -1.
     999901    1    3    3    0    0  0.64933873379E-01 -0.97413033665E-01  0.19526141403E-02  0.88775532651E+00  0.88000000000E+00 0.  1.
        -11    1    4    4    0    0 -0.32933891174E-01  0.36160630438E-01 -0.37272105663E-02  0.49054924331E-01  0.51100000000E-03 0.  1.
         11    1    4    4    0    0 -0.45464621423E-01  0.70426715230E-01  0.16175254011E-01  0.85374785403E-01  0.51100000000E-03 0. -1.
</event>
<event>
 8    1  0.1092993E+005  0.1043930E+01  0.7957747E-01            NaN
         13   -1    0    0    0    0  0.00000000000E+00  0.00000000000E+00  0.74505805969E-08  0.10566000000E+00  0.10566000000E+00 0. -1.
     999900   -1    0    0    0    0 -0.00000000000E+00 -0.00000000000E+00 -0.74505805969E-08  0.93827000000E+00  0.93827000000E+00 0. -1.
     999902    2    1    2    0    0  0.21605261183E-01  0.71560063861E-02 -0.99491863480E-02  0.10190908767E+01  0.10187881197E+01 0.  0.
     999903    2    3    3    0    0  0.28020880744E-01 -0.25410763336E-01  0.12143095593E+00  0.12871876546E+00  0.19803203549E-01 0.  0.
         14    1    1    2    0    0 -0.21605261183E-01 -0.71560063861E-02  0.99491863480E-02  0.24839123317E-01  0.00000000000E+00 0. -1.
     999901    1    3    3    0    0 -0.64156195608E-02  0.32566769722E-01 -0.13138014228E+00  0.89037211123E+00  0.88000000000E+00 0. -1.
        -11    1    4    4    0    0  0.23686539820E-01 -0.10330263914E-01  0.89176308528E-01  0.92846333503E-01  0.51100000000E-03 0.  1.
         11    1    4    4    0    0  0.43343409231E-02 -0.15080499421E-01  0.32254647405E-01  0.35872431954E-01  0.51100000000E-03 0. -1.
</event>
<event>
 8    1  0.1092993E+005  0.1043930E+01  0.7957747E-01            NaN
         13   -1    0    0    0    0  0.00000000000E+00  0.00000000000E+00  0.74505805969E-08  0.10566000000E+00  0.10566000000E+00 0.  1.
     999900   -1    0    0    0    0 -0.00000000000E+00 -0.00000000000E+00 -0.74505805969E-08  0.93827000000E+00  0.93827000000E+00 0.  1.
     999902    2    1    2    0    0  0.29183331592E-02 -0.22196181862E-01 -0.24550433629E-02  0.10214085792E+01  0.10211602574E+01 0.  0.
     999903    2    3    3    0    0  0.11992830208E-01  0.51873067770E-01  0.11718544809E+00  0.13018332851E+00  0.19509655113E-01 0.  0.
         14    1    1    2    0    0 -0.29183331592E-02  0.22196181862E-01  0.24550433629E-02  0.22521420816E-01  0.00000000000E+00 0.  1.
     999901    1    3    3    0    0 -0.90744970489E-02 -0.74069249632E-01 -0.11964049145E+00  0.89122525067E+00  0.88000000000E+00 0.  1.
        -11    1    4    4    0    0  0.16401382885E-01  0.28827860081E-01  0.65567150083E-01  0.73480359066E-01  0.51100000000E-03 0. -1.
         11    1    4    4    0    0 -0.44085526766E-02  0.23045207689E-01  0.51618298006E-01  0.56702969447E-01  0.51100000000E-03 0.  1.
</event>
<event>
 8    1  0.1092993E+005  0.1043930E+01  0.7957747E-01            NaN
         13   -1    0    0    0    0  0.00000000000E+00  0.00000000000E+00  0.74505805969E-08  0.10566000000E+00  0.10566000000E+00 0.  1.
     999900   -1    0    0    0    0 -0.00000000000E+00 -0.00000000000E+00 -0.74505805969E-08  0.93827000000E+00  0.93827000000E+00 0.  1.
     999902    2    1    2    0    0 -0.20292551999E-01 -0.13823683395E-02  0.11307322941E-01  0.10206586837E+01  0.10203933528E+01 0.  0.
     999903    2    3    3    0    0  0.62652538879E-01  0.10515768498E+00  0.39265710264E-01  0.12992171779E+00  0.18824914735E-01 0.  0.
         14    1    1    2    0    0  0.20292551999E-01  0.13823683395E-02 -0.11307322941E-01  0.23271316271E-01  0.00000000000E+00 0. -1.
     999901    1    3    3    0    0 -0.82945090878E-01 -0.10654005331E+00 -0.27958387322E-01  0.89073696593E+00  0.88000000000E+00 0.  1.
        -11    1    4    4    0    0  0.60451199661E-01  0.89589794716E-01  0.33215106760E-01  0.11306716277E+00  0.51100000000E-03 0.  1.
         11    1    4    4    0    0  0.22013392185E-02  0.15567890259E-01  0.60506035039E-02  0.16854555029E-01  0.51100000000E-03 0. -1.
</event>
<event>
 7    1  0.1092993E+005  0.1043930E+01  0.7957747E-01            NaN
         13   -1    0    0    0    0  0.00000000000E+00  0.00000000000E+00  0.74505805969E-08  0.10566000000E+00  0.10566000000E+00 0. -1.
     999900   -1    0    0    0    0 -0.00000000000E+00 -0.00000000000E+00 -0.74505805969E-08  0.93827000000E+00  0.93827000000E+00 0.  1.
     999902    2    1    2    0    0 -0.78317476286E-02 -0.22477788960E-01  0.16780097569E-02  0.10200678336E+01  0.10197886949E+01 0.  0.
         14    1    1    2    0    0  0.78317476286E-02  0.22477788960E-01 -0.16780097569E-02  0.23862166376E-01  0.00000000000E+00 0. -1.
     999901    1    3    3    0    0 -0.60300323892E-01  0.74205060062E-01  0.66332223808E-01  0.88766124390E+00  0.88000000000E+00 0. -1.
        -11    1    3    3    0    0  0.14370025308E-01 -0.56067328442E-01 -0.45119102109E-01  0.73389627619E-01  0.51100000000E-03 0.  1.
         11    1    3    3    0    0  0.38098550955E-01 -0.40615520580E-01 -0.19535111943E-01  0.59016962108E-01  0.51100000000E-03 0. -1.
</event>
<event>
 8    1  0.1092993E+005  0.1043930E+01  0.7957747E-01            NaN
         13   -1    0    0    0    0  0.00000000000E+00  0.00000000000E+00  0.74505805969E-08  0.10566000000E+00  0.10566000000E+00 0. -1.
     999900   -1    0    0    0    0 -0.00000000000E+00 -0.00000000000E+00 -0.74505805969E-08  0.93827000000E+00  0.93827000000E+00 0.  1.
     999902    2    1    2    0    0  0.16888918927E-01  0.11533767962E-01  0.12476287423E-01  0.10199733489E+01  0.10196919688E+01 0.  0.
     999903    2    3    3    0    0 -0.32211797708E-02 -0.71244358249E-01  0.10771569135E+00  0.13074493146E+00  0.20135350947E-01 0.  0.
         14    1    1    2    0    0 -0.16888918927E-01 -0.11533767962E-01 -0.12476287423E-01  0.23956651139E-01  0.00000000000E+00 0.  1.
     999901    1    3    3    0    0  0.20110098698E-01  0.82778126210E-01 -0.95239403932E-01  0.88922841740E+00  0.88000000000E+00 0.  1.
        -11    1    4    4    0    0 -0.78416036636E-02 -0.48386224560E-01  0.85368589279E-01  0.98441732165E-01  0.51100000000E-03 0.  1.
         11    1    4    4    0    0  0.46204238928E-02 -0.22858133689E-01  0.22347102076E-01  0.32303199298E-01  0.51100000000E-03 0. -1.
</event>
<event>
 8    1  0.1092993E+005  0.1043930E+01  0.7957747E-01            NaN
         13   -1    0    0    0    0  0.00000000000E+00  0.00000000000E+00  0.74505805969E-08  0.10566000000E+00  0.10566000000E+00 0.  1.
     999900   -1    0    0    0    0 -0.00000000000E+00 -0.00000000000E+00 -0.74505805969E-08  0.93827000000E+00  0.93827000000E+00 0. -1.
     999902    2    1    2    0    0  0.10254249192E-01 -0.18302076137E-01  0.10133036093E-01  0.10206320594E+01  0.10203661140E+01 0.  0.
     999903    2    3    3    0    0 -0.11999899603E+00  0.35211868916E-01 -0.23253783683E-01  0.12881126462E+00  0.20297011493E-01 0.  0.
         14    1    1    2    0    0 -0.10254249192E-01  0.18302076137E-01 -0.10133036093E-01  0.23297940636E-01  0.00000000000E+00 0.  1.
     999901    1    3    3    0    0  0.13025324522E+00 -0.53513945053E-01  0.33386819776E-01  0.89182079475E+00  0.88000000000E+00 0.  1.
        -11    1    4    4    0    0 -0.88889277723E-01  0.35108855982E-01 -0.16924886457E-01  0.97060024547E-01  0.51100000000E-03 0. -1.
         11    1    4    4    0    0 -0.31109718309E-01  0.10301293430E-03 -0.63288972253E-02  0.31751240071E-01  0.51100000000E-03 0.  1.
</event>
<event>
 8    1  0.1092993E+005  0.1043930E+01  0.7957747E-01            NaN
         13   -1    0    0    0    0  0.00000000000E+00  0.00000000000E+00  0.74505805969E-08  0.10566000000E+00  0.10566000000E+00 0.  1.
     999900   -1    0    0    0    0 -0.00000000000E+00 -0.00000000000E+00 -0.74505805969E-08  0.93827000000E+00  0.93827000000E+00 0. -1.
     999902    2    1    2    0    0 -0.98807298398E-02  0.99910074217E-02 -0.18966727580E-01  0.10203252164E+01  0.10200521367E+01 0.  0.
     999903    2    3    3    0    0 -0.42789193849E-01  0.10556336424E+00 -0.66727642464E-01  0.13325241933E+00  0.18140838132E-01 0.  0.
         14    1    1    2    0    0  0.98807298398E-02 -0.99910074217E-02  0.18966727580E-01  0.23604783553E-01  0.00000000000E+00 0.  1.
     999901    1    3    3    0    0  0.32908464009E-01 -0.95572356822E-01  0.47760914884E-01  0.88707279712E+00  0.88000000000E+00 0.  1.
        -11    1    4    4    0    0 -0.84449675387E-02  0.31528475324E-01 -0.27577781543E-01  0.42733562791E-01  0.51100000000E-03 0.  1.
         11    1    4    4    0    0 -0.34344226311E-01  0.74034888920E-01 -0.39149860921E-01  0.90518856541E-01  0.51100000000E-03 0. -1.
</event>
<event>
 8    1  0.1092993E+005  0.1043930E+01  0.7957747E-01            NaN
         13   -1    0    0    0    0  0.00000000000E+00  0.00000000000E+00  0.74505805969E-08  0.10566000000E+00  0.10566000000E+00 0.  1.
     999900   -1    0    0    0    0 -0.00000000000E+00 -0.00000000000E+00 -0.74505805969E-08  0.93827000000E+00  0.93827000000E+00 0.  1.
     999902    2    1    2    0    0  0.23766972371E-01 -0.38436159372E-02  0.56703991890E-02  0.10191954940E+01  0.10188953132E+01 0.  0.
     999903    2    3    3    0    0 -0.96115560591E-01 -0.80838533585E-01 -0.11346491009E-01  0.12757359343E+00  0.19318627882E-01 0.  0.
         14    1    1    2    0    0 -0.23766972371E-01  0.38436159372E-02 -0.56703991890E-02  0.24734505981E-01  0.00000000000E+00 0. -1.
     999901    1    3    3    0    0  0.11988253296E+00  0.76994917648E-01  0.17016890198E-01  0.89162190059E+00  0.88000000000E+00 0.  1.
        -11    1    4    4    0    0 -0.48548272892E-01 -0.36696649743E-01  0.36480214956E-02  0.60968418751E-01  0.51100000000E-03 0. -1.
         11    1    4    4    0    0 -0.47567287699E-01 -0.44141883842E-01 -0.14994512504E-01  0.66605174682E-01  0.51100000000E-03 0.  1.
</event>
<event>
 8    1  0.1092993E+005  0.1043930E+01  0.7957747E-01            NaN
         13   -1    0    0    0    0  0.00000000000E+00  0.00000000000E+00  0.74505805969E-08  0.10566000000E+00  0.10566000000E+00 0. -1.
     999900   -1    0    0    0    0 -0.00000000000E+00 -0.00000000000E+00 -0.74505805969E-08  0.93827000000E+00  0.93827000000E+00 0. -1.
     999902    2    1    2    0    0  0.60014609995E-02 -0.51407663148E-02 -0.22203620185E-01  0.10203621032E+01  0.10200898861E+01 0.  0.
     999903    2    3    3    0    0 -0.10441758206E+00  0.61236446238E-01  0.39507124655E-01  0.12884288550E+00  0.19665768580E-01 0.  0.
         14    1    1    2    0    0 -0.60014609995E-02  0.51407663148E-02  0.22203620185E-01  0.23567896846E-01  0.00000000000E+00 0. -1.
     999901    1    3    3    0    0  0.11041904306E+00 -0.66377212552E-01 -0.61710744840E-01  0.89151921765E+00  0.88000000000E+00 0.  1.
        -11    1    4    4    0    0 -0.27347305308E-01  0.19205257731E-01  0.19882696965E-01  0.38888298905E-01  0.51100000000E-03 0.  1.
         11    1    4    4    0    0 -0.77070276755E-01  0.42031188506E-01  0.19624427690E-01  0.89954586595E-01  0.51100000000E-03 0. -1.
</event>
<event>
 8    1  0.1092993E+005  0.1043930E+01  0.7957747E-01            NaN
         13   -1    0    0    0    0  0.00000000000E+00  0.00000000000E+00  0.74505805969E-08  0.10566000000E+00  0.10566000000E+00 0. -1.
     999900   -1    0    0    0    0 -0.00000000000E+00 -0.00000000000E+00 -0.74505805969E-08  0.93827000000E+00  0.93827000000E+00 0. -1.
     999902    2    1    2    0    0 -0.13352984249E-01  0.54987715779E-02  0.18955087927E-01  0.10201007315E+01  0.10198223710E+01 0.  0.
     999903    2    3    3    0    0 -0.10486191851E+00  0.78066129760E-01 -0.14671254646E-02  0.13214973440E+00  0.19262846999E-01 0.  0.
         14    1    1    2    0    0  0.13352984249E-01 -0.54987715779E-02 -0.18955087927E-01  0.23829268464E-01  0.00000000000E+00 0.  1.
     999901    1    3    3    0    0  0.91508934260E-01 -0.72567358182E-01  0.20422213391E-01  0.88795099714E+00  0.88000000000E+00 0.  1.
        -11    1    4    4    0    0 -0.24498908310E-01  0.19554617448E-01  0.78121363821E-02  0.32308979677E-01  0.51100000000E-03 0. -1.
         11    1    4    4    0    0 -0.80363010199E-01  0.58511512312E-01 -0.92792618467E-02  0.99840754718E-01  0.51100000000E-03 0.  1.
</event>
<event>
 8    1  0.1092993E+005  0.1043930E+01  0.7957747E-01            NaN
         13   -1    0    0    0    0  0.00000000000E+00  0.00000000000E+00  0.74505805969E-08  0.10566000000E+00  0.10566000000E+00 0. -1.
     999900   -1    0    0    0    0 -0.00000000000E+00 -0.00000000000E+00 -0.74505805969E-08  0.93827000000E+00  0.93827000000E+00 0. -1.
     999902    2    1    2    0    0  0.11760026822E-01  0.17710862236E-01  0.63610339783E-02  0.10217391094E+01  0.10214981018E+01 0.  0.
     999903    2    3    3    0    0 -0.29749162882E-01 -0.94537257610E-01 -0.80915253185E-01  0.12936037617E+00  0.19092484275E-01 0.  0.
         14    1    1    2    0    0 -0.11760026822E-01 -0.17710862236E-01 -0.63610339783E-02  0.22190890592E-01  0.00000000000E+00 0.  1.
     999901    1    3    3    0    0  0.41509189704E-01  0.11224811985E+00  0.87276287163E-01  0.89237873324E+00  0.88000000000E+00 0.  1.
        -11    1    4    4    0    0 -0.38186704663E-02 -0.36820391841E-01 -0.36978143862E-01  0.52325593584E-01  0.51100000000E-03 0.  1.
         11    1    4    4    0    0 -0.25930492416E-01 -0.57716865769E-01 -0.43937109323E-01  0.77034782584E-01  0.51100000000E-03 0. -1.
</event>
<event>
 8    1  0.1092993E+005  0.1043930E+01  0.7957747E-01            NaN
         13   -1    0    0    0    0  0.00000000000E+00  0.00000000000E+00  0.74505805969E-08  0.10566000000E+00  0.10566000000E+00 0. -1.
     999900   -1    0    0    0    0 -0.00000000000E+00 -0.00000000000E+00 -0.74505805969E-08  0.93827000000E+00  0.93827000000E+00 0. -1.
     999902    2    1    2    0    0  0.67300744054E-02 -0.18841624138E-01  0.13530649771E-01  0.10197767562E+01  0.10194906833E+01 0.  0.
     999903    2    3    3    0    0 -0.20733253127E-01 -0.80784051608E-01  0.10147160258E+00  0.13280172283E+00  0.19592873151E-01 0.  0.
         14    1    1    2    0    0 -0.67300744054E-02  0.18841624138E-01 -0.13530649771E-01  0.24153243776E-01  0.00000000000E+00 0.  1.
     999901    1    3    3    0    0  0.27463327533E-01  0.61942427470E-01 -0.87940952805E-01  0.88697503339E+00  0.88000000000E+00 0. -1.
        -11    1    4    4    0    0 -0.24442166116E-01 -0.66751713597E-01  0.82316940930E-01  0.10876373770E+00  0.51100000000E-03 0.  1.
         11    1    4    4    0    0  0.37089129884E-02 -0.14032338011E-01  0.19154661647E-01  0.24037985136E-01  0.51100000000E-03 0. -1.
</event>
<event>
 8    1  0.1092993E+005  0.1043930E+01  0.7957747E-01            NaN
         13   -1    0    0    0    0  0.00000000000E+00  0.00000000000E+00  0.74505805969E-08  0.10566000000E+00  0.10566000000E+00 0. -1.
     999900   -1    0    0    0    0 -0.00000000000E+00 -0.00000000000E+00 -0.74505805969E-08  0.93827000000E+00  0.93827000000E+00 0.  1.
     999902    2    1    2    0    0  0.12357387618E-01 -0.17659013478E-01 -0.77238162708E-02  0.10210345174E+01  0.10207777832E+01 0.  0.
     999903    2    3    3    0    0  0.29604583327E-01 -0.12641944619E+00 -0.26187702800E-01  0.13397915690E+00  0.20157156967E-01 0.  0.
         14    1    1    2    0    0 -0.12357387618E-01  0.17659013478E-01  0.77238162708E-02  0.22895482601E-01  0.00000000000E+00 0. -1.
     999901    1    3    3    0    0 -0.17247195709E-01  0.10876043271E+00  0.18463886529E-01  0.88705536050E+00  0.88000000000E+00 0. -1.
        -11    1    4    4    0    0  0.19011356381E-01 -0.10687387741E+00 -0.26495316483E-01  0.11173951969E+00  0.51100000000E-03 0. -1.
         11    1    4    4    0    0  0.10593226946E-01 -0.19545568776E-01  0.30761368331E-03  0.22239637207E-01  0.51100000000E-03 0.  1.
</event>
<event>
 8    1  0.1092993E+005  0.1043930E+01  0.7957747E-01            NaN
         13   -1    0    0    0    0  0.00000000000E+00  0.00000000000E+00  0.74505805969E-08  0.10566000000E+00  0.10566000000E+00 0.  1.
     999900   -1    0    0    0    0 -0.00000000000E+00 -0.00000000000E+00 -0.74505805969E-08  0.93827000000E+00  0.93827000000E+00 0. -1.
     999902    2    1    2    0    0  0.18072392759E-01 -0.98455404785E-02 -0.12414216273E-01  0.10198954662E+01  0.10196122318E+01 0.  0.
     999903    2    3    3    0    0  0.58402140713E-01 -0.11373028514E+00 -0.30143234111E-01  0.13269039028E+00  0.18781302184E-01 0.  0.
         14    1    1    2    0    0 -0.18072392759E-01  0.98455404785E-02  0.12414216273E-01  0.24034533759E-01  0.00000000000E+00 0.  1.
     999901    1    3    3    0    0 -0.40329747954E-01  0.10388474466E+00  0.17729017839E-01  0.88720507596E+00  0.88000000000E+00 0. -1.
        -11    1    4    4    0    0  0.15926146737E-01 -0.50259519886E-01 -0.94810035801E-02  0.53570626643E-01  0.51100000000E-03 0. -1.
         11    1    4    4    0    0  0.42475993977E-01 -0.63470765251E-01 -0.20662230531E-01  0.79119763633E-01  0.51100000000E-03 0.  1.
</event>
<event>
 8    1  0.1092993E+005  0.1043930E+01  0.7957747E-01            NaN
         13   -1    0    0    0    0  0.00000000000E+00  0.00000000000E+00  0.74505805969E-08  0.10566000000E+00  0.10566000000E+00 0.  1.
     999900   -1    0    0    0    0 -0.00000000000E+00 -0.00000000000E+00 -0.74505805969E-08  0.93827000000E+00  0.93827000000E+00 0.  1.
     999902    2    1    2    0    0 -0.55171694672E-03 -0.14483204642E-01 -0.20024718851E-01  0.10192104334E+01  0.10189106195E+01 0.  0.
     999903    2    3    3    0    0  0.19366126793E-01 -0.20472728056E-01  0.12268083186E+00  0.12747198009E+00  0.20108200867E-01 0.  0.
         14    1    1    2    0    0  0.55171694672E-03  0.14483204642E-01  0.20024718851E-01  0.24719566610E-01  0.00000000000E+00 0.  1.
     999901    1    3    3    0    0 -0.19917843739E-01  0.59895234141E-02 -0.14270555071E+00  0.89173845330E+00  0.88000000000E+00 0.  1.
        -11    1    4    4    0    0  0.42850047357E-02 -0.13361395769E-01  0.27895405959E-01  0.31229840811E-01  0.51100000000E-03 0.  1.
         11    1    4    4    0    0  0.15081122057E-01 -0.71113322870E-02  0.94785425898E-01  0.96242139280E-01  0.51100000000E-03 0. -1.
</event>
<event>
 8    1  0.1092993E+005  0.1043930E+01  0.7957747E-01            NaN
         13   -1    0    0    0    0  0.00000000000E+00  0.00000000000E+00  0.74505805969E-08  0.10566000000E+00  0.10566000000E+00 0. -1.
     999900   -1    0    0    0    0 -0.00000000000E+00 -0.00000000000E+00 -0.74505805969E-08  0.93827000000E+00  0.93827000000E+00 0. -1.
     999902    2    1    2    0    0  0.15438887906E-01 -0.48096340556E-02  0.17178046602E-01  0.10203381132E+01  0.10200653352E+01 0.  0.
     999903    2    3    3    0    0  0.75949217923E-01  0.44819441637E-01  0.97837611929E-01  0.13319071240E+00  0.19761111077E-01 0.  0.
         14    1    1    2    0    0 -0.15438887906E-01  0.48096340556E-02 -0.17178046602E-01  0.23591886838E-01  0.00000000000E+00 0.  1.
     999901    1    3    3    0    0 -0.60510330017E-01 -0.49629075693E-01 -0.80659565327E-01  0.88714740076E+00  0.88000000000E+00 0.  1.
        -11    1    4    4    0    0  0.40966113666E-01  0.26402930903E-01  0.39597188235E-01  0.62797576914E-01  0.51100000000E-03 0. -1.
         11    1    4    4    0    0  0.34983104258E-01  0.18416510734E-01  0.58240423694E-01  0.70393135490E-01  0.51100000000E-03 0.  1.
</event>
<event>
 8    1  0.1092993E+005  0.1043930E+01  0.7957747E-01            NaN
         13   -1    0    0    0    0  0.00000000000E+00  0.00000000000E+00  0.74505805969E-08  0.10566000000E+00  0.10566000000E+00 0.  1.
     999900   -1    0    0    0    0 -0.00000000000E+00 -0.00000000000E+00 -0.74505805969E-08  0.93827000000E+00  0.93827000000E+00 0. -1.
     999902    2    1    2    0    0  0.19622369499E-01 -0.12936046280E-01 -0.31018784113E-02  0.10202234539E+01  0.10199479867E+01 0.  0.
     999903    2    3    3    0    0 -0.80489794627E-01  0.23691285306E-01 -0.95836496493E-01  0.12895261055E+00  0.20106159967E-01 0.  0.
         14    1    1    2    0    0 -0.19622369499E-01  0.12936046280E-01  0.31018784113E-02  0.23706546096E-01  0.00000000000E+00 0.  1.
     999901    1    3    3    0    0  0.10011216413E+00 -0.36627331586E-01  0.92734618082E-01  0.89127084336E+00  0.88000000000E+00 0. -1.
        -11    1    4    4    0    0 -0.15543603894E-01 -0.25149059504E-02 -0.23272719532E-01  0.28103540157E-01  0.51100000000E-03 0. -1.
         11    1    4    4    0    0 -0.64946190733E-01  0.26206191256E-01 -0.72563776961E-01  0.10084907039E+00  0.51100000000E-03 0.  1.
</event>
<event>
 8    1  0.1092993E+005  0.1043930E+01  0.7957747E-01            NaN
         13   -1    0    0    0    0  0.00000000000E+00  0.00000000000E+00  0.74505805969E-08  0.10566000000E+00  0.10566000000E+00 0. -1.
     999900   -1    0    0    0    0 -0.00000000000E+00 -0.00000000000E+00 -0.74505805969E-08  0.93827000000E+00  0.93827000000E+00 0. -1.
     999902    2    1    2    0    0 -0.87665811142E-02 -0.11954828894E-01  0.18846497220E-01  0.10199516486E+01  0.10196697525E+01 0.  0.
     999903    2    3    3    0    0  0.11564665910E-01  0.89475362843E-01 -0.87961302261E-01  0.12747792382E+00  0.19335157404E-01 0.  0.
         14    1    1    2    0    0  0.87665811142E-02  0.11954828894E-01 -0.18846497220E-01  0.23978351398E-01  0.00000000000E+00 0.  1.
     999901    1    3    3    0    0 -0.20331247024E-01 -0.10143019174E+00  0.10680779948E+00  0.89247372478E+00  0.88000000000E+00 0.  1.
        -11    1    4    4    0    0  0.93262003419E-02  0.21741455093E-01 -0.15641010785E-01  0.28364964688E-01  0.51100000000E-03 0.  1.
         11    1    4    4    0    0  0.22384655679E-02  0.67733907750E-01 -0.72320291477E-01  0.99112959129E-01  0.51100000000E-03 0. -1.
</event>
<event>
 8    1  0.1092993E+005  0.1043930E+01  0.7957747E-01            NaN
         13   -1    0    0    0    0  0.00000000000E+00  0.00000000000E+00  0.74505805969E-08  0.10566000000E+00  0.10566000000E+00 0. -1.
     999900   -1    0    0    0    0 -0.00000000000E+00 -0.00000000000E+00 -0.74505805969E-08  0.93827000000E+00  0.93827000000E+00 0.  1.
     999902    2    1    2    0    0 -0.18799195817E-01  0.96473045304E-02 -0.96778008921E-02  0.10206890861E+01  0.10204244560E+01 0.  0.
     999903    2    3    3    0    0 -0.13094152445E+00 -0.13196609189E-01  0.42382814085E-03  0.13322089560E+00  0.20683183414E-01 0.  0.
         14    1    1    2    0    0  0.18799195817E-01 -0.96473045304E-02  0.96778008921E-02  0.23240913884E-01  0.00000000000E+00 0. -1.
     999901    1    3    3    0    0  0.11214232863E+00  0.22843913720E-01 -0.10101629033E-01  0.88746819051E+00  0.88000000000E+00 0.  1.
        -11    1    4    4    0    0 -0.40734749347E-01 -0.12720707720E-01 -0.42599149563E-02  0.42889907971E-01  0.51100000000E-03 0. -1.
         11    1    4    4    0    0 -0.90206775099E-01 -0.47590146904E-03  0.46837430971E-02  0.90330987631E-01  0.51100000000E-03 0.  1.
</event>
<event>
 8    1  0.1092993E+005  0.1043930E+01  0.7957747E-01            NaN
         13   -1    0    0    0    0  0.00000000000E+00  0.00000000000E+00  0.74505805969E-08  0.10566000000E+00  0.10566000000E+00 0. -1.
     999900   -1    0    0    0    0 -0.00000000000E+00 -0.00000000000E+00 -0.74505805969E-08  0.93827000000E+00  0.93827000000E+00 0. -1.
     999902    2    1    2    0    0 -0.16824134509E-01  0.15582771963E-01  0.47185081896E-02  0.10205176399E+01  0.10202490455E+01 0.  0.
     999903    2    3    3    0    0  0.96552420222E-01  0.19905306984E-01 -0.80651239035E-01  0.12913617210E+00  0.21282328104E-01 0.  0.
         14    1    1    2    0    0  0.16824134509E-01 -0.15582771963E-01 -0.47185081896E-02  0.23412360059E-01  0.00000000000E+00 0.  1.
     999901    1    3    3    0    0 -0.11337655473E+00 -0.43225350211E-02  0.85369747225E-01  0.89138146784E+00  0.88000000000E+00 0.  1.
        -11    1    4    4    0    0  0.15974800980E-01 -0.43121729540E-02 -0.16041550649E-01  0.23051715124E-01  0.51100000000E-03 0. -1.
         11    1    4    4    0    0  0.80577619242E-01  0.24217479938E-01 -0.64609688386E-01  0.10608445697E+00  0.51100000000E-03 0.  1.
</event>
<event>
 8    1  0.1092993E+005  0.1043930E+01  0.7957747E-01            NaN
         13   -1    0    0    0    0  0.00000000000E+00  0.00000000000E+00  0.74505805969E-08  0.10566000000E+00  0.10566000000E+00 0. -1.
     999900   -1    0    0    0    0 -0.00000000000E+00 -0.00000000000E+00 -0.74505805969E-08  0.93827000000E+00  0.93827000000E+00 0. -1.
     999902    2    1    2    0    0  0.78918399393E-02 -0.12748355290E-01  0.17941670691E-01  0.10205482711E+01  0.10202803871E+01 0.  0.
     999903    2    3    3    0    0  0.11814896419E+00  0.39081248570E-01  0.38912197923E-01  0.13190734005E+00  0.19971616915E-01 0.  0.
         14    1    1    2    0    0 -0.78918399393E-02  0.12748355290E-01 -0.17941670691E-01  0.23381728923E-01  0.00000000000E+00 0. -1.
     999901    1    3    3    0    0 -0.11025712425E+00 -0.51829603860E-01 -0.20970527232E-01  0.88864093103E+00  0.88000000000E+00 0.  1.
        -11    1    4    4    0    0  0.10295928135E+00  0.40639572474E-01  0.35597392383E-01  0.11627391768E+00  0.51100000000E-03 0.  1.
         11    1    4    4    0    0  0.15189682839E-01 -0.15583239047E-02  0.33148055399E-02  0.15633422367E-01  0.51100000000E-03 0. -1.
</event>
<event>
 8    1  0.1092993E+005  0.1043930E+01  0.7957747E-01            NaN
         13   -1    0    0    0    0  0.00000000000E+00  0.00000000000E+00  0.74505805969E-08  0.10566000000E+00  0.10566000000E+00 0. -1.
     999900   -1    0    0    0    0 -0.00000000000E+00 -0.00000000000E+00 -0.74505805969E-08  0.93827000000E+00  0.93827000000E+00 0.  1.
     999902    2    1    2    0    0  0.22597222078E-02 -0.10716181751E-01 -0.22108392329E-01  0.10192576692E+01  0.10189590141E+01 0.  0.
     999903    2    3    3    0    0 -0.90257764572E-01 -0.64415885395E-01  0.62446417333E-01  0.12875631638E+00  0.19564345476E-01 0.  0.
         14    1    1    2    0    0 -0.22597222078E-02  0.10716181751E-01  0.22108392329E-01  0.24672330801E-01  0.00000000000E+00 0. -1.
     999901    1    3    3    0    0  0.92517486780E-01  0.53699703644E-01 -0.84554809662E-01  0.89050135282E+00  0.88000000000E+00 0.  1.
        -11    1    4    4    0    0 -0.48655642912E-01 -0.31126425364E-01  0.21800625603E-01  0.61739406709E-01  0.51100000000E-03 0.  1.
         11    1    4    4    0    0 -0.41602121660E-01 -0.33289460030E-01  0.40645791731E-01  0.67016909673E-01  0.51100000000E-03 0. -1.
</event>
<event>
 8    1  0.1092993E+005  0.1043930E+01  0.7957747E-01            NaN
         13   -1    0    0    0    0  0.00000000000E+00  0.00000000000E+00  0.74505805969E-08  0.10566000000E+00  0.10566000000E+00 0. -1.
     999900   -1    0    0    0    0 -0.00000000000E+00 -0.00000000000E+00 -0.74505805969E-08  0.93827000000E+00  0.93827000000E+00 0. -1.
     999902    2    1    2    0    0  0.22788850038E-01 -0.72392724294E-02 -0.21409642664E-02  0.10199232826E+01  0.10196407112E+01 0.  0.
     999903    2    3    3    0    0 -0.47674257904E-02  0.10023587509E+00 -0.79575401639E-01  0.12958270298E+00  0.19735079446E-01 0.  0.
         14    1    1    2    0    0 -0.22788850038E-01  0.72392724294E-02  0.21409642664E-02  0.24006717380E-01  0.00000000000E+00 0. -1.
     999901    1    3    3    0    0  0.27556275828E-01 -0.10747514752E+00  0.77434437373E-01  0.89034057965E+00  0.88000000000E+00 0.  1.
        -11    1    4    4    0    0  0.66419620752E-02  0.41538962672E-01 -0.38583925698E-01  0.57083986575E-01  0.51100000000E-03 0. -1.
         11    1    4    4    0    0 -0.11409387866E-01  0.58696912417E-01 -0.40991475941E-01  0.72498716400E-01  0.51100000000E-03 0.  1.
</event>
<event>
 8    1  0.1092993E+005  0.1043930E+01  0.7957747E-01            NaN
         13   -1    0    0    0    0  0.00000000000E+00  0.00000000000E+00  0.74505805969E-08  0.10566000000E+00  0.10566000000E+00 0.  1.
     999900   -1    0    0    0    0 -0.00000000000E+00 -0.00000000000E+00 -0.74505805969E-08  0.93827000000E+00  0.93827000000E+00 0.  1.
     999902    2    1    2    0    0  0.17315511524E-02  0.23488704612E-01 -0.86097288863E-03  0.10203618268E+01  0.10200896033E+01 0.  0.
     999903    2    3    3    0    0 -0.10462526909E+00  0.19402261647E-01 -0.73994668871E-01  0.13093672612E+00  0.18609689294E-01 0.  0.
         14    1    1    2    0    0 -0.17315511524E-02 -0.23488704612E-01  0.86097288863E-03  0.23568173202E-01  0.00000000000E+00 0. -1.
     999901    1    3    3    0    0  0.10635682025E+00  0.40864429654E-02  0.73133695982E-01  0.88942510068E+00  0.88000000000E+00 0.  1.
        -11    1    4    4    0    0 -0.94559622914E-01  0.18387340909E-01 -0.59407596684E-01  0.11317747239E+00  0.51100000000E-03 0.  1.
         11    1    4    4    0    0 -0.10065646180E-01  0.10149207379E-02 -0.14587072187E-01  0.17759253732E-01  0.51100000000E-03 0. -1.
</event>
<event>
 8    1  0.1526059E+005  0.1043930E+01  0.7957747E-01            NaN
         13   -1    0    0    0    0  0.00000000000E+00  0.00000000000E+00  0.74505805969E-08  0.10566000000E+00  0.10566000000E+00 0. -1.
     999900   -1    0    0    0    0 -0.00000000000E+00 -0.00000000000E+00 -0.74505805969E-08  0.93827000000E+00  0.93827000000E+00 0.  1.
     999902    2    1    2    0    0  0.64570375261E-02  0.70552165182E-02 -0.21672786814E-01  0.10202407809E+01  0.10199657209E+01 0.  0.
     999903    2    3    3    0    0  0.11643335415E-01  0.20268974433E-01 -0.13020565310E+00  0.13345958795E+00  0.17650805426E-01 0.  0.
         14    1    1    2    0    0 -0.64570375261E-02 -0.70552165182E-02  0.21672786814E-01  0.23689219109E-01  0.00000000000E+00 0. -1.
     999901    1    3    3    0    0 -0.51862978885E-02 -0.13213757915E-01  0.10853286629E+00  0.88678119294E+00  0.88000000000E+00 0. -1.
        -11    1    4    4    0    0 -0.25084192534E-02  0.13031207476E-01 -0.53615845598E-01  0.55236080198E-01  0.51100000000E-03 0.  1.
         11    1    4    4    0    0  0.14151754668E-01  0.72377669575E-02 -0.76589807505E-01  0.78223507754E-01  0.51100000000E-03 0. -1.
</event>
<event>
 7    1  0.1092993E+005  0.1043930E+01  0.7957747E-01            NaN
         13   -1    0    0    0    0  0.00000000000E+00  0.00000000000E+00  0.74505805969E-08  0.10566000000E+00  0.10566000000E+00 0.  1.
     999900   -1    0    0    0    0 -0.00000000000E+00 -0.00000000000E+00 -0.74505805969E-08  0.93827000000E+00  0.93827000000E+00 0. -1.
     999903    2    1    2    0    0  0.70923170885E-01  0.79785286899E-02  0.29672647331E-01  0.81740024359E-01  0.26593467134E-01 0.  0.
         14    1    1    2    0    0 -0.59763993932E-01 -0.32046880515E-01  0.40518180332E-01  0.78996585109E-01  0.00000000000E+00 0.  1.
     999901    1    1    2    0    0 -0.11159176953E-01  0.24068351825E-01 -0.70190827663E-01  0.88319339053E+00  0.88000000000E+00 0. -1.
        -11    1    3    3    0    0  0.56810378634E-01  0.16269996314E-01  0.18533759238E-01  0.61934588504E-01  0.51100000000E-03 0. -1.
         11    1    3    3    0    0  0.14112792251E-01 -0.82914676245E-02  0.11138888093E-01  0.19805435856E-01  0.51100000000E-03 0.  1.
</event>
<event>
 8    1  0.1092993E+005  0.1043930E+01  0.7957747E-01            NaN
         13   -1    0    0    0    0  0.00000000000E+00  0.00000000000E+00  0.74505805969E-08  0.10566000000E+00  0.10566000000E+00 0.  1.
     999900   -1    0    0    0    0 -0.00000000000E+00 -0.00000000000E+00 -0.74505805969E-08  0.93827000000E+00  0.93827000000E+00 0. -1.
     999902    2    1    2    0    0 -0.30011620605E-02 -0.15304558654E-01 -0.17350719692E-01  0.10206001058E+01  0.10203334220E+01 0.  0.
     999903    2    3    3    0    0 -0.18890471458E-01 -0.47825809974E-01  0.11746932587E+00  0.12959699323E+00  0.18766462691E-01 0.  0.
         14    1    1    2    0    0  0.30011620605E-02  0.15304558654E-01  0.17350719692E-01  0.23329894194E-01  0.00000000000E+00 0.  1.
     999901    1    3    3    0    0  0.15889309398E-01  0.32521251320E-01 -0.13482004556E+00  0.89100311258E+00  0.88000000000E+00 0. -1.
        -11    1    4    4    0    0 -0.85071129723E-02 -0.38644188697E-01  0.73285172283E-01  0.83286985110E-01  0.51100000000E-03 0. -1.
         11    1    4    4    0    0 -0.10383358486E-01 -0.91816212764E-02  0.44184153585E-01  0.46310008116E-01  0.51100000000E-03 0.  1.
</event>
<event>
 8    1  0.1092993E+005  0.1043930E+01  0.7957747E-01            NaN
         13   -1    0    0    0    0  0.00000000000E+00  0.00000000000E+00  0.74505805969E-08  0.10566000000E+00  0.10566000000E+00 0. -1.
     999900   -1    0    0    0    0 -0.00000000000E+00 -0.00000000000E+00 -0.74505805969E-08  0.93827000000E+00  0.93827000000E+00 0. -1.
     999902    2    1    2    0    0 -0.13182916345E-01 -0.22925174941E-02 -0.19671651903E-01  0.10201388502E+01  0.10198613900E+01 0.  0.
     999903    2    3    3    0    0  0.12373992104E+00  0.21382221503E-01 -0.10294337574E-01  0.12918638757E+00  0.28537377094E-01 0.  0.
         14    1    1    2    0    0  0.13182916345E-01  0.22925174941E-02  0.19671651903E-01  0.23791149791E-01  0.00000000000E+00 0. -1.
     999901    1    3    3    0    0 -0.13692283738E+00 -0.23674738997E-01 -0.93773143283E-02  0.89095246264E+00  0.88000000000E+00 0. -1.
        -11    1    4    4    0    0  0.73606205098E-01  0.68253224145E-03 -0.13548012494E-01  0.74847505253E-01  0.51100000000E-03 0. -1.
         11    1    4    4    0    0  0.50133715941E-01  0.20699689261E-01  0.32536749194E-02  0.54338882313E-01  0.51100000000E-03 0.  1.
</event>
<event>
 8    1  0.1092993E+005  0.1043930E+01  0.7957747E-01            NaN
         13   -1    0    0    0    0  0.00000000000E+00  0.00000000000E+00  0.74505805969E-08  0.10566000000E+00  0.10566000000E+00 0.  1.
     999900   -1    0    0    0    0 -0.00000000000E+00 -0.00000000000E+00 -0.74505805969E-08  0.93827000000E+00  0.93827000000E+00 0.  1.
     999902    2    1    2    0    0  0.71897438324E-02  0.11248646276E-01  0.17870832500E-01  0.10216232496E+01  0.10213796909E+01 0.  0.
     999903    2    3    3    0    0 -0.27351077039E-01 -0.11108068586E+00  0.62033947423E-01  0.13139411363E+00  0.18143932214E-01 0.  0.
         14    1    1    2    0    0 -0.71897438324E-02 -0.11248646276E-01 -0.17870832500E-01  0.22306750405E-01  0.00000000000E+00 0. -1.
     999901    1    3    3    0    0  0.34540820871E-01  0.12232933214E+00 -0.44163114923E-01  0.89022913597E+00  0.88000000000E+00 0. -1.
        -11    1    4    4    0    0 -0.25904627568E-02 -0.29221319410E-01  0.86995535612E-02  0.30602930554E-01  0.51100000000E-03 0.  1.
         11    1    4    4    0    0 -0.24760614282E-01 -0.81859366451E-01  0.53334393862E-01  0.10079118307E+00  0.51100000000E-03 0. -1.
</event>
<event>
 8    1  0.1092993E+005  0.1043930E+01  0.7957747E-01            NaN
         13   -1    0    0    0    0  0.00000000000E+00  0.00000000000E+00  0.74505805969E-08  0.10566000000E+00  0.10566000000E+00 0.  1.
     999900   -1    0    0    0    0 -0.00000000000E+00 -0.00000000000E+00 -0.74505805969E-08  0.93827000000E+00  0.93827000000E+00 0. -1.
     999902    2    1    2    0    0 -0.45595119739E-02  0.28951733730E-02 -0.23389807132E-01  0.10199247036E+01  0.10196421660E+01 0.  0.
     999903    2    3    3    0    0  0.97024651929E-01  0.45603660702E-01  0.67633158901E-01  0.12839313511E+00  0.20422438844E-01 0.  0.
         14    1    1    2    0    0  0.45595119739E-02 -0.28951733730E-02  0.23389807132E-01  0.24005296415E-01  0.00000000000E+00 0.  1.
     999901    1    3    3    0    0 -0.10158416390E+00 -0.42708487329E-01 -0.91022966034E-01  0.89153156848E+00  0.88000000000E+00 0.  1.
        -11    1    4    4    0    0  0.60193159937E-02  0.49996531286E-02 -0.19870261521E-03  0.78440614587E-02  0.51100000000E-03 0.  1.
         11    1    4    4    0    0  0.91005335936E-01  0.40604007573E-01  0.67831861517E-01  0.12054907365E+00  0.51100000000E-03 0. -1.
</event>
<event>
 8    1  0.1092993E+005  0.1043930E+01  0.7957747E-01            NaN
         13   -1    0    0    0    0  0.00000000000E+00  0.00000000000E+00  0.74505805969E-08  0.10566000000E+00  0.10566000000E+00 0. -1.
     999900   -1    0    0    0    0 -0.00000000000E+00 -0.00000000000E+00 -0.74505805969E-08  0.93827000000E+00  0.93827000000E+00 0. -1.
     999902    2    1    2    0    0 -0.22643220389E-01  0.23468177750E-03  0.10635651510E-01  0.10189122545E+01  0.10186050731E+01 0.  0.
     999903    2    3    3    0    0 -0.12660697094E+00  0.31174898484E-01 -0.82307840785E-02  0.13205166750E+00  0.19201502461E-01 0.  0.
         14    1    1    2    0    0  0.22643220389E-01 -0.23468177750E-03 -0.10635651510E-01  0.25017745465E-01  0.00000000000E+00 0. -1.
     999901    1    3    3    0    0  0.10396375055E+00 -0.30940216706E-01  0.18866435589E-01  0.88686058703E+00  0.88000000000E+00 0.  1.
        -11    1    4    4    0    0 -0.95469739253E-01  0.26414697711E-01 -0.13944470186E-01  0.10003457771E+00  0.51100000000E-03 0. -1.
         11    1    4    4    0    0 -0.31137231690E-01  0.47602007721E-02  0.57136861076E-02  0.32017089791E-01  0.51100000000E-03 0.  1.
</event>
<event>
 8    1  0.1092993E+005  0.1043930E+01  0.7957747E-01            NaN
         13   -1    0    0    0    0  0.00000000000E+00  0.00000000000E+00  0.74505805969E-08  0.10566000000E+00  0.10566000000E+00 0. -1.
     999900   -1    0    0    0    0 -0.00000000000E+00 -0.00000000000E+00 -0.74505805969E-08  0.93827000000E+00  0.93827000000E+00 0.  1.
     999902    2    1    2    0    0 -0.77832632982E-02  0.18366386533E-01  0.12631970788E-01  0.10203191968E+01  0.10200459761E+01 0.  0.
     999903    2    3    3    0    0 -0.91725386624E-01 -0.71593707064E-01 -0.53253763922E-01  0.12931974195E+00  0.18666195181E-01 0.  0.
         14    1    1    2    0    0  0.77832632982E-02 -0.18366386533E-01 -0.12631970788E-01  0.23610803202E-01  0.00000000000E+00 0. -1.
     999901    1    3    3    0    0  0.83942123326E-01  0.89960093597E-01  0.65885734710E-01  0.89099945485E+00  0.88000000000E+00 0. -1.
        -11    1    4    4    0    0 -0.61304001091E-01 -0.53116641686E-01 -0.45063483403E-01  0.92792978351E-01  0.51100000000E-03 0.  1.
         11    1    4    4    0    0 -0.30421385534E-01 -0.18477065379E-01 -0.81902805183E-02  0.36526763595E-01  0.51100000000E-03 0. -1.
</event>
<event>
 8    1  0.1092993E+005  0.1043930E+01  0.7957747E-01            NaN
         13   -1    0    0    0    0  0.00000000000E+00  0.00000000000E+00  0.74505805969E-08  0.10566000000E+00  0.10566000000E+00 0.  1.
     999900   -1    0    0    0    0 -0.00000000000E+00 -0.00000000000E+00 -0.74505805969E-08  0.93827000000E+00  0.93827000000E+00 0.  1.
     999902    2    1    2    0    0  0.17352233881E-01  0.26878945331E-02 -0.15625768213E-01  0.10204249063E+01  0.10201541550E+01 0.  0.
     999903    2    3    3    0    0  0.50454043819E-01  0.12027265689E+00  0.77905394641E-02  0.13167846911E+00  0.16352497922E-01 0.  0.
         14    1    1    2    0    0 -0.17352233881E-01 -0.26878945331E-02  0.15625768213E-01  0.23505093701E-01  0.00000000000E+00 0.  1.
     999901    1    3    3    0    0 -0.33101809938E-01 -0.11758476235E+00 -0.23416307677E-01  0.88874643719E+00  0.88000000000E+00 0.  1.
        -11    1    4    4    0    0  0.20846955848E-01  0.70099189908E-01  0.61885457216E-02  0.73396534067E-01  0.51100000000E-03 0. -1.
         11    1    4    4    0    0  0.29607087971E-01  0.50173466979E-01  0.16019937425E-02  0.58281935038E-01  0.51100000000E-03 0.  1.
</event>
<event>
 8    1  0.1092993E+005  0.1043930E+01  0.7957747E-01            NaN
         13   -1    0    0    0    0  0.00000000000E+00  0.00000000000E+00  0.74505805969E-08  0.10566000000E+00  0.10566000000E+00 0.  1.
     999900   -1    0    0    0    0 -0.00000000000E+00 -0.00000000000E+00 -0.74505805969E-08  0.93827000000E+00  0.93827000000E+00 0.  1.
     999902    2    1    2    0    0 -0.58726466874E-04 -0.86505418945E-02  0.21141288318E-01  0.10210872901E+01  0.10208317514E+01 0.  0.
     999903    2    3    3    0    0  0.65357017649E-01 -0.10337208588E+00 -0.43506628695E-01  0.13123857057E+00  0.19323761802E-01 0.  0.
         14    1    1    2    0    0  0.58726466874E-04  0.86505418945E-02 -0.21141288318E-01  0.22842709900E-01  0.00000000000E+00 0. -1.
     999901    1    3    3    0    0 -0.65415744116E-01  0.94721543984E-01  0.64647917013E-01  0.88984871953E+00  0.88000000000E+00 0. -1.
        -11    1    4    4    0    0  0.33883870974E-01 -0.64819838644E-01 -0.33599349111E-01  0.80491649105E-01  0.51100000000E-03 0.  1.
         11    1    4    4    0    0  0.31473146675E-01 -0.38552247235E-01 -0.99072795838E-02  0.50746921466E-01  0.51100000000E-03 0. -1.
</event>
<event>
 8    1  0.1092993E+005  0.1043930E+01  0.7957747E-01            NaN
         13   -1    0    0    0    0  0.00000000000E+00  0.00000000000E+00  0.74505805969E-08  0.10566000000E+00  0.10566000000E+00 0.  1.
     999900   -1    0    0    0    0 -0.00000000000E+00 -0.00000000000E+00 -0.74505805969E-08  0.93827000000E+00  0.93827000000E+00 0. -1.
     999902    2    1    2    0    0 -0.86675528470E-02 -0.98297783102E-02  0.19476661063E-01  0.10204546653E+01  0.10201846071E+01 0.  0.
     999903    2    3    3    0    0 -0.11436269988E+00 -0.63658733951E-01  0.20178315357E-02  0.13232526519E+00  0.19355687344E-01 0.  0.
         14    1    1    2    0    0  0.86675528470E-02  0.98297783102E-02 -0.19476661063E-01  0.23475334719E-01  0.00000000000E+00 0. -1.
     999901    1    3    3    0    0  0.10569514703E+00  0.53828955641E-01  0.17458829528E-01  0.88812940009E+00  0.88000000000E+00 0.  1.
        -11    1    4    4    0    0 -0.20162089311E-01 -0.42290530481E-02  0.36689085123E-02  0.20931238515E-01  0.51100000000E-03 0. -1.
         11    1    4    4    0    0 -0.94200610568E-01 -0.59429680903E-01 -0.16510769766E-02  0.11139402668E+00  0.51100000000E-03 0.  1.
</event>
<event>
 8    1  0.1092993E+005  0.1043930E+01  0.7957747E-01            NaN
         13   -1    0    0    0    0  0.00000000000E+00  0.00000000000E+00  0.74505805969E-08  0.10566000000E+00  0.10566000000E+00 0. -1.
     999900   -1    0    0    0    0 -0.00000000000E+00 -0.00000000000E+00 -0.74505805969E-08  0.93827000000E+00  0.93827000000E+00 0. -1.
     999902    2    1    2    0    0  0.55252780849E-02  0.21914597978E-01  0.44316240091E-02  0.10208992034E+01  0.10206393907E+01 0.  0.
     999903    2    3    3    0    0 -0.61009520468E-01  0.11673785163E+00  0.33064263267E-02  0.13330718282E+00  0.20248084998E-01 0.  0.
         14    1    1    2    0    0 -0.55252780849E-02 -0.21914597978E-01 -0.44316240091E-02  0.23030796638E-01  0.00000000000E+00 0.  1.
     999901    1    3    3    0    0  0.66534798553E-01 -0.94823253654E-01  0.11251976824E-02  0.88759202054E+00  0.88000000000E+00 0.  1.
        -11    1    4    4    0    0 -0.45371008573E-02  0.22402515540E-01  0.47430411778E-02  0.23349851120E-01  0.51100000000E-03 0. -1.
         11    1    4    4    0    0 -0.56472419611E-01  0.94335336091E-01 -0.14366148511E-02  0.10995733170E+00  0.51100000000E-03 0.  1.
</event>
<event>
 8    1  0.1092993E+005  0.1043930E+01  0.7957747E-01            NaN
         13   -1    0    0    0    0  0.00000000000E+00  0.00000000000E+00  0.74505805969E-08  0.10566000000E+00  0.10566000000E+00 0.  1.
     999900   -1    0    0    0    0 -0.00000000000E+00 -0.00000000000E+00 -0.74505805969E-08  0.93827000000E+00  0.93827000000E+00 0. -1.
     999902    2    1    2    0    0 -0.90780469826E-03  0.20404890784E-01 -0.12426261338E-01  0.10200219334E+01  0.10197417070E+01 0.  0.
     999903    2    3    3    0    0 -0.11525686809E+00 -0.54871594410E-01 -0.53792097210E-02  0.12940870733E+00  0.20558213017E-01 0.  0.
         14    1    1    2    0    0  0.90780469826E-03 -0.20404890784E-01  0.12426261338E-01  0.23908066591E-01  0.00000000000E+00 0.  1.
     999901    1    3    3    0    0  0.11434906339E+00  0.75276485194E-01 -0.70470516173E-02  0.89061322607E+00  0.88000000000E+00 0.  1.
        -11    1    4    4    0    0 -0.83623176680E-01 -0.40593927795E-01  0.52571563097E-02  0.93105324582E-01  0.51100000000E-03 0. -1.
         11    1    4    4    0    0 -0.31633691407E-01 -0.14277666614E-01 -0.10636366031E-01  0.36303382753E-01  0.51100000000E-03 0.  1.
</event>
<event>
 8    1  0.1092993E+005  0.1043930E+01  0.7957747E-01            NaN
         13   -1    0    0    0    0  0.00000000000E+00  0.00000000000E+00  0.74505805969E-08  0.10566000000E+00  0.10566000000E+00 0.  1.
     999900   -1    0    0    0    0 -0.00000000000E+00 -0.00000000000E+00 -0.74505805969E-08  0.93827000000E+00  0.93827000000E+00 0. -1.
     999902    2    1    2    0    0  0.19030455200E-01 -0.57879586612E-02 -0.11431668224E-01  0.10209878613E+01  0.10207300677E+01 0.  0.
     999903    2    3    3    0    0 -0.28543961367E-02 -0.12966138725E+00  0.76110071547E-02  0.13183871940E+00  0.22434294762E-01 0.  0.
         14    1    1    2    0    0 -0.19030455200E-01  0.57879586612E-02  0.11431668224E-01  0.22942138719E-01  0.00000000000E+00 0.  1.
     999901    1    3    3    0    0  0.21884851337E-01  0.12387342859E+00 -0.19042675379E-01  0.88914914188E+00  0.88000000000E+00 0. -1.
        -11    1    4    4    0    0 -0.90533066927E-02 -0.93480689556E-01  0.12707392981E-01  0.94775211101E-01  0.51100000000E-03 0. -1.
         11    1    4    4    0    0  0.61989105560E-02 -0.36180697694E-01 -0.50963858259E-02  0.37063508296E-01  0.51100000000E-03 0.  1.
</event>
<event>
 8    1  0.1092993E+005  0.1043930E+01  0.7957747E-01            NaN
         13   -1    0    0    0    0  0.00000000000E+00  0.00000000000E+00  0.74505805969E-08  0.10566000000E+00  0.10566000000E+00 0. -1.
     999900   -1    0    0    0    0 -0.00000000000E+00 -0.00000000000E+00 -0.74505805969E-08  0.93827000000E+00  0.93827000000E+00 0.  1.
     999902    2    1    2    0    0 -0.14600190035E-01 -0.16575259106E-01  0.91988402166E-02  0.10200025383E+01  0.10197218516E+01 0.  0.
     999903    2    3    3    0    0  0.97676304061E-01 -0.12574849694E-01 -0.79441724406E-01  0.12844257725E+00  0.22084402946E-01 0.  0.
         14    1    1    2    0    0  0.14600190035E-01  0.16575259106E-01 -0.91988402166E-02  0.23927461730E-01  0.00000000000E+00 0. -1.
     999901    1    3    3    0    0 -0.11227649410E+00 -0.40004094120E-02  0.88640564622E-01  0.89155996102E+00  0.88000000000E+00 0. -1.
        -11    1    4    4    0    0  0.51218762994E-01 -0.12267904014E-01 -0.30079134502E-01  0.60653760023E-01  0.51100000000E-03 0. -1.
         11    1    4    4    0    0  0.46457541067E-01 -0.30694568030E-03 -0.49362589904E-01  0.67788817224E-01  0.51100000000E-03 0.  1.
</event>
<event>
 8    1  0.1092993E+005  0.1043930E+01  0.7957747E-01            NaN
         13   -1    0    0    0    0  0.00000000000E+00  0.00000000000E+00  0.74505805969E-08  0.10566000000E+00  0.10566000000E+00 0. -1.
     999900   -1    0    0    0    0 -0.00000000000E+00 -0.00000000000E+00 -0.74505805969E-08  0.93827000000E+00  0.93827000000E+00 0.  1.
     999902    2    1    2    0    0 -0.12198204720E-01  0.15219239982E-01 -0.13033266789E-01  0.10204717923E+01  0.10202021326E+01 0.  0.
     999903    2    3    3    0    0 -0.12251721968E+00 -0.43202332622E-01  0.39441497982E-02  0.13149957798E+00  0.19991799017E-01 0.  0.
         14    1    1    2    0    0  0.12198204720E-01 -0.15219239982E-01  0.13033266789E-01  0.23458207673E-01  0.00000000000E+00 0. -1.
     999901    1    3    3    0    0  0.11031901496E+00  0.58421572604E-01 -0.16977416587E-01  0.88897221435E+00  0.88000000000E+00 0.  1.
        -11    1    4    4    0    0 -0.56798813363E-01 -0.20386169463E-01  0.11792292150E-01  0.61490002276E-01  0.51100000000E-03 0. -1.
         11    1    4    4    0    0 -0.65718406322E-01 -0.22816163159E-01 -0.78481423514E-02  0.70009575703E-01  0.51100000000E-03 0.  1.
</event>
<event>
 8    1  0.1092993E+005  0.1043930E+01  0.7957747E-01            NaN
         13   -1    0    0    0    0  0.00000000000E+00  0.00000000000E+00  0.74505805969E-08  0.10566000000E+00  0.10566000000E+00 0. -1.
     999900   -1    0    0    0    0 -0.00000000000E+00 -0.00000000000E+00 -0.74505805969E-08  0.93827000000E+00  0.93827000000E+00 0. -1.
     999902    2    1    2    0    0 -0.16685088814E-01 -0.73437760221E-02 -0.33035812597E-02  0.10254033467E+01  0.10252359662E+01 0.  0.
     999903    2    3    3    0    0  0.31399334273E-01  0.93670254991E-01 -0.89175450826E-01  0.13417390135E+00  0.17039363531E-01 0.  0.
         14    1    1    2    0    0  0.16685088814E-01  0.73437760221E-02  0.33035812597E-02  0.18526653344E-01  0.00000000000E+00 0. -1.
     999901    1    3    3    0    0 -0.48084423087E-01 -0.10101403101E+00  0.85871869567E-01  0.89122944531E+00  0.88000000000E+00 0.  1.
        -11    1    4    4    0    0  0.68992246202E-02  0.85995970839E-02 -0.53913005640E-02  0.12283306279E-01  0.51100000000E-03 0. -1.
         11    1    4    4    0    0  0.24500109652E-01  0.85070657907E-01 -0.83784150262E-01  0.12189059507E+00  0.51100000000E-03 0.  1.
</event>
<event>
 8    1  0.1092993E+005  0.1043930E+01  0.7957747E-01            NaN
         13   -1    0    0    0    0  0.00000000000E+00  0.00000000000E+00  0.74505805969E-08  0.10566000000E+00  0.10566000000E+00 0.  1.
     999900   -1    0    0    0    0 -0.00000000000E+00 -0.00000000000E+00 -0.74505805969E-08  0.93827000000E+00  0.93827000000E+00 0.  1.
     999902    2    1    2    0    0  0.19156639905E-01  0.11589211808E-02  0.13403611283E-01  0.10205210969E+01  0.10202525826E+01 0.  0.
     999903    2    3    3    0    0 -0.83556430647E-02  0.10573745133E+00 -0.71115142909E-01  0.12988255374E+00  0.23704194342E-01 0.  0.
         14    1    1    2    0    0 -0.19156639905E-01 -0.11589211808E-02 -0.13403611283E-01  0.23408903139E-01  0.00000000000E+00 0. -1.
     999901    1    3    3    0    0  0.27512282970E-01 -0.10457853015E+00  0.84518754192E-01  0.89063854312E+00  0.88000000000E+00 0. -1.
        -11    1    4    4    0    0 -0.81357443668E-02  0.10688812517E+00 -0.69247690891E-01  0.12761961234E+00  0.51100000000E-03 0. -1.
         11    1    4    4    0    0 -0.21989869791E-03 -0.11506738412E-02 -0.18674520181E-02  0.22629413969E-02  0.51100000000E-03 0.  1.
</event>
<event>
 8    1  0.1092993E+005  0.1043930E+01  0.7957747E-01            NaN
         13   -1    0    0    0    0  0.00000000000E+00  0.00000000000E+00  0.74505805969E-08  0.10566000000E+00  0.10566000000E+00 0. -1.
     999900   -1    0    0    0    0 -0.00000000000E+00 -0.00000000000E+00 -0.74505805969E-08  0.93827000000E+00  0.93827000000E+00 0.  1.
     999902    2    1    2    0    0  0.18519233448E-01  0.12051037941E-01  0.11099711549E-01  0.10192036351E+01  0.10189036543E+01 0.  0.
     999903    2    3    3    0    0 -0.54372039962E-01  0.87484446410E-01  0.76771000368E-01  0.13054393929E+00  0.23196691435E-01 0.  0.
         14    1    1    2    0    0 -0.18519233448E-01 -0.12051037941E-01 -0.11099711549E-01  0.24726364865E-01  0.00000000000E+00 0.  1.
     999901    1    3    3    0    0  0.72891273410E-01 -0.75433408468E-01 -0.65671288819E-01  0.88865969585E+00  0.88000000000E+00 0.  1.
        -11    1    4    4    0    0 -0.18184898489E-01  0.19888343614E-01  0.96131559231E-02  0.28616614625E-01  0.51100000000E-03 0. -1.
         11    1    4    4    0    0 -0.36187141473E-01  0.67596102795E-01  0.67157844444E-01  0.10192732466E+00  0.51100000000E-03 0.  1.
</event>
<event>
 8    1  0.1092993E+005  0.1043930E+01  0.7957747E-01            NaN
         13   -1    0    0    0    0  0.00000000000E+00  0.00000000000E+00  0.74505805969E-08  0.10566000000E+00  0.10566000000E+00 0.  1.
     999900   -1    0    0    0    0 -0.00000000000E+00 -0.00000000000E+00 -0.74505805969E-08  0.93827000000E+00  0.93827000000E+00 0. -1.
     999902    2    1    2    0    0  0.14409088075E-01  0.11198869501E-01 -0.10673120770E-01  0.10227887606E+01  0.10225702405E+01 0.  0.
     999903    2    3    3    0    0  0.95433489534E-01  0.21564116774E-01 -0.91348349364E-01  0.13533122104E+00  0.19936308560E-01 0.  0.
         14    1    1    2    0    0 -0.14409088075E-01 -0.11198869501E-01  0.10673120770E-01  0.21141239420E-01  0.00000000000E+00 0.  1.
     999901    1    3    3    0    0 -0.81024401459E-01 -0.10365247273E-01  0.80675228594E-01  0.88745753954E+00  0.88000000000E+00 0.  1.
        -11    1    4    4    0    0  0.10074344849E-01  0.90870146684E-02 -0.12912838372E-01  0.18736829389E-01  0.51100000000E-03 0.  1.
         11    1    4    4    0    0  0.85359144685E-01  0.12477102106E-01 -0.78435510992E-01  0.11659439165E+00  0.51100000000E-03 0. -1.
</event>
<event>
 8    1  0.1092993E+005  0.1043930E+01  0.7957747E-01            NaN
         13   -1    0    0    0    0  0.00000000000E+00  0.00000000000E+00  0.74505805969E-08  0.10566000000E+00  0.10566000000E+00 0.  1.
     999900   -1    0    0    0    0 -0.00000000000E+00 -0.00000000000E+00 -0.74505805969E-08  0.93827000000E+00  0.93827000000E+00 0. -1.
     999902    2    1    2    0    0  0.44235660549E-03  0.23224007130E-01  0.12365143511E-01  0.10176156130E+01  0.10172753260E+01 0.  0.
     999903    2    3    3    0    0  0.10351004217E+00  0.13766406322E-01  0.73864605832E-01  0.12941823753E+00  0.19729608110E-01 0.  0.
         14    1    1    2    0    0 -0.44235660549E-03 -0.23224007130E-01 -0.12365143511E-01  0.26314386951E-01  0.00000000000E+00 0. -1.
     999901    1    3    3    0    0 -0.10306768557E+00  0.94576008080E-02 -0.61499462321E-01  0.88819737552E+00  0.88000000000E+00 0. -1.
        -11    1    4    4    0    0  0.78628916422E-01  0.18616470684E-01  0.58695111207E-01  0.99872201733E-01  0.51100000000E-03 0. -1.
         11    1    4    4    0    0  0.24881125750E-01 -0.48500643618E-02  0.15169494624E-01  0.29546035792E-01  0.51100000000E-03 0.  1.
</event>
<event>
 8    1  0.1092993E+005  0.1043930E+01  0.7957747E-01            NaN
         13   -1    0    0    0    0  0.00000000000E+00  0.00000000000E+00  0.74505805969E-08  0.10566000000E+00  0.10566000000E+00 0. -1.
     999900   -1    0    0    0    0 -0.00000000000E+00 -0.00000000000E+00 -0.74505805969E-08  0.93827000000E+00  0.93827000000E+00 0. -1.
     999902    2    1    2    0    0  0.57101573242E-02 -0.18489968563E-01  0.13975827668E-01  0.10200593361E+01  0.10197799962E+01 0.  0.
     999903    2    3    3    0    0  0.65397664175E-01  0.10881985833E+00  0.17619156752E-01  0.12888950701E+00  0.13544529830E-01 0.  0.
         14    1    1    2    0    0 -0.57101573242E-02  0.18489968563E-01 -0.13975827668E-01  0.23870663860E-01  0.00000000000E+00 0.  1.
     999901    1    3    3    0    0 -0.59687506851E-01 -0.12730982689E+00 -0.36433290836E-02  0.89116982913E+00  0.88000000000E+00 0.  1.
        -11    1    4    4    0    0  0.16309362577E-01  0.21414310715E-01  0.84764324273E-02  0.28225503339E-01  0.51100000000E-03 0.  1.
         11    1    4    4    0    0  0.49088301598E-01  0.87405547611E-01  0.91427243247E-02  0.10066400368E+00  0.51100000000E-03 0. -1.
</event>
<event>
 8    1  0.1092993E+005  0.1043930E+01  0.7957747E-01            NaN
         13   -1    0    0    0    0  0.00000000000E+00  0.00000000000E+00  0.74505805969E-08  0.10566000000E+00  0.10566000000E+00 0.  1.
     999900   -1    0    0    0    0 -0.00000000000E+00 -0.00000000000E+00 -0.74505805969E-08  0.93827000000E+00  0.93827000000E+00 0. -1.
     999902    2    1    2    0    0 -0.98186084681E-02  0.19072545551E-01 -0.71092172761E-02  0.10213311497E+01  0.10210810983E+01 0.  0.
     999903    2    3    3    0    0 -0.52403390139E-01  0.72291674937E-01  0.96155084796E-01  0.13267527958E+00  0.19614482301E-01 0.  0.
         14    1    1    2    0    0  0.98186084681E-02 -0.19072545551E-01  0.71092172761E-02  0.22598850332E-01  0.00000000000E+00 0.  1.
     999901    1    3    3    0    0  0.42584781671E-01 -0.53219129386E-01 -0.10326430207E+00  0.88865587009E+00  0.88000000000E+00 0. -1.
        -11    1    4    4    0    0 -0.38472981195E-01  0.36703603638E-01  0.57323370064E-01  0.78189223545E-01  0.51100000000E-03 0. -1.
         11    1    4    4    0    0 -0.13930408944E-01  0.35588071298E-01  0.38831714732E-01  0.54486056034E-01  0.51100000000E-03 0.  1.
</event>
<event>
 8    1  0.1092993E+005  0.1043930E+01  0.7957747E-01            NaN
         13   -1    0    0    0    0  0.00000000000E+00  0.00000000000E+00  0.74505805969E-08  0.10566000000E+00  0.10566000000E+00 0. -1.
     999900   -1    0    0    0    0 -0.00000000000E+00 -0.00000000000E+00 -0.74505805969E-08  0.93827000000E+00  0.93827000000E+00 0. -1.
     999902    2    1    2    0    0 -0.78801574969E-02 -0.14090624564E-01  0.16986374210E-01  0.10204954210E+01  0.10202263106E+01 0.  0.
     999903    2    3    3    0    0 -0.67900975096E-01 -0.10915615222E+00  0.29664768788E-01  0.13325210897E+00  0.18722127334E-01 0.  0.
         14    1    1    2    0    0  0.78801574969E-02  0.14090624564E-01 -0.16986374210E-01  0.23434578972E-01  0.00000000000E+00 0.  1.
     999901    1    3    3    0    0  0.60020817599E-01  0.95065527658E-01 -0.12678394578E-01  0.88724331205E+00  0.88000000000E+00 0. -1.
        -11    1    4    4    0    0 -0.30808764042E-01 -0.51532960714E-01  0.43678715654E-02  0.60201041559E-01  0.51100000000E-03 0.  1.
         11    1    4    4    0    0 -0.37092211054E-01 -0.57623191508E-01  0.25296897223E-01  0.73051067416E-01  0.51100000000E-03 0. -1.
</event>
<event>
 8    1  0.1092993E+005  0.1043930E+01  0.7957747E-01            NaN
         13   -1    0    0    0    0  0.00000000000E+00  0.00000000000E+00  0.74505805969E-08  0.10566000000E+00  0.10566000000E+00 0. -1.
     999900   -1    0    0    0    0 -0.00000000000E+00 -0.00000000000E+00 -0.74505805969E-08  0.93827000000E+00  0.93827000000E+00 0. -1.
     999902    2    1    2    0    0  0.16527974513E-01  0.32320154110E-02 -0.17366665358E-01  0.10197386600E+01  0.10194516731E+01 0.  0.
     999903    2    3    3    0    0 -0.60709867949E-01  0.11142860185E+00  0.13776352491E-01  0.12920956268E+00  0.20082375922E-01 0.  0.
         14    1    1    2    0    0 -0.16527974513E-01 -0.32320154110E-02  0.17366665358E-01  0.24191339996E-01  0.00000000000E+00 0.  1.
     999901    1    3    3    0    0  0.77237842462E-01 -0.10819658644E+00 -0.31143017849E-01  0.89052909733E+00  0.88000000000E+00 0. -1.
        -11    1    4    4    0    0 -0.38867666019E-01  0.57142610478E-01  0.14825232293E-01  0.70682544008E-01  0.51100000000E-03 0. -1.
         11    1    4    4    0    0 -0.21842201930E-01  0.54285991372E-01 -0.10488798016E-02  0.58527018669E-01  0.51100000000E-03 0.  1.
</event>
<event>
 8    1  0.1092993E+005  0.1043930E+01  0.7957747E-01            NaN
         13   -1    0    0    0    0  0.00000000000E+00  0.00000000000E+00  0.74505805969E-08  0.10566000000E+00  0.10566000000E+00 0.  1.
     999900   -1    0    0    0    0 -0.00000000000E+00 -0.00000000000E+00 -0.74505805969E-08  0.93827000000E+00  0.93827000000E+00 0.  1.
     999902    2    1    2    0    0  0.22155501752E-01 -0.81333874129E-02 -0.51242307377E-02  0.10197788926E+01  0.10194928709E+01 0.  0.
     999903    2    3    3    0    0  0.17684653015E-01  0.41246164511E-01  0.12001935275E+00  0.12954339277E+00  0.19048688628E-01 0.  0.
         14    1    1    2    0    0 -0.22155501752E-01  0.81333874129E-02  0.51242307377E-02  0.24151107414E-01  0.00000000000E+00 0.  1.
     999901    1    3    3    0    0  0.44708487363E-02 -0.49379551924E-01 -0.12514358349E+00  0.89023549981E+00  0.88000000000E+00 0.  1.
        -11    1    4    4    0    0  0.25615069107E-02  0.27785206617E-02  0.32836826362E-01  0.33057522309E-01  0.51100000000E-03 0. -1.
         11    1    4    4    0    0  0.15123146105E-01  0.38467643849E-01  0.87182526386E-01  0.96485870465E-01  0.51100000000E-03 0.  1.
</event>
<event>
 8    1  0.1092993E+005  0.1043930E+01  0.7957747E-01            NaN
         13   -1    0    0    0    0  0.00000000000E+00  0.00000000000E+00  0.74505805969E-08  0.10566000000E+00  0.10566000000E+00 0.  1.
     999900   -1    0    0    0    0 -0.00000000000E+00 -0.00000000000E+00 -0.74505805969E-08  0.93827000000E+00  0.93827000000E+00 0. -1.
     999902    2    1    2    0    0  0.84912443797E-02 -0.17632348890E-01  0.14170681204E-01  0.10197678568E+01  0.10194815705E+01 0.  0.
     999903    2    3    3    0    0  0.59858201790E-01 -0.11133735599E+00  0.36233405150E-01  0.13302891186E+00  0.20120153663E-01 0.  0.
         14    1    1    2    0    0 -0.84912443797E-02  0.17632348890E-01 -0.14170681204E-01  0.24162143205E-01  0.00000000000E+00 0. -1.
     999901    1    3    3    0    0 -0.51366957410E-01  0.93705007097E-01 -0.22062723946E-01  0.88673894493E+00  0.88000000000E+00 0. -1.
        -11    1    4    4    0    0  0.14929332663E-01 -0.44947264947E-01  0.79908494199E-02  0.48033908809E-01  0.51100000000E-03 0.  1.
         11    1    4    4    0    0  0.44928869126E-01 -0.66390091040E-01  0.28242555730E-01  0.84995003055E-01  0.51100000000E-03 0. -1.
</event>
<event>
 8    1  0.1092993E+005  0.1043930E+01  0.7957747E-01            NaN
         13   -1    0    0    0    0  0.00000000000E+00  0.00000000000E+00  0.74505805969E-08  0.10566000000E+00  0.10566000000E+00 0.  1.
     999900   -1    0    0    0    0 -0.00000000000E+00 -0.00000000000E+00 -0.74505805969E-08  0.93827000000E+00  0.93827000000E+00 0.  1.
     999902    2    1    2    0    0 -0.17817429510E-01 -0.12678469555E-01 -0.96878167089E-02  0.10200122623E+01  0.10197318064E+01 0.  0.
     999903    2    3    3    0    0 -0.35280360270E-01 -0.31051573495E-01  0.11972069086E+00  0.13018694981E+00  0.20166656749E-01 0.  0.
         14    1    1    2    0    0  0.17817429510E-01  0.12678469555E-01  0.96878167089E-02  0.23917737710E-01  0.00000000000E+00 0.  1.
     999901    1    3    3    0    0  0.17462930760E-01  0.18373103940E-01 -0.12940850757E+00  0.88982531248E+00  0.88000000000E+00 0.  1.
        -11    1    4    4    0    0 -0.22980477220E-01 -0.21312907586E-01  0.52398452170E-01  0.61058998304E-01  0.51100000000E-03 0. -1.
         11    1    4    4    0    0 -0.12299883050E-01 -0.97386659088E-02  0.67322238686E-01  0.69127951506E-01  0.51100000000E-03 0.  1.
</event>
<event>
 8    1  0.1092993E+005  0.1043930E+01  0.7957747E-01            NaN
         13   -1    0    0    0    0  0.00000000000E+00  0.00000000000E+00  0.74505805969E-08  0.10566000000E+00  0.10566000000E+00 0.  1.
     999900   -1    0    0    0    0 -0.00000000000E+00 -0.00000000000E+00 -0.74505805969E-08  0.93827000000E+00  0.93827000000E+00 0.  1.
     999902    2    1    2    0    0  0.12905739802E-01 -0.18213195432E-01 -0.76022312103E-02  0.10203488099E+01  0.10200762821E+01 0.  0.
     999903    2    3    3    0    0 -0.78306238486E-01  0.98851126962E-01 -0.69673066890E-02  0.12792285571E+00  0.20305205325E-01 0.  0.
         14    1    1    2    0    0 -0.12905739802E-01  0.18213195432E-01  0.76022312103E-02  0.23581190112E-01  0.00000000000E+00 0.  1.
     999901    1    3    3    0    0  0.91211978288E-01 -0.11706432239E+00 -0.63492452129E-03  0.89242595418E+00  0.88000000000E+00 0. -1.
        -11    1    4    4    0    0 -0.58088706304E-01  0.66305525168E-01 -0.13088637217E-01  0.89119548995E-01  0.51100000000E-03 0. -1.
         11    1    4    4    0    0 -0.20217532181E-01  0.32545601794E-01  0.61213305279E-02  0.38803306715E-01  0.51100000000E-03 0.  1.
</event>
<event>
 8    1  0.1092993E+005  0.1043930E+01  0.7957747E-01            NaN
         13   -1    0    0    0    0  0.00000000000E+00  0.00000000000E+00  0.74505805969E-08  0.10566000000E+00  0.10566000000E+00 0.  1.
     999900   -1    0    0    0    0 -0.00000000000E+00 -0.00000000000E+00 -0.74505805969E-08  0.93827000000E+00  0.93827000000E+00 0. -1.
     999902    2    1    2    0    0  0.22484555686E-01  0.60011629934E-02 -0.31506238904E-02  0.10204460559E+01  0.10201757972E+01 0.  0.
     999903    2    3    3    0    0 -0.65931779289E-01  0.92062200547E-01  0.59677553399E-01  0.12961984927E+00  0.20431511344E-01 0.  0.
         14    1    1    2    0    0 -0.22484555686E-01 -0.60011629934E-02  0.31506238904E-02  0.23483944144E-01  0.00000000000E+00 0.  1.
     999901    1    3    3    0    0  0.88416334974E-01 -0.86061037554E-01 -0.62828177289E-01  0.89082620658E+00  0.88000000000E+00 0.  1.
        -11    1    4    4    0    0 -0.40149328574E-01  0.50542596010E-01  0.23050594701E-01  0.68542786882E-01  0.51100000000E-03 0.  1.
         11    1    4    4    0    0 -0.25782450714E-01  0.41519604537E-01  0.36626958699E-01  0.61077062391E-01  0.51100000000E-03 0. -1.
</event>
<event>
 8    1  0.1092993E+005  0.1043930E+01  0.7957747E-01            NaN
         13   -1    0    0    0    0  0.00000000000E+00  0.00000000000E+00  0.74505805969E-08  0.10566000000E+00  0.10566000000E+00 0. -1.
     999900   -1    0    0    0    0 -0.00000000000E+00 -0.00000000000E+00 -0.74505805969E-08  0.93827000000E+00  0.93827000000E+00 0.  1.
     999902    2    1    2    0    0  0.14895395633E-01  0.18054438376E-01 -0.10180408649E-01  0.10184059667E+01  0.10180860655E+01 0.  0.
     999903    2    3    3    0    0 -0.70684926517E-01 -0.10221759713E+00 -0.13688599027E-01  0.12610463784E+00  0.16437942124E-01 0.  0.
         14    1    1    2    0    0 -0.14895395633E-01 -0.18054438376E-01  0.10180408649E-01  0.25524033310E-01  0.00000000000E+00 0.  1.
     999901    1    3    3    0    0  0.85580322150E-01  0.12027203551E+00  0.35081903775E-02  0.89230132885E+00  0.88000000000E+00 0. -1.
        -11    1    4    4    0    0 -0.31439625582E-01 -0.46644475308E-01  0.19808730028E-02  0.56288028145E-01  0.51100000000E-03 0.  1.
         11    1    4    4    0    0 -0.39245300935E-01 -0.55573121825E-01 -0.15669472030E-01  0.69816609697E-01  0.51100000000E-03 0. -1.
</event>
<event>
 8    1  0.1092993E+005  0.1043930E+01  0.7957747E-01            NaN
         13   -1    0    0    0    0  0.00000000000E+00  0.00000000000E+00  0.74505805969E-08  0.10566000000E+00  0.10566000000E+00 0. -1.
     999900   -1    0    0    0    0 -0.00000000000E+00 -0.00000000000E+00 -0.74505805969E-08  0.93827000000E+00  0.93827000000E+00 0. -1.
     999902    2    1    2    0    0  0.27074687899E-01  0.64265070753E-02 -0.84494237132E-02  0.10148485372E+01  0.10144317729E+01 0.  0.
     999903    2    3    3    0    0 -0.68173304543E-01  0.74331733411E-01  0.68933495038E-01  0.12374168841E+00  0.19681785194E-01 0.  0.
         14    1    1    2    0    0 -0.27074687899E-01 -0.64265070753E-02  0.84494237132E-02  0.29081462809E-01  0.00000000000E+00 0.  1.
     999901    1    3    3    0    0  0.95247992442E-01 -0.67905226336E-01 -0.77382918751E-01  0.89110684878E+00  0.88000000000E+00 0. -1.
        -11    1    4    4    0    0 -0.52340096106E-01  0.64364907252E-01  0.62786840498E-01  0.10404218090E+00  0.51100000000E-03 0.  1.
         11    1    4    4    0    0 -0.15833208437E-01  0.99668261591E-02  0.61466545400E-02  0.19699507510E-01  0.51100000000E-03 0. -1.
</event>
<event>
 8    1  0.1092993E+005  0.1043930E+01  0.7957747E-01            NaN
         13   -1    0    0    0    0  0.00000000000E+00  0.00000000000E+00  0.74505805969E-08  0.10566000000E+00  0.10566000000E+00 0. -1.
     999900   -1    0    0    0    0 -0.00000000000E+00 -0.00000000000E+00 -0.74505805969E-08  0.93827000000E+00  0.93827000000E+00 0. -1.
     999902    2    1    2    0    0 -0.89012890038E-02  0.19991253020E-01  0.74298980704E-02  0.10208196878E+01  0.10205580574E+01 0.  0.
     999903    2    3    3    0    0 -0.10922210407E+00 -0.57924685296E-01 -0.36642989759E-01  0.13060759017E+00  0.20758052130E-01 0.  0.
         14    1    1    2    0    0  0.89012890038E-02 -0.19991253020E-01 -0.74298980704E-02  0.23110312169E-01  0.00000000000E+00 0.  1.
     999901    1    3    3    0    0  0.10032081506E+00  0.77915938316E-01  0.44072887829E-01  0.89021209766E+00  0.88000000000E+00 0.  1.
        -11    1    4    4    0    0 -0.72584138308E-01 -0.43132316210E-01 -0.33940928961E-01  0.91000558324E-01  0.51100000000E-03 0. -1.
         11    1    4    4    0    0 -0.36637965759E-01 -0.14792369086E-01 -0.27020607978E-02  0.39607031846E-01  0.51100000000E-03 0.  1.
</event>
<event>
 8    1  0.1092993E+005  0.1043930E+01  0.7957747E-01            NaN
         13   -1    0    0    0    0  0.00000000000E+00  0.00000000000E+00  0.74505805969E-08  0.10566000000E+00  0.10566000000E+00 0.  1.
     999900   -1    0    0    0    0 -0.00000000000E+00 -0.00000000000E+00 -0.74505805969E-08  0.93827000000E+00  0.93827000000E+00 0. -1.
     999902    2    1    2    0    0  0.20048426587E-01 -0.12989412044E-01 -0.10636680396E-02  0.10200177516E+01  0.10197374260E+01 0.  0.
     999903    2    3    3    0    0 -0.58705493102E-01  0.92616459924E-01  0.62608615077E-01  0.12793651107E+00  0.20585640989E-01 0.  0.
         14    1    1    2    0    0 -0.20048426587E-01  0.12989412044E-01  0.10636680396E-02  0.23912248400E-01  0.00000000000E+00 0.  1.
     999901    1    3    3    0    0  0.78753919688E-01 -0.10560587197E+00 -0.63672283116E-01  0.89208124053E+00  0.88000000000E+00 0.  1.
        -11    1    4    4    0    0 -0.25474753855E-01  0.22912599922E-01  0.21522184273E-01  0.40464995441E-01  0.51100000000E-03 0. -1.
         11    1    4    4    0    0 -0.33230739247E-01  0.69703860002E-01  0.41086430803E-01  0.87471515633E-01  0.51100000000E-03 0.  1.
</event>
<event>
 8    1  0.1092993E+005  0.1043930E+01  0.7957747E-01            NaN
         13   -1    0    0    0    0  0.00000000000E+00  0.00000000000E+00  0.74505805969E-08  0.10566000000E+00  0.10566000000E+00 0. -1.
     999900   -1    0    0    0    0 -0.00000000000E+00 -0.00000000000E+00 -0.74505805969E-08  0.93827000000E+00  0.93827000000E+00 0.  1.
     999902    2    1    2    0    0  0.22442296787E-01 -0.52844631624E-02  0.25068444788E-02  0.10207380509E+01  0.10204745474E+01 0.  0.
     999903    2    3    3    0    0 -0.27785984578E-01  0.12061201468E+00  0.33854872632E-01  0.12980847886E+00  0.19615548931E-01 0.  0.
         14    1    1    2    0    0 -0.22442296787E-01  0.52844631624E-02 -0.25068444788E-02  0.23191949147E-01  0.00000000000E+00 0. -1.
     999901    1    3    3    0    0  0.50228281366E-01 -0.12589647784E+00 -0.31348028153E-01  0.89092957199E+00  0.88000000000E+00 0.  1.
        -11    1    4    4    0    0 -0.16131271171E-01  0.97323277049E-01  0.21446523685E-01  0.10095668707E+00  0.51100000000E-03 0. -1.
         11    1    4    4    0    0 -0.11654713407E-01  0.23288737627E-01  0.12408348947E-01  0.28851791789E-01  0.51100000000E-03 0.  1.
</event>
<event>
 8    1  0.1092993E+005  0.1043930E+01  0.7957747E-01            NaN
         13   -1    0    0    0    0  0.00000000000E+00  0.00000000000E+00  0.74505805969E-08  0.10566000000E+00  0.10566000000E+00 0. -1.
     999900   -1    0    0    0    0 -0.00000000000E+00 -0.00000000000E+00 -0.74505805969E-08  0.93827000000E+00  0.93827000000E+00 0.  1.
     999902    2    1    2    0    0 -0.23745235620E-01  0.44775001177E-02  0.12079642747E-02  0.10197361289E+01  0.10194490812E+01 0.  0.
     999903    2    3    3    0    0  0.86503386728E-01  0.35940133780E-01  0.85689231709E-01  0.12828689275E+00  0.18448666353E-01 0.  0.
         14    1    1    2    0    0  0.23745235620E-01 -0.44775001177E-02 -0.12079642747E-02  0.24193871117E-01  0.00000000000E+00 0. -1.
     999901    1    3    3    0    0 -0.11024862235E+00 -0.31462633662E-01 -0.84481267434E-01  0.89144923613E+00  0.88000000000E+00 0.  1.
        -11    1    4    4    0    0  0.73741022245E-01  0.33644851253E-01  0.80714563194E-01  0.11438888150E+00  0.51100000000E-03 0.  1.
         11    1    4    4    0    0  0.12762364483E-01  0.22952825270E-02  0.49746685151E-02  0.13898011258E-01  0.51100000000E-03 0. -1.
</event>
<event>
 8    1  0.1092993E+005  0.1043930E+01  0.7957747E-01            NaN
         13   -1    0    0    0    0  0.00000000000E+00  0.00000000000E+00  0.74505805969E-08  0.10566000000E+00  0.10566000000E+00 0. -1.
     999900   -1    0    0    0    0 -0.00000000000E+00 -0.00000000000E+00 -0.74505805969E-08  0.93827000000E+00  0.93827000000E+00 0. -1.
     999902    2    1    2    0    0 -0.15860582446E-01 -0.99323701316E-02  0.13185477650E-01  0.10210374931E+01  0.10207808263E+01 0.  0.
     999903    2    3    3    0    0  0.37312885843E-01  0.11703848113E+00  0.37318002328E-01  0.13000921433E+00  0.20481821145E-01 0.  0.
         14    1    1    2    0    0  0.15860582446E-01  0.99323701316E-02 -0.13185477650E-01  0.22892506914E-01  0.00000000000E+00 0.  1.
     999901    1    3    3    0    0 -0.53173468289E-01 -0.12697085126E+00 -0.24132524678E-01  0.89102827876E+00  0.88000000000E+00 0.  1.
        -11    1    4    4    0    0  0.24589169956E-01  0.90225146945E-01  0.19961801035E-01  0.95623945965E-01  0.51100000000E-03 0.  1.
         11    1    4    4    0    0  0.12723715886E-01  0.26813334184E-01  0.17356201293E-01  0.34385268362E-01  0.51100000000E-03 0. -1.
</event>
<event>
 8    1  0.1092993E+005  0.1043930E+01  0.7957747E-01            NaN
         13   -1    0    0    0    0  0.00000000000E+00  0.00000000000E+00  0.74505805969E-08  0.10566000000E+00  0.10566000000E+00 0. -1.
     999900   -1    0    0    0    0 -0.00000000000E+00 -0.00000000000E+00 -0.74505805969E-08  0.93827000000E+00  0.93827000000E+00 0.  1.
     999902    2    1    2    0    0 -0.16214434293E-01 -0.13002621975E-01 -0.11703432802E-01  0.10200774027E+01  0.10197984905E+01 0.  0.
     999903    2    3    3    0    0  0.91220070315E-01 -0.71432689658E-01 -0.56176528238E-01  0.13050778667E+00  0.21277915199E-01 0.  0.
         14    1    1    2    0    0  0.16214434293E-01  0.13002621975E-01  0.11703432802E-01  0.23852597280E-01  0.00000000000E+00 0. -1.
     999901    1    3    3    0    0 -0.10743450461E+00  0.58430067683E-01  0.44473095436E-01  0.88956961605E+00  0.88000000000E+00 0.  1.
        -11    1    4    4    0    0  0.59361070530E-01 -0.55093678684E-01 -0.30931221564E-01  0.86695165458E-01  0.51100000000E-03 0. -1.
         11    1    4    4    0    0  0.31858999786E-01 -0.16339010974E-01 -0.25245306674E-01  0.43812621207E-01  0.51100000000E-03 0.  1.
</event>
<event>
 8    1  0.1835988E+005  0.1043930E+01  0.7957747E-01            NaN
         13   -1    0    0    0    0  0.00000000000E+00  0.00000000000E+00  0.74505805969E-08  0.10566000000E+00  0.10566000000E+00 0. -1.
     999900   -1    0    0    0    0 -0.00000000000E+00 -0.00000000000E+00 -0.74505805969E-08  0.93827000000E+00  0.93827000000E+00 0. -1.
     999902    2    1    2    0    0 -0.22784489459E-01  0.65250753456E-02  0.10465829651E-02  0.10202064905E+01  0.10199306243E+01 0.  0.
     999903    2    3    3    0    0 -0.20408562267E-01  0.11903501285E+00  0.48269284229E-01  0.13178422906E+00  0.21244188176E-01 0.  0.
         14    1    1    2    0    0  0.22784489459E-01 -0.65250753456E-02 -0.10465829651E-02  0.23723509522E-01  0.00000000000E+00 0.  1.
     999901    1    3    3    0    0 -0.23759271922E-02 -0.11250993750E+00 -0.47222701264E-01  0.88842226142E+00  0.88000000000E+00 0. -1.
        -11    1    4    4    0    0  0.40607192061E-03  0.58987358637E-01  0.20856172643E-01  0.62569277059E-01  0.51100000000E-03 0.  1.
         11    1    4    4    0    0 -0.20814634187E-01  0.60047654212E-01  0.27413111586E-01  0.69214952002E-01  0.51100000000E-03 0. -1.
</event>
<event>
 8    1  0.1092993E+005  0.1043930E+01  0.7957747E-01            NaN
         13   -1    0    0    0    0  0.00000000000E+00  0.00000000000E+00  0.74505805969E-08  0.10566000000E+00  0.10566000000E+00 0. -1.
     999900   -1    0    0    0    0 -0.00000000000E+00 -0.00000000000E+00 -0.74505805969E-08  0.93827000000E+00  0.93827000000E+00 0.  1.
     999902    2    1    2    0    0  0.17657384924E-01  0.14207256306E-01 -0.67283178134E-02  0.10202889418E+01  0.10200150122E+01 0.  0.
     999903    2    3    3    0    0 -0.64066296224E-01 -0.39210983416E-01  0.10206837007E+00  0.12823009410E+00  0.19570726384E-01 0.  0.
         14    1    1    2    0    0 -0.17657384924E-01 -0.14207256306E-01  0.67283178134E-02  0.23641058240E-01  0.00000000000E+00 0.  1.
     999901    1    3    3    0    0  0.81723681148E-01  0.53418239721E-01 -0.10879668789E+00  0.89205884766E+00  0.88000000000E+00 0. -1.
        -11    1    4    4    0    0 -0.47847702643E-01 -0.26966556292E-01  0.59022801486E-01  0.80625988507E-01  0.51100000000E-03 0.  1.
         11    1    4    4    0    0 -0.16218593582E-01 -0.12244427123E-01  0.43045568586E-01  0.47604105592E-01  0.51100000000E-03 0. -1.
</event>
<event>
 8    1  0.1092993E+005  0.1043930E+01  0.7957747E-01            NaN
         13   -1    0    0    0    0  0.00000000000E+00  0.00000000000E+00  0.74505805969E-08  0.10566000000E+00  0.10566000000E+00 0.  1.
     999900   -1    0    0    0    0 -0.00000000000E+00 -0.00000000000E+00 -0.74505805969E-08  0.93827000000E+00  0.93827000000E+00 0.  1.
     999902    2    1    2    0    0  0.71436432504E-02  0.22180485654E-01 -0.16128216232E-01  0.10155905409E+01  0.10151950659E+01 0.  0.
     999903    2    3    3    0    0  0.36720834811E-01  0.76778040105E-01 -0.95929016520E-01  0.12980057092E+00  0.20063021914E-01 0.  0.
         14    1    1    2    0    0 -0.71436432504E-02 -0.22180485654E-01  0.16128216232E-01  0.28339459091E-01  0.00000000000E+00 0.  1.
     999901    1    3    3    0    0 -0.29577191560E-01 -0.54597554452E-01  0.79800800288E-01  0.88578996999E+00  0.88000000000E+00 0. -1.
        -11    1    4    4    0    0  0.68392727352E-02  0.31485645647E-01 -0.26761604749E-01  0.41887541621E-01  0.51100000000E-03 0. -1.
         11    1    4    4    0    0  0.29881562076E-01  0.45292394458E-01 -0.69167411771E-01  0.87913029296E-01  0.51100000000E-03 0.  1.
</event>
<event>
 8    1  0.1092993E+005  0.1043930E+01  0.7957747E-01            NaN
         13   -1    0    0    0    0  0.00000000000E+00  0.00000000000E+00  0.74505805969E-08  0.10566000000E+00  0.10566000000E+00 0. -1.
     999900   -1    0    0    0    0 -0.00000000000E+00 -0.00000000000E+00 -0.74505805969E-08  0.93827000000E+00  0.93827000000E+00 0.  1.
     999902    2    1    2    0    0  0.20006969820E-02 -0.22539362586E-01 -0.60515965429E-02  0.10205067749E+01  0.10202379282E+01 0.  0.
     999903    2    3    3    0    0 -0.12262624635E+00  0.62548016241E-03 -0.40766441149E-01  0.13074635467E+00  0.19877600851E-01 0.  0.
         14    1    1    2    0    0 -0.20006969820E-02  0.22539362586E-01  0.60515965429E-02  0.23423225118E-01  0.00000000000E+00 0. -1.
     999901    1    3    3    0    0  0.12462694333E+00 -0.23164842749E-01  0.34714844606E-01  0.88976042021E+00  0.88000000000E+00 0. -1.
        -11    1    4    4    0    0 -0.20043009181E-01  0.30803673199E-02 -0.14163257637E-01  0.24740045831E-01  0.51100000000E-03 0. -1.
         11    1    4    4    0    0 -0.10258323717E+00 -0.24548871575E-02 -0.26603183511E-01  0.10600630884E+00  0.51100000000E-03 0.  1.
</event>
<event>
 8    1  0.1092993E+005  0.1043930E+01  0.7957747E-01            NaN
         13   -1    0    0    0    0  0.00000000000E+00  0.00000000000E+00  0.74505805969E-08  0.10566000000E+00  0.10566000000E+00 0. -1.
     999900   -1    0    0    0    0 -0.00000000000E+00 -0.00000000000E+00 -0.74505805969E-08  0.93827000000E+00  0.93827000000E+00 0.  1.
     999902    2    1    2    0    0 -0.52439236871E-02  0.10786989627E-02 -0.24984116659E-01  0.10183787102E+01  0.10180581167E+01 0.  0.
     999903    2    3    3    0    0  0.88432286380E-01  0.57925108295E-01 -0.73622011725E-01  0.13025012070E+00  0.19217332966E-01 0.  0.
         14    1    1    2    0    0  0.52439236871E-02 -0.10786989627E-02  0.24984116659E-01  0.25551289837E-01  0.00000000000E+00 0. -1.
     999901    1    3    3    0    0 -0.93676210068E-01 -0.56846409332E-01  0.48637895066E-01  0.88812858946E+00  0.88000000000E+00 0. -1.
        -11    1    4    4    0    0  0.44453050025E-01  0.24247658117E-01 -0.24684757420E-01  0.56334899934E-01  0.51100000000E-03 0. -1.
         11    1    4    4    0    0  0.43979236355E-01  0.33677450177E-01 -0.48937254305E-01  0.73915220765E-01  0.51100000000E-03 0.  1.
</event>
<event>
 8    1  0.1092993E+005  0.1043930E+01  0.7957747E-01            NaN
         13   -1    0    0    0    0  0.00000000000E+00  0.00000000000E+00  0.74505805969E-08  0.10566000000E+00  0.10566000000E+00 0. -1.
     999900   -1    0    0    0    0 -0.00000000000E+00 -0.00000000000E+00 -0.74505805969E-08  0.93827000000E+00  0.93827000000E+00 0. -1.
     999902    2    1    2    0    0  0.16299881770E-01 -0.18057838420E-01  0.97371848541E-02  0.10177272436E+01  0.10173898751E+01 0.  0.
     999903    2    3    3    0    0  0.76423680835E-01 -0.47422392024E-01  0.93342678419E-01  0.13123582978E+00  0.20506709775E-01 0.  0.
         14    1    1    2    0    0 -0.16299881770E-01  0.18057838420E-01 -0.97371848541E-02  0.26202756401E-01  0.00000000000E+00 0. -1.
     999901    1    3    3    0    0 -0.60123799065E-01  0.29364553604E-01 -0.83605493564E-01  0.88649141382E+00  0.88000000000E+00 0. -1.
        -11    1    4    4    0    0  0.50865741799E-01 -0.35990315711E-01  0.51259073865E-01  0.80686927617E-01  0.51100000000E-03 0.  1.
         11    1    4    4    0    0  0.25557939036E-01 -0.11432076313E-01  0.42083604553E-01  0.50548902162E-01  0.51100000000E-03 0. -1.
</event>
<event>
 8    1  0.1092993E+005  0.1043930E+01  0.7957747E-01            NaN
         13   -1    0    0    0    0  0.00000000000E+00  0.00000000000E+00  0.74505805969E-08  0.10566000000E+00  0.10566000000E+00 0.  1.
     999900   -1    0    0    0    0 -0.00000000000E+00 -0.00000000000E+00 -0.74505805969E-08  0.93827000000E+00  0.93827000000E+00 0.  1.
     999902    2    1    2    0    0  0.20548587044E-02  0.24269553179E-01  0.70073453430E-02  0.10185856408E+01  0.10182702839E+01 0.  0.
     999903    2    3    3    0    0 -0.59975488740E-01 -0.85200698410E-01 -0.68137929971E-01  0.12646551860E+00  0.22238067246E-01 0.  0.
         14    1    1    2    0    0 -0.20548587044E-02 -0.24269553179E-01 -0.70073453430E-02  0.25344359225E-01  0.00000000000E+00 0. -1.
     999901    1    3    3    0    0  0.62030347445E-01  0.10947025159E+00  0.75145275314E-01  0.89212012217E+00  0.88000000000E+00 0. -1.
        -11    1    4    4    0    0 -0.24510317152E-01 -0.53816119130E-01 -0.39601743003E-01  0.71172252282E-01  0.51100000000E-03 0.  1.
         11    1    4    4    0    0 -0.35465171588E-01 -0.31384579280E-01 -0.28536186968E-01  0.55293266317E-01  0.51100000000E-03 0. -1.
</event>
<event>
 8    1  0.1092993E+005  0.1043930E+01  0.7957747E-01            NaN
         13   -1    0    0    0    0  0.00000000000E+00  0.00000000000E+00  0.74505805969E-08  0.10566000000E+00  0.10566000000E+00 0. -1.
     999900   -1    0    0    0    0 -0.00000000000E+00 -0.00000000000E+00 -0.74505805969E-08  0.93827000000E+00  0.93827000000E+00 0.  1.
     999902    2    1    2    0    0 -0.89833942815E-02  0.17928756804E-01  0.12893168999E-01  0.10200893729E+01  0.10198107438E+01 0.  0.
     999903    2    3    3    0    0  0.56492320836E-01  0.98251237171E-01  0.65606164861E-01  0.13244224141E+00  0.19801275785E-01 0.  0.
         14    1    1    2    0    0  0.89833942815E-02 -0.17928756804E-01 -0.12893168999E-01  0.23840627093E-01  0.00000000000E+00 0.  1.
     999901    1    3    3    0    0 -0.65475715117E-01 -0.80322480367E-01 -0.52712995863E-01  0.88764713150E+00  0.88000000000E+00 0.  1.
        -11    1    4    4    0    0  0.28717899435E-01  0.68557183698E-01  0.44411345427E-01  0.86587723773E-01  0.51100000000E-03 0. -1.
         11    1    4    4    0    0  0.27774421401E-01  0.29694053473E-01  0.21194819434E-01  0.45854517637E-01  0.51100000000E-03 0.  1.
</event>
<event>
 8    1  0.1092993E+005  0.1043930E+01  0.7957747E-01            NaN
         13   -1    0    0    0    0  0.00000000000E+00  0.00000000000E+00  0.74505805969E-08  0.10566000000E+00  0.10566000000E+00 0.  1.
     999900   -1    0    0    0    0 -0.00000000000E+00 -0.00000000000E+00 -0.74505805969E-08  0.93827000000E+00  0.93827000000E+00 0. -1.
     999902    2    1    2    0    0  0.84803885173E-02  0.20124602060E-02 -0.22677941070E-01  0.10196348154E+01  0.10193453295E+01 0.  0.
     999903    2    3    3    0    0  0.31534260140E-01 -0.62494356243E-01  0.10505673407E+00  0.12777789993E+00  0.19756523299E-01 0.  0.
         14    1    1    2    0    0 -0.84803885173E-02 -0.20124602060E-02  0.22677941070E-01  0.24295184640E-01  0.00000000000E+00 0.  1.
     999901    1    3    3    0    0 -0.23053871623E-01  0.64506816449E-01 -0.12773467514E+00  0.89185691543E+00  0.88000000000E+00 0.  1.
        -11    1    4    4    0    0  0.17278383933E-01 -0.14606449866E-01  0.29203016492E-01  0.36945476343E-01  0.51100000000E-03 0.  1.
         11    1    4    4    0    0  0.14255876207E-01 -0.47887906377E-01  0.75853717577E-01  0.90832423588E-01  0.51100000000E-03 0. -1.
</event>
<event>
 8    1  0.1092993E+005  0.1043930E+01  0.7957747E-01            NaN
         13   -1    0    0    0    0  0.00000000000E+00  0.00000000000E+00  0.74505805969E-08  0.10566000000E+00  0.10566000000E+00 0.  1.
     999900   -1    0    0    0    0 -0.00000000000E+00 -0.00000000000E+00 -0.74505805969E-08  0.93827000000E+00  0.93827000000E+00 0. -1.
     999902    2    1    2    0    0  0.86549215071E-02  0.22197021846E-01 -0.24784519579E-02  0.10199767503E+01  0.10196954511E+01 0.  0.
     999903    2    3    3    0    0 -0.36304394963E-01 -0.33359079046E-01 -0.11762901084E+00  0.12960184521E+00  0.23004713448E-01 0.  0.
         14    1    1    2    0    0 -0.86549215071E-02 -0.22197021846E-01  0.24784519579E-02  0.23953249660E-01  0.00000000000E+00 0.  1.
     999901    1    3    3    0    0  0.44959316470E-01  0.55556100892E-01  0.11515055888E+00  0.89037490514E+00  0.88000000000E+00 0.  1.
        -11    1    4    4    0    0 -0.24407386246E-01 -0.15431046032E-01 -0.90356528880E-01  0.94859902579E-01  0.51100000000E-03 0. -1.
         11    1    4    4    0    0 -0.11897008717E-01 -0.17928033014E-01 -0.27272481960E-01  0.34741942626E-01  0.51100000000E-03 0.  1.
</event>
<event>
 8    1  0.1092993E+005  0.1043930E+01  0.7957747E-01            NaN
         13   -1    0    0    0    0  0.00000000000E+00  0.00000000000E+00  0.74505805969E-08  0.10566000000E+00  0.10566000000E+00 0.  1.
     999900   -1    0    0    0    0 -0.00000000000E+00 -0.00000000000E+00 -0.74505805969E-08  0.93827000000E+00  0.93827000000E+00 0. -1.
     999902    2    1    2    0    0  0.16076435328E-01 -0.71953957265E-03 -0.64144181378E-02  0.10266061935E+01  0.10264600150E+01 0.  0.
     999903    2    3    3    0    0 -0.73901563727E-01 -0.46698757880E-01  0.10021327504E+00  0.13442930874E+00  0.19655112433E-01 0.  0.
         14    1    1    2    0    0 -0.16076435328E-01  0.71953957265E-03  0.64144181378E-02  0.17323806456E-01  0.00000000000E+00 0. -1.
     999901    1    3    3    0    0  0.89977999055E-01  0.45979218308E-01 -0.10662769318E+00  0.89217688481E+00  0.88000000000E+00 0. -1.
        -11    1    4    4    0    0 -0.20165703040E-01 -0.98092136485E-02  0.39110298655E-01  0.45086060300E-01  0.51100000000E-03 0.  1.
         11    1    4    4    0    0 -0.53735860687E-01 -0.36889544232E-01  0.61102976385E-01  0.89343248438E-01  0.51100000000E-03 0. -1.
</event>
<event>
 8    1  0.1092993E+005  0.1043930E+01  0.7957747E-01            NaN
         13   -1    0    0    0    0  0.00000000000E+00  0.00000000000E+00  0.74505805969E-08  0.10566000000E+00  0.10566000000E+00 0. -1.
     999900   -1    0    0    0    0 -0.00000000000E+00 -0.00000000000E+00 -0.74505805969E-08  0.93827000000E+00  0.93827000000E+00 0. -1.
     999902    2    1    2    0    0  0.24210027142E-01  0.59745191939E-03  0.61578742827E-02  0.10189419673E+01  0.10186355241E+01 0.  0.
     999903    2    3    3    0    0 -0.11391650718E+00 -0.11124839190E-01  0.51082362287E-01  0.12695846900E+00  0.20206742902E-01 0.  0.
         14    1    1    2    0    0 -0.24210027142E-01 -0.59745191939E-03 -0.61578742827E-02  0.24988032709E-01  0.00000000000E+00 0.  1.
     999901    1    3    3    0    0  0.13812653433E+00  0.11722291110E-01 -0.44924488004E-01  0.89198349829E+00  0.88000000000E+00 0. -1.
        -11    1    4    4    0    0 -0.65721803777E-01  0.71079955902E-03  0.21368299375E-01  0.69113863059E-01  0.51100000000E-03 0. -1.
         11    1    4    4    0    0 -0.48194703407E-01 -0.11835638749E-01  0.29714062913E-01  0.57844605945E-01  0.51100000000E-03 0.  1.
</event>
<event>
 8    1  0.1092993E+005  0.1043930E+01  0.7957747E-01            NaN
         13   -1    0    0    0    0  0.00000000000E+00  0.00000000000E+00  0.74505805969E-08  0.10566000000E+00  0.10566000000E+00 0. -1.
     999900   -1    0    0    0    0 -0.00000000000E+00 -0.00000000000E+00 -0.74505805969E-08  0.93827000000E+00  0.93827000000E+00 0.  1.
     999902    2    1    2    0    0  0.32690658857E-02  0.14101023672E-01  0.18196993801E-01  0.10206779841E+01  0.10204130982E+01 0.  0.
     999903    2    3    3    0    0  0.86042172945E-01  0.48957584581E-01 -0.82492519486E-01  0.13039446455E+00  0.19939909725E-01 0.  0.
         14    1    1    2    0    0 -0.32690658857E-02 -0.14101023672E-01 -0.18196993801E-01  0.23252015907E-01  0.00000000000E+00 0.  1.
     999901    1    3    3    0    0 -0.82773107060E-01 -0.34856560909E-01  0.10068951329E+00  0.89028351955E+00  0.88000000000E+00 0.  1.
        -11    1    4    4    0    0  0.69867760812E-01  0.31056221775E-01 -0.67441180134E-01  0.10195374839E+00  0.51100000000E-03 0. -1.
         11    1    4    4    0    0  0.16174412133E-01  0.17901362806E-01 -0.15051339352E-01  0.28440716156E-01  0.51100000000E-03 0.  1.
</event>
<event>
 8    1  0.1092993E+005  0.1043930E+01  0.7957747E-01            NaN
         13   -1    0    0    0    0  0.00000000000E+00  0.00000000000E+00  0.74505805969E-08  0.10566000000E+00  0.10566000000E+00 0. -1.
     999900   -1    0    0    0    0 -0.00000000000E+00 -0.00000000000E+00 -0.74505805969E-08  0.93827000000E+00  0.93827000000E+00 0. -1.
     999902    2    1    2    0    0 -0.10944253331E-01  0.10916621765E-01 -0.19012544979E-01  0.10194264048E+01  0.10191318701E+01 0.  0.
     999903    2    3    3    0    0  0.90483054774E-02 -0.11262183428E+00  0.55030486780E-01  0.12749377108E+00  0.21465269628E-01 0.  0.
         14    1    1    2    0    0  0.10944253331E-01 -0.10916621765E-01  0.19012544979E-01  0.24503595212E-01  0.00000000000E+00 0. -1.
     999901    1    3    3    0    0 -0.19992558808E-01  0.12353845604E+00 -0.74043031759E-01  0.89193263371E+00  0.88000000000E+00 0. -1.
        -11    1    4    4    0    0 -0.44251122267E-02 -0.53961823058E-01  0.19212593293E-01  0.57452979279E-01  0.51100000000E-03 0.  1.
         11    1    4    4    0    0  0.13473417704E-01 -0.58660011218E-01  0.35817893487E-01  0.70040791797E-01  0.51100000000E-03 0. -1.
</event>
<event>
 8    1  0.1092993E+005  0.1043930E+01  0.7957747E-01            NaN
         13   -1    0    0    0    0  0.00000000000E+00  0.00000000000E+00  0.74505805969E-08  0.10566000000E+00  0.10566000000E+00 0.  1.
     999900   -1    0    0    0    0 -0.00000000000E+00 -0.00000000000E+00 -0.74505805969E-08  0.93827000000E+00  0.93827000000E+00 0.  1.
     999902    2    1    2    0    0  0.18410469003E-01  0.14755196857E-01 -0.16623714124E-02  0.10202778398E+01  0.10200036499E+01 0.  0.
     999903    2    3    3    0    0 -0.59280370105E-01 -0.98822805972E-01  0.49920329649E-01  0.12809142192E+00  0.25204440033E-01 0.  0.
         14    1    1    2    0    0 -0.18410469003E-01 -0.14755196857E-01  0.16623714124E-02  0.23652160195E-01  0.00000000000E+00 0. -1.
     999901    1    3    3    0    0  0.77690839108E-01  0.11357800283E+00 -0.51582701062E-01  0.89218641788E+00  0.88000000000E+00 0. -1.
        -11    1    4    4    0    0 -0.25655830721E-01 -0.45213050209E-01  0.90830890852E-02  0.52775043226E-01  0.51100000000E-03 0.  1.
         11    1    4    4    0    0 -0.33624539384E-01 -0.53609755763E-01  0.40837240564E-01  0.75316378694E-01  0.51100000000E-03 0. -1.
</event>
<event>
 8    1  0.1092993E+005  0.1043930E+01  0.7957747E-01            NaN
         13   -1    0    0    0    0  0.00000000000E+00  0.00000000000E+00  0.74505805969E-08  0.10566000000E+00  0.10566000000E+00 0.  1.
     999900   -1    0    0    0    0 -0.00000000000E+00 -0.00000000000E+00 -0.74505805969E-08  0.93827000000E+00  0.93827000000E+00 0.  1.
     999902    2    1    2    0    0  0.17345247427E-01  0.14817013106E-01  0.68259987092E-02  0.10201183276E+01  0.10198403829E+01 0.  0.
     999903    2    3    3    0    0  0.50511200817E-01  0.12125546953E+00 -0.59153923088E-03  0.13305342276E+00  0.21180016334E-01 0.  0.
         14    1    1    2    0    0 -0.17345247427E-01 -0.14817013106E-01 -0.68259987092E-02  0.23811672433E-01  0.00000000000E+00 0. -1.
     999901    1    3    3    0    0 -0.33165953391E-01 -0.10643845642E+00  0.74175379401E-02  0.88706490481E+00  0.88000000000E+00 0.  1.
        -11    1    4    4    0    0  0.47412907376E-01  0.93137699937E-01 -0.37857816625E-02  0.10458110823E+00  0.51100000000E-03 0.  1.
         11    1    4    4    0    0  0.30982934409E-02  0.28117769588E-01  0.31942424317E-02  0.28472314528E-01  0.51100000000E-03 0. -1.
</event>
<event>
 8    1  0.1092993E+005  0.1043930E+01  0.7957747E-01            NaN
         13   -1    0    0    0    0  0.00000000000E+00  0.00000000000E+00  0.74505805969E-08  0.10566000000E+00  0.10566000000E+00 0. -1.
     999900   -1    0    0    0    0 -0.00000000000E+00 -0.00000000000E+00 -0.74505805969E-08  0.93827000000E+00  0.93827000000E+00 0. -1.
     999902    2    1    2    0    0  0.14633189133E-01  0.19423074566E-01  0.51361717512E-02  0.10190750948E+01  0.10187719483E+01 0.  0.
     999903    2    3    3    0    0  0.35442939397E-01 -0.37323459851E-01 -0.11624891741E+00  0.12868891192E+00  0.19944489065E-01 0.  0.
         14    1    1    2    0    0 -0.14633189133E-01 -0.19423074566E-01 -0.51361717512E-02  0.24854905150E-01  0.00000000000E+00 0. -1.
     999901    1    3    3    0    0 -0.20809750264E-01  0.56746534417E-01  0.12138508916E+00  0.89038618293E+00  0.88000000000E+00 0. -1.
        -11    1    4    4    0    0  0.28321025785E-01 -0.30423116710E-01 -0.70220567838E-01  0.81601689935E-01  0.51100000000E-03 0. -1.
         11    1    4    4    0    0  0.71219136123E-02 -0.69003431412E-02 -0.46028349575E-01  0.47087221988E-01  0.51100000000E-03 0.  1.
</event>
<event>
 8    1  0.1092993E+005  0.1043930E+01  0.7957747E-01            NaN
         13   -1    0    0    0    0  0.00000000000E+00  0.00000000000E+00  0.74505805969E-08  0.10566000000E+00  0.10566000000E+00 0.  1.
     999900   -1    0    0    0    0 -0.00000000000E+00 -0.00000000000E+00 -0.74505805969E-08  0.93827000000E+00  0.93827000000E+00 0. -1.
     999902    2    1    2    0    0  0.14028785633E-01 -0.14274799515E-01 -0.14403816022E-01  0.10192713982E+01  0.10189730794E+01 0.  0.
     999903    2    3    3    0    0 -0.79181531496E-01  0.72126210142E-01  0.64304910562E-01  0.12666377928E+00  0.20897041391E-01 0.  0.
         14    1    1    2    0    0 -0.14028785633E-01  0.14274799515E-01  0.14403816022E-01  0.24658601816E-01  0.00000000000E+00 0.  1.
     999901    1    3    3    0    0  0.93210317128E-01 -0.86401009658E-01 -0.78708726585E-01  0.89260761891E+00  0.88000000000E+00 0. -1.
        -11    1    4    4    0    0 -0.12687639401E-01  0.16015249599E-01  0.40653750250E-02  0.20838733368E-01  0.51100000000E-03 0. -1.
         11    1    4    4    0    0 -0.66493892094E-01  0.56110960544E-01  0.60239535537E-01  0.10582504591E+00  0.51100000000E-03 0.  1.
</event>
<event>
 8    1  0.1092993E+005  0.1043930E+01  0.7957747E-01            NaN
         13   -1    0    0    0    0  0.00000000000E+00  0.00000000000E+00  0.74505805969E-08  0.10566000000E+00  0.10566000000E+00 0. -1.
     999900   -1    0    0    0    0 -0.00000000000E+00 -0.00000000000E+00 -0.74505805969E-08  0.93827000000E+00  0.93827000000E+00 0.  1.
     999902    2    1    2    0    0 -0.35479389865E-02  0.13731315786E-01 -0.27495112002E-01  0.10129926748E+01  0.10125201436E+01 0.  0.
     999903    2    3    3    0    0  0.10341117694E+00 -0.40088759102E-01  0.45945127723E-01  0.12185277462E+00  0.20884534935E-01 0.  0.
         14    1    1    2    0    0  0.35479389865E-02 -0.13731315786E-01  0.27495112002E-01  0.30937325163E-01  0.00000000000E+00 0. -1.
     999901    1    3    3    0    0 -0.10695911593E+00  0.53820074887E-01 -0.73440239725E-01  0.89113990021E+00  0.88000000000E+00 0.  1.
        -11    1    4    4    0    0  0.21487426773E-01 -0.15063231101E-01  0.42725144139E-02  0.26591839743E-01  0.51100000000E-03 0. -1.
         11    1    4    4    0    0  0.81923750168E-01 -0.25025528001E-01  0.41672613310E-01  0.95260934880E-01  0.51100000000E-03 0.  1.
</event>
<event>
 8    1  0.1092993E+005  0.1043930E+01  0.7957747E-01            NaN
         13   -1    0    0    0    0  0.00000000000E+00  0.00000000000E+00  0.74505805969E-08  0.10566000000E+00  0.10566000000E+00 0. -1.
     999900   -1    0    0    0    0 -0.00000000000E+00 -0.00000000000E+00 -0.74505805969E-08  0.93827000000E+00  0.93827000000E+00 0. -1.
     999902    2    1    2    0    0 -0.22854147795E-01 -0.78717849581E-02  0.22394219816E-02  0.10196546611E+01  0.10193656536E+01 0.  0.
     999903    2    3    3    0    0 -0.94398903163E-02  0.77926282130E-01 -0.10094225513E+00  0.12938070934E+00  0.19708173489E-01 0.  0.
         14    1    1    2    0    0  0.22854147795E-01  0.78717849581E-02 -0.22394219816E-02  0.24275338940E-01  0.00000000000E+00 0.  1.
     999901    1    3    3    0    0 -0.13414257478E-01 -0.85798067088E-01  0.10318167711E+00  0.89027395172E+00  0.88000000000E+00 0.  1.
        -11    1    4    4    0    0  0.14112599725E-02  0.19998450522E-01 -0.39151746463E-01  0.43989203790E-01  0.51100000000E-03 0.  1.
         11    1    4    4    0    0 -0.10851150289E-01  0.57927831609E-01 -0.61790508669E-01  0.85391505550E-01  0.51100000000E-03 0. -1.
</event>
<event>
 8    1  0.1092993E+005  0.1043930E+01  0.7957747E-01            NaN
         13   -1    0    0    0    0  0.00000000000E+00  0.00000000000E+00  0.74505805969E-08  0.10566000000E+00  0.10566000000E+00 0.  1.
     999900   -1    0    0    0    0 -0.00000000000E+00 -0.00000000000E+00 -0.74505805969E-08  0.93827000000E+00  0.93827000000E+00 0. -1.
     999902    2    1    2    0    0 -0.14455449108E-01  0.56610350132E-03 -0.19031320945E-01  0.10200245266E+01  0.10197443617E+01 0.  0.
     999903    2    3    3    0    0  0.92822923346E-01  0.86348058538E-01 -0.15382901603E-01  0.12936156903E+00  0.20632488168E-01 0.  0.
         14    1    1    2    0    0  0.14455449108E-01 -0.56610350132E-03  0.19031320945E-01  0.23905473411E-01  0.00000000000E+00 0.  1.
     999901    1    3    3    0    0 -0.10727837245E+00 -0.85781955037E-01 -0.36484193422E-02  0.89066295756E+00  0.88000000000E+00 0. -1.
        -11    1    4    4    0    0  0.67720779427E-01  0.64403935302E-01 -0.20353077586E-01  0.95647685475E-01  0.51100000000E-03 0. -1.
         11    1    4    4    0    0  0.25102143919E-01  0.21944123236E-01  0.49701759831E-02  0.33713883553E-01  0.51100000000E-03 0.  1.
</event>
<event>
 8    1  0.1092993E+005  0.1043930E+01  0.7957747E-01            NaN
         13   -1    0    0    0    0  0.00000000000E+00  0.00000000000E+00  0.74505805969E-08  0.10566000000E+00  0.10566000000E+00 0. -1.
     999900   -1    0    0    0    0 -0.00000000000E+00 -0.00000000000E+00 -0.74505805969E-08  0.93827000000E+00  0.93827000000E+00 0. -1.
     999902    2    1    2    0    0 -0.16906199923E-01  0.15107679210E-01  0.94151636253E-02  0.10193799109E+01  0.10190842438E+01 0.  0.
     999903    2    3    3    0    0  0.53974938935E-02 -0.11131682295E+00  0.61056593476E-01  0.12856710974E+00  0.19519889549E-01 0.  0.
         14    1    1    2    0    0  0.16906199923E-01 -0.15107679210E-01 -0.94151636253E-02  0.24550089063E-01  0.00000000000E+00 0.  1.
     999901    1    3    3    0    0 -0.22303693816E-01  0.12642450216E+00 -0.51641429851E-01  0.89081280120E+00  0.88000000000E+00 0.  1.
        -11    1    4    4    0    0  0.60132306200E-02 -0.19871359118E-01  0.18028104017E-01  0.27500972913E-01  0.51100000000E-03 0.  1.
         11    1    4    4    0    0 -0.61573672649E-03 -0.91445463828E-01  0.43028489459E-01  0.10106613682E+00  0.51100000000E-03 0. -1.
</event>
<event>
 8    1  0.1092993E+005  0.1043930E+01  0.7957747E-01            NaN
         13   -1    0    0    0    0  0.00000000000E+00  0.00000000000E+00  0.74505805969E-08  0.10566000000E+00  0.10566000000E+00 0. -1.
     999900   -1    0    0    0    0 -0.00000000000E+00 -0.00000000000E+00 -0.74505805969E-08  0.93827000000E+00  0.93827000000E+00 0.  1.
     999902    2    1    2    0    0 -0.85760260179E-02  0.16414721788E-01 -0.14726058207E-01  0.10202688905E+01  0.10199944906E+01 0.  0.
     999903    2    3    3    0    0  0.26315704185E-01  0.12660924743E+00  0.17426578251E-01  0.13212810302E+00  0.20778165352E-01 0.  0.
         14    1    1    2    0    0  0.85760260179E-02 -0.16414721788E-01  0.14726058207E-01  0.23661109525E-01  0.00000000000E+00 0. -1.
     999901    1    3    3    0    0 -0.34891730203E-01 -0.11019452564E+00 -0.32152636458E-01  0.88814078746E+00  0.88000000000E+00 0.  1.
        -11    1    4    4    0    0  0.13178238939E-01  0.24968376436E-01  0.71363022950E-02  0.29125139225E-01  0.51100000000E-03 0.  1.
         11    1    4    4    0    0  0.13137465246E-01  0.10164087099E+00  0.10290275956E-01  0.10300296379E+00  0.51100000000E-03 0. -1.
</event>
<event>
 8    1  0.1092993E+005  0.1043930E+01  0.7957747E-01            NaN
         13   -1    0    0    0    0  0.00000000000E+00  0.00000000000E+00  0.74505805969E-08  0.10566000000E+00  0.10566000000E+00 0.  1.
     999900   -1    0    0    0    0 -0.00000000000E+00 -0.00000000000E+00 -0.74505805969E-08  0.93827000000E+00  0.93827000000E+00 0. -1.
     999902    2    1    2    0    0  0.15985702317E-01  0.16324558602E-01 -0.61142328765E-02  0.10202779866E+01  0.10200038001E+01 0.  0.
     999903    2    3    3    0    0 -0.11192819801E+00  0.56830535797E-01  0.24636273220E-01  0.12957697412E+00  0.20630437590E-01 0.  0.
         14    1    1    2    0    0 -0.15985702317E-01 -0.16324558602E-01  0.61142328765E-02  0.23652013356E-01  0.00000000000E+00 0. -1.
     999901    1    3    3    0    0  0.12791390033E+00 -0.40505977195E-01 -0.30750506097E-01  0.89070101252E+00  0.88000000000E+00 0.  1.
        -11    1    4    4    0    0 -0.48068476030E-01  0.18942089081E-01  0.10982216094E-02  0.51680250951E-01  0.51100000000E-03 0.  1.
         11    1    4    4    0    0 -0.63859721980E-01  0.37888446716E-01  0.23538051611E-01  0.77896723170E-01  0.51100000000E-03 0. -1.
</event>
<event>
 8    1  0.1092993E+005  0.1043930E+01  0.7957747E-01            NaN
         13   -1    0    0    0    0  0.00000000000E+00  0.00000000000E+00  0.74505805969E-08  0.10566000000E+00  0.10566000000E+00 0. -1.
     999900   -1    0    0    0    0 -0.00000000000E+00 -0.00000000000E+00 -0.74505805969E-08  0.93827000000E+00  0.93827000000E+00 0. -1.
     999902    2    1    2    0    0  0.17731924909E-01  0.31264509148E-02 -0.26852056944E-01  0.10116000013E+01  0.10110832477E+01 0.  0.
     999903    2    3    3    0    0 -0.23192681957E-01  0.11809236511E+00  0.10556587102E-01  0.12239170647E+00  0.19610739113E-01 0.  0.
         14    1    1    2    0    0 -0.17731924909E-01 -0.31264509148E-02  0.26852056944E-01  0.32329998738E-01  0.00000000000E+00 0. -1.
     999901    1    3    3    0    0  0.40924606866E-01 -0.11496591419E+00 -0.37408644045E-01  0.88920829479E+00  0.88000000000E+00 0. -1.
        -11    1    4    4    0    0 -0.21254185459E-01  0.83264118768E-01 -0.27692808758E-04  0.85935532590E-01  0.51100000000E-03 0. -1.
         11    1    4    4    0    0 -0.19384964977E-02  0.34828246341E-01  0.10584279911E-01  0.36456173882E-01  0.51100000000E-03 0.  1.
</event>
<event>
 8    1  0.1092993E+005  0.1043930E+01  0.7957747E-01            NaN
         13   -1    0    0    0    0  0.00000000000E+00  0.00000000000E+00  0.74505805969E-08  0.10566000000E+00  0.10566000000E+00 0.  1.
     999900   -1    0    0    0    0 -0.00000000000E+00 -0.00000000000E+00 -0.74505805969E-08  0.93827000000E+00  0.93827000000E+00 0.  1.
     999902    2    1    2    0    0 -0.10605293596E-01 -0.89101325588E-02 -0.16853697324E-01  0.10221146424E+01  0.10218818094E+01 0.  0.
     999903    2    3    3    0    0 -0.54677189910E-01  0.60207385913E-01 -0.10458981510E+00  0.13396083264E+00  0.19797748443E-01 0.  0.
         14    1    1    2    0    0  0.10605293596E-01  0.89101325588E-02  0.16853697324E-01  0.21815357618E-01  0.00000000000E+00 0.  1.
     999901    1    3    3    0    0  0.44071896314E-01 -0.69117518472E-01  0.87736117774E-01  0.88815380975E+00  0.88000000000E+00 0. -1.
        -11    1    4    4    0    0 -0.29981821757E-01  0.23200228447E-01 -0.59961685992E-01  0.70942407231E-01  0.51100000000E-03 0.  1.
         11    1    4    4    0    0 -0.24695368154E-01  0.37007157466E-01 -0.44628129106E-01  0.63018425405E-01  0.51100000000E-03 0. -1.
</event>
<event>
 8    1  0.1092993E+005  0.1043930E+01  0.7957747E-01            NaN
         13   -1    0    0    0    0  0.00000000000E+00  0.00000000000E+00  0.74505805969E-08  0.10566000000E+00  0.10566000000E+00 0. -1.
     999900   -1    0    0    0    0 -0.00000000000E+00 -0.00000000000E+00 -0.74505805969E-08  0.93827000000E+00  0.93827000000E+00 0. -1.
     999902    2    1    2    0    0 -0.11948026084E-01  0.15032701477E-01  0.13263014494E-01  0.10205923696E+01  0.10203255068E+01 0.  0.
     999903    2    3    3    0    0 -0.98114360119E-01 -0.41829903638E-01  0.75859021465E-01  0.13234901717E+00  0.19634222877E-01 0.  0.
         14    1    1    2    0    0  0.11948026084E-01 -0.15032701477E-01 -0.13263014494E-01  0.23337630439E-01  0.00000000000E+00 0.  1.
     999901    1    3    3    0    0  0.86166334034E-01  0.56862605116E-01 -0.62596006970E-01  0.88824335239E+00  0.88000000000E+00 0. -1.
        -11    1    4    4    0    0 -0.53412941183E-01 -0.33248083037E-01  0.45021438668E-01  0.77366455083E-01  0.51100000000E-03 0.  1.
         11    1    4    4    0    0 -0.44701418936E-01 -0.85818206020E-02  0.30837582796E-01  0.54982562085E-01  0.51100000000E-03 0. -1.
</event>
<event>
 8    1  0.1092993E+005  0.1043930E+01  0.7957747E-01            NaN
         13   -1    0    0    0    0  0.00000000000E+00  0.00000000000E+00  0.74505805969E-08  0.10566000000E+00  0.10566000000E+00 0.  1.
     999900   -1    0    0    0    0 -0.00000000000E+00 -0.00000000000E+00 -0.74505805969E-08  0.93827000000E+00  0.93827000000E+00 0.  1.
     999902    2    1    2    0    0 -0.11587858239E-01  0.13901168269E-01  0.14098948795E-01  0.10209887425E+01  0.10207309690E+01 0.  0.
     999903    2    3    3    0    0 -0.42880756359E-01 -0.11952767603E+00 -0.17878047857E-01  0.12980692589E+00  0.20114393150E-01 0.  0.
         14    1    1    2    0    0  0.11587858239E-01 -0.13901168269E-01 -0.14098948795E-01  0.22941257484E-01  0.00000000000E+00 0. -1.
     999901    1    3    3    0    0  0.31292898120E-01  0.13342884430E+00  0.31976996652E-01  0.89118181662E+00  0.88000000000E+00 0.  1.
        -11    1    4    4    0    0 -0.54662127380E-02 -0.37286433942E-01  0.68325822178E-04  0.37688505240E-01  0.51100000000E-03 0. -1.
         11    1    4    4    0    0 -0.37414543621E-01 -0.82241242088E-01 -0.17946373679E-01  0.92118420654E-01  0.51100000000E-03 0.  1.
</event>
<event>
 8    1  0.1092993E+005  0.1043930E+01  0.7957747E-01            NaN
         13   -1    0    0    0    0  0.00000000000E+00  0.00000000000E+00  0.74505805969E-08  0.10566000000E+00  0.10566000000E+00 0.  1.
     999900   -1    0    0    0    0 -0.00000000000E+00 -0.00000000000E+00 -0.74505805969E-08  0.93827000000E+00  0.93827000000E+00 0.  1.
     999902    2    1    2    0    0  0.13165023588E-01 -0.16931231971E-01 -0.10643016307E-01  0.10199871878E+01  0.10197061366E+01 0.  0.
     999903    2    3    3    0    0 -0.81745115675E-01 -0.94335173265E-01 -0.35073265688E-01  0.13116991646E+00  0.19850041991E-01 0.  0.
         14    1    1    2    0    0 -0.13165023588E-01  0.16931231971E-01  0.10643016307E-01  0.23942812245E-01  0.00000000000E+00 0.  1.
     999901    1    3    3    0    0  0.94910139263E-01  0.77403941295E-01  0.24430249381E-01  0.88881727129E+00  0.88000000000E+00 0.  1.
        -11    1    4    4    0    0 -0.43176989949E-01 -0.50721143816E-01 -0.84405308904E-02  0.67144549844E-01  0.51100000000E-03 0.  1.
         11    1    4    4    0    0 -0.38568125726E-01 -0.43614029449E-01 -0.26632734797E-01  0.64025366618E-01  0.51100000000E-03 0. -1.
</event>
<event>
 8    1  0.1092993E+005  0.1043930E+01  0.7957747E-01            NaN
         13   -1    0    0    0    0  0.00000000000E+00  0.00000000000E+00  0.74505805969E-08  0.10566000000E+00  0.10566000000E+00 0.  1.
     999900   -1    0    0    0    0 -0.00000000000E+00 -0.00000000000E+00 -0.74505805969E-08  0.93827000000E+00  0.93827000000E+00 0.  1.
     999902    2    1    2    0    0  0.70234052247E-02  0.21336584493E-01  0.72515627595E-02  0.10203256949E+01  0.10200526263E+01 0.  0.
     999903    2    3    3    0    0 -0.13924616076E-01  0.10747182340E+00  0.74871063845E-01  0.13329103042E+00  0.20414084147E-01 0.  0.
         14    1    1    2    0    0 -0.70234052247E-02 -0.21336584493E-01 -0.72515627595E-02  0.23604305142E-01  0.00000000000E+00 0.  1.
     999901    1    3    3    0    0  0.20948021301E-01 -0.86135238911E-01 -0.67619501086E-01  0.88703466443E+00  0.88000000000E+00 0.  1.
        -11    1    4    4    0    0 -0.17111090130E-01  0.56252066312E-01  0.43501453760E-01  0.73141793593E-01  0.51100000000E-03 0.  1.
         11    1    4    4    0    0  0.31864740533E-02  0.51219757092E-01  0.31369610086E-01  0.60149236832E-01  0.51100000000E-03 0. -1.
</event>
<event>
 8    1  0.1092993E+005  0.1043930E+01  0.7957747E-01            NaN
         13   -1    0    0    0    0  0.00000000000E+00  0.00000000000E+00  0.74505805969E-08  0.10566000000E+00  0.10566000000E+00 0. -1.
     999900   -1    0    0    0    0 -0.00000000000E+00 -0.00000000000E+00 -0.74505805969E-08  0.93827000000E+00  0.93827000000E+00 0.  1.
     999902    2    1    2    0    0 -0.21489569987E-01  0.83798782874E-02  0.10942064757E-01  0.10184005511E+01  0.10180805124E+01 0.  0.
     999903    2    3    3    0    0  0.65243998076E-01  0.14912265986E-01 -0.10559997304E+00  0.12646589518E+00  0.19055533950E-01 0.  0.
         14    1    1    2    0    0  0.21489569987E-01 -0.83798782874E-02 -0.10942064757E-01  0.25529448868E-01  0.00000000000E+00 0.  1.
     999901    1    3    3    0    0 -0.86733568064E-01 -0.65323876988E-02  0.11654203780E+00  0.89193465595E+00  0.88000000000E+00 0. -1.
        -11    1    4    4    0    0  0.28071595219E-01  0.28754376730E-02 -0.28953572831E-01  0.40433316715E-01  0.51100000000E-03 0.  1.
         11    1    4    4    0    0  0.37172402858E-01  0.12036828313E-01 -0.76646400214E-01  0.86032578462E-01  0.51100000000E-03 0. -1.
</event>
<event>
 8    1  0.1092993E+005  0.1043930E+01  0.7957747E-01            NaN
         13   -1    0    0    0    0  0.00000000000E+00  0.00000000000E+00  0.74505805969E-08  0.10566000000E+00  0.10566000000E+00 0. -1.
     999900   -1    0    0    0    0 -0.00000000000E+00 -0.00000000000E+00 -0.74505805969E-08  0.93827000000E+00  0.93827000000E+00 0. -1.
     999902    2    1    2    0    0  0.12399171797E-01 -0.18303609625E-01  0.11344027281E-01  0.10190814881E+01  0.10187784994E+01 0.  0.
     999903    2    3    3    0    0  0.12966644818E+00 -0.12946543516E-01 -0.55181802862E-02  0.13112617040E+00  0.13513751448E-01 0.  0.
         14    1    1    2    0    0 -0.12399171797E-01  0.18303609625E-01 -0.11344027281E-01  0.24848511858E-01  0.00000000000E+00 0.  1.
     999901    1    3    3    0    0 -0.11726727638E+00 -0.53570661093E-02  0.16862207567E-01  0.88795531774E+00  0.88000000000E+00 0.  1.
        -11    1    4    4    0    0  0.27662778970E-02  0.16411610969E-02 -0.46024877195E-03  0.32891720967E-02  0.51100000000E-03 0.  1.
         11    1    4    4    0    0  0.12690017028E+00 -0.14587704613E-01 -0.50579315142E-02  0.12783699830E+00  0.51100000000E-03 0. -1.
</event>
<event>
 8    1  0.1092993E+005  0.1043930E+01  0.7957747E-01            NaN
         13   -1    0    0    0    0  0.00000000000E+00  0.00000000000E+00  0.74505805969E-08  0.10566000000E+00  0.10566000000E+00 0. -1.
     999900   -1    0    0    0    0 -0.00000000000E+00 -0.00000000000E+00 -0.74505805969E-08  0.93827000000E+00  0.93827000000E+00 0.  1.
     999902    2    1    2    0    0  0.22786680080E-02  0.20442316845E-01  0.13515284465E-01  0.10193181419E+01  0.10190209668E+01 0.  0.
     999903    2    3    3    0    0 -0.34101992482E-01  0.30498042875E-01 -0.11858188383E+00  0.12865864917E+00  0.19957663245E-01 0.  0.
         14    1    1    2    0    0 -0.22786680080E-02 -0.20442316845E-01 -0.13515284465E-01  0.24611858118E-01  0.00000000000E+00 0.  1.
     999901    1    3    3    0    0  0.36380660490E-01 -0.10055726030E-01  0.13209716830E+00  0.89065949271E+00  0.88000000000E+00 0. -1.
        -11    1    4    4    0    0 -0.35153923096E-01  0.27147400352E-01 -0.95735465765E-01  0.10553824037E+00  0.51100000000E-03 0.  1.
         11    1    4    4    0    0  0.10519306140E-02  0.33506425225E-02 -0.22846418069E-01  0.23120408797E-01  0.51100000000E-03 0. -1.
</event>
<event>
 8    1  0.1092993E+005  0.1043930E+01  0.7957747E-01            NaN
         13   -1    0    0    0    0  0.00000000000E+00  0.00000000000E+00  0.74505805969E-08  0.10566000000E+00  0.10566000000E+00 0.  1.
     999900   -1    0    0    0    0 -0.00000000000E+00 -0.00000000000E+00 -0.74505805969E-08  0.93827000000E+00  0.93827000000E+00 0.  1.
     999902    2    1    2    0    0  0.18382991757E-03  0.62556393496E-02 -0.23264151052E-01  0.10198387663E+01  0.10195541779E+01 0.  0.
     999903    2    3    3    0    0 -0.41080264102E-01  0.52234792034E-01  0.10785336929E+00  0.12798193245E+00  0.18192420646E-01 0.  0.
         14    1    1    2    0    0 -0.18382991757E-03 -0.62556393496E-02  0.23264151052E-01  0.24091233702E-01  0.00000000000E+00 0.  1.
     999901    1    3    3    0    0  0.41264094019E-01 -0.45979152684E-01 -0.13111752034E+00  0.89185683385E+00  0.88000000000E+00 0.  1.
        -11    1    4    4    0    0  0.13940489674E-02  0.53216929875E-02  0.70185039535E-02  0.89322061957E-02  0.51100000000E-03 0. -1.
         11    1    4    4    0    0 -0.42474313069E-01  0.46913099046E-01  0.10083486534E+00  0.11904972626E+00  0.51100000000E-03 0.  1.
</event>
<event>
 8    1  0.1092993E+005  0.1043930E+01  0.7957747E-01            NaN
         13   -1    0    0    0    0  0.00000000000E+00  0.00000000000E+00  0.74505805969E-08  0.10566000000E+00  0.10566000000E+00 0. -1.
     999900   -1    0    0    0    0 -0.00000000000E+00 -0.00000000000E+00 -0.74505805969E-08  0.93827000000E+00  0.93827000000E+00 0.  1.
     999902    2    1    2    0    0 -0.21828260578E-01 -0.88806553725E-02 -0.43763954668E-02  0.10199614407E+01  0.10196797775E+01 0.  0.
     999903    2    3    3    0    0  0.25961737841E-01  0.43684025845E-01  0.11694366213E+00  0.12880181072E+00  0.18214839737E-01 0.  0.
         14    1    1    2    0    0  0.21828260578E-01  0.88806553725E-02  0.43763954668E-02  0.23968559343E-01  0.00000000000E+00 0.  1.
     999901    1    3    3    0    0 -0.47789998419E-01 -0.52564681218E-01 -0.12132005759E+00  0.89115962994E+00  0.88000000000E+00 0.  1.
        -11    1    4    4    0    0  0.13614132187E-01  0.84133035512E-02  0.44362138061E-01  0.47163425302E-01  0.51100000000E-03 0. -1.
         11    1    4    4    0    0  0.12347605654E-01  0.35270722294E-01  0.72581524066E-01  0.81638385415E-01  0.51100000000E-03 0.  1.
</event>
<event>
 8    1  0.1092993E+005  0.1043930E+01  0.7957747E-01            NaN
         13   -1    0    0    0    0  0.00000000000E+00  0.00000000000E+00  0.74505805969E-08  0.10566000000E+00  0.10566000000E+00 0. -1.
     999900   -1    0    0    0    0 -0.00000000000E+00 -0.00000000000E+00 -0.74505805969E-08  0.93827000000E+00  0.93827000000E+00 0.  1.
     999902    2    1    2    0    0  0.81484083914E-02 -0.23976195372E-01 -0.11006435090E-01  0.10163184785E+01  0.10159433319E+01 0.  0.
     999903    2    3    3    0    0  0.36684485330E-01  0.50261065801E-01  0.10649833277E+00  0.12495275725E+00  0.19984255333E-01 0.  0.
         14    1    1    2    0    0 -0.81484083914E-02  0.23976195372E-01  0.11006435090E-01  0.27611521458E-01  0.00000000000E+00 0.  1.
     999901    1    3    3    0    0 -0.28536076938E-01 -0.74237261173E-01 -0.11750476786E+00  0.89136572130E+00  0.88000000000E+00 0.  1.
        -11    1    4    4    0    0  0.15947978047E-01  0.71073143809E-02  0.27634569137E-01  0.32692238435E-01  0.51100000000E-03 0. -1.
         11    1    4    4    0    0  0.20736507283E-01  0.43153751420E-01  0.78863763632E-01  0.92260518810E-01  0.51100000000E-03 0.  1.
</event>
<event>
 8    1  0.1092993E+005  0.1043930E+01  0.7957747E-01            NaN
         13   -1    0    0    0    0  0.00000000000E+00  0.00000000000E+00  0.74505805969E-08  0.10566000000E+00  0.10566000000E+00 0. -1.
     999900   -1    0    0    0    0 -0.00000000000E+00 -0.00000000000E+00 -0.74505805969E-08  0.93827000000E+00  0.93827000000E+00 0.  1.
     999902    2    1    2    0    0  0.84895847370E-02  0.21876519143E-01  0.20501204046E-02  0.10203745732E+01  0.10201026475E+01 0.  0.
     999903    2    3    3    0    0 -0.91921659788E-01  0.71838501903E-01  0.58360192178E-01  0.13147106777E+00  0.16381933232E-01 0.  0.
         14    1    1    2    0    0 -0.84895847370E-02 -0.21876519143E-01 -0.20501204046E-02  0.23555426816E-01  0.00000000000E+00 0.  1.
     999901    1    3    3    0    0  0.10041124453E+00 -0.49961982760E-01 -0.56310071773E-01  0.88890350541E+00  0.88000000000E+00 0.  1.
        -11    1    4    4    0    0 -0.79415907142E-01  0.60584493651E-01  0.55884248559E-01  0.11445819121E+00  0.51100000000E-03 0.  1.
         11    1    4    4    0    0 -0.12505752646E-01  0.11254008252E-01  0.24759436189E-02  0.17012876558E-01  0.51100000000E-03 0. -1.
</event>
<event>
 8    1  0.1092993E+005  0.1043930E+01  0.7957747E-01            NaN
         13   -1    0    0    0    0  0.00000000000E+00  0.00000000000E+00  0.74505805969E-08  0.10566000000E+00  0.10566000000E+00 0.  1.
     999900   -1    0    0    0    0 -0.00000000000E+00 -0.00000000000E+00 -0.74505805969E-08  0.93827000000E+00  0.93827000000E+00 0. -1.
     999902    2    1    2    0    0 -0.18868849111E-01 -0.38543212953E-02 -0.14363222696E-01  0.10199051915E+01  0.10196221889E+01 0.  0.
     999903    2    3    3    0    0  0.86680862951E-02 -0.18967330717E-01 -0.12880791595E+00  0.13193882178E+00  0.19531464993E-01 0.  0.
         14    1    1    2    0    0  0.18868849111E-01  0.38543212953E-02  0.14363222696E-01  0.24024808545E-01  0.00000000000E+00 0.  1.
     999901    1    3    3    0    0 -0.27536935406E-01  0.15113009422E-01  0.11444469326E+00  0.88796636968E+00  0.88000000000E+00 0.  1.
        -11    1    4    4    0    0  0.24438662573E-02 -0.11499800735E-01 -0.11118437785E+00  0.11180538850E+00  0.51100000000E-03 0.  1.
         11    1    4    4    0    0  0.62242200378E-02 -0.74675299818E-02 -0.17623538105E-01  0.20133433275E-01  0.51100000000E-03 0. -1.
</event>
<event>
 8    1  0.1092993E+005  0.1043930E+01  0.7957747E-01            NaN
         13   -1    0    0    0    0  0.00000000000E+00  0.00000000000E+00  0.74505805969E-08  0.10566000000E+00  0.10566000000E+00 0. -1.
     999900   -1    0    0    0    0 -0.00000000000E+00 -0.00000000000E+00 -0.74505805969E-08  0.93827000000E+00  0.93827000000E+00 0. -1.
     999902    2    1    2    0    0 -0.18340815417E-01 -0.68997648148E-02 -0.11680673493E-01  0.10211170564E+01  0.10208621907E+01 0.  0.
     999903    2    3    3    0    0  0.24740193995E-01  0.12550398758E+00 -0.13319661940E-01  0.13016845329E+00  0.20076970354E-01 0.  0.
         14    1    1    2    0    0  0.18340815417E-01  0.68997648148E-02  0.11680673493E-01  0.22812943649E-01  0.00000000000E+00 0. -1.
     999901    1    3    3    0    0 -0.43081009413E-01 -0.13240375240E+00  0.16389884470E-02  0.89094860307E+00  0.88000000000E+00 0. -1.
        -11    1    4    4    0    0  0.24235389244E-02  0.54079056738E-01  0.13881091969E-03  0.54135924376E-01  0.51100000000E-03 0.  1.
         11    1    4    4    0    0  0.22316655071E-01  0.71424930845E-01 -0.13458472859E-01  0.76032528910E-01  0.51100000000E-03 0. -1.
</event>
<event>
 8    1  0.1092993E+005  0.1043930E+01  0.7957747E-01            NaN
         13   -1    0    0    0    0  0.00000000000E+00  0.00000000000E+00  0.74505805969E-08  0.10566000000E+00  0.10566000000E+00 0.  1.
     999900   -1    0    0    0    0 -0.00000000000E+00 -0.00000000000E+00 -0.74505805969E-08  0.93827000000E+00  0.93827000000E+00 0.  1.
     999902    2    1    2    0    0  0.23233577006E-01  0.57198776095E-03 -0.90390574438E-02  0.10189934640E+01  0.10186882981E+01 0.  0.
     999903    2    3    3    0    0  0.23446587749E-01  0.12372142897E+00  0.24626217894E-01  0.12978078916E+00  0.19490206920E-01 0.  0.
         14    1    1    2    0    0 -0.23233577006E-01 -0.57198776095E-03  0.90390574438E-02  0.24936536046E-01  0.00000000000E+00 0.  1.
     999901    1    3    3    0    0 -0.21301074314E-03 -0.12314944121E+00 -0.33665275337E-01  0.88921267479E+00  0.88000000000E+00 0. -1.
        -11    1    4    4    0    0  0.18487326671E-01  0.47983451351E-01  0.12431171356E-01  0.52905462792E-01  0.51100000000E-03 0. -1.
         11    1    4    4    0    0  0.49592610782E-02  0.75737977616E-01  0.12195046538E-01  0.76875326372E-01  0.51100000000E-03 0.  1.
</event>
<event>
 8    1  0.1092993E+005  0.1043930E+01  0.7957747E-01            NaN
         13   -1    0    0    0    0  0.00000000000E+00  0.00000000000E+00  0.74505805969E-08  0.10566000000E+00  0.10566000000E+00 0.  1.
     999900   -1    0    0    0    0 -0.00000000000E+00 -0.00000000000E+00 -0.74505805969E-08  0.93827000000E+00  0.93827000000E+00 0. -1.
     999902    2    1    2    0    0  0.22496616063E-01  0.17225673474E-02 -0.73382426340E-02  0.10202041749E+01  0.10199282542E+01 0.  0.
     999903    2    3    3    0    0  0.10987607772E+00 -0.68758989231E-01 -0.21573626947E-01  0.13295817388E+00  0.20295407512E-01 0.  0.
         14    1    1    2    0    0 -0.22496616063E-01 -0.17225673474E-02  0.73382426340E-02  0.23725825118E-01  0.00000000000E+00 0.  1.
     999901    1    3    3    0    0 -0.87379461654E-01  0.70481556578E-01  0.14235384313E-01  0.88724600101E+00  0.88000000000E+00 0. -1.
        -11    1    4    4    0    0  0.10378098351E+00 -0.58187790138E-01 -0.19369686501E-01  0.12054773883E+00  0.51100000000E-03 0.  1.
         11    1    4    4    0    0  0.60950942049E-02 -0.10571199093E-01 -0.22039404460E-02  0.12410435049E-01  0.51100000000E-03 0. -1.
</event>
<event>
 8    1  0.1092993E+005  0.1043930E+01  0.7957747E-01            NaN
         13   -1    0    0    0    0  0.00000000000E+00  0.00000000000E+00  0.74505805969E-08  0.10566000000E+00  0.10566000000E+00 0.  1.
     999900   -1    0    0    0    0 -0.00000000000E+00 -0.00000000000E+00 -0.74505805969E-08  0.93827000000E+00  0.93827000000E+00 0. -1.
     999902    2    1    2    0    0  0.28417579185E-03 -0.85853568019E-02 -0.24060765979E-01  0.10183818187E+01  0.10180613042E+01 0.  0.
     999903    2    3    3    0    0 -0.44773440333E-01  0.54625106808E-01 -0.10845505638E+00  0.13094272349E+00  0.19872954689E-01 0.  0.
         14    1    1    2    0    0 -0.28417579185E-03  0.85853568019E-02  0.24060765979E-01  0.25548181281E-01  0.00000000000E+00 0.  1.
     999901    1    3    3    0    0  0.45057616124E-01 -0.63210463610E-01  0.84394290404E-01  0.88743909522E+00  0.88000000000E+00 0.  1.
        -11    1    4    4    0    0 -0.20199561724E-01  0.14509165198E-01 -0.50509528327E-01  0.56302857311E-01  0.51100000000E-03 0. -1.
         11    1    4    4    0    0 -0.24573878608E-01  0.40115941611E-01 -0.57945528055E-01  0.74639866183E-01  0.51100000000E-03 0.  1.
</event>
<event>
 8    1  0.1092993E+005  0.1043930E+01  0.7957747E-01            NaN
         13   -1    0    0    0    0  0.00000000000E+00  0.00000000000E+00  0.74505805969E-08  0.10566000000E+00  0.10566000000E+00 0. -1.
     999900   -1    0    0    0    0 -0.00000000000E+00 -0.00000000000E+00 -0.74505805969E-08  0.93827000000E+00  0.93827000000E+00 0.  1.
     999902    2    1    2    0    0 -0.74008085646E-02 -0.22827769206E-01 -0.82022915843E-02  0.10185694676E+01  0.10182537031E+01 0.  0.
     999903    2    3    3    0    0  0.12101087815E+00 -0.32008745914E-01 -0.23729147976E-01  0.12906683421E+00  0.20663561723E-01 0.  0.
         14    1    1    2    0    0  0.74008085646E-02  0.22827769206E-01  0.82022915843E-02  0.25360532360E-01  0.00000000000E+00 0. -1.
     999901    1    3    3    0    0 -0.12841168671E+00  0.91809767075E-02  0.15526856392E-01  0.88950263343E+00  0.88000000000E+00 0.  1.
        -11    1    4    4    0    0  0.95839441337E-01 -0.19946410361E-01 -0.25282808052E-01  0.10110657400E+00  0.51100000000E-03 0. -1.
         11    1    4    4    0    0  0.25171436811E-01 -0.12062335553E-01  0.15536600761E-02  0.27960260205E-01  0.51100000000E-03 0.  1.
</event>
<event>
 8    1  0.1092993E+005  0.1043930E+01  0.7957747E-01            NaN
         13   -1    0    0    0    0  0.00000000000E+00  0.00000000000E+00  0.74505805969E-08  0.10566000000E+00  0.10566000000E+00 0. -1.
     999900   -1    0    0    0    0 -0.00000000000E+00 -0.00000000000E+00 -0.74505805969E-08  0.93827000000E+00  0.93827000000E+00 0.  1.
     999902    2    1    2    0    0  0.11081613991E-01 -0.14327952319E-01  0.15209930682E-01  0.10202776348E+01  0.10200034401E+01 0.  0.
     999903    2    3    3    0    0  0.40924040787E-01  0.10277118753E-01  0.12422402046E+00  0.13270789013E+00  0.19984507972E-01 0.  0.
         14    1    1    2    0    0 -0.11081613991E-01  0.14327952319E-01 -0.15209930682E-01  0.23652365160E-01  0.00000000000E+00 0.  1.
     999901    1    3    3    0    0 -0.29842426795E-01 -0.24605071072E-01 -0.10901408978E+00  0.88756974471E+00  0.88000000000E+00 0.  1.
        -11    1    4    4    0    0  0.57027576125E-02  0.67427896333E-02  0.46043059194E-01  0.46885083741E-01  0.51100000000E-03 0. -1.
         11    1    4    4    0    0  0.35221283174E-01  0.35343291196E-02  0.78180961265E-01  0.85822806386E-01  0.51100000000E-03 0.  1.
</event>
<event>
 8    1  0.1092993E+005  0.1043930E+01  0.7957747E-01            NaN
         13   -1    0    0    0    0  0.00000000000E+00  0.00000000000E+00  0.74505805969E-08  0.10566000000E+00  0.10566000000E+00 0.  1.
     999900   -1    0    0    0    0 -0.00000000000E+00 -0.00000000000E+00 -0.74505805969E-08  0.93827000000E+00  0.93827000000E+00 0. -1.
     999902    2    1    2    0    0 -0.74961240614E-02 -0.22110992689E-01 -0.48706963067E-02  0.10200802294E+01  0.10198013841E+01 0.  0.
     999903    2    3    3    0    0  0.88700869217E-01  0.89386626310E-01  0.70553325145E-02  0.12776424800E+00  0.20398828079E-01 0.  0.
         14    1    1    2    0    0  0.74961240614E-02  0.22110992689E-01  0.48706963067E-02  0.23849770568E-01  0.00000000000E+00 0. -1.
     999901    1    3    3    0    0 -0.96196993278E-01 -0.11149761900E+00 -0.11926028821E-01  0.89231598143E+00  0.88000000000E+00 0. -1.
        -11    1    4    4    0    0  0.72704598411E-01  0.61842250372E-01  0.88362789798E-02  0.95858038309E-01  0.51100000000E-03 0. -1.
         11    1    4    4    0    0  0.15996270806E-01  0.27544375937E-01 -0.17809464653E-02  0.31906209690E-01  0.51100000000E-03 0.  1.
</event>
<event>
 8    1  0.1092993E+005  0.1043930E+01  0.7957747E-01            NaN
         13   -1    0    0    0    0  0.00000000000E+00  0.00000000000E+00  0.74505805969E-08  0.10566000000E+00  0.10566000000E+00 0.  1.
     999900   -1    0    0    0    0 -0.00000000000E+00 -0.00000000000E+00 -0.74505805969E-08  0.93827000000E+00  0.93827000000E+00 0.  1.
     999902    2    1    2    0    0  0.31289688272E-02  0.17870097732E-01 -0.15193184626E-01  0.10202664479E+01  0.10199919907E+01 0.  0.
     999903    2    3    3    0    0  0.48890052300E-01 -0.80078007740E-01 -0.88672962115E-01  0.13061079214E+00  0.19838353657E-01 0.  0.
         14    1    1    2    0    0 -0.31289688272E-02 -0.17870097732E-01  0.15193184626E-01  0.23663552099E-01  0.00000000000E+00 0.  1.
     999901    1    3    3    0    0 -0.45761083473E-01  0.97948105472E-01  0.73479777489E-01  0.88965565576E+00  0.88000000000E+00 0. -1.
        -11    1    4    4    0    0  0.32684917593E-01 -0.39028351205E-01 -0.56106038580E-01  0.75760574985E-01  0.51100000000E-03 0.  1.
         11    1    4    4    0    0  0.16205134707E-01 -0.41049656535E-01 -0.32566923535E-01  0.54850217156E-01  0.51100000000E-03 0. -1.
</event>
<event>
 8    1  0.1092993E+005  0.1043930E+01  0.7957747E-01            NaN
         13   -1    0    0    0    0  0.00000000000E+00  0.00000000000E+00  0.74505805969E-08  0.10566000000E+00  0.10566000000E+00 0.  1.
     999900   -1    0    0    0    0 -0.00000000000E+00 -0.00000000000E+00 -0.74505805969E-08  0.93827000000E+00  0.93827000000E+00 0. -1.
     999902    2    1    2    0    0 -0.21943231946E-01  0.90620961540E-02  0.99601550534E-02  0.10181844819E+01  0.10178589330E+01 0.  0.
     999903    2    3    3    0    0 -0.74769151636E-01 -0.26317771527E-01  0.10240894105E+00  0.13106042580E+00  0.20154227074E-01 0.  0.
         14    1    1    2    0    0  0.21943231946E-01 -0.90620961540E-02 -0.99601550534E-02  0.25745518127E-01  0.00000000000E+00 0. -1.
     999901    1    3    3    0    0  0.52825919690E-01  0.35379867681E-01 -0.92448786000E-01  0.88712405607E+00  0.88000000000E+00 0. -1.
        -11    1    4    4    0    0 -0.49328719396E-01 -0.24862808377E-01  0.59805663727E-01  0.81415356859E-01  0.51100000000E-03 0. -1.
         11    1    4    4    0    0 -0.25440432241E-01 -0.14549631502E-02  0.42603277326E-01  0.49645068942E-01  0.51100000000E-03 0.  1.
</event>
<event>
 8    1  0.1092993E+005  0.1043930E+01  0.7957747E-01            NaN
         13   -1    0    0    0    0  0.00000000000E+00  0.00000000000E+00  0.74505805969E-08  0.10566000000E+00  0.10566000000E+00 0. -1.
     999900   -1    0    0    0    0 -0.00000000000E+00 -0.00000000000E+00 -0.74505805969E-08  0.93827000000E+00  0.93827000000E+00 0.  1.
     999902    2    1    2    0    0 -0.17377913329E-01 -0.49483137543E-02 -0.14901402802E-01  0.10205092936E+01  0.10202405054E+01 0.  0.
     999903    2    3    3    0    0 -0.22624627303E-01  0.11096319995E+00  0.59639214887E-01  0.12976841623E+00  0.21407951640E-01 0.  0.
         14    1    1    2    0    0  0.17377913329E-01  0.49483137543E-02  0.14901402802E-01  0.23420706355E-01  0.00000000000E+00 0. -1.
     999901    1    3    3    0    0  0.52467139739E-02 -0.11591151371E+00 -0.74540617689E-01  0.89074087742E+00  0.88000000000E+00 0.  1.
        -11    1    4    4    0    0 -0.13453595394E-01  0.40453408977E-01  0.12400920555E-01  0.44401818415E-01  0.51100000000E-03 0.  1.
         11    1    4    4    0    0 -0.91710319081E-02  0.70509790976E-01  0.47238294332E-01  0.85366597813E-01  0.51100000000E-03 0. -1.
</event>
<event>
 8    1  0.1092993E+005  0.1043930E+01  0.7957747E-01            NaN
         13   -1    0    0    0    0  0.00000000000E+00  0.00000000000E+00  0.74505805969E-08  0.10566000000E+00  0.10566000000E+00 0. -1.
     999900   -1    0    0    0    0 -0.00000000000E+00 -0.00000000000E+00 -0.74505805969E-08  0.93827000000E+00  0.93827000000E+00 0. -1.
     999902    2    1    2    0    0  0.94041346023E-02  0.20868535938E-01  0.23739178976E-02  0.10209176332E+01  0.10206582409E+01 0.  0.
     999903    2    3    3    0    0 -0.10047654100E+00  0.82330317815E-01  0.11515528007E-01  0.13190982528E+00  0.19843842778E-01 0.  0.
         14    1    1    2    0    0 -0.94041346023E-02 -0.20868535938E-01 -0.23739178976E-02  0.23012366806E-01  0.00000000000E+00 0. -1.
     999901    1    3    3    0    0  0.10988067560E+00 -0.61461781877E-01 -0.91416101097E-02  0.88900780792E+00  0.88000000000E+00 0. -1.
        -11    1    4    4    0    0 -0.49646235957E-01  0.28580850045E-01  0.80347053405E-02  0.57848347814E-01  0.51100000000E-03 0. -1.
         11    1    4    4    0    0 -0.50830305045E-01  0.53749467770E-01  0.34808226668E-02  0.74061477463E-01  0.51100000000E-03 0.  1.
</event>
<event>
 8    1  0.1092993E+005  0.1043930E+01  0.7957747E-01            NaN
         13   -1    0    0    0    0  0.00000000000E+00  0.00000000000E+00  0.74505805969E-08  0.10566000000E+00  0.10566000000E+00 0. -1.
     999900   -1    0    0    0    0 -0.00000000000E+00 -0.00000000000E+00 -0.74505805969E-08  0.93827000000E+00  0.93827000000E+00 0.  1.
     999902    2    1    2    0    0  0.18373353851E-02 -0.80889017356E-02  0.22205411064E-01  0.10202258566E+01  0.10199504459E+01 0.  0.
     999903    2    3    3    0    0  0.38173607794E-01 -0.12036655983E+00  0.34394541525E-01  0.13226461192E+00  0.19120931510E-01 0.  0.
         14    1    1    2    0    0 -0.18373353851E-02  0.80889017356E-02 -0.22205411064E-01  0.23704143374E-01  0.00000000000E+00 0.  1.
     999901    1    3    3    0    0 -0.36336272409E-01  0.11227765810E+00 -0.12189130461E-01  0.88796124471E+00  0.88000000000E+00 0. -1.
        -11    1    4    4    0    0  0.15796830265E-01 -0.62885902978E-01  0.26614596645E-01  0.70091187145E-01  0.51100000000E-03 0. -1.
         11    1    4    4    0    0  0.22376777529E-01 -0.57480656853E-01  0.77799448798E-02  0.62173424774E-01  0.51100000000E-03 0.  1.
</event>
<event>
 8    1  0.1092993E+005  0.1043930E+01  0.7957747E-01            NaN
         13   -1    0    0    0    0  0.00000000000E+00  0.00000000000E+00  0.74505805969E-08  0.10566000000E+00  0.10566000000E+00 0. -1.
     999900   -1    0    0    0    0 -0.00000000000E+00 -0.00000000000E+00 -0.74505805969E-08  0.93827000000E+00  0.93827000000E+00 0. -1.
     999902    2    1    2    0    0 -0.12307191583E-01 -0.18234424093E-01 -0.75135180594E-02  0.10206831908E+01  0.10204184248E+01 0.  0.
     999903    2    3    3    0    0 -0.64710723761E-01 -0.10348260489E+00  0.49147443084E-01  0.13320144613E+00  0.20761185066E-01 0.  0.
         14    1    1    2    0    0  0.12307191583E-01  0.18234424093E-01  0.75135180594E-02  0.23246809249E-01  0.00000000000E+00 0. -1.
     999901    1    3    3    0    0  0.52403532178E-01  0.85248180798E-01 -0.56660961143E-01  0.88748174462E+00  0.88000000000E+00 0. -1.
        -11    1    4    4    0    0 -0.96410125129E-02 -0.19657881913E-01  0.17487640337E-01  0.28026061606E-01  0.51100000000E-03 0.  1.
         11    1    4    4    0    0 -0.55069711248E-01 -0.83824722978E-01  0.31659802746E-01  0.10517538453E+00  0.51100000000E-03 0. -1.
</event>
<event>
 8    1  0.1092993E+005  0.1043930E+01  0.7957747E-01            NaN
         13   -1    0    0    0    0  0.00000000000E+00  0.00000000000E+00  0.74505805969E-08  0.10566000000E+00  0.10566000000E+00 0. -1.
     999900   -1    0    0    0    0 -0.00000000000E+00 -0.00000000000E+00 -0.74505805969E-08  0.93827000000E+00  0.93827000000E+00 0.  1.
     999902    2    1    2    0    0 -0.20408282707E-01 -0.82577335416E-02  0.84558059017E-02  0.10203463442E+01  0.10200737588E+01 0.  0.
     999903    2    3    3    0    0  0.87108772921E-01  0.91606763894E-01 -0.67725814075E-02  0.12806570514E+00  0.19370582441E-01 0.  0.
         14    1    1    2    0    0  0.20408282707E-01  0.82577335416E-02 -0.84558059017E-02  0.23583655775E-01  0.00000000000E+00 0.  1.
     999901    1    3    3    0    0 -0.10751705563E+00 -0.99864497436E-01  0.15228387309E-01  0.89228063908E+00  0.88000000000E+00 0.  1.
        -11    1    4    4    0    0  0.80396030632E-01  0.85673287009E-01 -0.11269280173E-01  0.11802835102E+00  0.51100000000E-03 0.  1.
         11    1    4    4    0    0  0.67127422885E-02  0.59334768853E-02  0.44966987653E-02  0.10037354122E-01  0.51100000000E-03 0. -1.
</event>
<event>
 8    1  0.1092993E+005  0.1043930E+01  0.7957747E-01            NaN
         13   -1    0    0    0    0  0.00000000000E+00  0.00000000000E+00  0.74505805969E-08  0.10566000000E+00  0.10566000000E+00 0.  1.
     999900   -1    0    0    0    0 -0.00000000000E+00 -0.00000000000E+00 -0.74505805969E-08  0.93827000000E+00  0.93827000000E+00 0. -1.
     999902    2    1    2    0    0  0.13886353308E-01  0.13424948890E-01 -0.14099372801E-01  0.10200165650E+01  0.10197362112E+01 0.  0.
     999903    2    3    3    0    0  0.10599850033E+00 -0.69923668178E-01  0.22944298117E-01  0.13052014950E+00  0.19597631646E-01 0.  0.
         14    1    1    2    0    0 -0.13886353308E-01 -0.13424948890E-01  0.14099372801E-01  0.23913435016E-01  0.00000000000E+00 0.  1.
     999901    1    3    3    0    0 -0.92112147025E-01  0.83348617068E-01 -0.37043670918E-01  0.88949641548E+00  0.88000000000E+00 0. -1.
        -11    1    4    4    0    0  0.73205864160E-01 -0.54986027722E-01  0.94733371631E-02  0.92046548171E-01  0.51100000000E-03 0.  1.
         11    1    4    4    0    0  0.32792636173E-01 -0.14937640456E-01  0.13470960954E-01  0.38473601334E-01  0.51100000000E-03 0. -1.
</event>
<event>
 7    1  0.1282834E+005  0.1043930E+01  0.7957747E-01            NaN
         13   -1    0    0    0    0  0.00000000000E+00  0.00000000000E+00  0.74505805969E-08  0.10566000000E+00  0.10566000000E+00 0. -1.
     999900   -1    0    0    0    0 -0.00000000000E+00 -0.00000000000E+00 -0.74505805969E-08  0.93827000000E+00  0.93827000000E+00 0.  1.
     999903    2    1    2    0    0  0.11787851867E-01  0.44613743309E-01  0.89600488652E-01  0.10267315394E+00  0.19600750763E-01 0.  0.
         14    1    1    2    0    0  0.18217217039E-01  0.13314731710E-01 -0.53545508751E-01  0.58105684615E-01  0.00000000000E+00 0.  1.
     999901    1    1    2    0    0 -0.30005068906E-01 -0.57928475019E-01 -0.36054979901E-01  0.88315116144E+00  0.88000000000E+00 0.  1.
        -11    1    3    3    0    0  0.11717791548E-01  0.20855557157E-01  0.60771919481E-01  0.65312695715E-01  0.51100000000E-03 0. -1.
         11    1    3    3    0    0  0.70060319518E-04  0.23758186152E-01  0.28828569171E-01  0.37360458230E-01  0.51100000000E-03 0.  1.
</event>
<event>
 8    1  0.1092993E+005  0.1043930E+01  0.7957747E-01            NaN
         13   -1    0    0    0    0  0.00000000000E+00  0.00000000000E+00  0.74505805969E-08  0.10566000000E+00  0.10566000000E+00 0.  1.
     999900   -1    0    0    0    0 -0.00000000000E+00 -0.00000000000E+00 -0.74505805969E-08  0.93827000000E+00  0.93827000000E+00 0. -1.
     999902    2    1    2    0    0  0.12023116860E-01 -0.10916513652E-01 -0.18204935996E-01  0.10195343999E+01  0.10192424870E+01 0.  0.
     999903    2    3    3    0    0  0.19732015196E-01  0.10313311673E+00  0.71745120462E-01  0.12759395461E+00  0.10347113251E-01 0.  0.
         14    1    1    2    0    0 -0.12023116860E-01  0.10916513652E-01  0.18204935996E-01  0.24395600094E-01  0.00000000000E+00 0.  1.
     999901    1    3    3    0    0 -0.77088983360E-02 -0.11404963038E+00 -0.89950056457E-01  0.89194044530E+00  0.88000000000E+00 0.  1.
        -11    1    4    4    0    0  0.10343814500E-01  0.76580788262E-01  0.54565214481E-01  0.94600398422E-01  0.51100000000E-03 0. -1.
         11    1    4    4    0    0  0.93882006959E-02  0.26552328465E-01  0.17179905981E-01  0.32993556185E-01  0.51100000000E-03 0.  1.
</event>
<event>
 8    1  0.1092993E+005  0.1043930E+01  0.7957747E-01            NaN
         13   -1    0    0    0    0  0.00000000000E+00  0.00000000000E+00  0.74505805969E-08  0.10566000000E+00  0.10566000000E+00 0.  1.
     999900   -1    0    0    0    0 -0.00000000000E+00 -0.00000000000E+00 -0.74505805969E-08  0.93827000000E+00  0.93827000000E+00 0.  1.
     999902    2    1    2    0    0 -0.18595748739E-01  0.82203510359E-02  0.99205087761E-02  0.10213071678E+01  0.10210565795E+01 0.  0.
     999903    2    3    3    0    0 -0.55395737231E-01  0.88439549566E-01 -0.78896156425E-01  0.13244398430E+00  0.20653422190E-01 0.  0.
         14    1    1    2    0    0  0.18595748739E-01 -0.82203510359E-02 -0.99205087761E-02  0.22622832198E-01  0.00000000000E+00 0. -1.
     999901    1    3    3    0    0  0.36799988492E-01 -0.80219198530E-01  0.88816665201E-01  0.88886318350E+00  0.88000000000E+00 0. -1.
        -11    1    4    4    0    0 -0.47297701412E-01  0.64632964793E-01 -0.51335126574E-01  0.95131745691E-01  0.51100000000E-03 0.  1.
         11    1    4    4    0    0 -0.80980358183E-02  0.23806584772E-01 -0.27561029851E-01  0.37312238610E-01  0.51100000000E-03 0. -1.
</event>
<event>
 8    1  0.1092993E+005  0.1043930E+01  0.7957747E-01            NaN
         13   -1    0    0    0    0  0.00000000000E+00  0.00000000000E+00  0.74505805969E-08  0.10566000000E+00  0.10566000000E+00 0.  1.
     999900   -1    0    0    0    0 -0.00000000000E+00 -0.00000000000E+00 -0.74505805969E-08  0.93827000000E+00  0.93827000000E+00 0.  1.
     999902    2    1    2    0    0 -0.26467125515E-02 -0.66987985990E-02  0.22823940579E-01  0.10199965244E+01  0.10197156950E+01 0.  0.
     999903    2    3    3    0    0 -0.10177566365E+00 -0.71054386964E-01  0.39966362114E-01  0.13193005544E+00  0.20030422086E-01 0.  0.
         14    1    1    2    0    0  0.26467125515E-02  0.66987985990E-02 -0.22823940579E-01  0.23933475585E-01  0.00000000000E+00 0. -1.
     999901    1    3    3    0    0  0.99128951102E-01  0.64355588365E-01 -0.17142421534E-01  0.88806646897E+00  0.88000000000E+00 0.  1.
        -11    1    4    4    0    0 -0.64497520314E-01 -0.55556694943E-01  0.30798124510E-01  0.90527686781E-01  0.51100000000E-03 0.  1.
         11    1    4    4    0    0 -0.37278143340E-01 -0.15497692022E-01  0.91682376041E-02  0.41402368660E-01  0.51100000000E-03 0. -1.
</event>
<event>
 8    1  0.1092993E+005  0.1043930E+01  0.7957747E-01            NaN
         13   -1    0    0    0    0  0.00000000000E+00  0.00000000000E+00  0.74505805969E-08  0.10566000000E+00  0.10566000000E+00 0. -1.
     999900   -1    0    0    0    0 -0.00000000000E+00 -0.00000000000E+00 -0.74505805969E-08  0.93827000000E+00  0.93827000000E+00 0.  1.
     999902    2    1    2    0    0  0.24073018715E-02 -0.56148877198E-02 -0.18781756346E-01  0.10241796471E+01  0.10239891958E+01 0.  0.
     999903    2    3    3    0    0 -0.12234761393E+00  0.51727194970E-01 -0.23909399267E-02  0.13338193592E+00  0.11848329140E-01 0.  0.
         14    1    1    2    0    0 -0.24073018715E-02  0.56148877198E-02  0.18781756346E-01  0.19750352854E-01  0.00000000000E+00 0. -1.
     999901    1    3    3    0    0  0.12475491580E+00 -0.57342082689E-01 -0.16390816420E-01  0.89079771123E+00  0.88000000000E+00 0. -1.
        -11    1    4    4    0    0 -0.85290083134E-01  0.33614456267E-01  0.33284269461E-02  0.91736958191E-01  0.51100000000E-03 0.  1.
         11    1    4    4    0    0 -0.37057530791E-01  0.18112738703E-01 -0.57193668727E-02  0.41644977729E-01  0.51100000000E-03 0. -1.
</event>
<event>
 8    1  0.1092993E+005  0.1043930E+01  0.7957747E-01            NaN
         13   -1    0    0    0    0  0.00000000000E+00  0.00000000000E+00  0.74505805969E-08  0.10566000000E+00  0.10566000000E+00 0.  1.
     999900   -1    0    0    0    0 -0.00000000000E+00 -0.00000000000E+00 -0.74505805969E-08  0.93827000000E+00  0.93827000000E+00 0. -1.
     999902    2    1    2    0    0 -0.87210293365E-02 -0.21590503845E-01  0.33861517123E-02  0.10203997592E+01  0.10201284215E+01 0.  0.
     999903    2    3    3    0    0  0.62292386067E-01 -0.44730357343E-01  0.10498079680E+00  0.13141166597E+00  0.19154947826E-01 0.  0.
         14    1    1    2    0    0  0.87210293365E-02  0.21590503845E-01 -0.33861517123E-02  0.23530240806E-01  0.00000000000E+00 0. -1.
     999901    1    3    3    0    0 -0.71013415403E-01  0.23139853498E-01 -0.10159464509E+00  0.88898809323E+00  0.88000000000E+00 0. -1.
        -11    1    4    4    0    0  0.19482218980E-01 -0.18694123808E-01  0.23719470336E-01  0.35943031527E-01  0.51100000000E-03 0. -1.
         11    1    4    4    0    0  0.42810167087E-01 -0.26036233535E-01  0.81261326462E-01  0.95468634441E-01  0.51100000000E-03 0.  1.
</event>
<event>
 8    1  0.1092993E+005  0.1043930E+01  0.7957747E-01            NaN
         13   -1    0    0    0    0  0.00000000000E+00  0.00000000000E+00  0.74505805969E-08  0.10566000000E+00  0.10566000000E+00 0. -1.
     999900   -1    0    0    0    0 -0.00000000000E+00 -0.00000000000E+00 -0.74505805969E-08  0.93827000000E+00  0.93827000000E+00 0.  1.
     999902    2    1    2    0    0 -0.18284775640E-01 -0.47497595698E-02 -0.14762199907E-01  0.10199546839E+01  0.10196728600E+01 0.  0.
     999903    2    3    3    0    0 -0.54204317912E-01  0.11136186463E+00  0.35102589634E-01  0.13020268473E+00  0.19518563928E-01 0.  0.
         14    1    1    2    0    0  0.18284775640E-01  0.47497595698E-02  0.14762199907E-01  0.23975316104E-01  0.00000000000E+00 0. -1.
     999901    1    3    3    0    0  0.35919542271E-01 -0.11611162420E+00 -0.49864789541E-01  0.88975199917E+00  0.88000000000E+00 0.  1.
        -11    1    4    4    0    0 -0.12885283871E-01  0.14708639398E-01  0.60431966305E-03  0.19570409721E-01  0.51100000000E-03 0.  1.
         11    1    4    4    0    0 -0.41319034040E-01  0.96653225228E-01  0.34498269971E-01  0.11063227501E+00  0.51100000000E-03 0. -1.
</event>
<event>
 8    1  0.1110972E+005  0.1043930E+01  0.7957747E-01            NaN
         13   -1    0    0    0    0  0.00000000000E+00  0.00000000000E+00  0.74505805969E-08  0.10566000000E+00  0.10566000000E+00 0.  1.
     999900   -1    0    0    0    0 -0.00000000000E+00 -0.00000000000E+00 -0.74505805969E-08  0.93827000000E+00  0.93827000000E+00 0. -1.
     999902    2    1    2    0    0  0.22839508855E-01 -0.90588405662E-03  0.15379596178E-01  0.10163801222E+01  0.10160066717E+01 0.  0.
     999903    2    3    3    0    0 -0.22880875088E-01  0.12376116795E-01 -0.12011725419E+00  0.12473772662E+00  0.21322358583E-01 0.  0.
         14    1    1    2    0    0 -0.22839508855E-01  0.90588405662E-03 -0.15379596178E-01  0.27549877845E-01  0.00000000000E+00 0.  1.
     999901    1    3    3    0    0  0.45720383943E-01 -0.13282000852E-01  0.13549685037E+00  0.89164239553E+00  0.88000000000E+00 0.  1.
        -11    1    4    4    0    0 -0.20563639990E-01 -0.20184371196E-03 -0.66227949817E-01  0.69349163575E-01  0.51100000000E-03 0. -1.
         11    1    4    4    0    0 -0.23172350977E-02  0.12577960507E-01 -0.53889304377E-01  0.55388563045E-01  0.51100000000E-03 0.  1.
</event>
<event>
 8    1  0.1092993E+005  0.1043930E+01  0.7957747E-01            NaN
         13   -1    0    0    0    0  0.00000000000E+00  0.00000000000E+00  0.74505805969E-08  0.10566000000E+00  0.10566000000E+00 0. -1.
     999900   -1    0    0    0    0 -0.00000000000E+00 -0.00000000000E+00 -0.74505805969E-08  0.93827000000E+00  0.93827000000E+00 0.  1.
     999902    2    1    2    0    0 -0.12661668864E-01 -0.92016105548E-02 -0.16449220777E-01  0.10212239576E+01  0.10209715017E+01 0.  0.
     999903    2    3    3    0    0  0.87337962641E-01  0.75246366405E-01 -0.57208978778E-01  0.13061026755E+00  0.22276430620E-01 0.  0.
         14    1    1    2    0    0  0.12661668864E-01  0.92016105548E-02  0.16449220777E-01  0.22706042355E-01  0.00000000000E+00 0.  1.
     999901    1    3    3    0    0 -0.99999631505E-01 -0.84447976960E-01  0.40759758001E-01  0.89061369010E+00  0.88000000000E+00 0. -1.
        -11    1    4    4    0    0  0.34853830587E-01  0.33735748300E-01 -0.12378625438E-01  0.50063776412E-01  0.51100000000E-03 0. -1.
         11    1    4    4    0    0  0.52484132054E-01  0.41510618105E-01 -0.44830353340E-01  0.80546491137E-01  0.51100000000E-03 0.  1.
</event>
<event>
 8    1  0.1092993E+005  0.1043930E+01  0.7957747E-01            NaN
         13   -1    0    0    0    0  0.00000000000E+00  0.00000000000E+00  0.74505805969E-08  0.10566000000E+00  0.10566000000E+00 0. -1.
     999900   -1    0    0    0    0 -0.00000000000E+00 -0.00000000000E+00 -0.74505805969E-08  0.93827000000E+00  0.93827000000E+00 0. -1.
     999902    2    1    2    0    0 -0.13922810207E-01  0.75217984234E-02  0.18373015847E-01  0.10196814989E+01  0.10193931378E+01 0.  0.
     999903    2    3    3    0    0  0.12062203818E+00  0.20176217692E-02 -0.37031633458E-01  0.12771609183E+00  0.19654804608E-01 0.  0.
         14    1    1    2    0    0  0.13922810207E-01 -0.75217984234E-02 -0.18373015847E-01  0.24248501127E-01  0.00000000000E+00 0. -1.
     999901    1    3    3    0    0 -0.13454484839E+00  0.55041766542E-02  0.55404649305E-01  0.89196540704E+00  0.88000000000E+00 0.  1.
        -11    1    4    4    0    0  0.39379890808E-01  0.16495179301E-02 -0.21838739734E-01  0.45063159939E-01  0.51100000000E-03 0. -1.
         11    1    4    4    0    0  0.81242147374E-01  0.36810383905E-03 -0.15192893724E-01  0.82652931896E-01  0.51100000000E-03 0.  1.
</event>
<event>
 8    1  0.1092993E+005  0.1043930E+01  0.7957747E-01            NaN
         13   -1    0    0    0    0  0.00000000000E+00  0.00000000000E+00  0.74505805969E-08  0.10566000000E+00  0.10566000000E+00 0. -1.
     999900   -1    0    0    0    0 -0.00000000000E+00 -0.00000000000E+00 -0.74505805969E-08  0.93827000000E+00  0.93827000000E+00 0. -1.
     999902    2    1    2    0    0  0.19793431913E-01 -0.13336014324E-01  0.26842605918E-02  0.10199126213E+01  0.10196297959E+01 0.  0.
     999903    2    3    3    0    0 -0.10851863926E+00 -0.62204182676E-01  0.25079114636E-01  0.12898410846E+00  0.19033728880E-01 0.  0.
         14    1    1    2    0    0 -0.19793431913E-01  0.13336014324E-01 -0.26842605918E-02  0.24017378705E-01  0.00000000000E+00 0. -1.
     999901    1    3    3    0    0  0.12831207118E+00  0.48868168352E-01 -0.22394854044E-01  0.89092851283E+00  0.88000000000E+00 0. -1.
        -11    1    4    4    0    0 -0.47046138124E-01 -0.21098809915E-01  0.23415737096E-02  0.51616305376E-01  0.51100000000E-03 0. -1.
         11    1    4    4    0    0 -0.61472501140E-01 -0.41105372761E-01  0.22737540926E-01  0.77367803088E-01  0.51100000000E-03 0.  1.
</event>
<event>
 8    1  0.1092993E+005  0.1043930E+01  0.7957747E-01            NaN
         13   -1    0    0    0    0  0.00000000000E+00  0.00000000000E+00  0.74505805969E-08  0.10566000000E+00  0.10566000000E+00 0.  1.
     999900   -1    0    0    0    0 -0.00000000000E+00 -0.00000000000E+00 -0.74505805969E-08  0.93827000000E+00  0.93827000000E+00 0.  1.
     999902    2    1    2    0    0  0.17655023247E-01  0.56834870835E-02  0.15305117061E-01  0.10198832023E+01  0.10195996753E+01 0.  0.
     999903    2    3    3    0    0 -0.44588067366E-01  0.11008686118E+00  0.51167456988E-01  0.13080481753E+00  0.19610682734E-01 0.  0.
         14    1    1    2    0    0 -0.17655023247E-01 -0.56834870835E-02 -0.15305117061E-01  0.24046797698E-01  0.00000000000E+00 0. -1.
     999901    1    3    3    0    0  0.62243090613E-01 -0.10440337410E+00 -0.35862339927E-01  0.88907838478E+00  0.88000000000E+00 0.  1.
        -11    1    4    4    0    0 -0.34926738772E-01  0.98608395444E-01  0.39613519306E-01  0.11186145344E+00  0.51100000000E-03 0.  1.
         11    1    4    4    0    0 -0.96613285937E-02  0.11478465736E-01  0.11553937681E-01  0.18943364084E-01  0.51100000000E-03 0. -1.
</event>
<event>
 8    1  0.1092993E+005  0.1043930E+01  0.7957747E-01            NaN
         13   -1    0    0    0    0  0.00000000000E+00  0.00000000000E+00  0.74505805969E-08  0.10566000000E+00  0.10566000000E+00 0.  1.
     999900   -1    0    0    0    0 -0.00000000000E+00 -0.00000000000E+00 -0.74505805969E-08  0.93827000000E+00  0.93827000000E+00 0.  1.
     999902    2    1    2    0    0 -0.16292889556E-01 -0.26185812406E-03  0.15862387298E-01  0.10211892403E+01  0.10209360031E+01 0.  0.
     999903    2    3    3    0    0  0.12995948368E-01  0.94725894155E-01  0.90104978369E-01  0.13248655020E+00  0.17084763946E-01 0.  0.
         14    1    1    2    0    0  0.16292889556E-01  0.26185812406E-03 -0.15862387298E-01  0.22740759674E-01  0.00000000000E+00 0. -1.
     999901    1    3    3    0    0 -0.29288837924E-01 -0.94987752280E-01 -0.74242591071E-01  0.88870269013E+00  0.88000000000E+00 0.  1.
        -11    1    4    4    0    0  0.77077113034E-02  0.81718469664E-01  0.69538470751E-01  0.10757870204E+00  0.51100000000E-03 0.  1.
         11    1    4    4    0    0  0.52882370641E-02  0.13007424491E-01  0.20566507619E-01  0.24907848156E-01  0.51100000000E-03 0. -1.
</event>
<event>
 8    1  0.1092993E+005  0.1043930E+01  0.7957747E-01            NaN
         13   -1    0    0    0    0  0.00000000000E+00  0.00000000000E+00  0.74505805969E-08  0.10566000000E+00  0.10566000000E+00 0.  1.
     999900   -1    0    0    0    0 -0.00000000000E+00 -0.00000000000E+00 -0.74505805969E-08  0.93827000000E+00  0.93827000000E+00 0.  1.
     999902    2    1    2    0    0  0.73868133759E-02 -0.21416103333E-02  0.21483016019E-01  0.10211117730E+01  0.10208567879E+01 0.  0.
     999903    2    3    3    0    0  0.10553039096E+00 -0.65173891656E-01  0.46319497457E-01  0.13306780948E+00  0.13313395771E-01 0.  0.
         14    1    1    2    0    0 -0.73868133759E-02  0.21416103333E-02 -0.21483016019E-01  0.22818227012E-01  0.00000000000E+00 0. -1.
     999901    1    3    3    0    0 -0.98143577580E-01  0.63032281323E-01 -0.24836481438E-01  0.88804396351E+00  0.88000000000E+00 0. -1.
        -11    1    4    4    0    0  0.35734211417E-01 -0.17972955258E-01  0.20446358286E-01  0.44925223143E-01  0.51100000000E-03 0. -1.
         11    1    4    4    0    0  0.69796179538E-01 -0.47200936398E-01  0.25873139171E-01  0.88142586339E-01  0.51100000000E-03 0.  1.
</event>
<event>
 8    1  0.1092993E+005  0.1043930E+01  0.7957747E-01            NaN
         13   -1    0    0    0    0  0.00000000000E+00  0.00000000000E+00  0.74505805969E-08  0.10566000000E+00  0.10566000000E+00 0.  1.
     999900   -1    0    0    0    0 -0.00000000000E+00 -0.00000000000E+00 -0.74505805969E-08  0.93827000000E+00  0.93827000000E+00 0. -1.
     999902    2    1    2    0    0 -0.17504200529E-01  0.13060854521E-02 -0.14822792634E-01  0.10209557083E+01  0.10206971835E+01 0.  0.
     999903    2    3    3    0    0  0.42849902860E-01  0.10479017798E+00 -0.64251986017E-01  0.13146438160E+00  0.18370365966E-01 0.  0.
         14    1    1    2    0    0  0.17504200529E-01 -0.13060854521E-02  0.14822792634E-01  0.22974291650E-01  0.00000000000E+00 0.  1.
     999901    1    3    3    0    0 -0.60354103389E-01 -0.10348409253E+00  0.49429193383E-01  0.88949132675E+00  0.88000000000E+00 0.  1.
        -11    1    4    4    0    0  0.19389687348E-01  0.70484154322E-01 -0.39631109330E-01  0.83155648838E-01  0.51100000000E-03 0.  1.
         11    1    4    4    0    0  0.23460215512E-01  0.34306023661E-01 -0.24620876687E-01  0.48308732763E-01  0.51100000000E-03 0. -1.
</event>
<event>
 8    1  0.1092993E+005  0.1043930E+01  0.7957747E-01            NaN
         13   -1    0    0    0    0  0.00000000000E+00  0.00000000000E+00  0.74505805969E-08  0.10566000000E+00  0.10566000000E+00 0. -1.
     999900   -1    0    0    0    0 -0.00000000000E+00 -0.00000000000E+00 -0.74505805969E-08  0.93827000000E+00  0.93827000000E+00 0.  1.
     999902    2    1    2    0    0 -0.50526222243E-02 -0.13768781223E-01 -0.18291872274E-01  0.10204842985E+01  0.10202149296E+01 0.  0.
     999903    2    3    3    0    0  0.58679082838E-01 -0.11124933090E+00  0.32260890213E-01  0.13137251160E+00  0.19958040474E-01 0.  0.
         14    1    1    2    0    0  0.50526222243E-02  0.13768781223E-01  0.18291872274E-01  0.23445701503E-01  0.00000000000E+00 0. -1.
     999901    1    3    3    0    0 -0.63731705062E-01  0.97480549677E-01 -0.50552762487E-01  0.88911178689E+00  0.88000000000E+00 0.  1.
        -11    1    4    4    0    0  0.13750652361E-01 -0.33709131570E-01  0.18040201557E-01  0.40633680423E-01  0.51100000000E-03 0. -1.
         11    1    4    4    0    0  0.44928430477E-01 -0.77540199330E-01  0.14220688656E-01  0.90738831181E-01  0.51100000000E-03 0.  1.
</event>
<event>
 8    1  0.1092993E+005  0.1043930E+01  0.7957747E-01            NaN
         13   -1    0    0    0    0  0.00000000000E+00  0.00000000000E+00  0.74505805969E-08  0.10566000000E+00  0.10566000000E+00 0. -1.
     999900   -1    0    0    0    0 -0.00000000000E+00 -0.00000000000E+00 -0.74505805969E-08  0.93827000000E+00  0.93827000000E+00 0. -1.
     999902    2    1    2    0    0 -0.14109747706E-01  0.17184990582E-01  0.23268991837E-01  0.10117453008E+01  0.10112332564E+01 0.  0.
     999903    2    3    3    0    0  0.47145282464E-01 -0.10752456944E+00 -0.14577461075E-01  0.12004074935E+00  0.20324085234E-01 0.  0.
         14    1    1    2    0    0  0.14109747706E-01 -0.17184990582E-01 -0.23268991837E-01  0.32184699202E-01  0.00000000000E+00 0.  1.
     999901    1    3    3    0    0 -0.61255030170E-01  0.12470956002E+00  0.37846452911E-01  0.89170455145E+00  0.88000000000E+00 0. -1.
        -11    1    4    4    0    0  0.32588113607E-01 -0.52293561853E-01 -0.12559376987E-01  0.62885617044E-01  0.51100000000E-03 0.  1.
         11    1    4    4    0    0  0.14557168858E-01 -0.55231007586E-01 -0.20180840875E-02  0.57155132302E-01  0.51100000000E-03 0. -1.
</event>
<event>
 8    1  0.1092993E+005  0.1043930E+01  0.7957747E-01            NaN
         13   -1    0    0    0    0  0.00000000000E+00  0.00000000000E+00  0.74505805969E-08  0.10566000000E+00  0.10566000000E+00 0. -1.
     999900   -1    0    0    0    0 -0.00000000000E+00 -0.00000000000E+00 -0.74505805969E-08  0.93827000000E+00  0.93827000000E+00 0.  1.
     999902    2    1    2    0    0  0.67838628903E-02 -0.16480725861E-01  0.15309973122E-01  0.10204346729E+01  0.10201641491E+01 0.  0.
     999903    2    3    3    0    0 -0.10363753168E+00  0.71451196911E-01 -0.17565904422E-01  0.12857945437E+00  0.19444885532E-01 0.  0.
         14    1    1    2    0    0 -0.67838628903E-02  0.16480725861E-01 -0.15309973122E-01  0.23495327145E-01  0.00000000000E+00 0.  1.
     999901    1    3    3    0    0  0.11042139457E+00 -0.87931922773E-01  0.32875877545E-01  0.89185521849E+00  0.88000000000E+00 0. -1.
        -11    1    4    4    0    0 -0.78531173794E-01  0.57502390600E-01 -0.21225911058E-01  0.99621637225E-01  0.51100000000E-03 0.  1.
         11    1    4    4    0    0 -0.25106357890E-01  0.13948806311E-01  0.36600066357E-02  0.28957817141E-01  0.51100000000E-03 0. -1.
</event>
<event>
 8    1  0.1092993E+005  0.1043930E+01  0.7957747E-01            NaN
         13   -1    0    0    0    0  0.00000000000E+00  0.00000000000E+00  0.74505805969E-08  0.10566000000E+00  0.10566000000E+00 0.  1.
     999900   -1    0    0    0    0 -0.00000000000E+00 -0.00000000000E+00 -0.74505805969E-08  0.93827000000E+00  0.93827000000E+00 0.  1.
     999902    2    1    2    0    0 -0.18567770538E-02 -0.21159793155E-01  0.95902258863E-02  0.10206242732E+01  0.10203581480E+01 0.  0.
     999903    2    3    3    0    0 -0.47533461721E-01  0.81434015165E-01  0.87341960605E-01  0.13008669330E+00  0.20074881880E-01 0.  0.
         14    1    1    2    0    0  0.18567770538E-02  0.21159793155E-01 -0.95902258863E-02  0.23305726763E-01  0.00000000000E+00 0.  1.
     999901    1    3    3    0    0  0.45676684667E-01 -0.10259380832E+00 -0.77751734719E-01  0.89053757994E+00  0.88000000000E+00 0. -1.
        -11    1    4    4    0    0 -0.23953039178E-01  0.32500842116E-01  0.49524240481E-01  0.63898077752E-01  0.51100000000E-03 0. -1.
         11    1    4    4    0    0 -0.23580422543E-01  0.48933173049E-01  0.37817720124E-01  0.66188615549E-01  0.51100000000E-03 0.  1.
</event>
<event>
 8    1  0.1092993E+005  0.1043930E+01  0.7957747E-01            NaN
         13   -1    0    0    0    0  0.00000000000E+00  0.00000000000E+00  0.74505805969E-08  0.10566000000E+00  0.10566000000E+00 0. -1.
     999900   -1    0    0    0    0 -0.00000000000E+00 -0.00000000000E+00 -0.74505805969E-08  0.93827000000E+00  0.93827000000E+00 0.  1.
     999902    2    1    2    0    0  0.66600277883E-02 -0.22383027025E-01 -0.32045322570E-02  0.10203583031E+01  0.10200859972E+01 0.  0.
     999903    2    3    3    0    0 -0.31557136921E-01  0.78739716722E-01  0.94270935550E-01  0.12840100151E+00  0.20100050255E-01 0.  0.
         14    1    1    2    0    0 -0.66600277883E-02  0.22383027025E-01  0.32045322570E-02  0.23571696926E-01  0.00000000000E+00 0.  1.
     999901    1    3    3    0    0  0.38217164709E-01 -0.10112274375E+00 -0.97475467807E-01  0.89195730156E+00  0.88000000000E+00 0.  1.
        -11    1    4    4    0    0 -0.13381449730E-01  0.29512406903E-01  0.50796144414E-01  0.60254085060E-01  0.51100000000E-03 0.  1.
         11    1    4    4    0    0 -0.18175687191E-01  0.49227309820E-01  0.43474791137E-01  0.68146916455E-01  0.51100000000E-03 0. -1.
</event>
<event>
 8    1  0.1092993E+005  0.1043930E+01  0.7957747E-01            NaN
         13   -1    0    0    0    0  0.00000000000E+00  0.00000000000E+00  0.74505805969E-08  0.10566000000E+00  0.10566000000E+00 0.  1.
     999900   -1    0    0    0    0 -0.00000000000E+00 -0.00000000000E+00 -0.74505805969E-08  0.93827000000E+00  0.93827000000E+00 0. -1.
     999902    2    1    2    0    0 -0.19638530267E-01  0.14540205086E-01 -0.80823633443E-02  0.10181925947E+01  0.10178672535E+01 0.  0.
     999903    2    3    3    0    0 -0.64331281190E-01 -0.79963032997E-01 -0.76320835233E-01  0.12938170758E+00  0.19548810201E-01 0.  0.
         14    1    1    2    0    0  0.19638530267E-01 -0.14540205086E-01  0.80823633443E-02  0.25737405313E-01  0.00000000000E+00 0. -1.
     999901    1    3    3    0    0  0.44692750923E-01  0.94503238083E-01  0.68238471889E-01  0.88881088711E+00  0.88000000000E+00 0.  1.
        -11    1    4    4    0    0 -0.37612265610E-01 -0.34591810634E-01 -0.45145974600E-01  0.68188679638E-01  0.51100000000E-03 0.  1.
         11    1    4    4    0    0 -0.26719015580E-01 -0.45371222363E-01 -0.31174860633E-01  0.61193027943E-01  0.51100000000E-03 0. -1.
</event>
<event>
 8    1  0.1092993E+005  0.1043930E+01  0.7957747E-01            NaN
         13   -1    0    0    0    0  0.00000000000E+00  0.00000000000E+00  0.74505805969E-08  0.10566000000E+00  0.10566000000E+00 0.  1.
     999900   -1    0    0    0    0 -0.00000000000E+00 -0.00000000000E+00 -0.74505805969E-08  0.93827000000E+00  0.93827000000E+00 0.  1.
     999902    2    1    2    0    0 -0.74360074301E-02 -0.21876043773E-02  0.23064528277E-01  0.10195978755E+01  0.10193074980E+01 0.  0.
     999903    2    3    3    0    0 -0.62446048871E-01 -0.11323215057E+00 -0.16734779632E-02  0.13057089902E+00  0.18025820425E-01 0.  0.
         14    1    1    2    0    0  0.74360074301E-02  0.21876043773E-02 -0.23064528277E-01  0.24332124528E-01  0.00000000000E+00 0. -1.
     999901    1    3    3    0    0  0.55010041441E-01  0.11104454619E+00  0.24738006240E-01  0.88902697645E+00  0.88000000000E+00 0.  1.
        -11    1    4    4    0    0 -0.28921241712E-01 -0.65595390989E-01 -0.72282305065E-02  0.72053466110E-01  0.51100000000E-03 0.  1.
         11    1    4    4    0    0 -0.33524807159E-01 -0.47636759577E-01  0.55547525433E-02  0.58517432915E-01  0.51100000000E-03 0. -1.
</event>
<event>
 8    1  0.1092993E+005  0.1043930E+01  0.7957747E-01            NaN
         13   -1    0    0    0    0  0.00000000000E+00  0.00000000000E+00  0.74505805969E-08  0.10566000000E+00  0.10566000000E+00 0. -1.
     999900   -1    0    0    0    0 -0.00000000000E+00 -0.00000000000E+00 -0.74505805969E-08  0.93827000000E+00  0.93827000000E+00 0. -1.
     999902    2    1    2    0    0 -0.33645341301E-02 -0.17548216235E-01 -0.12516744602E-01  0.10221142058E+01  0.10218813633E+01 0.  0.
     999903    2    3    3    0    0 -0.30269550184E-01  0.11847933513E+00  0.36778317193E-01  0.12989372979E+00  0.23793652580E-01 0.  0.
         14    1    1    2    0    0  0.33645341301E-02  0.17548216235E-01  0.12516744602E-01  0.21815794241E-01  0.00000000000E+00 0. -1.
     999901    1    3    3    0    0  0.26905016054E-01 -0.13602755136E+00 -0.49295061795E-01  0.89222047597E+00  0.88000000000E+00 0.  1.
        -11    1    4    4    0    0 -0.38116112727E-02  0.51829268468E-01  0.23169892310E-01  0.56902605222E-01  0.51100000000E-03 0.  1.
         11    1    4    4    0    0 -0.26457938911E-01  0.66650066659E-01  0.13608424883E-01  0.72991124569E-01  0.51100000000E-03 0. -1.
</event>
<event>
 8    1  0.1092993E+005  0.1043930E+01  0.7957747E-01            NaN
         13   -1    0    0    0    0  0.00000000000E+00  0.00000000000E+00  0.74505805969E-08  0.10566000000E+00  0.10566000000E+00 0.  1.
     999900   -1    0    0    0    0 -0.00000000000E+00 -0.00000000000E+00 -0.74505805969E-08  0.93827000000E+00  0.93827000000E+00 0. -1.
     999902    2    1    2    0    0 -0.12005121098E-01 -0.19356488948E-01 -0.63277192681E-02  0.10202902744E+01  0.10200163760E+01 0.  0.
     999903    2    3    3    0    0 -0.12671177461E+00 -0.27182465635E-01  0.17921916176E-01  0.13248009922E+00  0.20857165386E-01 0.  0.
         14    1    1    2    0    0  0.12005121098E-01  0.19356488948E-01  0.63277192681E-02  0.23639725636E-01  0.00000000000E+00 0.  1.
     999901    1    3    3    0    0  0.11470665351E+00  0.78259766871E-02 -0.24249635444E-01  0.88781017514E+00  0.88000000000E+00 0. -1.
        -11    1    4    4    0    0 -0.63311840305E-01 -0.22061039546E-01  0.28366841418E-02  0.67107275959E-01  0.51100000000E-03 0. -1.
         11    1    4    4    0    0 -0.63399934302E-01 -0.51214260893E-02  0.15085232034E-01  0.65372823261E-01  0.51100000000E-03 0.  1.
</event>
<event>
 8    1  0.1092993E+005  0.1043930E+01  0.7957747E-01            NaN
         13   -1    0    0    0    0  0.00000000000E+00  0.00000000000E+00  0.74505805969E-08  0.10566000000E+00  0.10566000000E+00 0.  1.
     999900   -1    0    0    0    0 -0.00000000000E+00 -0.00000000000E+00 -0.74505805969E-08  0.93827000000E+00  0.93827000000E+00 0. -1.
     999902    2    1    2    0    0 -0.79922575617E-02  0.37331818466E-02 -0.22029505466E-01  0.10202000203E+01  0.10199240018E+01 0.  0.
     999903    2    3    3    0    0  0.24515208611E-01  0.48719285193E-01  0.11417764503E+00  0.12799327701E+00  0.19266035699E-01 0.  0.
         14    1    1    2    0    0  0.79922575617E-02 -0.37331818466E-02  0.22029505466E-01  0.23729979745E-01  0.00000000000E+00 0.  1.
     999901    1    3    3    0    0 -0.32507466172E-01 -0.44986103346E-01 -0.13620715050E+00  0.89220674325E+00  0.88000000000E+00 0. -1.
        -11    1    4    4    0    0  0.12161961748E-02  0.71845064701E-02  0.33670605249E-01  0.34453839339E-01  0.51100000000E-03 0. -1.
         11    1    4    4    0    0  0.23299012436E-01  0.41534778723E-01  0.80507039780E-01  0.93539437668E-01  0.51100000000E-03 0.  1.
</event>
<event>
 8    1  0.1092993E+005  0.1043930E+01  0.7957747E-01            NaN
         13   -1    0    0    0    0  0.00000000000E+00  0.00000000000E+00  0.74505805969E-08  0.10566000000E+00  0.10566000000E+00 0.  1.
     999900   -1    0    0    0    0 -0.00000000000E+00 -0.00000000000E+00 -0.74505805969E-08  0.93827000000E+00  0.93827000000E+00 0.  1.
     999902    2    1    2    0    0  0.42996726954E-02  0.36807071856E-02  0.21844586300E-01  0.10213640801E+01  0.10211147650E+01 0.  0.
     999903    2    3    3    0    0 -0.84419930935E-01  0.72898914404E-01 -0.63733577154E-01  0.13008076355E+00  0.20446508984E-01 0.  0.
         14    1    1    2    0    0 -0.42996726954E-02 -0.36807071856E-02 -0.21844586300E-01  0.22565919908E-01  0.00000000000E+00 0. -1.
     999901    1    3    3    0    0  0.88719603631E-01 -0.69218207218E-01  0.85578163454E-01  0.89128331654E+00  0.88000000000E+00 0. -1.
        -11    1    4    4    0    0 -0.55376405557E-01  0.46970042523E-01 -0.52335354065E-01  0.89509673181E-01  0.51100000000E-03 0.  1.
         11    1    4    4    0    0 -0.29043525379E-01  0.25928871881E-01 -0.11398223089E-01  0.40571090373E-01  0.51100000000E-03 0. -1.
</event>
<event>
 8    1  0.1092993E+005  0.1043930E+01  0.7957747E-01            NaN
         13   -1    0    0    0    0  0.00000000000E+00  0.00000000000E+00  0.74505805969E-08  0.10566000000E+00  0.10566000000E+00 0.  1.
     999900   -1    0    0    0    0 -0.00000000000E+00 -0.00000000000E+00 -0.74505805969E-08  0.93827000000E+00  0.93827000000E+00 0.  1.
     999902    2    1    2    0    0 -0.21681241311E-01  0.92019936905E-02 -0.23403585093E-02  0.10202608177E+01  0.10199862283E+01 0.  0.
     999903    2    3    3    0    0  0.76310333774E-01 -0.85024256812E-01  0.54146836362E-01  0.12803229414E+00  0.20198939774E-01 0.  0.
         14    1    1    2    0    0  0.21681241311E-01 -0.92019936905E-02  0.23403585093E-02  0.23669182297E-01  0.00000000000E+00 0.  1.
     999901    1    3    3    0    0 -0.97991575085E-01  0.94226250503E-01 -0.56487194871E-01  0.89222852356E+00  0.88000000000E+00 0.  1.
        -11    1    4    4    0    0  0.25571824084E-01 -0.15363592125E-01  0.14131193858E-01  0.33013783649E-01  0.51100000000E-03 0. -1.
         11    1    4    4    0    0  0.50738509690E-01 -0.69660664688E-01  0.40015642504E-01  0.95018510493E-01  0.51100000000E-03 0.  1.
</event>
<event>
 8    1  0.1092993E+005  0.1043930E+01  0.7957747E-01            NaN
         13   -1    0    0    0    0  0.00000000000E+00  0.00000000000E+00  0.74505805969E-08  0.10566000000E+00  0.10566000000E+00 0.  1.
     999900   -1    0    0    0    0 -0.00000000000E+00 -0.00000000000E+00 -0.74505805969E-08  0.93827000000E+00  0.93827000000E+00 0.  1.
     999902    2    1    2    0    0  0.20993891271E-01 -0.13128438253E-01  0.42528097055E-03  0.10191655047E+01  0.10188645866E+01 0.  0.
     999903    2    3    3    0    0  0.22776060777E-01  0.12452100343E+00  0.53947540162E-02  0.12844936556E+00  0.21116507835E-01 0.  0.
         14    1    1    2    0    0 -0.20993891271E-01  0.13128438253E-01 -0.42528097055E-03  0.24764495262E-01  0.00000000000E+00 0.  1.
     999901    1    3    3    0    0 -0.17821695054E-02 -0.13764944168E+00 -0.49694730457E-02  0.89071613917E+00  0.88000000000E+00 0.  1.
        -11    1    4    4    0    0  0.54725445415E-02  0.84018146621E-01  0.12424982026E-02  0.84206903684E-01  0.51100000000E-03 0. -1.
         11    1    4    4    0    0  0.17303516235E-01  0.40502856809E-01  0.41522558136E-02  0.44242461879E-01  0.51100000000E-03 0.  1.
</event>
<event>
 8    1  0.1092993E+005  0.1043930E+01  0.7957747E-01            NaN
         13   -1    0    0    0    0  0.00000000000E+00  0.00000000000E+00  0.74505805969E-08  0.10566000000E+00  0.10566000000E+00 0. -1.
     999900   -1    0    0    0    0 -0.00000000000E+00 -0.00000000000E+00 -0.74505805969E-08  0.93827000000E+00  0.93827000000E+00 0. -1.
     999902    2    1    2    0    0 -0.19387057606E-01 -0.76533505042E-02 -0.12802643733E-01  0.10194690216E+01  0.10191755230E+01 0.  0.
     999903    2    3    3    0    0 -0.11961326285E+00 -0.44511277752E-01  0.27970400736E-01  0.13207607587E+00  0.19317349787E-01 0.  0.
         14    1    1    2    0    0  0.19387057606E-01  0.76533505042E-02  0.12802643733E-01  0.24460978376E-01  0.00000000000E+00 0. -1.
     999901    1    3    3    0    0  0.10022620525E+00  0.36857927248E-01 -0.40773044469E-01  0.88739294575E+00  0.88000000000E+00 0. -1.
        -11    1    4    4    0    0 -0.74584139936E-01 -0.18962298675E-01  0.21452153921E-01  0.79892544896E-01  0.51100000000E-03 0. -1.
         11    1    4    4    0    0 -0.45029122915E-01 -0.25548979078E-01  0.65182468156E-02  0.52183530975E-01  0.51100000000E-03 0.  1.
</event>
<event>
 8    1  0.1092993E+005  0.1043930E+01  0.7957747E-01            NaN
         13   -1    0    0    0    0  0.00000000000E+00  0.00000000000E+00  0.74505805969E-08  0.10566000000E+00  0.10566000000E+00 0. -1.
     999900   -1    0    0    0    0 -0.00000000000E+00 -0.00000000000E+00 -0.74505805969E-08  0.93827000000E+00  0.93827000000E+00 0.  1.
     999902    2    1    2    0    0  0.17777790150E-02  0.57172561961E-02 -0.23904028889E-01  0.10192875546E+01  0.10189896314E+01 0.  0.
     999903    2    3    3    0    0 -0.40958344775E-01 -0.12053360006E+00 -0.71475043000E-02  0.12909294888E+00  0.20198214864E-01 0.  0.
         14    1    1    2    0    0 -0.17777790150E-02 -0.57172561961E-02  0.23904028889E-01  0.24642445369E-01  0.00000000000E+00 0. -1.
     999901    1    3    3    0    0  0.42736123790E-01  0.12625085626E+00 -0.16756524589E-01  0.89019460575E+00  0.88000000000E+00 0.  1.
        -11    1    4    4    0    0 -0.32305642335E-01 -0.96647254813E-01 -0.13777056019E-01  0.10283197354E+00  0.51100000000E-03 0.  1.
         11    1    4    4    0    0 -0.86527024397E-02 -0.23886345248E-01  0.66295517186E-02  0.26260975340E-01  0.51100000000E-03 0. -1.
</event>
<event>
 8    1  0.1092993E+005  0.1043930E+01  0.7957747E-01            NaN
         13   -1    0    0    0    0  0.00000000000E+00  0.00000000000E+00  0.74505805969E-08  0.10566000000E+00  0.10566000000E+00 0.  1.
     999900   -1    0    0    0    0 -0.00000000000E+00 -0.00000000000E+00 -0.74505805969E-08  0.93827000000E+00  0.93827000000E+00 0.  1.
     999902    2    1    2    0    0  0.23601801036E-01  0.68163217382E-03 -0.64169833735E-03  0.10203096399E+01  0.10200361954E+01 0.  0.
     999903    2    3    3    0    0 -0.75967341025E-01 -0.10116737923E+00  0.15211640166E-01  0.12871636743E+00  0.18183336457E-01 0.  0.
         14    1    1    2    0    0 -0.23601801036E-01 -0.68163217382E-03  0.64169833735E-03  0.23620360101E-01  0.00000000000E+00 0. -1.
     999901    1    3    3    0    0  0.99569142061E-01  0.10184901140E+00 -0.15853338504E-01  0.89159327247E+00  0.88000000000E+00 0. -1.
        -11    1    4    4    0    0 -0.30085066851E-01 -0.31945839826E-01 -0.18875509455E-02  0.43925754395E-01  0.51100000000E-03 0. -1.
         11    1    4    4    0    0 -0.45882274173E-01 -0.69221539403E-01  0.17099191112E-01  0.84790613032E-01  0.51100000000E-03 0.  1.
</event>
<event>
 8    1  0.1092993E+005  0.1043930E+01  0.7957747E-01            NaN
         13   -1    0    0    0    0  0.00000000000E+00  0.00000000000E+00  0.74505805969E-08  0.10566000000E+00  0.10566000000E+00 0.  1.
     999900   -1    0    0    0    0 -0.00000000000E+00 -0.00000000000E+00 -0.74505805969E-08  0.93827000000E+00  0.93827000000E+00 0. -1.
     999902    2    1    2    0    0 -0.27689373302E-02  0.45890221591E-02  0.23358770167E-01  0.10199642269E+01  0.10196826299E+01 0.  0.
     999903    2    3    3    0    0 -0.39380922988E-01 -0.84208016202E-01  0.91496368305E-01  0.13211959868E+00  0.21027502328E-01 0.  0.
         14    1    1    2    0    0  0.27689373302E-02 -0.45890221591E-02 -0.23358770167E-01  0.23965773136E-01  0.00000000000E+00 0. -1.
     999901    1    3    3    0    0  0.36611985657E-01  0.88797038361E-01 -0.68137598138E-01  0.88784462818E+00  0.88000000000E+00 0. -1.
        -11    1    4    4    0    0 -0.13560440998E-01 -0.18508463075E-01  0.12338612742E-01  0.26056693015E-01  0.51100000000E-03 0.  1.
         11    1    4    4    0    0 -0.25820481990E-01 -0.65699553127E-01  0.79157755564E-01  0.10606290566E+00  0.51100000000E-03 0. -1.
</event>
<event>
 8    1  0.1092993E+005  0.1043930E+01  0.7957747E-01            NaN
         13   -1    0    0    0    0  0.00000000000E+00  0.00000000000E+00  0.74505805969E-08  0.10566000000E+00  0.10566000000E+00 0.  1.
     999900   -1    0    0    0    0 -0.00000000000E+00 -0.00000000000E+00 -0.74505805969E-08  0.93827000000E+00  0.93827000000E+00 0. -1.
     999902    2    1    2    0    0  0.12957044055E-01  0.18792073417E-01  0.69716232832E-02  0.10200630659E+01  0.10197838142E+01 0.  0.
     999903    2    3    3    0    0  0.77149314903E-01  0.63306569739E-01 -0.84784691420E-01  0.13185058604E+00  0.15375128568E-01 0.  0.
         14    1    1    2    0    0 -0.12957044055E-01 -0.18792073417E-01 -0.69716232832E-02  0.23866934138E-01  0.00000000000E+00 0. -1.
     999901    1    3    3    0    0 -0.64192270849E-01 -0.44514496322E-01  0.91756314703E-01  0.88821247982E+00  0.88000000000E+00 0.  1.
        -11    1    4    4    0    0  0.56768462664E-01  0.54180761830E-01 -0.62806643540E-01  0.10051442135E+00  0.51100000000E-03 0. -1.
         11    1    4    4    0    0  0.20380852240E-01  0.91258079090E-02 -0.21978047880E-01  0.31336164692E-01  0.51100000000E-03 0.  1.
</event>
<event>
 8    1  0.1092993E+005  0.1043930E+01  0.7957747E-01            NaN
         13   -1    0    0    0    0  0.00000000000E+00  0.00000000000E+00  0.74505805969E-08  0.10566000000E+00  0.10566000000E+00 0. -1.
     999900   -1    0    0    0    0 -0.00000000000E+00 -0.00000000000E+00 -0.74505805969E-08  0.93827000000E+00  0.93827000000E+00 0. -1.
     999902    2    1    2    0    0 -0.15054941915E-01  0.18027027818E-01  0.14602893261E-01  0.10162737259E+01  0.10158973454E+01 0.  0.
     999903    2    3    3    0    0  0.12146612616E+00 -0.13049540087E-01 -0.15862353646E-01  0.12468419789E+00  0.19241222421E-01 0.  0.
         14    1    1    2    0    0  0.15054941915E-01 -0.18027027818E-01 -0.14602893261E-01  0.27656274146E-01  0.00000000000E+00 0.  1.
     999901    1    3    3    0    0 -0.13652106807E+00  0.31076567906E-01  0.30465246907E-01  0.89158952796E+00  0.88000000000E+00 0. -1.
        -11    1    4    4    0    0  0.68510356505E-01 -0.12542242879E-01 -0.17061113122E-01  0.71709967974E-01  0.51100000000E-03 0.  1.
         11    1    4    4    0    0  0.52955769655E-01 -0.50729720776E-03  0.11987594768E-02  0.52974229918E-01  0.51100000000E-03 0. -1.
</event>
<event>
 8    1  0.1092993E+005  0.1043930E+01  0.7957747E-01            NaN
         13   -1    0    0    0    0  0.00000000000E+00  0.00000000000E+00  0.74505805969E-08  0.10566000000E+00  0.10566000000E+00 0.  1.
     999900   -1    0    0    0    0 -0.00000000000E+00 -0.00000000000E+00 -0.74505805969E-08  0.93827000000E+00  0.93827000000E+00 0.  1.
     999902    2    1    2    0    0 -0.94934084019E-02  0.21383225473E-01 -0.60528566988E-02  0.10197638210E+01  0.10194774379E+01 0.  0.
     999903    2    3    3    0    0 -0.89443168426E-01 -0.90581397573E-01 -0.75220145484E-02  0.12907296587E+00  0.19954444367E-01 0.  0.
         14    1    1    2    0    0  0.94934084019E-02 -0.21383225473E-01  0.60528566988E-02  0.24166179030E-01  0.00000000000E+00 0. -1.
     999901    1    3    3    0    0  0.79949760024E-01  0.11196462305E+00  0.14691578496E-02  0.89069085510E+00  0.88000000000E+00 0. -1.
        -11    1    4    4    0    0 -0.60167033968E-01 -0.72655201282E-01 -0.85796672557E-02  0.94724453343E-01  0.51100000000E-03 0.  1.
         11    1    4    4    0    0 -0.29276134458E-01 -0.17926196291E-01  0.10576527073E-02  0.34348512522E-01  0.51100000000E-03 0. -1.
</event>
<event>
 8    1  0.1092993E+005  0.1043930E+01  0.7957747E-01            NaN
         13   -1    0    0    0    0  0.00000000000E+00  0.00000000000E+00  0.74505805969E-08  0.10566000000E+00  0.10566000000E+00 0.  1.
     999900   -1    0    0    0    0 -0.00000000000E+00 -0.00000000000E+00 -0.74505805969E-08  0.93827000000E+00  0.93827000000E+00 0. -1.
     999902    2    1    2    0    0 -0.11969261980E-01  0.12457502351E-01  0.17139291257E-01  0.10195946779E+01  0.10193042231E+01 0.  0.
     999903    2    3    3    0    0 -0.86094294537E-01 -0.71315907712E-01 -0.61711779940E-01  0.12901621638E+00  0.18402555830E-01 0.  0.
         14    1    1    2    0    0  0.11969261980E-01 -0.12457502351E-01 -0.17139291257E-01  0.24335322105E-01  0.00000000000E+00 0.  1.
     999901    1    3    3    0    0  0.74125032557E-01  0.83773410063E-01  0.78851071197E-01  0.89057846151E+00  0.88000000000E+00 0.  1.
        -11    1    4    4    0    0 -0.72953220640E-01 -0.53809755810E-01 -0.55352370873E-01  0.10621585712E+00  0.51100000000E-03 0.  1.
         11    1    4    4    0    0 -0.13141073897E-01 -0.17506151902E-01 -0.63594090671E-02  0.22800359257E-01  0.51100000000E-03 0. -1.
</event>
<event>
 8    1  0.1207174E+005  0.1043930E+01  0.7957747E-01            NaN
         13   -1    0    0    0    0  0.00000000000E+00  0.00000000000E+00  0.74505805969E-08  0.10566000000E+00  0.10566000000E+00 0.  1.
     999900   -1    0    0    0    0 -0.00000000000E+00 -0.00000000000E+00 -0.74505805969E-08  0.93827000000E+00  0.93827000000E+00 0.  1.
     999902    2    1    2    0    0 -0.92025247245E-02 -0.20855244051E-01  0.33288233242E-02  0.10208928836E+01  0.10206329267E+01 0.  0.
     999903    2    3    3    0    0 -0.17828925710E-02 -0.67676764939E-01 -0.11199045223E+00  0.13210390920E+00  0.18062619329E-01 0.  0.
         14    1    1    2    0    0  0.92025247245E-02  0.20855244051E-01 -0.33288233242E-02  0.23037116366E-01  0.00000000000E+00 0. -1.
     999901    1    3    3    0    0 -0.74196321536E-02  0.46821520888E-01  0.11531927555E+00  0.88878897443E+00  0.88000000000E+00 0. -1.
        -11    1    4    4    0    0 -0.90512204776E-02 -0.24311353366E-01 -0.45773184456E-01  0.52615701372E-01  0.51100000000E-03 0.  1.
         11    1    4    4    0    0  0.72683279066E-02 -0.43365411573E-01 -0.66217267773E-01  0.79488207829E-01  0.51100000000E-03 0. -1.
</event>
<event>
 8    1  0.1092993E+005  0.1043930E+01  0.7957747E-01            NaN
         13   -1    0    0    0    0  0.00000000000E+00  0.00000000000E+00  0.74505805969E-08  0.10566000000E+00  0.10566000000E+00 0. -1.
     999900   -1    0    0    0    0 -0.00000000000E+00 -0.00000000000E+00 -0.74505805969E-08  0.93827000000E+00  0.93827000000E+00 0. -1.
     999902    2    1    2    0    0  0.66769061951E-02 -0.23620239833E-01  0.18656176652E-02  0.10193133931E+01  0.10190161019E+01 0.  0.
     999903    2    3    3    0    0 -0.78403195556E-01  0.51446016354E-01  0.84983673616E-01  0.12814439804E+00  0.20124817889E-01 0.  0.
         14    1    1    2    0    0 -0.66769061951E-02  0.23620239833E-01 -0.18656176652E-02  0.24616606902E-01  0.00000000000E+00 0.  1.
     999901    1    3    3    0    0  0.85080101751E-01 -0.75066256187E-01 -0.83118055951E-01  0.89116899506E+00  0.88000000000E+00 0. -1.
        -11    1    4    4    0    0 -0.16167745537E-01  0.83447838791E-02  0.27975315209E-01  0.33375302182E-01  0.51100000000E-03 0.  1.
         11    1    4    4    0    0 -0.62235450019E-01  0.43101232475E-01  0.57008358407E-01  0.94769095855E-01  0.51100000000E-03 0. -1.
</event>
<event>
 8    1  0.1092993E+005  0.1043930E+01  0.7957747E-01            NaN
         13   -1    0    0    0    0  0.00000000000E+00  0.00000000000E+00  0.74505805969E-08  0.10566000000E+00  0.10566000000E+00 0. -1.
     999900   -1    0    0    0    0 -0.00000000000E+00 -0.00000000000E+00 -0.74505805969E-08  0.93827000000E+00  0.93827000000E+00 0. -1.
     999902    2    1    2    0    0  0.12320439806E-01  0.62609137044E-02 -0.21544392072E-01  0.10183340412E+01  0.10180123115E+01 0.  0.
     999903    2    3    3    0    0  0.89652819610E-02 -0.42276715681E-01  0.11643541096E+00  0.12625468116E+00  0.22701159009E-01 0.  0.
         14    1    1    2    0    0 -0.12320439806E-01 -0.62609137044E-02  0.21544392072E-01  0.25595958806E-01  0.00000000000E+00 0.  1.
     999901    1    3    3    0    0  0.33551578455E-02  0.48537629386E-01 -0.13797980303E+00  0.89207936003E+00  0.88000000000E+00 0. -1.
        -11    1    4    4    0    0  0.99394151938E-02 -0.15544493805E-01  0.72511768191E-01  0.74824066377E-01  0.51100000000E-03 0. -1.
         11    1    4    4    0    0 -0.97413323281E-03 -0.26732221876E-01  0.43923642770E-01  0.51430614785E-01  0.51100000000E-03 0.  1.
</event>
<event>
 8    1  0.1092993E+005  0.1043930E+01  0.7957747E-01            NaN
         13   -1    0    0    0    0  0.00000000000E+00  0.00000000000E+00  0.74505805969E-08  0.10566000000E+00  0.10566000000E+00 0. -1.
     999900   -1    0    0    0    0 -0.00000000000E+00 -0.00000000000E+00 -0.74505805969E-08  0.93827000000E+00  0.93827000000E+00 0.  1.
     999902    2    1    2    0    0  0.19293441927E-01  0.13267576890E-01  0.58443067330E-02  0.10197965912E+01  0.10195109936E+01 0.  0.
     999903    2    3    3    0    0 -0.41074822690E-02 -0.39232720535E-01 -0.12101110490E+00  0.12884419073E+00  0.20026487581E-01 0.  0.
         14    1    1    2    0    0 -0.19293441927E-01 -0.13267576890E-01 -0.58443067330E-02  0.24133408776E-01  0.00000000000E+00 0. -1.
     999901    1    3    3    0    0  0.23400924196E-01  0.52500297425E-01  0.12685541163E+00  0.89095240049E+00  0.88000000000E+00 0. -1.
        -11    1    4    4    0    0 -0.69077558430E-02 -0.16572744465E-01 -0.79108086131E-01  0.81121657787E-01  0.51100000000E-03 0.  1.
         11    1    4    4    0    0  0.28002735740E-02 -0.22659976070E-01 -0.41903018770E-01  0.47722532945E-01  0.51100000000E-03 0. -1.
</event>
<event>
 8    1  0.1092993E+005  0.1043930E+01  0.7957747E-01            NaN
         13   -1    0    0    0    0  0.00000000000E+00  0.00000000000E+00  0.74505805969E-08  0.10566000000E+00  0.10566000000E+00 0.  1.
     999900   -1    0    0    0    0 -0.00000000000E+00 -0.00000000000E+00 -0.74505805969E-08  0.93827000000E+00  0.93827000000E+00 0.  1.
     999902    2    1    2    0    0  0.14649104819E-01  0.17957994027E-01 -0.31985993953E-02  0.10205351959E+01  0.10202670088E+01 0.  0.
     999903    2    3    3    0    0  0.86891296999E-01 -0.71959745042E-01 -0.63467624686E-01  0.13096423776E+00  0.19879380987E-01 0.  0.
         14    1    1    2    0    0 -0.14649104819E-01 -0.17957994027E-01  0.31985993953E-02  0.23394804114E-01  0.00000000000E+00 0. -1.
     999901    1    3    3    0    0 -0.72242192180E-01  0.89917739068E-01  0.60269025290E-01  0.88957095813E+00  0.88000000000E+00 0. -1.
        -11    1    4    4    0    0  0.37775917228E-01 -0.43927211327E-01 -0.29915417351E-01  0.65205928670E-01  0.51100000000E-03 0.  1.
         11    1    4    4    0    0  0.49115379771E-01 -0.28032533715E-01 -0.33552207335E-01  0.65758309091E-01  0.51100000000E-03 0. -1.
</event>
<event>
 8    1  0.1092993E+005  0.1043930E+01  0.7957747E-01            NaN
         13   -1    0    0    0    0  0.00000000000E+00  0.00000000000E+00  0.74505805969E-08  0.10566000000E+00  0.10566000000E+00 0. -1.
     999900   -1    0    0    0    0 -0.00000000000E+00 -0.00000000000E+00 -0.74505805969E-08  0.93827000000E+00  0.93827000000E+00 0.  1.
     999902    2    1    2    0    0  0.22880255719E-01 -0.21350329218E-02 -0.41304611119E-02  0.10205820841E+01  0.10203149833E+01 0.  0.
     999903    2    3    3    0    0  0.11117279749E+00  0.70308388093E-01 -0.73508310554E-02  0.13319603905E+00  0.19608410585E-01 0.  0.
         14    1    1    2    0    0 -0.22880255719E-01  0.21350329218E-02  0.41304611119E-02  0.23347915888E-01  0.00000000000E+00 0.  1.
     999901    1    3    3    0    0 -0.88292541767E-01 -0.72443421015E-01  0.32203699435E-02  0.88738604506E+00  0.88000000000E+00 0. -1.
        -11    1    4    4    0    0  0.34979374450E-01  0.33085170484E-01 -0.10643874300E-02  0.48162009763E-01  0.51100000000E-03 0. -1.
         11    1    4    4    0    0  0.76193423036E-01  0.37223217609E-01 -0.62864436254E-02  0.85034029291E-01  0.51100000000E-03 0.  1.
</event>
<event>
 8    1  0.1092993E+005  0.1043930E+01  0.7957747E-01            NaN
         13   -1    0    0    0    0  0.00000000000E+00  0.00000000000E+00  0.74505805969E-08  0.10566000000E+00  0.10566000000E+00 0. -1.
     999900   -1    0    0    0    0 -0.00000000000E+00 -0.00000000000E+00 -0.74505805969E-08  0.93827000000E+00  0.93827000000E+00 0.  1.
     999902    2    1    2    0    0  0.21343153235E-01  0.10472625335E-01  0.58722100851E-02  0.10194414532E+01  0.10191472846E+01 0.  0.
     999903    2    3    3    0    0  0.91589234446E-01 -0.86752576114E-01 -0.27870362041E-01  0.13066374599E+00  0.19536123126E-01 0.  0.
         14    1    1    2    0    0 -0.21343153235E-01 -0.10472625335E-01 -0.58722100851E-02  0.24488546766E-01  0.00000000000E+00 0.  1.
     999901    1    3    3    0    0 -0.70246081211E-01  0.97225201449E-01  0.33742572126E-01  0.88877770725E+00  0.88000000000E+00 0. -1.
        -11    1    4    4    0    0  0.38110860034E-01 -0.48558843751E-01 -0.17221891989E-01  0.64087858785E-01  0.51100000000E-03 0.  1.
         11    1    4    4    0    0  0.53478374412E-01 -0.38193732363E-01 -0.10648470052E-01  0.66575887204E-01  0.51100000000E-03 0. -1.
</event>
<event>
 8    1  0.1092993E+005  0.1043930E+01  0.7957747E-01            NaN
         13   -1    0    0    0    0  0.00000000000E+00  0.00000000000E+00  0.74505805969E-08  0.10566000000E+00  0.10566000000E+00 0. -1.
     999900   -1    0    0    0    0 -0.00000000000E+00 -0.00000000000E+00 -0.74505805969E-08  0.93827000000E+00  0.93827000000E+00 0. -1.
     999902    2    1    2    0    0 -0.11865988154E-01  0.20188277271E-01  0.58457916356E-02  0.10197941036E+01  0.10195084464E+01 0.  0.
     999903    2    3    3    0    0 -0.36771820235E-01  0.13180232263E-01  0.12402602534E+00  0.13151713060E+00  0.19708257017E-01 0.  0.
         14    1    1    2    0    0  0.11865988154E-01 -0.20188277271E-01 -0.58457916356E-02  0.24135896377E-01  0.00000000000E+00 0. -1.
     999901    1    3    3    0    0  0.24905832081E-01  0.70080450086E-02 -0.11818023370E+00  0.88827697302E+00  0.88000000000E+00 0. -1.
        -11    1    4    4    0    0 -0.65698477304E-02  0.14624637923E-02  0.53269510644E-01  0.53695470803E-01  0.51100000000E-03 0. -1.
         11    1    4    4    0    0 -0.30201972505E-01  0.11717768470E-01  0.70756514692E-01  0.77821659796E-01  0.51100000000E-03 0.  1.
</event>
<event>
 8    1  0.1444070E+005  0.1043930E+01  0.7957747E-01            NaN
         13   -1    0    0    0    0  0.00000000000E+00  0.00000000000E+00  0.74505805969E-08  0.10566000000E+00  0.10566000000E+00 0.  1.
     999900   -1    0    0    0    0 -0.00000000000E+00 -0.00000000000E+00 -0.74505805969E-08  0.93827000000E+00  0.93827000000E+00 0.  1.
     999902    2    1    2    0    0 -0.23289797611E-01  0.76341076245E-02  0.23601653060E-02  0.10193075580E+01  0.10190101241E+01 0.  0.
     999903    2    3    3    0    0 -0.17089191229E-01  0.77924476593E-01  0.10178215860E+00  0.13090229219E+00  0.20286394014E-01 0.  0.
         14    1    1    2    0    0  0.23289797611E-01 -0.76341076245E-02 -0.23601653060E-02  0.24622442045E-01  0.00000000000E+00 0. -1.
     999901    1    3    3    0    0 -0.62006063824E-02 -0.70290368969E-01 -0.99421993294E-01  0.88840526577E+00  0.88000000000E+00 0.  1.
        -11    1    4    4    0    0 -0.17844192973E-01  0.57652751839E-01  0.63698157146E-01  0.87749480695E-01  0.51100000000E-03 0.  1.
         11    1    4    4    0    0  0.75500174444E-03  0.20271724754E-01  0.38084001454E-01  0.43152811495E-01  0.51100000000E-03 0. -1.
</event>
<event>
 8    1  0.1092993E+005  0.1043930E+01  0.7957747E-01            NaN
         13   -1    0    0    0    0  0.00000000000E+00  0.00000000000E+00  0.74505805969E-08  0.10566000000E+00  0.10566000000E+00 0. -1.
     999900   -1    0    0    0    0 -0.00000000000E+00 -0.00000000000E+00 -0.74505805969E-08  0.93827000000E+00  0.93827000000E+00 0.  1.
     999902    2    1    2    0    0  0.20222173277E-01  0.10037790154E-01  0.70218703132E-02  0.10202868152E+01  0.10200128358E+01 0.  0.
     999903    2    3    3    0    0  0.57250523668E-01 -0.11044178625E+00  0.35063450388E-01  0.13086410511E+00  0.20517257195E-01 0.  0.
         14    1    1    2    0    0 -0.20222173277E-01 -0.10037790154E-01 -0.70218703132E-02  0.23643184767E-01  0.00000000000E+00 0.  1.
     999901    1    3    3    0    0 -0.37028350391E-01  0.12047957641E+00 -0.28041580075E-01  0.88942271012E+00  0.88000000000E+00 0. -1.
        -11    1    4    4    0    0  0.37798726491E-01 -0.84177350545E-01  0.18088612444E-01  0.94032064160E-01  0.51100000000E-03 0. -1.
         11    1    4    4    0    0  0.19451797177E-01 -0.26264435709E-01  0.16974837944E-01  0.36832040953E-01  0.51100000000E-03 0.  1.
</event>
<event>
 8    1  0.1092993E+005  0.1043930E+01  0.7957747E-01            NaN
         13   -1    0    0    0    0  0.00000000000E+00  0.00000000000E+00  0.74505805969E-08  0.10566000000E+00  0.10566000000E+00 0. -1.
     999900   -1    0    0    0    0 -0.00000000000E+00 -0.00000000000E+00 -0.74505805969E-08  0.93827000000E+00  0.93827000000E+00 0.  1.
     999902    2    1    2    0    0  0.73146273639E-02 -0.44515158447E-02 -0.20131732829E-01  0.10220529245E+01  0.10218187579E+01 0.  0.
     999903    2    3    3    0    0  0.21310773585E-01 -0.92821655000E-01  0.87952493609E-01  0.13093712190E+00  0.18408694975E-01 0.  0.
         14    1    1    2    0    0 -0.73146273639E-02  0.44515158447E-02  0.20131732829E-01  0.21877075524E-01  0.00000000000E+00 0. -1.
     999901    1    3    3    0    0 -0.13996146221E-01  0.88370139155E-01 -0.10808422644E+00  0.89111580258E+00  0.88000000000E+00 0.  1.
        -11    1    4    4    0    0  0.22168539665E-01 -0.72412492633E-01  0.61791545009E-01  0.97741850790E-01  0.51100000000E-03 0. -1.
         11    1    4    4    0    0 -0.85776608049E-03 -0.20409162367E-01  0.26160948600E-01  0.33195271106E-01  0.51100000000E-03 0.  1.
</event>
<event>
 8    1  0.1092993E+005  0.1043930E+01  0.7957747E-01            NaN
         13   -1    0    0    0    0  0.00000000000E+00  0.00000000000E+00  0.74505805969E-08  0.10566000000E+00  0.10566000000E+00 0. -1.
     999900   -1    0    0    0    0 -0.00000000000E+00 -0.00000000000E+00 -0.74505805969E-08  0.93827000000E+00  0.93827000000E+00 0. -1.
     999902    2    1    2    0    0 -0.20431642891E-01 -0.18036034201E-02  0.12884011037E-01  0.10197080522E+01  0.10194203298E+01 0.  0.
     999903    2    3    3    0    0  0.10830739934E+00 -0.60245636181E-01 -0.25807112869E-01  0.12758350074E+00  0.15859166302E-01 0.  0.
         14    1    1    2    0    0  0.20431642891E-01  0.18036034201E-02 -0.12884011037E-01  0.24221947835E-01  0.00000000000E+00 0.  1.
     999901    1    3    3    0    0 -0.12873904223E+00  0.58442032761E-01  0.38691123906E-01  0.89212455143E+00  0.88000000000E+00 0.  1.
        -11    1    4    4    0    0  0.68591018607E-01 -0.36854976838E-01 -0.84319990429E-02  0.78322262992E-01  0.51100000000E-03 0.  1.
         11    1    4    4    0    0  0.39716380732E-01 -0.23390659343E-01 -0.17375113826E-01  0.49261237747E-01  0.51100000000E-03 0. -1.
</event>
<event>
 8    1  0.1092993E+005  0.1043930E+01  0.7957747E-01            NaN
         13   -1    0    0    0    0  0.00000000000E+00  0.00000000000E+00  0.74505805969E-08  0.10566000000E+00  0.10566000000E+00 0.  1.
     999900   -1    0    0    0    0 -0.00000000000E+00 -0.00000000000E+00 -0.74505805969E-08  0.93827000000E+00  0.93827000000E+00 0. -1.
     999902    2    1    2    0    0 -0.79671255359E-02 -0.21052890047E-01 -0.59617035748E-02  0.10206439274E+01  0.10203782560E+01 0.  0.
     999903    2    3    3    0    0  0.18480417531E-01  0.11798909123E+00 -0.43265341774E-01  0.12855441028E+00  0.19783708482E-01 0.  0.
         14    1    1    2    0    0  0.79671255359E-02  0.21052890047E-01  0.59617035748E-02  0.23286072621E-01  0.00000000000E+00 0.  1.
     999901    1    3    3    0    0 -0.26447543067E-01 -0.13904198128E+00  0.37303638199E-01  0.89208951710E+00  0.88000000000E+00 0.  1.
        -11    1    4    4    0    0  0.12571795617E-02  0.34993029962E-01 -0.21301990574E-01  0.40989371425E-01  0.51100000000E-03 0. -1.
         11    1    4    4    0    0  0.17223237969E-01  0.82996061273E-01 -0.21963351199E-01  0.87565038856E-01  0.51100000000E-03 0.  1.
</event>
<event>
 7    1  0.1092993E+005  0.1043930E+01  0.7957747E-01            NaN
         13   -1    0    0    0    0  0.00000000000E+00  0.00000000000E+00  0.74505805969E-08  0.10566000000E+00  0.10566000000E+00 0. -1.
     999900   -1    0    0    0    0 -0.00000000000E+00 -0.00000000000E+00 -0.74505805969E-08  0.93827000000E+00  0.93827000000E+00 0. -1.
     999903    2    1    2    0    0 -0.24667188528E-01  0.12130728365E+00  0.71483342555E-01  0.14437702841E+00  0.20271428483E-01 0.  0.
         14    1    1    2    0    0  0.76017017001E-02 -0.44537612788E-02 -0.11100336675E-02  0.88799793360E-02  0.00000000000E+00 0. -1.
     999901    1    1    2    0    0  0.17065486828E-01 -0.11685352237E+00 -0.70373308888E-01  0.89067299226E+00  0.88000000000E+00 0. -1.
        -11    1    3    3    0    0 -0.77268455406E-02  0.83518393339E-01  0.44542749508E-01  0.94970225980E-01  0.51100000000E-03 0.  1.
         11    1    3    3    0    0 -0.16940342988E-01  0.37788890310E-01  0.26940593047E-01  0.49406802428E-01  0.51100000000E-03 0. -1.
</event>
<event>
 8    1  0.1092993E+005  0.1043930E+01  0.7957747E-01            NaN
         13   -1    0    0    0    0  0.00000000000E+00  0.00000000000E+00  0.74505805969E-08  0.10566000000E+00  0.10566000000E+00 0.  1.
     999900   -1    0    0    0    0 -0.00000000000E+00 -0.00000000000E+00 -0.74505805969E-08  0.93827000000E+00  0.93827000000E+00 0.  1.
     999902    2    1    2    0    0  0.36098510818E-02  0.21445617678E-01 -0.83327098253E-02  0.10206409555E+01  0.10203752155E+01 0.  0.
     999903    2    3    3    0    0 -0.91055536210E-01 -0.83883743524E-01  0.28319842940E-01  0.12856516300E+00  0.19984857510E-01 0.  0.
         14    1    1    2    0    0 -0.36098510818E-02 -0.21445617678E-01  0.83327098253E-02  0.23289044537E-01  0.00000000000E+00 0.  1.
     999901    1    3    3    0    0  0.94665387292E-01  0.10532936120E+00 -0.36652552765E-01  0.89207579247E+00  0.88000000000E+00 0.  1.
        -11    1    4    4    0    0 -0.64337052541E-01 -0.48956460930E-01  0.24217697949E-01  0.84396382691E-01  0.51100000000E-03 0.  1.
         11    1    4    4    0    0 -0.26718483669E-01 -0.34927282594E-01  0.41021449910E-02  0.44168780304E-01  0.51100000000E-03 0. -1.
</event>
<event>
 8    1  0.1092993E+005  0.1043930E+01  0.7957747E-01            NaN
         13   -1    0    0    0    0  0.00000000000E+00  0.00000000000E+00  0.74505805969E-08  0.10566000000E+00  0.10566000000E+00 0. -1.
     999900   -1    0    0    0    0 -0.00000000000E+00 -0.00000000000E+00 -0.74505805969E-08  0.93827000000E+00  0.93827000000E+00 0.  1.
     999902    2    1    2    0    0 -0.29987826773E-02  0.11268693218E-01 -0.22279157624E-01  0.10187836880E+01  0.10184733015E+01 0.  0.
     999903    2    3    3    0    0  0.42025775705E-01  0.10270003584E+00  0.62822353041E-01  0.12882348190E+00  0.18313335624E-01 0.  0.
         14    1    1    2    0    0  0.29987826773E-02 -0.11268693218E-01  0.22279157624E-01  0.25146312032E-01  0.00000000000E+00 0. -1.
     999901    1    3    3    0    0 -0.45024558382E-01 -0.91431342622E-01 -0.85101510665E-01  0.88996020607E+00  0.88000000000E+00 0.  1.
        -11    1    4    4    0    0  0.18408506991E-01  0.24886461608E-01  0.20694413206E-01  0.37238809862E-01  0.51100000000E-03 0. -1.
         11    1    4    4    0    0  0.23617268714E-01  0.77813574231E-01  0.42127939835E-01  0.91584672035E-01  0.51100000000E-03 0.  1.
</event>
<event>
 8    1  0.1092993E+005  0.1043930E+01  0.7957747E-01            NaN
         13   -1    0    0    0    0  0.00000000000E+00  0.00000000000E+00  0.74505805969E-08  0.10566000000E+00  0.10566000000E+00 0.  1.
     999900   -1    0    0    0    0 -0.00000000000E+00 -0.00000000000E+00 -0.74505805969E-08  0.93827000000E+00  0.93827000000E+00 0.  1.
     999902    2    1    2    0    0  0.19946132817E-01  0.59515067245E-02 -0.10806797421E-01  0.10204767376E+01  0.10202071929E+01 0.  0.
     999903    2    3    3    0    0  0.12010732505E+00 -0.18297899146E-01 -0.51630633534E-01  0.13352302759E+00  0.20052279975E-01 0.  0.
         14    1    1    2    0    0 -0.19946132817E-01 -0.59515067245E-02  0.10806797421E-01  0.23453262398E-01  0.00000000000E+00 0. -1.
     999901    1    3    3    0    0 -0.10016119224E+00  0.24249405870E-01  0.40823836113E-01  0.88695371002E+00  0.88000000000E+00 0.  1.
        -11    1    4    4    0    0  0.57191224595E-01 -0.55095836674E-02 -0.34700985812E-01  0.67123849861E-01  0.51100000000E-03 0. -1.
         11    1    4    4    0    0  0.62916100457E-01 -0.12788315478E-01 -0.16929647722E-01  0.66399177725E-01  0.51100000000E-03 0.  1.
</event>
<event>
 8    1  0.1092993E+005  0.1043930E+01  0.7957747E-01            NaN
         13   -1    0    0    0    0  0.00000000000E+00  0.00000000000E+00  0.74505805969E-08  0.10566000000E+00  0.10566000000E+00 0. -1.
     999900   -1    0    0    0    0 -0.00000000000E+00 -0.00000000000E+00 -0.74505805969E-08  0.93827000000E+00  0.93827000000E+00 0. -1.
     999902    2    1    2    0    0  0.55915359201E-02  0.41661606636E-02 -0.22099626847E-01  0.10207564013E+01  0.10204933195E+01 0.  0.
     999903    2    3    3    0    0  0.30895832409E-01  0.52960837233E-01  0.11162839997E+00  0.12895798631E+00  0.20244994748E-01 0.  0.
         14    1    1    2    0    0 -0.55915359201E-02 -0.41661606636E-02  0.22099626847E-01  0.23173598671E-01  0.00000000000E+00 0. -1.
     999901    1    3    3    0    0 -0.25304296489E-01 -0.48794676570E-01 -0.13372802681E+00  0.89179841502E+00  0.88000000000E+00 0. -1.
        -11    1    4    4    0    0  0.25112550267E-01  0.36672816799E-01  0.95384513925E-01  0.10523308553E+00  0.51100000000E-03 0.  1.
         11    1    4    4    0    0  0.57832821421E-02  0.16288020434E-01  0.16243886041E-01  0.23724900773E-01  0.51100000000E-03 0. -1.
</event>
<event>
 8    1  0.1092993E+005  0.1043930E+01  0.7957747E-01            NaN
         13   -1    0    0    0    0  0.00000000000E+00  0.00000000000E+00  0.74505805969E-08  0.10566000000E+00  0.10566000000E+00 0.  1.
     999900   -1    0    0    0    0 -0.00000000000E+00 -0.00000000000E+00 -0.74505805969E-08  0.93827000000E+00  0.93827000000E+00 0.  1.
     999902    2    1    2    0    0  0.55374991729E-02 -0.23967003006E-01 -0.90520605950E-03  0.10193149532E+01  0.10190177002E+01 0.  0.
     999903    2    3    3    0    0 -0.71988242580E-01  0.88618758152E-01  0.52933219060E-01  0.12713539154E+00  0.18052444050E-01 0.  0.
         14    1    1    2    0    0 -0.55374991729E-02  0.23967003006E-01  0.90520605950E-03  0.24615046784E-01  0.00000000000E+00 0. -1.
     999901    1    3    3    0    0  0.77525741753E-01 -0.11258576116E+00 -0.53838425119E-01  0.89217956167E+00  0.88000000000E+00 0.  1.
        -11    1    4    4    0    0 -0.59783424198E-01  0.76049131258E-01  0.51393624048E-01  0.10954037561E+00  0.51100000000E-03 0. -1.
         11    1    4    4    0    0 -0.12204818382E-01  0.12569626894E-01  0.15395950118E-02  0.17595015936E-01  0.51100000000E-03 0.  1.
</event>
<event>
 8    1  0.1092993E+005  0.1043930E+01  0.7957747E-01            NaN
         13   -1    0    0    0    0  0.00000000000E+00  0.00000000000E+00  0.74505805969E-08  0.10566000000E+00  0.10566000000E+00 0.  1.
     999900   -1    0    0    0    0 -0.00000000000E+00 -0.00000000000E+00 -0.74505805969E-08  0.93827000000E+00  0.93827000000E+00 0.  1.
     999902    2    1    2    0    0  0.13277473114E-02 -0.98912323006E-02  0.20383248051E-01  0.10212347099E+01  0.10209824957E+01 0.  0.
     999903    2    3    3    0    0  0.68964715465E-01 -0.11041335933E+00 -0.12315472008E-01  0.13233164224E+00  0.20316269113E-01 0.  0.
         14    1    1    2    0    0 -0.13277473114E-02  0.98912323006E-02 -0.20383248051E-01  0.22695290050E-01  0.00000000000E+00 0. -1.
     999901    1    3    3    0    0 -0.67636968153E-01  0.10052212703E+00  0.32698720059E-01  0.88890306771E+00  0.88000000000E+00 0.  1.
        -11    1    4    4    0    0  0.65763230431E-01 -0.92373227692E-01 -0.95341752138E-02  0.11379269436E+00  0.51100000000E-03 0. -1.
         11    1    4    4    0    0  0.32014850341E-02 -0.18040131637E-01 -0.27812967943E-02  0.18538947887E-01  0.51100000000E-03 0.  1.
</event>
<event>
 8    1  0.1092993E+005  0.1043930E+01  0.7957747E-01            NaN
         13   -1    0    0    0    0  0.00000000000E+00  0.00000000000E+00  0.74505805969E-08  0.10566000000E+00  0.10566000000E+00 0.  1.
     999900   -1    0    0    0    0 -0.00000000000E+00 -0.00000000000E+00 -0.74505805969E-08  0.93827000000E+00  0.93827000000E+00 0. -1.
     999902    2    1    2    0    0 -0.12761213778E-01 -0.12444491167E-01  0.18358530172E-01  0.10183419253E+01  0.10180203963E+01 0.  0.
     999903    2    3    3    0    0  0.78577496071E-01 -0.10015807486E+00 -0.58088088673E-02  0.12894859669E+00  0.19696077727E-01 0.  0.
         14    1    1    2    0    0  0.12761213778E-01  0.12444491167E-01 -0.18358530172E-01  0.25588074714E-01  0.00000000000E+00 0.  1.
     999901    1    3    3    0    0 -0.91338709849E-01  0.87713583696E-01  0.24167339039E-01  0.88939332860E+00  0.88000000000E+00 0. -1.
        -11    1    4    4    0    0  0.33796412999E-01 -0.36715337825E-01 -0.11055982330E-01  0.51114669416E-01  0.51100000000E-03 0. -1.
         11    1    4    4    0    0  0.44781083072E-01 -0.63442737038E-01  0.52471734629E-02  0.77833927270E-01  0.51100000000E-03 0.  1.
</event>
<event>
 8    1  0.1092993E+005  0.1043930E+01  0.7957747E-01            NaN
         13   -1    0    0    0    0  0.00000000000E+00  0.00000000000E+00  0.74505805969E-08  0.10566000000E+00  0.10566000000E+00 0. -1.
     999900   -1    0    0    0    0 -0.00000000000E+00 -0.00000000000E+00 -0.74505805969E-08  0.93827000000E+00  0.93827000000E+00 0.  1.
     999902    2    1    2    0    0  0.12356502093E-01  0.63422037431E-02 -0.19978994009E-01  0.10195975753E+01  0.10193071905E+01 0.  0.
     999903    2    3    3    0    0 -0.22261460264E-01  0.10562517594E+00 -0.73338677616E-01  0.13173341463E+00  0.17968875582E-01 0.  0.
         14    1    1    2    0    0 -0.12356502093E-01 -0.63422037431E-02  0.19978994009E-01  0.24332424744E-01  0.00000000000E+00 0. -1.
     999901    1    3    3    0    0  0.34617962358E-01 -0.99282972201E-01  0.53359683607E-01  0.88786416062E+00  0.88000000000E+00 0. -1.
        -11    1    4    4    0    0 -0.12676778771E-01  0.86399397147E-01 -0.64183245329E-01  0.10837576597E+00  0.51100000000E-03 0. -1.
         11    1    4    4    0    0 -0.95846814933E-02  0.19225778798E-01 -0.91554322871E-02  0.23357648663E-01  0.51100000000E-03 0.  1.
</event>
<event>
 8    1  0.1092993E+005  0.1043930E+01  0.7957747E-01            NaN
         13   -1    0    0    0    0  0.00000000000E+00  0.00000000000E+00  0.74505805969E-08  0.10566000000E+00  0.10566000000E+00 0. -1.
     999900   -1    0    0    0    0 -0.00000000000E+00 -0.00000000000E+00 -0.74505805969E-08  0.93827000000E+00  0.93827000000E+00 0. -1.
     999902    2    1    2    0    0 -0.86639951386E-02 -0.94849114368E-02  0.19757173513E-01  0.10203636201E+01  0.10200914385E+01 0.  0.
     999903    2    3    3    0    0  0.16693490149E-01 -0.27560628545E-01  0.12772276379E+00  0.13321859120E+00  0.19895421360E-01 0.  0.
         14    1    1    2    0    0  0.86639951386E-02  0.94849114368E-02 -0.19757173513E-01  0.23566379907E-01  0.00000000000E+00 0.  1.
     999901    1    3    3    0    0 -0.25357485287E-01  0.18075717108E-01 -0.10796559028E+00  0.88714502890E+00  0.88000000000E+00 0. -1.
        -11    1    4    4    0    0  0.11487724860E-01 -0.27591157187E-02  0.29598137822E-01  0.31873051714E-01  0.51100000000E-03 0. -1.
         11    1    4    4    0    0  0.52057652884E-02 -0.24801512826E-01  0.98124625969E-01  0.10134553948E+00  0.51100000000E-03 0.  1.
</event>
<event>
 8    1  0.1092993E+005  0.1043930E+01  0.7957747E-01            NaN
         13   -1    0    0    0    0  0.00000000000E+00  0.00000000000E+00  0.74505805969E-08  0.10566000000E+00  0.10566000000E+00 0.  1.
     999900   -1    0    0    0    0 -0.00000000000E+00 -0.00000000000E+00 -0.74505805969E-08  0.93827000000E+00  0.93827000000E+00 0. -1.
     999902    2    1    2    0    0  0.20526725319E-01  0.78062467503E-02 -0.81847217176E-02  0.10204934130E+01  0.10202242559E+01 0.  0.
     999903    2    3    3    0    0 -0.83281525404E-01 -0.63906884464E-01 -0.72354136877E-01  0.12918166061E+00  0.20805719384E-01 0.  0.
         14    1    1    2    0    0 -0.20526725319E-01 -0.78062467503E-02  0.81847217176E-02  0.23436587001E-01  0.00000000000E+00 0. -1.
     999901    1    3    3    0    0  0.10380825072E+00  0.71713131214E-01  0.64169415159E-01  0.89131175239E+00  0.88000000000E+00 0.  1.
        -11    1    4    4    0    0 -0.54006052536E-01 -0.48240045388E-01 -0.39589014134E-01  0.82530641889E-01  0.51100000000E-03 0. -1.
         11    1    4    4    0    0 -0.29275472868E-01 -0.15666839077E-01 -0.32765122742E-01  0.46651018720E-01  0.51100000000E-03 0.  1.
</event>
<event>
 8    1  0.1092993E+005  0.1043930E+01  0.7957747E-01            NaN
         13   -1    0    0    0    0  0.00000000000E+00  0.00000000000E+00  0.74505805969E-08  0.10566000000E+00  0.10566000000E+00 0.  1.
     999900   -1    0    0    0    0 -0.00000000000E+00 -0.00000000000E+00 -0.74505805969E-08  0.93827000000E+00  0.93827000000E+00 0. -1.
     999902    2    1    2    0    0  0.11956425644E-01  0.31759322147E-01  0.51762449789E-02  0.10096021080E+01  0.10090183409E+01 0.  0.
     999903    2    3    3    0    0  0.17791361788E-01  0.10866725806E+00  0.55263881161E-01  0.12480967562E+00  0.19956278186E-01 0.  0.
         14    1    1    2    0    0 -0.11956425644E-01 -0.31759322147E-01 -0.51762449789E-02  0.34327892005E-01  0.00000000000E+00 0.  1.
     999901    1    3    3    0    0 -0.58349361439E-02 -0.76907935915E-01 -0.50087636182E-01  0.88479243237E+00  0.88000000000E+00 0. -1.
        -11    1    4    4    0    0  0.14642384053E-01  0.54955976036E-01  0.37591610011E-01  0.68175867997E-01  0.51100000000E-03 0. -1.
         11    1    4    4    0    0  0.31489777349E-02  0.53711282025E-01  0.17672271150E-01  0.56633807625E-01  0.51100000000E-03 0.  1.
</event>
<event>
 8    1  0.1092993E+005  0.1043930E+01  0.7957747E-01            NaN
         13   -1    0    0    0    0  0.00000000000E+00  0.00000000000E+00  0.74505805969E-08  0.10566000000E+00  0.10566000000E+00 0.  1.
     999900   -1    0    0    0    0 -0.00000000000E+00 -0.00000000000E+00 -0.74505805969E-08  0.93827000000E+00  0.93827000000E+00 0.  1.
     999902    2    1    2    0    0  0.22849201098E-01 -0.89130508703E-03 -0.64993019769E-02  0.10201577190E+01  0.10198807040E+01 0.  0.
     999903    2    3    3    0    0 -0.66415267836E-01  0.98291606982E-01  0.45308699675E-01  0.12859198143E+00  0.20267994874E-01 0.  0.
         14    1    1    2    0    0 -0.22849201098E-01  0.89130508703E-03  0.64993019769E-02  0.23772280954E-01  0.00000000000E+00 0. -1.
     999901    1    3    3    0    0  0.89264468934E-01 -0.99182912069E-01 -0.51808001652E-01  0.89156573762E+00  0.88000000000E+00 0. -1.
        -11    1    4    4    0    0 -0.24720849879E-01  0.36415737456E-01  0.65187580336E-02  0.44496985072E-01  0.51100000000E-03 0.  1.
         11    1    4    4    0    0 -0.41694417957E-01  0.61875869527E-01  0.38789941641E-01  0.84094996355E-01  0.51100000000E-03 0. -1.
</event>
<event>
 8    1  0.1092993E+005  0.1043930E+01  0.7957747E-01            NaN
         13   -1    0    0    0    0  0.00000000000E+00  0.00000000000E+00  0.74505805969E-08  0.10566000000E+00  0.10566000000E+00 0.  1.
     999900   -1    0    0    0    0 -0.00000000000E+00 -0.00000000000E+00 -0.74505805969E-08  0.93827000000E+00  0.93827000000E+00 0.  1.
     999902    2    1    2    0    0  0.23791566648E-01  0.29436218437E-02 -0.44145652909E-03  0.10199529602E+01  0.10196710953E+01 0.  0.
     999903    2    3    3    0    0 -0.10562936569E+00 -0.68011888980E-01 -0.84596474809E-02  0.12762524372E+00  0.20819636408E-01 0.  0.
         14    1    1    2    0    0 -0.23791566648E-01 -0.29436218437E-02  0.44145652909E-03  0.23977039788E-01  0.00000000000E+00 0.  1.
     999901    1    3    3    0    0  0.12942093233E+00  0.70955510823E-01  0.80181909518E-02  0.89232771650E+00  0.88000000000E+00 0. -1.
        -11    1    4    4    0    0 -0.57238726161E-01 -0.34711525698E-01  0.57418681355E-02  0.67189225026E-01  0.51100000000E-03 0. -1.
         11    1    4    4    0    0 -0.48390639525E-01 -0.33300363281E-01 -0.14201515616E-01  0.60436018690E-01  0.51100000000E-03 0.  1.
</event>
<event>
 8    1  0.1092993E+005  0.1043930E+01  0.7957747E-01            NaN
         13   -1    0    0    0    0  0.00000000000E+00  0.00000000000E+00  0.74505805969E-08  0.10566000000E+00  0.10566000000E+00 0. -1.
     999900   -1    0    0    0    0 -0.00000000000E+00 -0.00000000000E+00 -0.74505805969E-08  0.93827000000E+00  0.93827000000E+00 0. -1.
     999902    2    1    2    0    0 -0.19738324439E-01  0.10919465641E-01  0.12577206438E-03  0.10213722519E+01  0.10211231194E+01 0.  0.
     999903    2    3    3    0    0  0.92748641981E-01  0.82955219492E-01 -0.32412476535E-01  0.13069767322E+00  0.23397310111E-01 0.  0.
         14    1    1    2    0    0  0.19738324439E-01 -0.10919465641E-01 -0.12577206438E-03  0.22557748118E-01  0.00000000000E+00 0.  1.
     999901    1    3    3    0    0 -0.11248696642E+00 -0.72035753850E-01  0.32538248600E-01  0.89067457866E+00  0.88000000000E+00 0.  1.
        -11    1    4    4    0    0  0.79088072593E-01  0.57725276870E-01 -0.25514595585E-01  0.10118491254E+00  0.51100000000E-03 0.  1.
         11    1    4    4    0    0  0.13660569388E-01  0.25229942622E-01 -0.68978809505E-02  0.29512760686E-01  0.51100000000E-03 0. -1.
</event>
<event>
 8    1  0.1092993E+005  0.1043930E+01  0.7957747E-01            NaN
         13   -1    0    0    0    0  0.00000000000E+00  0.00000000000E+00  0.74505805969E-08  0.10566000000E+00  0.10566000000E+00 0.  1.
     999900   -1    0    0    0    0 -0.00000000000E+00 -0.00000000000E+00 -0.74505805969E-08  0.93827000000E+00  0.93827000000E+00 0. -1.
     999902    2    1    2    0    0 -0.50978706361E-02  0.15591240604E-02  0.22942790823E-01  0.10203760024E+01  0.10201041101E+01 0.  0.
     999903    2    3    3    0    0 -0.55286928660E-01  0.73082105931E-01 -0.88626348070E-01  0.12903871985E+00  0.19968048505E-01 0.  0.
         14    1    1    2    0    0  0.50978706361E-02 -0.15591240604E-02 -0.22942790823E-01  0.23553997614E-01  0.00000000000E+00 0. -1.
     999901    1    3    3    0    0  0.50189058024E-01 -0.71522981870E-01  0.11156913889E+00  0.89133728253E+00  0.88000000000E+00 0.  1.
        -11    1    4    4    0    0 -0.10573693252E-01  0.23528729300E-01 -0.15807775170E-01  0.30258072779E-01  0.51100000000E-03 0.  1.
         11    1    4    4    0    0 -0.44713235409E-01  0.49553376631E-01 -0.72818572900E-01  0.98780647074E-01  0.51100000000E-03 0. -1.
</event>
<event>
 8    1  0.1092993E+005  0.1043930E+01  0.7957747E-01            NaN
         13   -1    0    0    0    0  0.00000000000E+00  0.00000000000E+00  0.74505805969E-08  0.10566000000E+00  0.10566000000E+00 0.  1.
     999900   -1    0    0    0    0 -0.00000000000E+00 -0.00000000000E+00 -0.74505805969E-08  0.93827000000E+00  0.93827000000E+00 0. -1.
     999902    2    1    2    0    0 -0.92443600447E-02 -0.21934904468E-01 -0.85082044328E-02  0.10186517926E+01  0.10183381004E+01 0.  0.
     999903    2    3    3    0    0 -0.31722921390E-01 -0.46317398376E-01  0.11489126635E+00  0.12942335113E+00  0.19968865784E-01 0.  0.
         14    1    1    2    0    0  0.92443600447E-02  0.21934904468E-01  0.85082044328E-02  0.25278207399E-01  0.00000000000E+00 0.  1.
     999901    1    3    3    0    0  0.22478561345E-01  0.24382493908E-01 -0.12339947078E+00  0.88922844147E+00  0.88000000000E+00 0. -1.
        -11    1    4    4    0    0 -0.22291431481E-01 -0.29582228682E-01  0.53337876434E-01  0.64940021210E-01  0.51100000000E-03 0.  1.
         11    1    4    4    0    0 -0.94314899093E-02 -0.16735169693E-01  0.61553389915E-01  0.64483329921E-01  0.51100000000E-03 0. -1.
</event>
<event>
 8    1  0.1092993E+005  0.1043930E+01  0.7957747E-01            NaN
         13   -1    0    0    0    0  0.00000000000E+00  0.00000000000E+00  0.74505805969E-08  0.10566000000E+00  0.10566000000E+00 0. -1.
     999900   -1    0    0    0    0 -0.00000000000E+00 -0.00000000000E+00 -0.74505805969E-08  0.93827000000E+00  0.93827000000E+00 0.  1.
     999902    2    1    2    0    0 -0.18052639661E-01 -0.57905562004E-02 -0.13420779377E-01  0.10207018778E+01  0.10204375423E+01 0.  0.
     999903    2    3    3    0    0 -0.45069126464E-03  0.12202787966E+00  0.39142858383E-01  0.12974154363E+00  0.20241004032E-01 0.  0.
         14    1    1    2    0    0  0.18052639661E-01  0.57905562004E-02  0.13420779377E-01  0.23228122157E-01  0.00000000000E+00 0. -1.
     999901    1    3    3    0    0 -0.17601948397E-01 -0.12781843586E+00 -0.52563637759E-01  0.89096033422E+00  0.88000000000E+00 0. -1.
        -11    1    4    4    0    0  0.77896167986E-02  0.58397424639E-01  0.12288872489E-01  0.60184838974E-01  0.51100000000E-03 0.  1.
         11    1    4    4    0    0 -0.82403080632E-02  0.63630455018E-01  0.26853985894E-01  0.69556704652E-01  0.51100000000E-03 0. -1.
</event>
<event>
 8    1  0.1092993E+005  0.1043930E+01  0.7957747E-01            NaN
         13   -1    0    0    0    0  0.00000000000E+00  0.00000000000E+00  0.74505805969E-08  0.10566000000E+00  0.10566000000E+00 0. -1.
     999900   -1    0    0    0    0 -0.00000000000E+00 -0.00000000000E+00 -0.74505805969E-08  0.93827000000E+00  0.93827000000E+00 0. -1.
     999902    2    1    2    0    0  0.16091545607E-01 -0.11165930217E-01  0.13309826847E-01  0.10202494736E+01  0.10199746179E+01 0.  0.
     999903    2    3    3    0    0  0.71724266505E-01  0.48330061998E-01 -0.94893123882E-01  0.12988850681E+00  0.19650800046E-01 0.  0.
         14    1    1    2    0    0 -0.16091545607E-01  0.11165930217E-01 -0.13309826847E-01  0.23680526352E-01  0.00000000000E+00 0.  1.
     999901    1    3    3    0    0 -0.55632720898E-01 -0.59495992215E-01  0.10820295073E+00  0.89036096684E+00  0.88000000000E+00 0.  1.
        -11    1    4    4    0    0  0.54081209058E-01  0.41600852327E-01 -0.63266138116E-01  0.93049843851E-01  0.51100000000E-03 0. -1.
         11    1    4    4    0    0  0.17643057446E-01  0.67292096706E-02 -0.31626985766E-01  0.36838662958E-01  0.51100000000E-03 0.  1.
</event>
<event>
 8    1  0.1092993E+005  0.1043930E+01  0.7957747E-01            NaN
         13   -1    0    0    0    0  0.00000000000E+00  0.00000000000E+00  0.74505805969E-08  0.10566000000E+00  0.10566000000E+00 0. -1.
     999900   -1    0    0    0    0 -0.00000000000E+00 -0.00000000000E+00 -0.74505805969E-08  0.93827000000E+00  0.93827000000E+00 0. -1.
     999902    2    1    2    0    0 -0.17053401045E-01 -0.24341015130E-02 -0.15691715344E-01  0.10206282132E+01  0.10203621790E+01 0.  0.
     999903    2    3    3    0    0  0.51918561912E-01 -0.22936952268E-02  0.11542644358E+00  0.12824425829E+00  0.20555480994E-01 0.  0.
         14    1    1    2    0    0  0.17053401045E-01  0.24341015130E-02  0.15691715344E-01  0.23301786794E-01  0.00000000000E+00 0. -1.
     999901    1    3    3    0    0 -0.68971962957E-01 -0.14040628619E-03 -0.13111815892E+00  0.89238395491E+00  0.88000000000E+00 0. -1.
        -11    1    4    4    0    0  0.40397989504E-01 -0.32468622663E-02  0.10543154955E+00  0.11295402796E+00  0.51100000000E-03 0.  1.
         11    1    4    4    0    0  0.11520572409E-01  0.95316703949E-03  0.99948940296E-02  0.15290230335E-01  0.51100000000E-03 0. -1.
</event>
<event>
 8    1  0.1092993E+005  0.1043930E+01  0.7957747E-01            NaN
         13   -1    0    0    0    0  0.00000000000E+00  0.00000000000E+00  0.74505805969E-08  0.10566000000E+00  0.10566000000E+00 0. -1.
     999900   -1    0    0    0    0 -0.00000000000E+00 -0.00000000000E+00 -0.74505805969E-08  0.93827000000E+00  0.93827000000E+00 0.  1.
     999902    2    1    2    0    0 -0.13616059212E-02  0.10740671791E-01 -0.22240139357E-01  0.10191946043E+01  0.10188944016E+01 0.  0.
     999903    2    3    3    0    0 -0.11908871838E+00 -0.40551416894E-01  0.19541038372E-01  0.12889340911E+00  0.20127555072E-01 0.  0.
         14    1    1    2    0    0  0.13616059212E-02 -0.10740671791E-01  0.22240139357E-01  0.24735395687E-01  0.00000000000E+00 0. -1.
     999901    1    3    3    0    0  0.11772711246E+00  0.51292088685E-01 -0.41781177729E-01  0.89030119520E+00  0.88000000000E+00 0.  1.
        -11    1    4    4    0    0 -0.38023322600E-01 -0.17210988013E-01 -0.21287026043E-02  0.41794541099E-01  0.51100000000E-03 0. -1.
         11    1    4    4    0    0 -0.81065395781E-01 -0.23340428882E-01  0.21669740977E-01  0.87098868009E-01  0.51100000000E-03 0.  1.
</event>
<event>
 8    1  0.1092993E+005  0.1043930E+01  0.7957747E-01            NaN
         13   -1    0    0    0    0  0.00000000000E+00  0.00000000000E+00  0.74505805969E-08  0.10566000000E+00  0.10566000000E+00 0. -1.
     999900   -1    0    0    0    0 -0.00000000000E+00 -0.00000000000E+00 -0.74505805969E-08  0.93827000000E+00  0.93827000000E+00 0. -1.
     999902    2    1    2    0    0  0.16795864036E-01  0.16727699144E-01  0.28070863440E-02  0.10200595852E+01  0.10197802512E+01 0.  0.
     999903    2    3    3    0    0  0.75115787633E-02 -0.58988157023E-01  0.11373967330E+00  0.12982078150E+00  0.19511420806E-01 0.  0.
         14    1    1    2    0    0 -0.16795864036E-01 -0.16727699144E-01 -0.28070863440E-02  0.23870414766E-01  0.00000000000E+00 0.  1.
     999901    1    3    3    0    0  0.92842852728E-02  0.75715856167E-01 -0.11093258696E+00  0.89023880374E+00  0.88000000000E+00 0. -1.
        -11    1    4    4    0    0  0.87920723355E-02 -0.17371591453E-01  0.24132704510E-01  0.31011631262E-01  0.51100000000E-03 0.  1.
         11    1    4    4    0    0 -0.12804935721E-02 -0.41616565571E-01  0.89606968790E-01  0.98809150236E-01  0.51100000000E-03 0. -1.
</event>
<event>
 8    1  0.1092993E+005  0.1043930E+01  0.7957747E-01            NaN
         13   -1    0    0    0    0  0.00000000000E+00  0.00000000000E+00  0.74505805969E-08  0.10566000000E+00  0.10566000000E+00 0.  1.
     999900   -1    0    0    0    0 -0.00000000000E+00 -0.00000000000E+00 -0.74505805969E-08  0.93827000000E+00  0.93827000000E+00 0. -1.
     999902    2    1    2    0    0 -0.11693830198E-01  0.20304667747E-01  0.52564115953E-02  0.10199163568E+01  0.10196336204E+01 0.  0.
     999903    2    3    3    0    0 -0.87449929569E-02  0.85370751198E-01  0.99022394371E-01  0.13254137947E+00  0.19928437557E-01 0.  0.
         14    1    1    2    0    0  0.11693830198E-01 -0.20304667747E-01 -0.52564115953E-02  0.24013643203E-01  0.00000000000E+00 0. -1.
     999901    1    3    3    0    0 -0.29488372413E-02 -0.65066083451E-01 -0.93765982775E-01  0.88737497733E+00  0.88000000000E+00 0. -1.
        -11    1    4    4    0    0  0.30527198114E-02  0.33702310745E-01  0.28014934306E-01  0.43934752907E-01  0.51100000000E-03 0. -1.
         11    1    4    4    0    0 -0.11797712768E-01  0.51668440453E-01  0.71007460065E-01  0.88606626565E-01  0.51100000000E-03 0.  1.
</event>
<event>
 8    1  0.1092993E+005  0.1043930E+01  0.7957747E-01            NaN
         13   -1    0    0    0    0  0.00000000000E+00  0.00000000000E+00  0.74505805969E-08  0.10566000000E+00  0.10566000000E+00 0. -1.
     999900   -1    0    0    0    0 -0.00000000000E+00 -0.00000000000E+00 -0.74505805969E-08  0.93827000000E+00  0.93827000000E+00 0.  1.
     999902    2    1    2    0    0 -0.18684441825E-01 -0.11429447575E-01  0.90731370530E-02  0.10202221436E+01  0.10199466456E+01 0.  0.
     999903    2    3    3    0    0 -0.10125773456E+00  0.76829190896E-01 -0.26087208460E-01  0.13126534724E+00  0.19854358693E-01 0.  0.
         14    1    1    2    0    0  0.18684441825E-01  0.11429447575E-01 -0.90731370530E-02  0.23707856381E-01  0.00000000000E+00 0.  1.
     999901    1    3    3    0    0  0.82573292730E-01 -0.88258638471E-01  0.35160345513E-01  0.88895679638E+00  0.88000000000E+00 0. -1.
        -11    1    4    4    0    0 -0.26342553095E-01  0.19475305803E-01  0.19941685837E-02  0.32824616815E-01  0.51100000000E-03 0. -1.
         11    1    4    4    0    0 -0.74915181460E-01  0.57353885093E-01 -0.28081377044E-01  0.98440730423E-01  0.51100000000E-03 0.  1.
</event>
<event>
 8    1  0.1092993E+005  0.1043930E+01  0.7957747E-01            NaN
         13   -1    0    0    0    0  0.00000000000E+00  0.00000000000E+00  0.74505805969E-08  0.10566000000E+00  0.10566000000E+00 0.  1.
     999900   -1    0    0    0    0 -0.00000000000E+00 -0.00000000000E+00 -0.74505805969E-08  0.93827000000E+00  0.93827000000E+00 0. -1.
     999902    2    1    2    0    0  0.66205766052E-02  0.20223801782E-01 -0.10454993560E-01  0.10202204854E+01  0.10199449484E+01 0.  0.
     999903    2    3    3    0    0 -0.11604502381E+00 -0.52387321820E-01  0.76663265129E-02  0.12856606407E+00  0.16111524759E-01 0.  0.
         14    1    1    2    0    0 -0.66205766052E-02 -0.20223801782E-01  0.10454993560E-01  0.23709514618E-01  0.00000000000E+00 0. -1.
     999901    1    3    3    0    0  0.12266560042E+00  0.72611123602E-01 -0.18121320073E-01  0.89165442131E+00  0.88000000000E+00 0.  1.
        -11    1    4    4    0    0 -0.22795160732E-01 -0.43263869844E-02  0.43101757394E-02  0.23604569749E-01  0.51100000000E-03 0.  1.
         11    1    4    4    0    0 -0.93249863080E-01 -0.48060934836E-01  0.33561507736E-02  0.10496149432E+00  0.51100000000E-03 0. -1.
</event>
<event>
 8    1  0.1092993E+005  0.1043930E+01  0.7957747E-01            NaN
         13   -1    0    0    0    0  0.00000000000E+00  0.00000000000E+00  0.74505805969E-08  0.10566000000E+00  0.10566000000E+00 0.  1.
     999900   -1    0    0    0    0 -0.00000000000E+00 -0.00000000000E+00 -0.74505805969E-08  0.93827000000E+00  0.93827000000E+00 0. -1.
     999902    2    1    2    0    0  0.90995197960E-03  0.84214619227E-02  0.21565206609E-01  0.10207609005E+01  0.10204979221E+01 0.  0.
     999903    2    3    3    0    0  0.26056235460E-01  0.49184600158E-02  0.12944595769E+00  0.13380945709E+00  0.21109149395E-01 0.  0.
         14    1    1    2    0    0 -0.90995197960E-03 -0.84214619227E-02 -0.21565206609E-01  0.23169099456E-01  0.00000000000E+00 0. -1.
     999901    1    3    3    0    0 -0.25146283480E-01  0.35030019069E-02 -0.10788075108E+00  0.88695144346E+00  0.88000000000E+00 0. -1.
        -11    1    4    4    0    0  0.18433213032E-01  0.11423501768E-01  0.10766222359E+00  0.10982574946E+00  0.51100000000E-03 0. -1.
         11    1    4    4    0    0  0.76230224275E-02 -0.65050417521E-02  0.21783734104E-01  0.23983707630E-01  0.51100000000E-03 0.  1.
</event>
<event>
 8    1  0.1092993E+005  0.1043930E+01  0.7957747E-01            NaN
         13   -1    0    0    0    0  0.00000000000E+00  0.00000000000E+00  0.74505805969E-08  0.10566000000E+00  0.10566000000E+00 0.  1.
     999900   -1    0    0    0    0 -0.00000000000E+00 -0.00000000000E+00 -0.74505805969E-08  0.93827000000E+00  0.93827000000E+00 0.  1.
     999902    2    1    2    0    0  0.77620326219E-02  0.16588288468E-01  0.12945449321E-01  0.10215022243E+01  0.10212559861E+01 0.  0.
     999903    2    3    3    0    0  0.75578486308E-01 -0.10239381831E+00  0.22186620280E-01  0.13086132452E+00  0.20876745759E-01 0.  0.
         14    1    1    2    0    0 -0.77620326219E-02 -0.16588288468E-01 -0.12945449321E-01  0.22427775700E-01  0.00000000000E+00 0. -1.
     999901    1    3    3    0    0 -0.67816453686E-01  0.11898210678E+00 -0.92411709591E-02  0.89064089978E+00  0.88000000000E+00 0.  1.
        -11    1    4    4    0    0  0.28602165125E-02 -0.84827604827E-02 -0.29811873094E-02  0.94491620094E-02  0.51100000000E-03 0. -1.
         11    1    4    4    0    0  0.72718269796E-01 -0.93911057831E-01  0.25167807590E-01  0.12141216251E+00  0.51100000000E-03 0.  1.
</event>
<event>
 8    1  0.1092993E+005  0.1043930E+01  0.7957747E-01            NaN
         13   -1    0    0    0    0  0.00000000000E+00  0.00000000000E+00  0.74505805969E-08  0.10566000000E+00  0.10566000000E+00 0.  1.
     999900   -1    0    0    0    0 -0.00000000000E+00 -0.00000000000E+00 -0.74505805969E-08  0.93827000000E+00  0.93827000000E+00 0.  1.
     999902    2    1    2    0    0 -0.54781953882E-02 -0.36278624199E-02 -0.20807228708E-01  0.10221099914E+01  0.10218770580E+01 0.  0.
     999903    2    3    3    0    0  0.10622622020E+00  0.11402802716E-01 -0.77319829576E-01  0.13312322464E+00  0.18149466204E-01 0.  0.
         14    1    1    2    0    0  0.54781953882E-02  0.36278624199E-02  0.20807228708E-01  0.21820008638E-01  0.00000000000E+00 0.  1.
     999901    1    3    3    0    0 -0.11170441559E+00 -0.15030665136E-01  0.56512600868E-01  0.88898676673E+00  0.88000000000E+00 0. -1.
        -11    1    4    4    0    0  0.28837808777E-01  0.91738420462E-02 -0.28639627800E-01  0.41668549224E-01  0.51100000000E-03 0. -1.
         11    1    4    4    0    0  0.77388411426E-01  0.22289606696E-02 -0.48680201776E-01  0.91454675412E-01  0.51100000000E-03 0.  1.
</event>
<event>
 8    1  0.1092993E+005  0.1043930E+01  0.7957747E-01            NaN
         13   -1    0    0    0    0  0.00000000000E+00  0.00000000000E+00  0.74505805969E-08  0.10566000000E+00  0.10566000000E+00 0.  1.
     999900   -1    0    0    0    0 -0.00000000000E+00 -0.00000000000E+00 -0.74505805969E-08  0.93827000000E+00  0.93827000000E+00 0. -1.
     999902    2    1    2    0    0 -0.18721936279E-01 -0.11908215611E-01  0.40176245971E-02  0.10213809911E+01  0.10211320537E+01 0.  0.
     999903    2    3    3    0    0  0.90276968443E-01  0.65234580854E-01  0.62792025045E-01  0.12936854583E+00  0.19695194122E-01 0.  0.
         14    1    1    2    0    0  0.18721936279E-01  0.11908215611E-01 -0.40176245971E-02  0.22549008947E-01  0.00000000000E+00 0. -1.
     999901    1    3    3    0    0 -0.10899890472E+00 -0.77142796465E-01 -0.58774400448E-01  0.89201244522E+00  0.88000000000E+00 0. -1.
        -11    1    4    4    0    0  0.41526498989E-02  0.40369953440E-02 -0.10725388487E-02  0.59121310179E-02  0.51100000000E-03 0. -1.
         11    1    4    4    0    0  0.86124318544E-01  0.61197585510E-01  0.63864563894E-01  0.12345641482E+00  0.51100000000E-03 0.  1.
</event>
<event>
 8    1  0.1092993E+005  0.1043930E+01  0.7957747E-01            NaN
         13   -1    0    0    0    0  0.00000000000E+00  0.00000000000E+00  0.74505805969E-08  0.10566000000E+00  0.10566000000E+00 0. -1.
     999900   -1    0    0    0    0 -0.00000000000E+00 -0.00000000000E+00 -0.74505805969E-08  0.93827000000E+00  0.93827000000E+00 0.  1.
     999902    2    1    2    0    0 -0.66238638153E-02 -0.21437194180E-01 -0.40805117511E-02  0.10211247497E+01  0.10208700578E+01 0.  0.
     999903    2    3    3    0    0 -0.75731672793E-01 -0.16403410498E-01  0.10388690843E+00  0.13182266823E+00  0.24090827673E-01 0.  0.
         14    1    1    2    0    0  0.66238638153E-02  0.21437194180E-01  0.40805117511E-02  0.22805250323E-01  0.00000000000E+00 0.  1.
     999901    1    3    3    0    0  0.69107808978E-01 -0.50337836815E-02 -0.10796742018E+00  0.88930208144E+00  0.88000000000E+00 0.  1.
        -11    1    4    4    0    0 -0.29386769026E-01  0.53367513318E-02  0.41155032554E-01  0.50853327660E-01  0.51100000000E-03 0. -1.
         11    1    4    4    0    0 -0.46344903767E-01 -0.21740161830E-01  0.62731875872E-01  0.80969340574E-01  0.51100000000E-03 0.  1.
</event>
<event>
 8    1  0.1092993E+005  0.1043930E+01  0.7957747E-01            NaN
         13   -1    0    0    0    0  0.00000000000E+00  0.00000000000E+00  0.74505805969E-08  0.10566000000E+00  0.10566000000E+00 0. -1.
     999900   -1    0    0    0    0 -0.00000000000E+00 -0.00000000000E+00 -0.74505805969E-08  0.93827000000E+00  0.93827000000E+00 0. -1.
     999902    2    1    2    0    0  0.63884660535E-02 -0.20077445275E-01  0.15012766806E-01  0.10180591772E+01  0.10177304106E+01 0.  0.
     999903    2    3    3    0    0  0.11132331416E+00 -0.31207973897E-01  0.57416243061E-01  0.13074115874E+00  0.20731804313E-01 0.  0.
         14    1    1    2    0    0 -0.63884660535E-02  0.20077445275E-01 -0.15012766806E-01  0.25870822841E-01  0.00000000000E+00 0.  1.
     999901    1    3    3    0    0 -0.10493484811E+00  0.11130528622E-01 -0.42403476255E-01  0.88731801842E+00  0.88000000000E+00 0.  1.
        -11    1    4    4    0    0  0.47059343420E-01 -0.10965895092E-01  0.35237970919E-01  0.59806424185E-01  0.51100000000E-03 0. -1.
         11    1    4    4    0    0  0.64263970743E-01 -0.20242078805E-01  0.22178272142E-01  0.70934734554E-01  0.51100000000E-03 0.  1.
</event>
<event>
 8    1  0.1349163E+005  0.1043930E+01  0.7957747E-01            NaN
         13   -1    0    0    0    0  0.00000000000E+00  0.00000000000E+00  0.74505805969E-08  0.10566000000E+00  0.10566000000E+00 0. -1.
     999900   -1    0    0    0    0 -0.00000000000E+00 -0.00000000000E+00 -0.74505805969E-08  0.93827000000E+00  0.93827000000E+00 0. -1.
     999902    2    1    2    0    0 -0.11080441103E-01 -0.20012745773E-01 -0.32951400019E-02  0.10208184419E+01  0.10205567830E+01 0.  0.
     999903    2    3    3    0    0  0.48775330166E-01 -0.98347316788E-01 -0.71700329039E-01  0.13267527315E+00  0.20262363389E-01 0.  0.
         14    1    1    2    0    0  0.11080441103E-01  0.20012745773E-01  0.32951400019E-02  0.23111558062E-01  0.00000000000E+00 0.  1.
     999901    1    3    3    0    0 -0.59855771268E-01  0.78334571015E-01  0.68405189037E-01  0.88814316878E+00  0.88000000000E+00 0.  1.
        -11    1    4    4    0    0  0.31322365709E-01 -0.44920349737E-01 -0.28188221177E-01  0.61593549567E-01  0.51100000000E-03 0.  1.
         11    1    4    4    0    0  0.17452964457E-01 -0.53426967051E-01 -0.43512107862E-01  0.71081723588E-01  0.51100000000E-03 0. -1.
</event>
<event>
 8    1  0.1092993E+005  0.1043930E+01  0.7957747E-01            NaN
         13   -1    0    0    0    0  0.00000000000E+00  0.00000000000E+00  0.74505805969E-08  0.10566000000E+00  0.10566000000E+00 0. -1.
     999900   -1    0    0    0    0 -0.00000000000E+00 -0.00000000000E+00 -0.74505805969E-08  0.93827000000E+00  0.93827000000E+00 0. -1.
     999902    2    1    2    0    0  0.14248321446E-01  0.46133888079E-03  0.19401019193E-01  0.10198545552E+01  0.10195703442E+01 0.  0.
     999903    2    3    3    0    0 -0.34114773829E-01  0.12319832647E+00 -0.10949901566E-01  0.12950376167E+00  0.17597684671E-01 0.  0.
         14    1    1    2    0    0 -0.14248321446E-01 -0.46133888079E-03 -0.19401019193E-01  0.24075444821E-01  0.00000000000E+00 0.  1.
     999901    1    3    3    0    0  0.48363095275E-01 -0.12273698759E+00  0.30350920759E-01  0.89035079351E+00  0.88000000000E+00 0.  1.
        -11    1    4    4    0    0 -0.26152466400E-01  0.10551690511E+00 -0.14840946749E-01  0.10971911221E+00  0.51100000000E-03 0. -1.
         11    1    4    4    0    0 -0.79623074285E-02  0.17681421354E-01  0.38910451826E-02  0.19784649461E-01  0.51100000000E-03 0.  1.
</event>
<event>
 8    1  0.1092993E+005  0.1043930E+01  0.7957747E-01            NaN
         13   -1    0    0    0    0  0.00000000000E+00  0.00000000000E+00  0.74505805969E-08  0.10566000000E+00  0.10566000000E+00 0.  1.
     999900   -1    0    0    0    0 -0.00000000000E+00 -0.00000000000E+00 -0.74505805969E-08  0.93827000000E+00  0.93827000000E+00 0. -1.
     999902    2    1    2    0    0  0.10162936930E-01  0.67252700533E-02  0.19712651238E-01  0.10207545137E+01  0.10204913886E+01 0.  0.
     999903    2    3    3    0    0  0.45468506215E-01 -0.11259657793E+00 -0.41877348586E-01  0.12986871034E+00  0.19151897591E-01 0.  0.
         14    1    1    2    0    0 -0.10162936930E-01 -0.67252700533E-02 -0.19712651238E-01  0.23175486255E-01  0.00000000000E+00 0. -1.
     999901    1    3    3    0    0 -0.35305569285E-01  0.11932184799E+00  0.61589999823E-01  0.89088580340E+00  0.88000000000E+00 0.  1.
        -11    1    4    4    0    0  0.42088166480E-01 -0.82300767703E-01 -0.31049034270E-01  0.97514787454E-01  0.51100000000E-03 0.  1.
         11    1    4    4    0    0  0.33803397348E-02 -0.30295810230E-01 -0.10828314316E-01  0.32353922886E-01  0.51100000000E-03 0. -1.
</event>
<event>
 8    1  0.1092993E+005  0.1043930E+01  0.7957747E-01            NaN
         13   -1    0    0    0    0  0.00000000000E+00  0.00000000000E+00  0.74505805969E-08  0.10566000000E+00  0.10566000000E+00 0.  1.
     999900   -1    0    0    0    0 -0.00000000000E+00 -0.00000000000E+00 -0.74505805969E-08  0.93827000000E+00  0.93827000000E+00 0. -1.
     999902    2    1    2    0    0 -0.39956697444E-02  0.99904274777E-02 -0.19940361522E-01  0.10212718440E+01  0.10210204637E+01 0.  0.
     999903    2    3    3    0    0 -0.32695795564E-01 -0.24041083184E-01 -0.12586812053E+00  0.13380210865E+00  0.20328103381E-01 0.  0.
         14    1    1    2    0    0  0.39956697444E-02 -0.99904274777E-02  0.19940361522E-01  0.22658156049E-01  0.00000000000E+00 0.  1.
     999901    1    3    3    0    0  0.28700125820E-01  0.34031510662E-01  0.10592775901E+00  0.88746973530E+00  0.88000000000E+00 0.  1.
        -11    1    4    4    0    0 -0.22843192684E-02 -0.11185985019E-01 -0.45533515747E-01  0.46945783119E-01  0.51100000000E-03 0.  1.
         11    1    4    4    0    0 -0.30411476296E-01 -0.12855098165E-01 -0.80334604780E-01  0.86856325535E-01  0.51100000000E-03 0. -1.
</event>
<event>
 8    1  0.1092993E+005  0.1043930E+01  0.7957747E-01            NaN
         13   -1    0    0    0    0  0.00000000000E+00  0.00000000000E+00  0.74505805969E-08  0.10566000000E+00  0.10566000000E+00 0. -1.
     999900   -1    0    0    0    0 -0.00000000000E+00 -0.00000000000E+00 -0.74505805969E-08  0.93827000000E+00  0.93827000000E+00 0.  1.
     999902    2    1    2    0    0 -0.16504927691E-01  0.17528764608E-01 -0.54496778625E-02  0.10192445951E+01  0.10189456195E+01 0.  0.
     999903    2    3    3    0    0 -0.86626263306E-01  0.60165853629E-01  0.76131902206E-01  0.13166897731E+00  0.20411114997E-01 0.  0.
         14    1    1    2    0    0  0.16504927691E-01 -0.17528764608E-01  0.54496778625E-02  0.24685404910E-01  0.00000000000E+00 0.  1.
     999901    1    3    3    0    0  0.70121335615E-01 -0.42637089021E-01 -0.81581580068E-01  0.88757561778E+00  0.88000000000E+00 0.  1.
        -11    1    4    4    0    0 -0.24024905466E-01  0.22958998353E-01  0.33947864204E-01  0.47508212901E-01  0.51100000000E-03 0. -1.
         11    1    4    4    0    0 -0.62601357841E-01  0.37206855276E-01  0.42184038001E-01  0.84160764410E-01  0.51100000000E-03 0.  1.
</event>
<event>
 8    1  0.1092993E+005  0.1043930E+01  0.7957747E-01            NaN
         13   -1    0    0    0    0  0.00000000000E+00  0.00000000000E+00  0.74505805969E-08  0.10566000000E+00  0.10566000000E+00 0. -1.
     999900   -1    0    0    0    0 -0.00000000000E+00 -0.00000000000E+00 -0.74505805969E-08  0.93827000000E+00  0.93827000000E+00 0. -1.
     999902    2    1    2    0    0  0.12745407228E-01  0.90701221823E-02  0.17432793323E-01  0.10205074723E+01  0.10202386418E+01 0.  0.
     999903    2    3    3    0    0 -0.46650165348E-01  0.11131249872E+00  0.49486563434E-01  0.13202067903E+00  0.20342798071E-01 0.  0.
         14    1    1    2    0    0 -0.12745407228E-01 -0.90701221823E-02 -0.17432793323E-01  0.23422527721E-01  0.00000000000E+00 0.  1.
     999901    1    3    3    0    0  0.59395572576E-01 -0.10224237653E+00 -0.32053770111E-01  0.88848679325E+00  0.88000000000E+00 0. -1.
        -11    1    4    4    0    0 -0.37635786841E-01  0.66959283056E-01  0.26503081157E-01  0.81256830299E-01  0.51100000000E-03 0. -1.
         11    1    4    4    0    0 -0.90143785071E-02  0.44353215661E-01  0.22983482277E-01  0.50763848730E-01  0.51100000000E-03 0.  1.
</event>
<event>
 8    1  0.1092993E+005  0.1043930E+01  0.7957747E-01            NaN
         13   -1    0    0    0    0  0.00000000000E+00  0.00000000000E+00  0.74505805969E-08  0.10566000000E+00  0.10566000000E+00 0.  1.
     999900   -1    0    0    0    0 -0.00000000000E+00 -0.00000000000E+00 -0.74505805969E-08  0.93827000000E+00  0.93827000000E+00 0. -1.
     999902    2    1    2    0    0  0.12368231933E-01  0.10935622892E-01 -0.20878754247E-01  0.10173126487E+01  0.10169643759E+01 0.  0.
     999903    2    3    3    0    0  0.38950440283E-01  0.17022034857E-01  0.11694890613E+00  0.12616724973E+00  0.20838469021E-01 0.  0.
         14    1    1    2    0    0 -0.12368231933E-01 -0.10935622892E-01  0.20878754247E-01  0.26617351259E-01  0.00000000000E+00 0.  1.
     999901    1    3    3    0    0 -0.26582208350E-01 -0.60864119651E-02 -0.13782766038E+00  0.89114539901E+00  0.88000000000E+00 0. -1.
        -11    1    4    4    0    0  0.10841538622E-01  0.98309238963E-02  0.18870832078E-01  0.23886302532E-01  0.51100000000E-03 0. -1.
         11    1    4    4    0    0  0.28108901661E-01  0.71911109606E-02  0.98078074050E-01  0.10228094720E+00  0.51100000000E-03 0.  1.
</event>
<event>
 8    1  0.1092993E+005  0.1043930E+01  0.7957747E-01            NaN
         13   -1    0    0    0    0  0.00000000000E+00  0.00000000000E+00  0.74505805969E-08  0.10566000000E+00  0.10566000000E+00 0.  1.
     999900   -1    0    0    0    0 -0.00000000000E+00 -0.00000000000E+00 -0.74505805969E-08  0.93827000000E+00  0.93827000000E+00 0.  1.
     999902    2    1    2    0    0 -0.63977373795E-02 -0.95019807806E-03 -0.22101936485E-01  0.10209011156E+01  0.10206413466E+01 0.  0.
     999903    2    3    3    0    0  0.76008192279E-01 -0.10101610956E+00 -0.29238499051E-01  0.13137604322E+00  0.20573653548E-01 0.  0.
         14    1    1    2    0    0  0.63977373795E-02  0.95019807806E-03  0.22101936485E-01  0.23028884392E-01  0.00000000000E+00 0.  1.
     999901    1    3    3    0    0 -0.82405929658E-01  0.10006591148E+00  0.71365625658E-02  0.88952507239E+00  0.88000000000E+00 0.  1.
        -11    1    4    4    0    0  0.47927434022E-01 -0.76817377814E-01 -0.15620463115E-01  0.91881491363E-01  0.51100000000E-03 0.  1.
         11    1    4    4    0    0  0.28080758256E-01 -0.24198731749E-01 -0.13618035935E-01  0.39494551855E-01  0.51100000000E-03 0. -1.
</event>
<event>
 8    1  0.1092993E+005  0.1043930E+01  0.7957747E-01            NaN
         13   -1    0    0    0    0  0.00000000000E+00  0.00000000000E+00  0.74505805969E-08  0.10566000000E+00  0.10566000000E+00 0. -1.
     999900   -1    0    0    0    0 -0.00000000000E+00 -0.00000000000E+00 -0.74505805969E-08  0.93827000000E+00  0.93827000000E+00 0.  1.
     999902    2    1    2    0    0 -0.30124358488E-01 -0.13329065111E-01  0.18378778179E-01  0.10062083823E+01  0.10055010633E+01 0.  0.
     999903    2    3    3    0    0 -0.38628279015E-01  0.92921029321E-01  0.59295218517E-01  0.11883272665E+00  0.21882238332E-01 0.  0.
         14    1    1    2    0    0  0.30124358488E-01  0.13329065111E-01 -0.18378778179E-01  0.37721617654E-01  0.00000000000E+00 0.  1.
     999901    1    3    3    0    0  0.85039205272E-02 -0.10625009443E+00 -0.40916440337E-01  0.88737565570E+00  0.88000000000E+00 0. -1.
        -11    1    4    4    0    0 -0.16567889969E-01  0.18232644145E-01  0.95822526201E-02  0.26438702253E-01  0.51100000000E-03 0. -1.
         11    1    4    4    0    0 -0.22060389046E-01  0.74688385177E-01  0.49712965896E-01  0.92394024398E-01  0.51100000000E-03 0.  1.
</event>
<event>
 8    1  0.1092993E+005  0.1043930E+01  0.7957747E-01            NaN
         13   -1    0    0    0    0  0.00000000000E+00  0.00000000000E+00  0.74505805969E-08  0.10566000000E+00  0.10566000000E+00 0.  1.
     999900   -1    0    0    0    0 -0.00000000000E+00 -0.00000000000E+00 -0.74505805969E-08  0.93827000000E+00  0.93827000000E+00 0.  1.
     999902    2    1    2    0    0  0.21685027388E-01  0.21755135468E-02  0.16945097346E-01  0.10163236675E+01  0.10159486638E+01 0.  0.
     999903    2    3    3    0    0  0.12374272430E+00  0.89719813009E-02 -0.29408966588E-01  0.12918745204E+00  0.20778647270E-01 0.  0.
         14    1    1    2    0    0 -0.21685027388E-01 -0.21755135468E-02 -0.16945097346E-01  0.27606332535E-01  0.00000000000E+00 0. -1.
     999901    1    3    3    0    0 -0.10205769692E+00 -0.67964677541E-02  0.46354063934E-01  0.88713621542E+00  0.88000000000E+00 0.  1.
        -11    1    4    4    0    0  0.55700389474E-01  0.12452179912E-01 -0.72214884419E-02  0.57532609783E-01  0.51100000000E-03 0.  1.
         11    1    4    4    0    0  0.68042334830E-01 -0.34801986116E-02 -0.22187478146E-01  0.71654842258E-01  0.51100000000E-03 0. -1.
</event>
<event>
 8    1  0.1092993E+005  0.1043930E+01  0.7957747E-01            NaN
         13   -1    0    0    0    0  0.00000000000E+00  0.00000000000E+00  0.74505805969E-08  0.10566000000E+00  0.10566000000E+00 0.  1.
     999900   -1    0    0    0    0 -0.00000000000E+00 -0.00000000000E+00 -0.74505805969E-08  0.93827000000E+00  0.93827000000E+00 0. -1.
     999902    2    1    2    0    0 -0.15267335699E-01 -0.11888945858E-01  0.13854253915E-01  0.10201312831E+01  0.10198536444E+01 0.  0.
     999903    2    3    3    0    0  0.84869880037E-01 -0.42300937378E-01  0.87802177001E-01  0.13085031149E+00  0.20501606998E-01 0.  0.
         14    1    1    2    0    0  0.15267335699E-01  0.11888945858E-01 -0.13854253915E-01  0.23798716867E-01  0.00000000000E+00 0. -1.
     999901    1    3    3    0    0 -0.10013721574E+00  0.30411991520E-01 -0.73947923086E-01  0.88928097165E+00  0.88000000000E+00 0. -1.
        -11    1    4    4    0    0  0.55090103504E-01 -0.19876534112E-01  0.43542302345E-01  0.72980746276E-01  0.51100000000E-03 0. -1.
         11    1    4    4    0    0  0.29779776533E-01 -0.22424403266E-01  0.44259874656E-01  0.57869565211E-01  0.51100000000E-03 0.  1.
</event>
<event>
 8    1  0.1092993E+005  0.1043930E+01  0.7957747E-01            NaN
         13   -1    0    0    0    0  0.00000000000E+00  0.00000000000E+00  0.74505805969E-08  0.10566000000E+00  0.10566000000E+00 0.  1.
     999900   -1    0    0    0    0 -0.00000000000E+00 -0.00000000000E+00 -0.74505805969E-08  0.93827000000E+00  0.93827000000E+00 0. -1.
     999902    2    1    2    0    0 -0.12034615810E-01 -0.19930152641E-01 -0.36955088654E-02  0.10203567154E+01  0.10200843724E+01 0.  0.
     999903    2    3    3    0    0 -0.70472725128E-01  0.48354121531E-01 -0.97201229483E-01  0.13085063080E+00  0.19216724785E-01 0.  0.
         14    1    1    2    0    0  0.12034615810E-01  0.19930152641E-01  0.36955088654E-02  0.23573284620E-01  0.00000000000E+00 0. -1.
     999901    1    3    3    0    0  0.58438109318E-01 -0.68284274172E-01  0.93505720618E-01  0.88950608458E+00  0.88000000000E+00 0.  1.
        -11    1    4    4    0    0 -0.32997504722E-01  0.30150336283E-01 -0.39324246307E-01  0.59536002255E-01  0.51100000000E-03 0.  1.
         11    1    4    4    0    0 -0.37475220406E-01  0.18203785248E-01 -0.57876983176E-01  0.71314628544E-01  0.51100000000E-03 0. -1.
</event>
<event>
 8    1  0.1092993E+005  0.1043930E+01  0.7957747E-01            NaN
         13   -1    0    0    0    0  0.00000000000E+00  0.00000000000E+00  0.74505805969E-08  0.10566000000E+00  0.10566000000E+00 0. -1.
     999900   -1    0    0    0    0 -0.00000000000E+00 -0.00000000000E+00 -0.74505805969E-08  0.93827000000E+00  0.93827000000E+00 0.  1.
     999902    2    1    2    0    0  0.10491458476E-01  0.68794672141E-02 -0.19233638198E-01  0.10209663198E+01  0.10207080364E+01 0.  0.
     999903    2    3    3    0    0  0.74174215213E-01  0.68262500019E-01 -0.85930255972E-01  0.13402110782E+00  0.20397679753E-01 0.  0.
         14    1    1    2    0    0 -0.10491458476E-01 -0.68794672141E-02  0.19233638198E-01  0.22963680202E-01  0.00000000000E+00 0. -1.
     999901    1    3    3    0    0 -0.63682756738E-01 -0.61383032805E-01  0.66696617775E-01  0.88694521197E+00  0.88000000000E+00 0. -1.
        -11    1    4    4    0    0  0.51320417662E-01  0.35811255241E-01 -0.59350796152E-01  0.86249692149E-01  0.51100000000E-03 0.  1.
         11    1    4    4    0    0  0.22853797551E-01  0.32451244778E-01 -0.26579459820E-01  0.47771415674E-01  0.51100000000E-03 0. -1.
</event>
<event>
 8    1  0.1092993E+005  0.1043930E+01  0.7957747E-01            NaN
         13   -1    0    0    0    0  0.00000000000E+00  0.00000000000E+00  0.74505805969E-08  0.10566000000E+00  0.10566000000E+00 0.  1.
     999900   -1    0    0    0    0 -0.00000000000E+00 -0.00000000000E+00 -0.74505805969E-08  0.93827000000E+00  0.93827000000E+00 0. -1.
     999902    2    1    2    0    0  0.13989322008E-01  0.83801558463E-03  0.47484951269E-02  0.10291329866E+01  0.10290266043E+01 0.  0.
     999903    2    3    3    0    0 -0.55491066575E-01  0.91640354064E-01  0.85091276775E-01  0.13810686370E+00  0.18861798868E-01 0.  0.
         14    1    1    2    0    0 -0.13989322008E-01 -0.83801558463E-03 -0.47484951269E-02  0.14797013427E-01  0.00000000000E+00 0.  1.
     999901    1    3    3    0    0  0.69480388584E-01 -0.90802338479E-01 -0.80342781649E-01  0.89102612287E+00  0.88000000000E+00 0. -1.
        -11    1    4    4    0    0 -0.23331938760E-01  0.55796214470E-01  0.50843797188E-01  0.79012339220E-01  0.51100000000E-03 0. -1.
         11    1    4    4    0    0 -0.32159127815E-01  0.35844139594E-01  0.34247479587E-01  0.59094524485E-01  0.51100000000E-03 0.  1.
</event>
<event>
 8    1  0.1092993E+005  0.1043930E+01  0.7957747E-01            NaN
         13   -1    0    0    0    0  0.00000000000E+00  0.00000000000E+00  0.74505805969E-08  0.10566000000E+00  0.10566000000E+00 0. -1.
     999900   -1    0    0    0    0 -0.00000000000E+00 -0.00000000000E+00 -0.74505805969E-08  0.93827000000E+00  0.93827000000E+00 0. -1.
     999902    2    1    2    0    0 -0.21311077619E-01 -0.13387270491E-01  0.17988226818E-01  0.10129952728E+01  0.10125228222E+01 0.  0.
     999903    2    3    3    0    0 -0.10280172810E+00  0.17990628792E-01 -0.65378769583E-01  0.12475242611E+00  0.19923008897E-01 0.  0.
         14    1    1    2    0    0  0.21311077619E-01  0.13387270491E-01 -0.17988226818E-01  0.30934727161E-01  0.00000000000E+00 0.  1.
     999901    1    3    3    0    0  0.81490650479E-01 -0.31377899283E-01  0.83366996401E-01  0.88824284673E+00  0.88000000000E+00 0.  1.
        -11    1    4    4    0    0 -0.38482318407E-01  0.30458529024E-02 -0.34822174294E-01  0.51990489452E-01  0.51100000000E-03 0.  1.
         11    1    4    4    0    0 -0.64319409691E-01  0.14944775889E-01 -0.30556595289E-01  0.72761936657E-01  0.51100000000E-03 0. -1.
</event>
<event>
 8    1  0.1092993E+005  0.1043930E+01  0.7957747E-01            NaN
         13   -1    0    0    0    0  0.00000000000E+00  0.00000000000E+00  0.74505805969E-08  0.10566000000E+00  0.10566000000E+00 0.  1.
     999900   -1    0    0    0    0 -0.00000000000E+00 -0.00000000000E+00 -0.74505805969E-08  0.93827000000E+00  0.93827000000E+00 0.  1.
     999902    2    1    2    0    0  0.16360419704E-01  0.35538932015E-02  0.19599356942E-01  0.10181534936E+01  0.10178271505E+01 0.  0.
     999903    2    3    3    0    0  0.94626965751E-01 -0.42741824495E-02 -0.84533454641E-01  0.12852965542E+00  0.20035870007E-01 0.  0.
         14    1    1    2    0    0 -0.16360419704E-01 -0.35538932015E-02 -0.19599356942E-01  0.25776506403E-01  0.00000000000E+00 0. -1.
     999901    1    3    3    0    0 -0.78266546047E-01  0.78280756509E-02  0.10413281158E+00  0.88962383817E+00  0.88000000000E+00 0. -1.
        -11    1    4    4    0    0  0.34674343730E-01  0.79436715526E-02 -0.33198635518E-01  0.48660276942E-01  0.51100000000E-03 0. -1.
         11    1    4    4    0    0  0.59952622021E-01 -0.12217854002E-01 -0.51334819123E-01  0.79869378481E-01  0.51100000000E-03 0.  1.
</event>
<event>
 8    1  0.1092993E+005  0.1043930E+01  0.7957747E-01            NaN
         13   -1    0    0    0    0  0.00000000000E+00  0.00000000000E+00  0.74505805969E-08  0.10566000000E+00  0.10566000000E+00 0. -1.
     999900   -1    0    0    0    0 -0.00000000000E+00 -0.00000000000E+00 -0.74505805969E-08  0.93827000000E+00  0.93827000000E+00 0.  1.
     999902    2    1    2    0    0  0.91577184398E-02 -0.10008024169E-01  0.19973502652E-01  0.10197853285E+01  0.10194994610E+01 0.  0.
     999903    2    3    3    0    0  0.59927181658E-01 -0.12058051403E-01  0.11651208435E+00  0.13304893091E+00  0.19755721013E-01 0.  0.
         14    1    1    2    0    0 -0.91577184398E-02  0.10008024169E-01 -0.19973502652E-01  0.24144671523E-01  0.00000000000E+00 0.  1.
     999901    1    3    3    0    0 -0.50769463218E-01  0.20500272343E-02 -0.96538581697E-01  0.88673639756E+00  0.88000000000E+00 0.  1.
        -11    1    4    4    0    0  0.11725150953E-01 -0.77856312853E-02  0.14908657291E-01  0.20509129738E-01  0.51100000000E-03 0.  1.
         11    1    4    4    0    0  0.48202030705E-01 -0.42724201178E-02  0.10160342706E+00  0.11253980118E+00  0.51100000000E-03 0. -1.
</event>
<event>
 8    1  0.1092993E+005  0.1043930E+01  0.7957747E-01            NaN
         13   -1    0    0    0    0  0.00000000000E+00  0.00000000000E+00  0.74505805969E-08  0.10566000000E+00  0.10566000000E+00 0. -1.
     999900   -1    0    0    0    0 -0.00000000000E+00 -0.00000000000E+00 -0.74505805969E-08  0.93827000000E+00  0.93827000000E+00 0. -1.
     999902    2    1    2    0    0  0.15141378799E-01  0.18217704381E-01  0.39745793175E-02  0.10199103542E+01  0.10196274747E+01 0.  0.
     999903    2    3    3    0    0  0.11914377476E+00 -0.48455851691E-01  0.16305126548E-01  0.13119560588E+00  0.20080369074E-01 0.  0.
         14    1    1    2    0    0 -0.15141378799E-01 -0.18217704381E-01 -0.39745793175E-02  0.24019645826E-01  0.00000000000E+00 0. -1.
     999901    1    3    3    0    0 -0.10400239596E+00  0.66673556071E-01 -0.12330547231E-01  0.88871474830E+00  0.88000000000E+00 0.  1.
        -11    1    4    4    0    0  0.71671991197E-01 -0.34552820886E-01  0.15852123265E-02  0.79583577278E-01  0.51100000000E-03 0.  1.
         11    1    4    4    0    0  0.47471783565E-01 -0.13903030805E-01  0.14719914222E-01  0.51612028599E-01  0.51100000000E-03 0. -1.
</event>
<event>
 8    1  0.1092993E+005  0.1043930E+01  0.7957747E-01            NaN
         13   -1    0    0    0    0  0.00000000000E+00  0.00000000000E+00  0.74505805969E-08  0.10566000000E+00  0.10566000000E+00 0.  1.
     999900   -1    0    0    0    0 -0.00000000000E+00 -0.00000000000E+00 -0.74505805969E-08  0.93827000000E+00  0.93827000000E+00 0. -1.
     999902    2    1    2    0    0  0.82473529488E-02 -0.29246739581E-02  0.19802057970E-01  0.10222806571E+01  0.10220513920E+01 0.  0.
     999903    2    3    3    0    0 -0.10240615186E+00 -0.45130963067E-01 -0.64002281866E-01  0.13040132874E+00  0.19605883985E-01 0.  0.
         14    1    1    2    0    0 -0.82473529488E-02  0.29246739581E-02 -0.19802057970E-01  0.21649342906E-01  0.00000000000E+00 0.  1.
     999901    1    3    3    0    0  0.11065350481E+00  0.42206289109E-01  0.83804339836E-01  0.89187932835E+00  0.88000000000E+00 0.  1.
        -11    1    4    4    0    0 -0.10076353996E+00 -0.46437048305E-01 -0.60738599819E-01  0.12648766371E+00  0.51100000000E-03 0.  1.
         11    1    4    4    0    0 -0.16426119023E-02  0.13060852381E-02 -0.32636820475E-02  0.39136650365E-02  0.51100000000E-03 0. -1.
</event>
<event>
 8    1  0.1092993E+005  0.1043930E+01  0.7957747E-01            NaN
         13   -1    0    0    0    0  0.00000000000E+00  0.00000000000E+00  0.74505805969E-08  0.10566000000E+00  0.10566000000E+00 0. -1.
     999900   -1    0    0    0    0 -0.00000000000E+00 -0.00000000000E+00 -0.74505805969E-08  0.93827000000E+00  0.93827000000E+00 0. -1.
     999902    2    1    2    0    0 -0.20277014116E-02  0.11643372178E-01 -0.20591295661E-01  0.10201880299E+01  0.10199117291E+01 0.  0.
     999903    2    3    3    0    0 -0.11601570794E+00  0.40504208909E-01 -0.44020324884E-01  0.13205789698E+00  0.20031568201E-01 0.  0.
         14    1    1    2    0    0  0.20277014116E-02 -0.11643372178E-01  0.20591295661E-01  0.23741970131E-01  0.00000000000E+00 0. -1.
     999901    1    3    3    0    0  0.11398800653E+00 -0.28860836730E-01  0.23429029223E-01  0.88813013289E+00  0.88000000000E+00 0. -1.
        -11    1    4    4    0    0 -0.61036750317E-01  0.25758430451E-01 -0.33237156785E-01  0.74121193600E-01  0.51100000000E-03 0.  1.
         11    1    4    4    0    0 -0.54978957623E-01  0.14745778458E-01 -0.10783168099E-01  0.57936703383E-01  0.51100000000E-03 0. -1.
</event>
<event>
 8    1  0.1092993E+005  0.1043930E+01  0.7957747E-01            NaN
         13   -1    0    0    0    0  0.00000000000E+00  0.00000000000E+00  0.74505805969E-08  0.10566000000E+00  0.10566000000E+00 0. -1.
     999900   -1    0    0    0    0 -0.00000000000E+00 -0.00000000000E+00 -0.74505805969E-08  0.93827000000E+00  0.93827000000E+00 0.  1.
     999902    2    1    2    0    0  0.14527476589E-01  0.80015790106E-02  0.16077208382E-01  0.10208313102E+01  0.10205699458E+01 0.  0.
     999903    2    3    3    0    0  0.97017769144E-01  0.51142077265E-01  0.74281604189E-01  0.13400917318E+00  0.20316057174E-01 0.  0.
         14    1    1    2    0    0 -0.14527476589E-01 -0.80015790106E-02 -0.16077208382E-01  0.23098689834E-01  0.00000000000E+00 0.  1.
     999901    1    3    3    0    0 -0.82490292555E-01 -0.43140498254E-01 -0.58204395808E-01  0.88682213699E+00  0.88000000000E+00 0.  1.
        -11    1    4    4    0    0  0.56182313597E-01  0.34706008174E-01  0.55027192582E-01  0.85960528203E-01  0.51100000000E-03 0. -1.
         11    1    4    4    0    0  0.40835455547E-01  0.16436069090E-01  0.19254411608E-01  0.48048644978E-01  0.51100000000E-03 0.  1.
</event>
<event>
 8    1  0.1092993E+005  0.1043930E+01  0.7957747E-01            NaN
         13   -1    0    0    0    0  0.00000000000E+00  0.00000000000E+00  0.74505805969E-08  0.10566000000E+00  0.10566000000E+00 0. -1.
     999900   -1    0    0    0    0 -0.00000000000E+00 -0.00000000000E+00 -0.74505805969E-08  0.93827000000E+00  0.93827000000E+00 0. -1.
     999902    2    1    2    0    0  0.21577567396E-02  0.21549057120E-01  0.95027407518E-02  0.10202800558E+01  0.10200059179E+01 0.  0.
     999903    2    3    3    0    0  0.75302189116E-01 -0.67068388320E-01  0.79751540098E-01  0.13003399242E+00  0.19492117372E-01 0.  0.
         14    1    1    2    0    0 -0.21577567396E-02 -0.21549057120E-01 -0.95027407518E-02  0.23649944159E-01  0.00000000000E+00 0.  1.
     999901    1    3    3    0    0 -0.73144432376E-01  0.88617445440E-01 -0.70248799346E-01  0.89024606342E+00  0.88000000000E+00 0.  1.
        -11    1    4    4    0    0  0.32108064905E-01 -0.16289991431E-01  0.26433516976E-01  0.44668597398E-01  0.51100000000E-03 0. -1.
         11    1    4    4    0    0  0.43194124211E-01 -0.50778396889E-01  0.53318023122E-01  0.85365395024E-01  0.51100000000E-03 0.  1.
</event>
<event>
 8    1  0.1092993E+005  0.1043930E+01  0.7957747E-01            NaN
         13   -1    0    0    0    0  0.00000000000E+00  0.00000000000E+00  0.74505805969E-08  0.10566000000E+00  0.10566000000E+00 0. -1.
     999900   -1    0    0    0    0 -0.00000000000E+00 -0.00000000000E+00 -0.74505805969E-08  0.93827000000E+00  0.93827000000E+00 0. -1.
     999902    2    1    2    0    0  0.45592048354E-02  0.38309468001E-02 -0.22747505437E-01  0.10204159296E+01  0.10201449691E+01 0.  0.
     999903    2    3    3    0    0  0.78322317490E-01 -0.63116982129E-01 -0.84297058666E-01  0.13265956131E+00  0.19350097086E-01 0.  0.
         14    1    1    2    0    0 -0.45592048354E-02 -0.38309468001E-02  0.22747505437E-01  0.23514070378E-01  0.00000000000E+00 0. -1.
     999901    1    3    3    0    0 -0.73763112654E-01  0.66947928929E-01  0.61549553228E-01  0.88775636831E+00  0.88000000000E+00 0.  1.
        -11    1    4    4    0    0  0.55316305951E-01 -0.48531471297E-01 -0.50510671706E-01  0.89256856810E-01  0.51100000000E-03 0. -1.
         11    1    4    4    0    0  0.23006011538E-01 -0.14585510831E-01 -0.33786386960E-01  0.43402704500E-01  0.51100000000E-03 0.  1.
</event>
<event>
 8    1  0.1092993E+005  0.1043930E+01  0.7957747E-01            NaN
         13   -1    0    0    0    0  0.00000000000E+00  0.00000000000E+00  0.74505805969E-08  0.10566000000E+00  0.10566000000E+00 0.  1.
     999900   -1    0    0    0    0 -0.00000000000E+00 -0.00000000000E+00 -0.74505805969E-08  0.93827000000E+00  0.93827000000E+00 0. -1.
     999902    2    1    2    0    0  0.21297469270E-01  0.32911637203E-02 -0.92098816306E-02  0.10204942181E+01  0.10202250797E+01 0.  0.
     999903    2    3    3    0    0 -0.81614488986E-01 -0.23438491195E-01  0.94096597822E-01  0.12809432209E+00  0.18539092458E-01 0.  0.
         14    1    1    2    0    0 -0.21297469270E-01 -0.32911637203E-02  0.92098816306E-02  0.23435781950E-01  0.00000000000E+00 0. -1.
     999901    1    3    3    0    0  0.10291195826E+00  0.26729654915E-01 -0.10330647945E+00  0.89239989596E+00  0.88000000000E+00 0. -1.
        -11    1    4    4    0    0 -0.73381020787E-01 -0.14902106539E-01  0.78400781009E-01  0.10841490015E+00  0.51100000000E-03 0. -1.
         11    1    4    4    0    0 -0.82334681996E-02 -0.85363846562E-02  0.15695816813E-01  0.19679421943E-01  0.51100000000E-03 0.  1.
</event>
<event>
 8    1  0.1092993E+005  0.1043930E+01  0.7957747E-01            NaN
         13   -1    0    0    0    0  0.00000000000E+00  0.00000000000E+00  0.74505805969E-08  0.10566000000E+00  0.10566000000E+00 0. -1.
     999900   -1    0    0    0    0 -0.00000000000E+00 -0.00000000000E+00 -0.74505805969E-08  0.93827000000E+00  0.93827000000E+00 0.  1.
     999902    2    1    2    0    0 -0.56325760591E-03  0.12658686564E-01  0.20147328383E-01  0.10201292764E+01  0.10198515902E+01 0.  0.
     999903    2    3    3    0    0 -0.96826845191E-01  0.28229987598E-01  0.83769697927E-01  0.13245988429E+00  0.18865007468E-01 0.  0.
         14    1    1    2    0    0  0.56325760591E-03 -0.12658686564E-01 -0.20147328383E-01  0.23800723637E-01  0.00000000000E+00 0.  1.
     999901    1    3    3    0    0  0.96263587585E-01 -0.15571301034E-01 -0.63622369544E-01  0.88766939207E+00  0.88000000000E+00 0. -1.
        -11    1    4    4    0    0 -0.10449324261E-01  0.83923522205E-02  0.16083140127E-01  0.20941548908E-01  0.51100000000E-03 0. -1.
         11    1    4    4    0    0 -0.86377520930E-01  0.19837635377E-01  0.67686557800E-01  0.11151833539E+00  0.51100000000E-03 0.  1.
</event>
<event>
 8    1  0.1092993E+005  0.1043930E+01  0.7957747E-01            NaN
         13   -1    0    0    0    0  0.00000000000E+00  0.00000000000E+00  0.74505805969E-08  0.10566000000E+00  0.10566000000E+00 0.  1.
     999900   -1    0    0    0    0 -0.00000000000E+00 -0.00000000000E+00 -0.74505805969E-08  0.93827000000E+00  0.93827000000E+00 0.  1.
     999902    2    1    2    0    0  0.45170126579E-03 -0.19303763928E-01  0.13375237272E-01  0.10204409322E+01  0.10201705542E+01 0.  0.
     999903    2    3    3    0    0  0.54212333903E-01  0.21788582263E-01  0.11626029540E+00  0.13186672495E+00  0.21416288132E-01 0.  0.
         14    1    1    2    0    0 -0.45170126579E-03  0.19303763928E-01 -0.13375237272E-01  0.23489067838E-01  0.00000000000E+00 0. -1.
     999901    1    3    3    0    0 -0.53760632637E-01 -0.41092346191E-01 -0.10288505813E+00  0.88857420721E+00  0.88000000000E+00 0.  1.
        -11    1    4    4    0    0  0.37918778984E-01  0.58340375051E-02  0.84097871380E-01  0.92436912999E-01  0.51100000000E-03 0.  1.
         11    1    4    4    0    0  0.16293554919E-01  0.15954544758E-01  0.32162424023E-01  0.39429811950E-01  0.51100000000E-03 0. -1.
</event>
<event>
 8    1  0.1092993E+005  0.1043930E+01  0.7957747E-01            NaN
         13   -1    0    0    0    0  0.00000000000E+00  0.00000000000E+00  0.74505805969E-08  0.10566000000E+00  0.10566000000E+00 0.  1.
     999900   -1    0    0    0    0 -0.00000000000E+00 -0.00000000000E+00 -0.74505805969E-08  0.93827000000E+00  0.93827000000E+00 0. -1.
     999902    2    1    2    0    0 -0.25691286103E-01  0.52726427123E-02  0.35728621302E-02  0.10174609938E+01  0.10171166431E+01 0.  0.
     999903    2    3    3    0    0  0.96665337753E-01  0.39364055006E-01 -0.66811097491E-01  0.12556006350E+00  0.20196297873E-01 0.  0.
         14    1    1    2    0    0  0.25691286103E-01 -0.52726427123E-02 -0.35728621302E-02  0.26469006151E-01  0.00000000000E+00 0. -1.
     999901    1    3    3    0    0 -0.12235662386E+00 -0.34091412293E-01  0.70383959621E-01  0.89190093035E+00  0.88000000000E+00 0. -1.
        -11    1    4    4    0    0  0.89331964192E-01  0.40233976936E-01 -0.57276869432E-01  0.11348953088E+00  0.51100000000E-03 0. -1.
         11    1    4    4    0    0  0.73333735611E-02 -0.86992193043E-03 -0.95342280586E-02  0.12070532616E-01  0.51100000000E-03 0.  1.
</event>
<event>
 8    1  0.1092993E+005  0.1043930E+01  0.7957747E-01            NaN
         13   -1    0    0    0    0  0.00000000000E+00  0.00000000000E+00  0.74505805969E-08  0.10566000000E+00  0.10566000000E+00 0.  1.
     999900   -1    0    0    0    0 -0.00000000000E+00 -0.00000000000E+00 -0.74505805969E-08  0.93827000000E+00  0.93827000000E+00 0.  1.
     999902    2    1    2    0    0  0.31896607524E-03  0.22769491483E-01 -0.82913609181E-02  0.10196957650E+01  0.10194077471E+01 0.  0.
     999903    2    3    3    0    0  0.84064190615E-01 -0.22784179097E-01 -0.94866186810E-01  0.13032317712E+00  0.19965723975E-01 0.  0.
         14    1    1    2    0    0 -0.31896607524E-03 -0.22769491483E-01  0.82913609181E-02  0.24234235033E-01  0.00000000000E+00 0.  1.
     999901    1    3    3    0    0 -0.83745224540E-01  0.45553670580E-01  0.86574825892E-01  0.88937258785E+00  0.88000000000E+00 0. -1.
        -11    1    4    4    0    0  0.37554242735E-02  0.26341409781E-02 -0.22694721592E-02  0.51433000154E-02  0.51100000000E-03 0. -1.
         11    1    4    4    0    0  0.80308766341E-01 -0.25418320075E-01 -0.92596714650E-01  0.12517987710E+00  0.51100000000E-03 0.  1.
</event>
<event>
 8    1  0.1092993E+005  0.1043930E+01  0.7957747E-01            NaN
         13   -1    0    0    0    0  0.00000000000E+00  0.00000000000E+00  0.74505805969E-08  0.10566000000E+00  0.10566000000E+00 0.  1.
     999900   -1    0    0    0    0 -0.00000000000E+00 -0.00000000000E+00 -0.74505805969E-08  0.93827000000E+00  0.93827000000E+00 0.  1.
     999902    2    1    2    0    0  0.14428819717E-01  0.10354893008E-01  0.14983042601E-01  0.10206941180E+01  0.10204296038E+01 0.  0.
     999903    2    3    3    0    0  0.11612101793E+00  0.24629635460E-01  0.58134175680E-01  0.13367264601E+00  0.19952046517E-01 0.  0.
         14    1    1    2    0    0 -0.14428819717E-01 -0.10354893008E-01 -0.14983042601E-01  0.23235882020E-01  0.00000000000E+00 0. -1.
     999901    1    3    3    0    0 -0.10169219822E+00 -0.14274742451E-01 -0.43151133079E-01  0.88702147197E+00  0.88000000000E+00 0.  1.
        -11    1    4    4    0    0  0.38797067392E-01 -0.85787668583E-04  0.23894284671E-01  0.45567727162E-01  0.51100000000E-03 0. -1.
         11    1    4    4    0    0  0.77323950543E-01  0.24715423128E-01  0.34239891009E-01  0.88104918848E-01  0.51100000000E-03 0.  1.
</event>
<event>
 8    1  0.1092993E+005  0.1043930E+01  0.7957747E-01            NaN
         13   -1    0    0    0    0  0.00000000000E+00  0.00000000000E+00  0.74505805969E-08  0.10566000000E+00  0.10566000000E+00 0. -1.
     999900   -1    0    0    0    0 -0.00000000000E+00 -0.00000000000E+00 -0.74505805969E-08  0.93827000000E+00  0.93827000000E+00 0. -1.
     999902    2    1    2    0    0  0.11371797574E-01 -0.10966876966E-01 -0.16728158112E-01  0.10209208400E+01  0.10206615208E+01 0.  0.
     999903    2    3    3    0    0 -0.73749538682E-01  0.61066619030E-01  0.82969924870E-01  0.12829876196E+00  0.20209836050E-01 0.  0.
         14    1    1    2    0    0 -0.11371797574E-01  0.10966876966E-01  0.16728158112E-01  0.23009160008E-01  0.00000000000E+00 0. -1.
     999901    1    3    3    0    0  0.85121336256E-01 -0.72033495996E-01 -0.99698082982E-01  0.89262207803E+00  0.88000000000E+00 0. -1.
        -11    1    4    4    0    0 -0.14896666713E-01  0.50389177986E-02  0.76259756867E-02  0.17484793334E-01  0.51100000000E-03 0. -1.
         11    1    4    4    0    0 -0.58852871969E-01  0.56027701231E-01  0.75343949183E-01  0.11081396863E+00  0.51100000000E-03 0.  1.
</event>
<event>
 8    1  0.1092993E+005  0.1043930E+01  0.7957747E-01            NaN
         13   -1    0    0    0    0  0.00000000000E+00  0.00000000000E+00  0.74505805969E-08  0.10566000000E+00  0.10566000000E+00 0. -1.
     999900   -1    0    0    0    0 -0.00000000000E+00 -0.00000000000E+00 -0.74505805969E-08  0.93827000000E+00  0.93827000000E+00 0. -1.
     999902    2    1    2    0    0  0.22299408382E-01  0.16107700120E-02  0.62245461367E-02  0.10207221744E+01  0.10204583059E+01 0.  0.
     999903    2    3    3    0    0 -0.54500610545E-01  0.49045920811E-01  0.10605225872E+00  0.13048967183E+00  0.20116012943E-01 0.  0.
         14    1    1    2    0    0 -0.22299408382E-01 -0.16107700120E-02 -0.62245461367E-02  0.23207825595E-01  0.00000000000E+00 0.  1.
     999901    1    3    3    0    0  0.76800018928E-01 -0.47435150799E-01 -0.99827712585E-01  0.89023250257E+00  0.88000000000E+00 0. -1.
        -11    1    4    4    0    0 -0.43573778288E-01  0.48096049932E-01  0.87688345873E-01  0.10909358962E+00  0.51100000000E-03 0.  1.
         11    1    4    4    0    0 -0.10926832257E-01  0.94987087900E-03  0.18363912849E-01  0.21396082211E-01  0.51100000000E-03 0. -1.
</event>
<event>
 8    1  0.1092993E+005  0.1043930E+01  0.7957747E-01            NaN
         13   -1    0    0    0    0  0.00000000000E+00  0.00000000000E+00  0.74505805969E-08  0.10566000000E+00  0.10566000000E+00 0.  1.
     999900   -1    0    0    0    0 -0.00000000000E+00 -0.00000000000E+00 -0.74505805969E-08  0.93827000000E+00  0.93827000000E+00 0.  1.
     999902    2    1    2    0    0  0.18545921773E-01 -0.85858642828E-02 -0.13123239764E-01  0.10196423961E+01  0.10193530930E+01 0.  0.
     999903    2    3    3    0    0 -0.11006765676E+00 -0.28924890769E-01 -0.57216393042E-01  0.12896886742E+00  0.20191947868E-01 0.  0.
         14    1    1    2    0    0 -0.18545921773E-01  0.85858642828E-02  0.13123239764E-01  0.24287603871E-01  0.00000000000E+00 0.  1.
     999901    1    3    3    0    0  0.12861357854E+00  0.20339026486E-01  0.44093153278E-01  0.89067352871E+00  0.88000000000E+00 0.  1.
        -11    1    4    4    0    0 -0.23535753284E-01 -0.13214322803E-01 -0.19352608663E-01  0.33216480742E-01  0.51100000000E-03 0. -1.
         11    1    4    4    0    0 -0.86531903479E-01 -0.15710567966E-01 -0.37863784379E-01  0.95752386675E-01  0.51100000000E-03 0.  1.
</event>
<event>
 8    1  0.1092993E+005  0.1043930E+01  0.7957747E-01            NaN
         13   -1    0    0    0    0  0.00000000000E+00  0.00000000000E+00  0.74505805969E-08  0.10566000000E+00  0.10566000000E+00 0. -1.
     999900   -1    0    0    0    0 -0.00000000000E+00 -0.00000000000E+00 -0.74505805969E-08  0.93827000000E+00  0.93827000000E+00 0. -1.
     999902    2    1    2    0    0  0.15589371148E-01 -0.63915704234E-02 -0.12583056749E-01  0.10229011155E+01  0.10226849359E+01 0.  0.
     999903    2    3    3    0    0 -0.86434535708E-01  0.93863895722E-01 -0.23844275299E-01  0.13128076408E+00  0.19614527005E-01 0.  0.
         14    1    1    2    0    0 -0.15589371148E-01  0.63915704234E-02  0.12583056749E-01  0.21028884478E-01  0.00000000000E+00 0. -1.
     999901    1    3    3    0    0  0.10202390686E+00 -0.10025546615E+00  0.11261218550E-01  0.89162035144E+00  0.88000000000E+00 0.  1.
        -11    1    4    4    0    0 -0.13984349585E-01  0.12888349616E-01 -0.10712344212E-01  0.21833163505E-01  0.51100000000E-03 0.  1.
         11    1    4    4    0    0 -0.72450186123E-01  0.80975546106E-01 -0.13131931088E-01  0.10944760057E+00  0.51100000000E-03 0. -1.
</event>
<event>
 8    1  0.1092993E+005  0.1043930E+01  0.7957747E-01            NaN
         13   -1    0    0    0    0  0.00000000000E+00  0.00000000000E+00  0.74505805969E-08  0.10566000000E+00  0.10566000000E+00 0. -1.
     999900   -1    0    0    0    0 -0.00000000000E+00 -0.00000000000E+00 -0.74505805969E-08  0.93827000000E+00  0.93827000000E+00 0.  1.
     999902    2    1    2    0    0  0.16026370909E-01  0.50200314339E-02 -0.10814700490E-01  0.10239549399E+01  0.10237600871E+01 0.  0.
     999903    2    3    3    0    0 -0.89302236012E-01  0.87141181307E-01  0.39652189049E-01  0.13244784197E+00  0.20041454752E-01 0.  0.
         14    1    1    2    0    0 -0.16026370909E-01 -0.50200314339E-02  0.10814700490E-01  0.19975060120E-01  0.00000000000E+00 0. -1.
     999901    1    3    3    0    0  0.10532860692E+00 -0.82121149873E-01 -0.50466889539E-01  0.89150709791E+00  0.88000000000E+00 0.  1.
        -11    1    4    4    0    0 -0.76709041997E-01  0.68669450798E-01  0.38940896166E-01  0.11007463428E+00  0.51100000000E-03 0.  1.
         11    1    4    4    0    0 -0.12593194015E-01  0.18471730509E-01  0.71129288266E-03  0.22373207684E-01  0.51100000000E-03 0. -1.
</event>
<event>
 8    1  0.1092993E+005  0.1043930E+01  0.7957747E-01            NaN
         13   -1    0    0    0    0  0.00000000000E+00  0.00000000000E+00  0.74505805969E-08  0.10566000000E+00  0.10566000000E+00 0. -1.
     999900   -1    0    0    0    0 -0.00000000000E+00 -0.00000000000E+00 -0.74505805969E-08  0.93827000000E+00  0.93827000000E+00 0.  1.
     999902    2    1    2    0    0  0.71734068210E-02  0.19671894053E-01  0.10269557559E-01  0.10206082292E+01  0.10203417332E+01 0.  0.
     999903    2    3    3    0    0  0.10980326455E+00  0.68702999006E-01 -0.19479914014E-01  0.13278957203E+00  0.21834477608E-01 0.  0.
         14    1    1    2    0    0 -0.71734068210E-02 -0.19671894053E-01 -0.10269557559E-01  0.23321770806E-01  0.00000000000E+00 0.  1.
     999901    1    3    3    0    0 -0.10262985773E+00 -0.49031104952E-01  0.29749471572E-01  0.88781865716E+00  0.88000000000E+00 0. -1.
        -11    1    4    4    0    0  0.47777352245E-01  0.42177352980E-01 -0.62046235785E-02  0.64034076605E-01  0.51100000000E-03 0.  1.
         11    1    4    4    0    0  0.62025912302E-01  0.26525646026E-01 -0.13275290435E-01  0.68755495425E-01  0.51100000000E-03 0. -1.
</event>
<event>
 8    1  0.1092993E+005  0.1043930E+01  0.7957747E-01            NaN
         13   -1    0    0    0    0  0.00000000000E+00  0.00000000000E+00  0.74505805969E-08  0.10566000000E+00  0.10566000000E+00 0.  1.
     999900   -1    0    0    0    0 -0.00000000000E+00 -0.00000000000E+00 -0.74505805969E-08  0.93827000000E+00  0.93827000000E+00 0.  1.
     999902    2    1    2    0    0 -0.93517519196E-02 -0.14187282716E-01 -0.17251574499E-01  0.10197153128E+01  0.10194277650E+01 0.  0.
     999903    2    3    3    0    0 -0.42389464372E-01  0.11408184584E+00 -0.39352400870E-01  0.12952830640E+00  0.20431261949E-01 0.  0.
         14    1    1    2    0    0  0.93517519196E-02  0.14187282716E-01  0.17251574499E-01  0.24214687228E-01  0.00000000000E+00 0.  1.
     999901    1    3    3    0    0  0.33037712453E-01 -0.12826912856E+00  0.22100826371E-01  0.89018700637E+00  0.88000000000E+00 0.  1.
        -11    1    4    4    0    0 -0.20292311630E-03  0.15389154810E-01 -0.96091149266E-02  0.18151128732E-01  0.51100000000E-03 0.  1.
         11    1    4    4    0    0 -0.42186541256E-01  0.98692691030E-01 -0.29743285943E-01  0.11137717767E+00  0.51100000000E-03 0. -1.
</event>
<event>
 8    1  0.1092993E+005  0.1043930E+01  0.7957747E-01            NaN
         13   -1    0    0    0    0  0.00000000000E+00  0.00000000000E+00  0.74505805969E-08  0.10566000000E+00  0.10566000000E+00 0.  1.
     999900   -1    0    0    0    0 -0.00000000000E+00 -0.00000000000E+00 -0.74505805969E-08  0.93827000000E+00  0.93827000000E+00 0.  1.
     999902    2    1    2    0    0  0.14494358895E-01 -0.17345927866E-02 -0.24593170284E-01  0.10153307120E+01  0.10149278474E+01 0.  0.
     999903    2    3    3    0    0  0.80575248752E-01 -0.81201600415E-01 -0.55584360197E-01  0.12874053428E+00  0.19960797730E-01 0.  0.
         14    1    1    2    0    0 -0.14494358895E-01  0.17345927866E-02  0.24593170284E-01  0.28599288043E-01  0.00000000000E+00 0.  1.
     999901    1    3    3    0    0 -0.66080889857E-01  0.79467007629E-01  0.30991189913E-01  0.88659017768E+00  0.88000000000E+00 0.  1.
        -11    1    4    4    0    0  0.66479981218E-01 -0.57382440466E-01 -0.36428587409E-01  0.95076997629E-01  0.51100000000E-03 0. -1.
         11    1    4    4    0    0  0.14095267534E-01 -0.23819159949E-01 -0.19155772789E-01  0.33663536649E-01  0.51100000000E-03 0.  1.
</event>
<event>
 8    1  0.1092993E+005  0.1043930E+01  0.7957747E-01            NaN
         13   -1    0    0    0    0  0.00000000000E+00  0.00000000000E+00  0.74505805969E-08  0.10566000000E+00  0.10566000000E+00 0. -1.
     999900   -1    0    0    0    0 -0.00000000000E+00 -0.00000000000E+00 -0.74505805969E-08  0.93827000000E+00  0.93827000000E+00 0.  1.
     999902    2    1    2    0    0 -0.88436689220E-03  0.21977837587E-01  0.77303699142E-02  0.10206154966E+01  0.10203491686E+01 0.  0.
     999903    2    3    3    0    0 -0.12187651303E+00 -0.33914251455E-01 -0.22956288908E-01  0.13005123947E+00  0.19551798056E-01 0.  0.
         14    1    1    2    0    0  0.88436689220E-03 -0.21977837587E-01 -0.77303699142E-02  0.23314503401E-01  0.00000000000E+00 0. -1.
     999901    1    3    3    0    0  0.12099214614E+00  0.55892089042E-01  0.30686658822E-01  0.89056425713E+00  0.88000000000E+00 0. -1.
        -11    1    4    4    0    0 -0.47823677239E-01 -0.10556088721E-01  0.34742012651E-03  0.48978739627E-01  0.51100000000E-03 0. -1.
         11    1    4    4    0    0 -0.74052835792E-01 -0.23358162734E-01 -0.23303709035E-01  0.81072499844E-01  0.51100000000E-03 0.  1.
</event>
<event>
 8    1  0.1092993E+005  0.1043930E+01  0.7957747E-01            NaN
         13   -1    0    0    0    0  0.00000000000E+00  0.00000000000E+00  0.74505805969E-08  0.10566000000E+00  0.10566000000E+00 0. -1.
     999900   -1    0    0    0    0 -0.00000000000E+00 -0.00000000000E+00 -0.74505805969E-08  0.93827000000E+00  0.93827000000E+00 0. -1.
     999902    2    1    2    0    0  0.15109010734E-01  0.72810528317E-02  0.16094852089E-01  0.10206847811E+01  0.10204200519E+01 0.  0.
     999903    2    3    3    0    0  0.89895213442E-01  0.61076759871E-01  0.75779495532E-01  0.13386506391E+00  0.19125987495E-01 0.  0.
         14    1    1    2    0    0 -0.15109010734E-01 -0.72810528317E-02 -0.16094852089E-01  0.23245218851E-01  0.00000000000E+00 0.  1.
     999901    1    3    3    0    0 -0.74786202708E-01 -0.53795707039E-01 -0.59684643444E-01  0.88681971723E+00  0.88000000000E+00 0. -1.
        -11    1    4    4    0    0  0.20402301780E-01  0.23415913861E-01  0.17429828886E-01  0.35617678137E-01  0.51100000000E-03 0. -1.
         11    1    4    4    0    0  0.69492911662E-01  0.37660846010E-01  0.58349666646E-01  0.98247385778E-01  0.51100000000E-03 0.  1.
</event>
<event>
 8    1  0.1292199E+005  0.1043930E+01  0.7957747E-01            NaN
         13   -1    0    0    0    0  0.00000000000E+00  0.00000000000E+00  0.74505805969E-08  0.10566000000E+00  0.10566000000E+00 0. -1.
     999900   -1    0    0    0    0 -0.00000000000E+00 -0.00000000000E+00 -0.74505805969E-08  0.93827000000E+00  0.93827000000E+00 0. -1.
     999902    2    1    2    0    0 -0.96757919598E-02 -0.21190147073E-01  0.33853337701E-02  0.10203905912E+01  0.10201190395E+01 0.  0.
     999903    2    3    3    0    0 -0.39971435371E-02 -0.13110915964E+00  0.60127234691E-02  0.13353020783E+00  0.24260557748E-01 0.  0.
         14    1    1    2    0    0  0.96757919598E-02  0.21190147073E-01 -0.33853337701E-02  0.23539408823E-01  0.00000000000E+00 0. -1.
     999901    1    3    3    0    0 -0.56786484227E-02  0.10991901257E+00 -0.26273896990E-02  0.88686038335E+00  0.88000000000E+00 0. -1.
        -11    1    4    4    0    0 -0.71584017418E-02 -0.60971415245E-01  0.13692202194E-01  0.62900665453E-01  0.51100000000E-03 0.  1.
         11    1    4    4    0    0  0.31612582047E-02 -0.70137744394E-01 -0.76794787250E-02  0.70629542378E-01  0.51100000000E-03 0. -1.
</event>
<event>
 8    1  0.1092993E+005  0.1043930E+01  0.7957747E-01            NaN
         13   -1    0    0    0    0  0.00000000000E+00  0.00000000000E+00  0.74505805969E-08  0.10566000000E+00  0.10566000000E+00 0. -1.
     999900   -1    0    0    0    0 -0.00000000000E+00 -0.00000000000E+00 -0.74505805969E-08  0.93827000000E+00  0.93827000000E+00 0. -1.
     999902    2    1    2    0    0 -0.62943915177E-02  0.12064504816E-01  0.19366162050E-01  0.10202610356E+01  0.10199864514E+01 0.  0.
     999903    2    3    3    0    0  0.78289498068E-01 -0.99153998735E-01 -0.13365896225E-01  0.12863590279E+00  0.20193744835E-01 0.  0.
         14    1    1    2    0    0  0.62943915177E-02 -0.12064504816E-01 -0.19366162050E-01  0.23668964354E-01  0.00000000000E+00 0. -1.
     999901    1    3    3    0    0 -0.84583889586E-01  0.11121850355E+00  0.32732058276E-01  0.89162513286E+00  0.88000000000E+00 0. -1.
        -11    1    4    4    0    0  0.46089241333E-01 -0.65977428712E-01  0.84125273035E-04  0.80482963813E-01  0.51100000000E-03 0.  1.
         11    1    4    4    0    0  0.32200256736E-01 -0.33176570024E-01 -0.13450021498E-01  0.48152938973E-01  0.51100000000E-03 0. -1.
</event>
<event>
 8    1  0.1092993E+005  0.1043930E+01  0.7957747E-01            NaN
         13   -1    0    0    0    0  0.00000000000E+00  0.00000000000E+00  0.74505805969E-08  0.10566000000E+00  0.10566000000E+00 0.  1.
     999900   -1    0    0    0    0 -0.00000000000E+00 -0.00000000000E+00 -0.74505805969E-08  0.93827000000E+00  0.93827000000E+00 0.  1.
     999902    2    1    2    0    0 -0.10822409825E-01 -0.14793408056E-01  0.14980662601E-01  0.10202574478E+01  0.10199827793E+01 0.  0.
     999903    2    3    3    0    0 -0.45878550048E-01 -0.12085812407E+00 -0.20530385978E-01  0.13248512814E+00  0.20476447993E-01 0.  0.
         14    1    1    2    0    0  0.10822409825E-01  0.14793408056E-01 -0.14980662601E-01  0.23672552214E-01  0.00000000000E+00 0. -1.
     999901    1    3    3    0    0  0.35056140223E-01  0.10606471602E+00  0.35511048579E-01  0.88777231964E+00  0.88000000000E+00 0.  1.
        -11    1    4    4    0    0 -0.40223144094E-01 -0.97380389266E-01 -0.24059830460E-01  0.10807394736E+00  0.51100000000E-03 0. -1.
         11    1    4    4    0    0 -0.56554059541E-02 -0.23477734806E-01  0.35294444826E-02  0.24411180789E-01  0.51100000000E-03 0.  1.
</event>
<event>
 8    1  0.1092993E+005  0.1043930E+01  0.7957747E-01            NaN
         13   -1    0    0    0    0  0.00000000000E+00  0.00000000000E+00  0.74505805969E-08  0.10566000000E+00  0.10566000000E+00 0.  1.
     999900   -1    0    0    0    0 -0.00000000000E+00 -0.00000000000E+00 -0.74505805969E-08  0.93827000000E+00  0.93827000000E+00 0.  1.
     999902    2    1    2    0    0 -0.20522348778E-01 -0.49768731604E-02 -0.93714330314E-03  0.10227920175E+01  0.10225735655E+01 0.  0.
     999903    2    3    3    0    0  0.43229472735E-01  0.13929376324E-01 -0.12074726742E+00  0.13218761215E+00  0.28824423298E-01 0.  0.
         14    1    1    2    0    0  0.20522348778E-01  0.49768731604E-02  0.93714330314E-03  0.21137982482E-01  0.00000000000E+00 0. -1.
     999901    1    3    3    0    0 -0.63751821514E-01 -0.18906249485E-01  0.11981012412E+00  0.89060440537E+00  0.88000000000E+00 0. -1.
        -11    1    4    4    0    0  0.33557505332E-01 -0.36041665253E-02 -0.74699874746E-01  0.81972120800E-01  0.51100000000E-03 0. -1.
         11    1    4    4    0    0  0.96719674037E-02  0.17533542850E-01 -0.46047392677E-01  0.50215491352E-01  0.51100000000E-03 0.  1.
</event>
<event>
 8    1  0.1092993E+005  0.1043930E+01  0.7957747E-01            NaN
         13   -1    0    0    0    0  0.00000000000E+00  0.00000000000E+00  0.74505805969E-08  0.10566000000E+00  0.10566000000E+00 0.  1.
     999900   -1    0    0    0    0 -0.00000000000E+00 -0.00000000000E+00 -0.74505805969E-08  0.93827000000E+00  0.93827000000E+00 0.  1.
     999902    2    1    2    0    0 -0.23770336684E-02  0.18877671377E-01  0.15851722597E-01  0.10191652292E+01  0.10188643042E+01 0.  0.
     999903    2    3    3    0    0  0.29534822120E-01 -0.38739569966E-01 -0.11552342758E+00  0.12697828511E+00  0.20118711972E-01 0.  0.
         14    1    1    2    0    0  0.23770336684E-02 -0.18877671377E-01 -0.15851722597E-01  0.24764770844E-01  0.00000000000E+00 0. -1.
     999901    1    3    3    0    0 -0.31911855789E-01  0.57617241343E-01  0.13137515018E+00  0.89218694404E+00  0.88000000000E+00 0. -1.
        -11    1    4    4    0    0  0.24009889322E-01 -0.16525565956E-01 -0.54610998658E-01  0.61904696194E-01  0.51100000000E-03 0.  1.
         11    1    4    4    0    0  0.55249327985E-02 -0.22214004010E-01 -0.60912428921E-01  0.65073588917E-01  0.51100000000E-03 0. -1.
</event>
<event>
 8    1  0.1092993E+005  0.1043930E+01  0.7957747E-01            NaN
         13   -1    0    0    0    0  0.00000000000E+00  0.00000000000E+00  0.74505805969E-08  0.10566000000E+00  0.10566000000E+00 0.  1.
     999900   -1    0    0    0    0 -0.00000000000E+00 -0.00000000000E+00 -0.74505805969E-08  0.93827000000E+00  0.93827000000E+00 0. -1.
     999902    2    1    2    0    0  0.46385403435E-02 -0.18410174616E-02  0.20755296372E-01  0.10225831565E+01  0.10223603201E+01 0.  0.
     999903    2    3    3    0    0  0.12379845203E+00 -0.77208293126E-02 -0.42239786985E-01  0.13230115772E+00  0.18268245668E-01 0.  0.
         14    1    1    2    0    0 -0.46385403435E-02  0.18410174616E-02 -0.20755296372E-01  0.21346843544E-01  0.00000000000E+00 0. -1.
     999901    1    3    3    0    0 -0.11915991169E+00  0.58798118510E-02  0.62995083357E-01  0.89028199873E+00  0.88000000000E+00 0.  1.
        -11    1    4    4    0    0  0.99658510666E-01 -0.13357522344E-01 -0.35058667314E-01  0.10648762100E+00  0.51100000000E-03 0.  1.
         11    1    4    4    0    0  0.24139941365E-01  0.56366930316E-02 -0.71811196706E-02  0.25813536723E-01  0.51100000000E-03 0. -1.
</event>
<event>
 8    1  0.1092993E+005  0.1043930E+01  0.7957747E-01            NaN
         13   -1    0    0    0    0  0.00000000000E+00  0.00000000000E+00  0.74505805969E-08  0.10566000000E+00  0.10566000000E+00 0.  1.
     999900   -1    0    0    0    0 -0.00000000000E+00 -0.00000000000E+00 -0.74505805969E-08  0.93827000000E+00  0.93827000000E+00 0.  1.
     999902    2    1    2    0    0  0.32588330387E-02  0.23479626774E-01  0.17489313866E-02  0.10201608682E+01  0.10198839274E+01 0.  0.
     999903    2    3    3    0    0 -0.69734916956E-01 -0.98529467563E-01  0.38103376195E-01  0.12800844158E+00  0.19059885025E-01 0.  0.
         14    1    1    2    0    0 -0.32588330387E-02 -0.23479626774E-01 -0.17489313866E-02  0.23769131815E-01  0.00000000000E+00 0. -1.
     999901    1    3    3    0    0  0.72993749995E-01  0.12200909434E+00 -0.36354444809E-01  0.89215242660E+00  0.88000000000E+00 0. -1.
        -11    1    4    4    0    0 -0.42615990279E-01 -0.74109218807E-01  0.30181743138E-01  0.90661445386E-01  0.51100000000E-03 0.  1.
         11    1    4    4    0    0 -0.27118926677E-01 -0.24420248756E-01  0.79216330569E-02  0.37346996194E-01  0.51100000000E-03 0. -1.
</event>
<event>
 8    1  0.1092993E+005  0.1043930E+01  0.7957747E-01            NaN
         13   -1    0    0    0    0  0.00000000000E+00  0.00000000000E+00  0.74505805969E-08  0.10566000000E+00  0.10566000000E+00 0.  1.
     999900   -1    0    0    0    0 -0.00000000000E+00 -0.00000000000E+00 -0.74505805969E-08  0.93827000000E+00  0.93827000000E+00 0. -1.
     999902    2    1    2    0    0  0.14495573230E-01  0.75201258847E-02  0.18396721487E-01  0.10193309492E+01  0.10190340872E+01 0.  0.
     999903    2    3    3    0    0 -0.84893210729E-01 -0.76640919940E-01  0.54743188241E-01  0.12900388706E+00  0.23759174666E-01 0.  0.
         14    1    1    2    0    0 -0.14495573230E-01 -0.75201258847E-02 -0.18396721487E-01  0.24599050756E-01  0.00000000000E+00 0. -1.
     999901    1    3    3    0    0  0.99388783959E-01  0.84161045825E-01 -0.36346466753E-01  0.89032706218E+00  0.88000000000E+00 0.  1.
        -11    1    4    4    0    0 -0.70927375783E-01 -0.72504565869E-01  0.52650020883E-01  0.11427987805E+00  0.51100000000E-03 0. -1.
         11    1    4    4    0    0 -0.13965834946E-01 -0.41363540717E-02  0.20931673576E-02  0.14724009010E-01  0.51100000000E-03 0.  1.
</event>
<event>
 8    1  0.1092993E+005  0.1043930E+01  0.7957747E-01            NaN
         13   -1    0    0    0    0  0.00000000000E+00  0.00000000000E+00  0.74505805969E-08  0.10566000000E+00  0.10566000000E+00 0. -1.
     999900   -1    0    0    0    0 -0.00000000000E+00 -0.00000000000E+00 -0.74505805969E-08  0.93827000000E+00  0.93827000000E+00 0.  1.
     999902    2    1    2    0    0  0.90433196146E-02  0.12539305674E-01  0.19049859188E-01  0.10193960857E+01  0.10191008128E+01 0.  0.
     999903    2    3    3    0    0 -0.11716464898E+00  0.79195739757E-02 -0.46615990255E-01  0.12795803566E+00  0.20246819953E-01 0.  0.
         14    1    1    2    0    0 -0.90433196146E-02 -0.12539305674E-01 -0.19049859188E-01  0.24533914313E-01  0.00000000000E+00 0.  1.
     999901    1    3    3    0    0  0.12620796860E+00  0.46197316983E-02  0.65665849443E-01  0.89143805003E+00  0.88000000000E+00 0.  1.
        -11    1    4    4    0    0 -0.89740961644E-01  0.10434417196E-02 -0.42776246548E-01  0.99421312389E-01  0.51100000000E-03 0.  1.
         11    1    4    4    0    0 -0.27423687340E-01  0.68761322562E-02 -0.38397437068E-02  0.28536723268E-01  0.51100000000E-03 0. -1.
</event>
<event>
 8    1  0.1092993E+005  0.1043930E+01  0.7957747E-01            NaN
         13   -1    0    0    0    0  0.00000000000E+00  0.00000000000E+00  0.74505805969E-08  0.10566000000E+00  0.10566000000E+00 0.  1.
     999900   -1    0    0    0    0 -0.00000000000E+00 -0.00000000000E+00 -0.74505805969E-08  0.93827000000E+00  0.93827000000E+00 0. -1.
     999902    2    1    2    0    0  0.12071183159E-01  0.13798907738E-01  0.14759487668E-01  0.10203935221E+01  0.10201220388E+01 0.  0.
     999903    2    3    3    0    0  0.11560998305E+00 -0.44510666124E-01 -0.37423869704E-01  0.13087489253E+00  0.19514709647E-01 0.  0.
         14    1    1    2    0    0 -0.12071183159E-01 -0.13798907738E-01 -0.14759487668E-01  0.23536477940E-01  0.00000000000E+00 0. -1.
     999901    1    3    3    0    0 -0.10353879989E+00  0.58309573861E-01  0.52183357372E-01  0.88951862953E+00  0.88000000000E+00 0.  1.
        -11    1    4    4    0    0  0.81363244965E-01 -0.40049232169E-01 -0.23917979335E-01  0.93788322754E-01  0.51100000000E-03 0. -1.
         11    1    4    4    0    0  0.34246738085E-01 -0.44614339549E-02 -0.13505890369E-01  0.37086569780E-01  0.51100000000E-03 0.  1.
</event>
<event>
 8    1  0.1092993E+005  0.1043930E+01  0.7957747E-01            NaN
         13   -1    0    0    0    0  0.00000000000E+00  0.00000000000E+00  0.74505805969E-08  0.10566000000E+00  0.10566000000E+00 0. -1.
     999900   -1    0    0    0    0 -0.00000000000E+00 -0.00000000000E+00 -0.74505805969E-08  0.93827000000E+00  0.93827000000E+00 0.  1.
     999902    2    1    2    0    0 -0.11569508022E-01 -0.20427168690E-01  0.38525352626E-02  0.10201399860E+01  0.10198625527E+01 0.  0.
     999903    2    3    3    0    0  0.62064649924E-01  0.47445969691E-01  0.10076815292E+00  0.12917343836E+00  0.20698205808E-01 0.  0.
         14    1    1    2    0    0  0.11569508022E-01  0.20427168690E-01 -0.38525352626E-02  0.23790013966E-01  0.00000000000E+00 0. -1.
     999901    1    3    3    0    0 -0.73634157946E-01 -0.67873138381E-01 -0.96915617660E-01  0.89096654768E+00  0.88000000000E+00 0.  1.
        -11    1    4    4    0    0  0.24727310034E-01  0.70299154595E-02  0.29444086506E-01  0.39090598922E-01  0.51100000000E-03 0. -1.
         11    1    4    4    0    0  0.37337339890E-01  0.40416054231E-01  0.71324066417E-01  0.90082839436E-01  0.51100000000E-03 0.  1.
</event>
<event>
 8    1  0.1092993E+005  0.1043930E+01  0.7957747E-01            NaN
         13   -1    0    0    0    0  0.00000000000E+00  0.00000000000E+00  0.74505805969E-08  0.10566000000E+00  0.10566000000E+00 0. -1.
     999900   -1    0    0    0    0 -0.00000000000E+00 -0.00000000000E+00 -0.74505805969E-08  0.93827000000E+00  0.93827000000E+00 0. -1.
     999902    2    1    2    0    0  0.10188818341E-01  0.17937973849E-01 -0.16799967797E-01  0.10173250786E+01  0.10169771353E+01 0.  0.
     999903    2    3    3    0    0  0.12073966919E+00 -0.19725504659E-01 -0.35205419744E-01  0.12941810774E+00  0.23290808920E-01 0.  0.
         14    1    1    2    0    0 -0.10188818341E-01 -0.17937973849E-01  0.16799967797E-01  0.26604921405E-01  0.00000000000E+00 0. -1.
     999901    1    3    3    0    0 -0.11055085085E+00  0.37663478508E-01  0.18405451946E-01  0.88790697086E+00  0.88000000000E+00 0.  1.
        -11    1    4    4    0    0  0.17203220280E-01 -0.33896288029E-02 -0.14076899993E-01  0.22491345132E-01  0.51100000000E-03 0.  1.
         11    1    4    4    0    0  0.10353644891E+00 -0.16335875856E-01 -0.21128519750E-01  0.10692676260E+00  0.51100000000E-03 0. -1.
</event>
<event>
 8    1  0.1092993E+005  0.1043930E+01  0.7957747E-01            NaN
         13   -1    0    0    0    0  0.00000000000E+00  0.00000000000E+00  0.74505805969E-08  0.10566000000E+00  0.10566000000E+00 0.  1.
     999900   -1    0    0    0    0 -0.00000000000E+00 -0.00000000000E+00 -0.74505805969E-08  0.93827000000E+00  0.93827000000E+00 0. -1.
     999902    2    1    2    0    0 -0.13659769904E-01 -0.31557167153E-02 -0.19441708244E-01  0.10199606888E+01  0.10196790077E+01 0.  0.
     999903    2    3    3    0    0 -0.57293366806E-01  0.11014611808E+00 -0.38434061267E-01  0.13142149097E+00  0.19486765111E-01 0.  0.
         14    1    1    2    0    0  0.13659769904E-01  0.31557167153E-02  0.19441708244E-01  0.23969311238E-01  0.00000000000E+00 0.  1.
     999901    1    3    3    0    0  0.43633596902E-01 -0.11330183479E+00  0.18992353024E-01  0.88853919780E+00  0.88000000000E+00 0. -1.
        -11    1    4    4    0    0 -0.38251354692E-01  0.54899570896E-01 -0.15803131617E-01  0.68754120678E-01  0.51100000000E-03 0. -1.
         11    1    4    4    0    0 -0.19042012114E-01  0.55246547182E-01 -0.22630929651E-01  0.62667370288E-01  0.51100000000E-03 0.  1.
</event>
<event>
 8    1  0.1092993E+005  0.1043930E+01  0.7957747E-01            NaN
         13   -1    0    0    0    0  0.00000000000E+00  0.00000000000E+00  0.74505805969E-08  0.10566000000E+00  0.10566000000E+00 0.  1.
     999900   -1    0    0    0    0 -0.00000000000E+00 -0.00000000000E+00 -0.74505805969E-08  0.93827000000E+00  0.93827000000E+00 0. -1.
     999902    2    1    2    0    0 -0.61202551078E-02  0.18205367273E-01 -0.13265661292E-01  0.10205875346E+01  0.10203205600E+01 0.  0.
     999903    2    3    3    0    0  0.10219398296E+00 -0.67161207678E-01 -0.37471895129E-01  0.12951774609E+00  0.20407490211E-01 0.  0.
         14    1    1    2    0    0  0.61202551078E-02 -0.18205367273E-01  0.13265661292E-01  0.23342465372E-01  0.00000000000E+00 0.  1.
     999901    1    3    3    0    0 -0.10831423807E+00  0.85366574951E-01  0.24206233837E-01  0.89106978854E+00  0.88000000000E+00 0. -1.
        -11    1    4    4    0    0  0.41606593649E-01 -0.30448105094E-01 -0.26019484004E-01  0.57753531561E-01  0.51100000000E-03 0. -1.
         11    1    4    4    0    0  0.60587389316E-01 -0.36713102584E-01 -0.11452411125E-01  0.71764214529E-01  0.51100000000E-03 0.  1.
</event>
<event>
 8    1  0.1092993E+005  0.1043930E+01  0.7957747E-01            NaN
         13   -1    0    0    0    0  0.00000000000E+00  0.00000000000E+00  0.74505805969E-08  0.10566000000E+00  0.10566000000E+00 0.  1.
     999900   -1    0    0    0    0 -0.00000000000E+00 -0.00000000000E+00 -0.74505805969E-08  0.93827000000E+00  0.93827000000E+00 0. -1.
     999902    2    1    2    0    0 -0.60667931167E-02  0.18304195533E-01 -0.15482478489E-01  0.10192003277E+01  0.10189002656E+01 0.  0.
     999903    2    3    3    0    0 -0.87031761654E-01 -0.27913244394E-01 -0.91871754043E-01  0.13098486998E+00  0.19050990074E-01 0.  0.
         14    1    1    2    0    0  0.60667931167E-02 -0.18304195533E-01  0.15482478489E-01  0.24729672319E-01  0.00000000000E+00 0. -1.
     999901    1    3    3    0    0  0.80964968538E-01  0.46217439927E-01  0.76389275554E-01  0.88821545770E+00  0.88000000000E+00 0. -1.
        -11    1    4    4    0    0 -0.35816423662E-01 -0.75098514391E-02 -0.25028346951E-01  0.44338395829E-01  0.51100000000E-03 0.  1.
         11    1    4    4    0    0 -0.51215337993E-01 -0.20403392955E-01 -0.66843407092E-01  0.86646474149E-01  0.51100000000E-03 0. -1.
</event>
<event>
 8    1  0.1092993E+005  0.1043930E+01  0.7957747E-01            NaN
         13   -1    0    0    0    0  0.00000000000E+00  0.00000000000E+00  0.74505805969E-08  0.10566000000E+00  0.10566000000E+00 0.  1.
     999900   -1    0    0    0    0 -0.00000000000E+00 -0.00000000000E+00 -0.74505805969E-08  0.93827000000E+00  0.93827000000E+00 0.  1.
     999902    2    1    2    0    0 -0.16149459553E-01 -0.60036373373E-02 -0.15964305141E-01  0.10204415402E+01  0.10201711764E+01 0.  0.
     999903    2    3    3    0    0 -0.27117180831E-01 -0.31161349585E-01  0.12106150944E+00  0.12941445012E+00  0.19642800877E-01 0.  0.
         14    1    1    2    0    0  0.16149459553E-01  0.60036373373E-02  0.15964305141E-01  0.23488459800E-01  0.00000000000E+00 0. -1.
     999901    1    3    3    0    0  0.10967721278E-01  0.25157712248E-01 -0.13702581459E+00  0.89102709008E+00  0.88000000000E+00 0.  1.
        -11    1    4    4    0    0 -0.20813988208E-01 -0.11008670988E-01  0.49792493006E-01  0.55081452621E-01  0.51100000000E-03 0.  1.
         11    1    4    4    0    0 -0.63031926227E-02 -0.20152678597E-01  0.71269016439E-01  0.74332997498E-01  0.51100000000E-03 0. -1.
</event>
<event>
 8    1  0.1092993E+005  0.1043930E+01  0.7957747E-01            NaN
         13   -1    0    0    0    0  0.00000000000E+00  0.00000000000E+00  0.74505805969E-08  0.10566000000E+00  0.10566000000E+00 0.  1.
     999900   -1    0    0    0    0 -0.00000000000E+00 -0.00000000000E+00 -0.74505805969E-08  0.93827000000E+00  0.93827000000E+00 0. -1.
     999902    2    1    2    0    0  0.16195440832E-01 -0.11342380397E-01 -0.13256945148E-01  0.10201247802E+01  0.10198469878E+01 0.  0.
     999903    2    3    3    0    0  0.11426661746E+00  0.80829467268E-03 -0.65520932491E-01  0.13305256272E+00  0.18774414629E-01 0.  0.
         14    1    1    2    0    0 -0.16195440832E-01  0.11342380397E-01  0.13256945148E-01  0.23805219837E-01  0.00000000000E+00 0.  1.
     999901    1    3    3    0    0 -0.98071176631E-01 -0.12150675070E-01  0.52263987342E-01  0.88707221745E+00  0.88000000000E+00 0.  1.
        -11    1    4    4    0    0  0.62922533653E-01 -0.49493710898E-02 -0.27229451832E-01  0.68741877219E-01  0.51100000000E-03 0. -1.
         11    1    4    4    0    0  0.51344083810E-01  0.57576657624E-02 -0.38291480659E-01  0.64310685499E-01  0.51100000000E-03 0.  1.
</event>
<event>
 8    1  0.1092993E+005  0.1043930E+01  0.7957747E-01            NaN
         13   -1    0    0    0    0  0.00000000000E+00  0.00000000000E+00  0.74505805969E-08  0.10566000000E+00  0.10566000000E+00 0.  1.
     999900   -1    0    0    0    0 -0.00000000000E+00 -0.00000000000E+00 -0.74505805969E-08  0.93827000000E+00  0.93827000000E+00 0.  1.
     999902    2    1    2    0    0  0.22480580838E-01  0.25170671455E-03  0.96595139828E-02  0.10194607115E+01  0.10191670109E+01 0.  0.
     999903    2    3    3    0    0  0.42579815605E-01 -0.71419727474E-02 -0.12059238807E+00  0.12961566668E+00  0.19840577545E-01 0.  0.
         14    1    1    2    0    0 -0.22480580838E-01 -0.25170671455E-03 -0.96595139828E-02  0.24469288536E-01  0.00000000000E+00 0. -1.
     999901    1    3    3    0    0 -0.20099234767E-01  0.73936794619E-02  0.13025190205E+00  0.88984504478E+00  0.88000000000E+00 0. -1.
        -11    1    4    4    0    0  0.17822557878E-01 -0.12873127368E-01 -0.60288605153E-01  0.64174278413E-01  0.51100000000E-03 0.  1.
         11    1    4    4    0    0  0.24757257727E-01  0.57311546209E-02 -0.60303782917E-01  0.65441388269E-01  0.51100000000E-03 0. -1.
</event>
<event>
 8    1  0.1092993E+005  0.1043930E+01  0.7957747E-01            NaN
         13   -1    0    0    0    0  0.00000000000E+00  0.00000000000E+00  0.74505805969E-08  0.10566000000E+00  0.10566000000E+00 0. -1.
     999900   -1    0    0    0    0 -0.00000000000E+00 -0.00000000000E+00 -0.74505805969E-08  0.93827000000E+00  0.93827000000E+00 0. -1.
     999902    2    1    2    0    0  0.21920017887E-01  0.56771426564E-02  0.49026475811E-02  0.10207620677E+01  0.10204991160E+01 0.  0.
     999903    2    3    3    0    0 -0.80164319361E-01 -0.78124106119E-01  0.61243271412E-01  0.12912417760E+00  0.19814663537E-01 0.  0.
         14    1    1    2    0    0 -0.21920017887E-01 -0.56771426564E-02 -0.49026475811E-02  0.23167932282E-01  0.00000000000E+00 0.  1.
     999901    1    3    3    0    0  0.10208433725E+00  0.83801248775E-01 -0.56340623831E-01  0.89163789012E+00  0.88000000000E+00 0.  1.
        -11    1    4    4    0    0 -0.37387042367E-01 -0.29473881146E-01  0.16491334508E-01  0.50385770230E-01  0.51100000000E-03 0.  1.
         11    1    4    4    0    0 -0.42777276994E-01 -0.48650224972E-01  0.44751936904E-01  0.78738407366E-01  0.51100000000E-03 0. -1.
</event>
<event>
 8    1  0.1092993E+005  0.1043930E+01  0.7957747E-01            NaN
         13   -1    0    0    0    0  0.00000000000E+00  0.00000000000E+00  0.74505805969E-08  0.10566000000E+00  0.10566000000E+00 0.  1.
     999900   -1    0    0    0    0 -0.00000000000E+00 -0.00000000000E+00 -0.74505805969E-08  0.93827000000E+00  0.93827000000E+00 0. -1.
     999902    2    1    2    0    0 -0.47534962103E-02 -0.20544438678E-01 -0.11296831462E-01  0.10200074565E+01  0.10197268866E+01 0.  0.
     999903    2    3    3    0    0 -0.12340770065E-01 -0.72981982296E-01 -0.10870260567E+00  0.13304908793E+00  0.20177685077E-01 0.  0.
         14    1    1    2    0    0  0.47534962103E-02  0.20544438678E-01  0.11296831462E-01  0.23922543508E-01  0.00000000000E+00 0.  1.
     999901    1    3    3    0    0  0.75872738547E-02  0.52437543618E-01  0.97405774208E-01  0.88695836856E+00  0.88000000000E+00 0.  1.
        -11    1    4    4    0    0 -0.11468878010E-01 -0.48155308058E-01 -0.86807844140E-01  0.99931635543E-01  0.51100000000E-03 0. -1.
         11    1    4    4    0    0 -0.87189205501E-03 -0.24826674238E-01 -0.21894761530E-01  0.33117452391E-01  0.51100000000E-03 0.  1.
</event>
<event>
 8    1  0.1092993E+005  0.1043930E+01  0.7957747E-01            NaN
         13   -1    0    0    0    0  0.00000000000E+00  0.00000000000E+00  0.74505805969E-08  0.10566000000E+00  0.10566000000E+00 0.  1.
     999900   -1    0    0    0    0 -0.00000000000E+00 -0.00000000000E+00 -0.74505805969E-08  0.93827000000E+00  0.93827000000E+00 0. -1.
     999902    2    1    2    0    0  0.11335613131E-01 -0.14479984326E-01 -0.17121386553E-01  0.10188041578E+01  0.10184942827E+01 0.  0.
     999903    2    3    3    0    0  0.27174894326E-01 -0.17295416626E-01  0.12195571887E+00  0.12773667953E+00  0.20145858517E-01 0.  0.
         14    1    1    2    0    0 -0.11335613131E-01  0.14479984326E-01  0.17121386553E-01  0.25125842247E-01  0.00000000000E+00 0.  1.
     999901    1    3    3    0    0 -0.15839281195E-01  0.28154323005E-02 -0.13907710542E+00  0.89106747822E+00  0.88000000000E+00 0. -1.
        -11    1    4    4    0    0  0.22578626277E-01 -0.96105283717E-02  0.55585723689E-01  0.60763397035E-01  0.51100000000E-03 0. -1.
         11    1    4    4    0    0  0.45962680496E-02 -0.76848882544E-02  0.66369995180E-01  0.66973282498E-01  0.51100000000E-03 0.  1.
</event>
<event>
 8    1  0.1092993E+005  0.1043930E+01  0.7957747E-01            NaN
         13   -1    0    0    0    0  0.00000000000E+00  0.00000000000E+00  0.74505805969E-08  0.10566000000E+00  0.10566000000E+00 0.  1.
     999900   -1    0    0    0    0 -0.00000000000E+00 -0.00000000000E+00 -0.74505805969E-08  0.93827000000E+00  0.93827000000E+00 0. -1.
     999902    2    1    2    0    0  0.15435047122E-01  0.70666186919E-02 -0.16357217498E-01  0.10203559392E+01  0.10200835781E+01 0.  0.
     999903    2    3    3    0    0  0.44048781007E-01 -0.55050273094E-01 -0.11071413665E+00  0.13267329194E+00  0.19332735546E-01 0.  0.
         14    1    1    2    0    0 -0.15435047122E-01 -0.70666186919E-02  0.16357217498E-01  0.23574060823E-01  0.00000000000E+00 0.  1.
     999901    1    3    3    0    0 -0.28613733885E-01  0.62116891786E-01  0.94356919154E-01  0.88768264724E+00  0.88000000000E+00 0.  1.
        -11    1    4    4    0    0  0.33289128569E-01 -0.37222867920E-01 -0.61429080122E-01  0.79167550062E-01  0.51100000000E-03 0.  1.
         11    1    4    4    0    0  0.10759652438E-01 -0.17827405174E-01 -0.49285056530E-01  0.53505741879E-01  0.51100000000E-03 0. -1.
</event>
<event>
 8    1  0.1092993E+005  0.1043930E+01  0.7957747E-01            NaN
         13   -1    0    0    0    0  0.00000000000E+00  0.00000000000E+00  0.74505805969E-08  0.10566000000E+00  0.10566000000E+00 0. -1.
     999900   -1    0    0    0    0 -0.00000000000E+00 -0.00000000000E+00 -0.74505805969E-08  0.93827000000E+00  0.93827000000E+00 0.  1.
     999902    2    1    2    0    0 -0.12918917868E-02  0.19409020707E-01 -0.13394219074E-01  0.10203125451E+01  0.10200391687E+01 0.  0.
     999903    2    3    3    0    0 -0.45417507844E-01  0.11397332860E+00  0.45125118736E-01  0.13221683453E+00  0.19807709092E-01 0.  0.
         14    1    1    2    0    0  0.12918917868E-02 -0.19409020707E-01  0.13394219074E-01  0.23617454855E-01  0.00000000000E+00 0. -1.
     999901    1    3    3    0    0  0.44125616057E-01 -0.94564307897E-01 -0.58519337810E-01  0.88809571062E+00  0.88000000000E+00 0. -1.
        -11    1    4    4    0    0 -0.28132182141E-01  0.70985097301E-01  0.17734764029E-01  0.78390603308E-01  0.51100000000E-03 0.  1.
         11    1    4    4    0    0 -0.17285325703E-01  0.42988231304E-01  0.27390354707E-01  0.53826231219E-01  0.51100000000E-03 0. -1.
</event>
<event>
 8    1  0.1092993E+005  0.1043930E+01  0.7957747E-01            NaN
         13   -1    0    0    0    0  0.00000000000E+00  0.00000000000E+00  0.74505805969E-08  0.10566000000E+00  0.10566000000E+00 0.  1.
     999900   -1    0    0    0    0 -0.00000000000E+00 -0.00000000000E+00 -0.74505805969E-08  0.93827000000E+00  0.93827000000E+00 0.  1.
     999902    2    1    2    0    0 -0.31243251314E-02  0.19552317370E-01  0.11508049492E-01  0.10210282593E+01  0.10207713831E+01 0.  0.
     999903    2    3    3    0    0 -0.12464147986E+00  0.97123441262E-02  0.38048671450E-01  0.13222701689E+00  0.20160715909E-01 0.  0.
         14    1    1    2    0    0  0.31243251314E-02 -0.19552317370E-01 -0.11508049492E-01  0.22901740658E-01  0.00000000000E+00 0. -1.
     999901    1    3    3    0    0  0.12151715473E+00  0.98399732435E-02 -0.26540621958E-01  0.88880124245E+00  0.88000000000E+00 0.  1.
        -11    1    4    4    0    0 -0.48877046211E-01  0.13354376217E-01  0.12548741298E-01  0.52201887318E-01  0.51100000000E-03 0.  1.
         11    1    4    4    0    0 -0.75764433652E-01 -0.36420320907E-02  0.25499930152E-01  0.80025129573E-01  0.51100000000E-03 0. -1.
</event>
<event>
 8    1  0.1092993E+005  0.1043930E+01  0.7957747E-01            NaN
         13   -1    0    0    0    0  0.00000000000E+00  0.00000000000E+00  0.74505805969E-08  0.10566000000E+00  0.10566000000E+00 0.  1.
     999900   -1    0    0    0    0 -0.00000000000E+00 -0.00000000000E+00 -0.74505805969E-08  0.93827000000E+00  0.93827000000E+00 0.  1.
     999902    2    1    2    0    0 -0.38483318012E-02 -0.22495502964E-01  0.47355740088E-02  0.10206215686E+01  0.10203553809E+01 0.  0.
     999903    2    3    3    0    0  0.22936517968E-02 -0.51380878092E-01  0.12081787535E+00  0.13250716748E+00  0.17774559331E-01 0.  0.
         14    1    1    2    0    0  0.38483318012E-02  0.22495502964E-01 -0.47355740088E-02  0.23308431359E-01  0.00000000000E+00 0.  1.
     999901    1    3    3    0    0 -0.61419835980E-02  0.28885375128E-01 -0.11608230134E+00  0.88811440116E+00  0.88000000000E+00 0.  1.
        -11    1    4    4    0    0  0.98790965508E-03 -0.33009833095E-01  0.54962579480E-01  0.64123094986E-01  0.51100000000E-03 0.  1.
         11    1    4    4    0    0  0.13057421418E-02 -0.18371044996E-01  0.65855295866E-01  0.68384072498E-01  0.51100000000E-03 0. -1.
</event>
<event>
 8    1  0.1092993E+005  0.1043930E+01  0.7957747E-01            NaN
         13   -1    0    0    0    0  0.00000000000E+00  0.00000000000E+00  0.74505805969E-08  0.10566000000E+00  0.10566000000E+00 0. -1.
     999900   -1    0    0    0    0 -0.00000000000E+00 -0.00000000000E+00 -0.74505805969E-08  0.93827000000E+00  0.93827000000E+00 0. -1.
     999902    2    1    2    0    0 -0.13076630288E-02 -0.20109154871E-01 -0.12185508942E-01  0.10203805898E+01  0.10201088047E+01 0.  0.
     999903    2    3    3    0    0  0.11697515868E+00  0.22411635032E-01 -0.50161785665E-01  0.13063846926E+00  0.19098056859E-01 0.  0.
         14    1    1    2    0    0  0.13076630288E-02  0.20109154871E-01  0.12185508942E-01  0.23549410192E-01  0.00000000000E+00 0.  1.
     999901    1    3    3    0    0 -0.11828282171E+00 -0.42520789903E-01  0.37976276723E-01  0.88974212055E+00  0.88000000000E+00 0. -1.
        -11    1    4    4    0    0  0.71171771927E-01  0.22236394243E-01 -0.26955603493E-01  0.79288990591E-01  0.51100000000E-03 0. -1.
         11    1    4    4    0    0  0.45803386754E-01  0.17524078888E-03 -0.23206182171E-01  0.51349478668E-01  0.51100000000E-03 0.  1.
</event>
<event>
 8    1  0.1092993E+005  0.1043930E+01  0.7957747E-01            NaN
         13   -1    0    0    0    0  0.00000000000E+00  0.00000000000E+00  0.74505805969E-08  0.10566000000E+00  0.10566000000E+00 0. -1.
     999900   -1    0    0    0    0 -0.00000000000E+00 -0.00000000000E+00 -0.74505805969E-08  0.93827000000E+00  0.93827000000E+00 0.  1.
     999902    2    1    2    0    0  0.61320934712E-02  0.15146785737E-01 -0.17589970627E-01  0.10199209443E+01  0.10196383172E+01 0.  0.
     999903    2    3    3    0    0 -0.60840187918E-01  0.88585100405E-01  0.70415395522E-01  0.12996396950E+00  0.19582057163E-01 0.  0.
         14    1    1    2    0    0 -0.61320934712E-02 -0.15146785737E-01  0.17589970627E-01  0.24009055691E-01  0.00000000000E+00 0. -1.
     999901    1    3    3    0    0  0.66972281389E-01 -0.73438314668E-01 -0.88005366149E-01  0.88995697481E+00  0.88000000000E+00 0.  1.
        -11    1    4    4    0    0 -0.43738117833E-01  0.53967237151E-01  0.54077053664E-01  0.88034507389E-01  0.51100000000E-03 0.  1.
         11    1    4    4    0    0 -0.17102070085E-01  0.34617863254E-01  0.16338341858E-01  0.41929462114E-01  0.51100000000E-03 0. -1.
</event>
<event>
 8    1  0.1092993E+005  0.1043930E+01  0.7957747E-01            NaN
         13   -1    0    0    0    0  0.00000000000E+00  0.00000000000E+00  0.74505805969E-08  0.10566000000E+00  0.10566000000E+00 0.  1.
     999900   -1    0    0    0    0 -0.00000000000E+00 -0.00000000000E+00 -0.74505805969E-08  0.93827000000E+00  0.93827000000E+00 0.  1.
     999902    2    1    2    0    0 -0.23992980497E-02  0.21711105354E-01 -0.80986926739E-02  0.10206337009E+01  0.10203677935E+01 0.  0.
     999903    2    3    3    0    0  0.14731138603E-01 -0.96741787763E-01 -0.83404712427E-01  0.12934500677E+00  0.14064308623E-01 0.  0.
         14    1    1    2    0    0  0.23992980497E-02 -0.21711105354E-01  0.80986926739E-02  0.23296299059E-01  0.00000000000E+00 0. -1.
     999901    1    3    3    0    0 -0.17130436653E-01  0.11845289312E+00  0.75306019753E-01  0.89128869417E+00  0.88000000000E+00 0. -1.
        -11    1    4    4    0    0  0.55071109598E-02 -0.69448667096E-01 -0.64025993940E-01  0.94620476925E-01  0.51100000000E-03 0.  1.
         11    1    4    4    0    0  0.92240276433E-02 -0.27293120667E-01 -0.19378718487E-01  0.34724529844E-01  0.51100000000E-03 0. -1.
</event>
<event>
 8    1  0.1092993E+005  0.1043930E+01  0.7957747E-01            NaN
         13   -1    0    0    0    0  0.00000000000E+00  0.00000000000E+00  0.74505805969E-08  0.10566000000E+00  0.10566000000E+00 0. -1.
     999900   -1    0    0    0    0 -0.00000000000E+00 -0.00000000000E+00 -0.74505805969E-08  0.93827000000E+00  0.93827000000E+00 0.  1.
     999902    2    1    2    0    0 -0.90567311727E-02 -0.15084592827E-01 -0.14787380350E-01  0.10209466160E+01  0.10206878842E+01 0.  0.
     999903    2    3    3    0    0  0.38613529130E-01  0.12145884616E+00  0.45808986045E-02  0.12893109226E+00  0.18946925248E-01 0.  0.
         14    1    1    2    0    0  0.90567311727E-02  0.15084592827E-01  0.14787380350E-01  0.22983383952E-01  0.00000000000E+00 0.  1.
     999901    1    3    3    0    0 -0.47670260302E-01 -0.13654343899E+00 -0.19368278954E-01  0.89201552379E+00  0.88000000000E+00 0.  1.
        -11    1    4    4    0    0  0.24464028953E-01  0.72836734766E-01  0.11934093128E-01  0.77758358675E-01  0.51100000000E-03 0.  1.
         11    1    4    4    0    0  0.14149500176E-01  0.48622111397E-01 -0.73531945232E-02  0.51172733585E-01  0.51100000000E-03 0. -1.
</event>
<event>
 8    1  0.1092993E+005  0.1043930E+01  0.7957747E-01            NaN
         13   -1    0    0    0    0  0.00000000000E+00  0.00000000000E+00  0.74505805969E-08  0.10566000000E+00  0.10566000000E+00 0.  1.
     999900   -1    0    0    0    0 -0.00000000000E+00 -0.00000000000E+00 -0.74505805969E-08  0.93827000000E+00  0.93827000000E+00 0. -1.
     999902    2    1    2    0    0  0.25459157046E-01 -0.23162151283E-02 -0.96066300186E-02  0.10166202788E+01  0.10162533987E+01 0.  0.
     999903    2    3    3    0    0  0.86734088115E-01  0.88955998372E-01 -0.31408977565E-01  0.12951229415E+00  0.18733359965E-01 0.  0.
         14    1    1    2    0    0 -0.25459157046E-01  0.23162151283E-02  0.96066300186E-02  0.27309721169E-01  0.00000000000E+00 0. -1.
     999901    1    3    3    0    0 -0.61274931070E-01 -0.91272213500E-01  0.21802347546E-01  0.88710798469E+00  0.88000000000E+00 0.  1.
        -11    1    4    4    0    0  0.17876214712E-01  0.24976020901E-01 -0.14656758088E-01  0.34035897977E-01  0.51100000000E-03 0. -1.
         11    1    4    4    0    0  0.68857873403E-01  0.63979977471E-01 -0.16752219477E-01  0.95476396168E-01  0.51100000000E-03 0.  1.
</event>
<event>
 8    1  0.1092993E+005  0.1043930E+01  0.7957747E-01            NaN
         13   -1    0    0    0    0  0.00000000000E+00  0.00000000000E+00  0.74505805969E-08  0.10566000000E+00  0.10566000000E+00 0. -1.
     999900   -1    0    0    0    0 -0.00000000000E+00 -0.00000000000E+00 -0.74505805969E-08  0.93827000000E+00  0.93827000000E+00 0. -1.
     999902    2    1    2    0    0  0.26756405954E-01 -0.95681898409E-02  0.35645840139E-04  0.10155142159E+01  0.10151165775E+01 0.  0.
     999903    2    3    3    0    0  0.36636999386E-01  0.24572696342E-01 -0.11739929456E+00  0.12700186849E+00  0.20019817876E-01 0.  0.
         14    1    1    2    0    0 -0.26756405954E-01  0.95681898409E-02 -0.35645840139E-04  0.28415784118E-01  0.00000000000E+00 0.  1.
     999901    1    3    3    0    0 -0.98805934316E-02 -0.34140886183E-01  0.11743494040E+00  0.88851234739E+00  0.88000000000E+00 0.  1.
        -11    1    4    4    0    0  0.22229210790E-01  0.44962732407E-02 -0.69384961993E-01  0.72999235319E-01  0.51100000000E-03 0. -1.
         11    1    4    4    0    0  0.14407788595E-01  0.20076423101E-01 -0.48014332568E-01  0.54002633174E-01  0.51100000000E-03 0.  1.
</event>
<event>
 8    1  0.1092993E+005  0.1043930E+01  0.7957747E-01            NaN
         13   -1    0    0    0    0  0.00000000000E+00  0.00000000000E+00  0.74505805969E-08  0.10566000000E+00  0.10566000000E+00 0. -1.
     999900   -1    0    0    0    0 -0.00000000000E+00 -0.00000000000E+00 -0.74505805969E-08  0.93827000000E+00  0.93827000000E+00 0. -1.
     999902    2    1    2    0    0 -0.14616889644E-01 -0.10443910369E-01 -0.15036257773E-01  0.10205031399E+01  0.10202342088E+01 0.  0.
     999903    2    3    3    0    0 -0.24217240210E-01 -0.10916656611E+00 -0.69610554610E-01  0.13325081763E+00  0.20157807583E-01 0.  0.
         14    1    1    2    0    0  0.14616889644E-01  0.10443910369E-01  0.15036257773E-01  0.23426860107E-01  0.00000000000E+00 0.  1.
     999901    1    3    3    0    0  0.96003505665E-02  0.98722655740E-01  0.54574296837E-01  0.88725232226E+00  0.88000000000E+00 0.  1.
        -11    1    4    4    0    0 -0.13729707941E-01 -0.26788532034E-01 -0.13288573377E-01  0.32908625496E-01  0.51100000000E-03 0. -1.
         11    1    4    4    0    0 -0.10487532269E-01 -0.82378034074E-01 -0.56321981233E-01  0.10034219213E+00  0.51100000000E-03 0.  1.
</event>
<event>
 8    1  0.1092993E+005  0.1043930E+01  0.7957747E-01            NaN
         13   -1    0    0    0    0  0.00000000000E+00  0.00000000000E+00  0.74505805969E-08  0.10566000000E+00  0.10566000000E+00 0. -1.
     999900   -1    0    0    0    0 -0.00000000000E+00 -0.00000000000E+00 -0.74505805969E-08  0.93827000000E+00  0.93827000000E+00 0.  1.
     999902    2    1    2    0    0 -0.21556544128E-01 -0.46984460373E-02 -0.95467296442E-02  0.10198904485E+01  0.10196070944E+01 0.  0.
     999903    2    3    3    0    0  0.55667929726E-01  0.76572561426E-01 -0.86168848152E-01  0.12947507067E+00  0.19402267120E-01 0.  0.
         14    1    1    2    0    0  0.21556544128E-01  0.46984460373E-02  0.95467296442E-02  0.24039551510E-01  0.00000000000E+00 0.  1.
     999901    1    3    3    0    0 -0.77224473854E-01 -0.81271007464E-01  0.76622118508E-01  0.89041537782E+00  0.88000000000E+00 0. -1.
        -11    1    4    4    0    0  0.16139350744E-01  0.36441106655E-01 -0.29648371236E-01  0.49676150562E-01  0.51100000000E-03 0. -1.
         11    1    4    4    0    0  0.39528578982E-01  0.40131454771E-01 -0.56520476916E-01  0.79798920106E-01  0.51100000000E-03 0.  1.
</event>
<event>
 8    1  0.1092993E+005  0.1043930E+01  0.7957747E-01            NaN
         13   -1    0    0    0    0  0.00000000000E+00  0.00000000000E+00  0.74505805969E-08  0.10566000000E+00  0.10566000000E+00 0.  1.
     999900   -1    0    0    0    0 -0.00000000000E+00 -0.00000000000E+00 -0.74505805969E-08  0.93827000000E+00  0.93827000000E+00 0. -1.
     999902    2    1    2    0    0  0.15738755832E-01 -0.18532503602E-02  0.16649203939E-01  0.10209443748E+01  0.10206855919E+01 0.  0.
     999903    2    3    3    0    0  0.91382851345E-01  0.37307404829E-01 -0.84042523438E-01  0.13111607114E+00  0.19636964926E-01 0.  0.
         14    1    1    2    0    0 -0.15738755832E-01  0.18532503602E-02 -0.16649203939E-01  0.22985625157E-01  0.00000000000E+00 0.  1.
     999901    1    3    3    0    0 -0.75644095513E-01 -0.39160655189E-01  0.10069172738E+00  0.88982830370E+00  0.88000000000E+00 0.  1.
        -11    1    4    4    0    0  0.57276437121E-01  0.31069802070E-01 -0.46783977145E-01  0.80217981080E-01  0.51100000000E-03 0.  1.
         11    1    4    4    0    0  0.34106414224E-01  0.62376027585E-02 -0.37258546292E-01  0.50898090065E-01  0.51100000000E-03 0. -1.
</event>
<event>
 8    1  0.1092993E+005  0.1043930E+01  0.7957747E-01            NaN
         13   -1    0    0    0    0  0.00000000000E+00  0.00000000000E+00  0.74505805969E-08  0.10566000000E+00  0.10566000000E+00 0.  1.
     999900   -1    0    0    0    0 -0.00000000000E+00 -0.00000000000E+00 -0.74505805969E-08  0.93827000000E+00  0.93827000000E+00 0.  1.
     999902    2    1    2    0    0  0.34156437265E-02 -0.21720748138E-01 -0.10024700089E-01  0.10197648984E+01  0.10194785412E+01 0.  0.
     999903    2    3    3    0    0 -0.68944824933E-01 -0.41382847023E-01 -0.10259627550E+00  0.13173779742E+00  0.19050527848E-01 0.  0.
         14    1    1    2    0    0 -0.34156437265E-02  0.21720748138E-01  0.10024700089E-01  0.24165101564E-01  0.00000000000E+00 0. -1.
     999901    1    3    3    0    0  0.72360468659E-01  0.19662098885E-01  0.92571575409E-01  0.88802710101E+00  0.88000000000E+00 0. -1.
        -11    1    4    4    0    0 -0.20668957240E-01 -0.20317049459E-01 -0.46434792401E-01  0.54739742039E-01  0.51100000000E-03 0. -1.
         11    1    4    4    0    0 -0.48275867692E-01 -0.21065797564E-01 -0.56161483097E-01  0.76998055385E-01  0.51100000000E-03 0.  1.
</event>
<event>
 8    1  0.1092993E+005  0.1043930E+01  0.7957747E-01            NaN
         13   -1    0    0    0    0  0.00000000000E+00  0.00000000000E+00  0.74505805969E-08  0.10566000000E+00  0.10566000000E+00 0. -1.
     999900   -1    0    0    0    0 -0.00000000000E+00 -0.00000000000E+00 -0.74505805969E-08  0.93827000000E+00  0.93827000000E+00 0.  1.
     999902    2    1    2    0    0  0.86622673443E-02  0.14451004337E-01  0.17325557981E-01  0.10197630523E+01  0.10194766508E+01 0.  0.
     999903    2    3    3    0    0 -0.11467015148E+00 -0.32399532871E-01 -0.42046870775E-01  0.12794976261E+00  0.20105447993E-01 0.  0.
         14    1    1    2    0    0 -0.86622673443E-02 -0.14451004337E-01 -0.17325557981E-01  0.24166947702E-01  0.00000000000E+00 0.  1.
     999901    1    3    3    0    0  0.12333241882E+00  0.46850537209E-01  0.59372428756E-01  0.89181328969E+00  0.88000000000E+00 0. -1.
        -11    1    4    4    0    0 -0.39864781135E-01 -0.21283622852E-01 -0.16902839387E-01  0.48251015295E-01  0.51100000000E-03 0.  1.
         11    1    4    4    0    0 -0.74805370345E-01 -0.11115910020E-01 -0.25144031388E-01  0.79698747314E-01  0.51100000000E-03 0. -1.
</event>
<event>
 8    1  0.1092993E+005  0.1043930E+01  0.7957747E-01            NaN
         13   -1    0    0    0    0  0.00000000000E+00  0.00000000000E+00  0.74505805969E-08  0.10566000000E+00  0.10566000000E+00 0.  1.
     999900   -1    0    0    0    0 -0.00000000000E+00 -0.00000000000E+00 -0.74505805969E-08  0.93827000000E+00  0.93827000000E+00 0.  1.
     999902    2    1    2    0    0 -0.11090801519E-01 -0.17588313470E-01 -0.21036482559E-01  0.10143514901E+01  0.10139201434E+01 0.  0.
     999903    2    3    3    0    0 -0.11517684347E+00 -0.45754990972E-01 -0.23405365464E-01  0.12776653791E+00  0.20426762021E-01 0.  0.
         14    1    1    2    0    0  0.11090801519E-01  0.17588313470E-01  0.21036482559E-01  0.29578509893E-01  0.00000000000E+00 0.  1.
     999901    1    3    3    0    0  0.10408604195E+00  0.28166677502E-01  0.23688829056E-02  0.88658495219E+00  0.88000000000E+00 0. -1.
        -11    1    4    4    0    0 -0.64013552744E-01 -0.18102951251E-01 -0.20170813674E-01  0.69516721903E-01  0.51100000000E-03 0.  1.
         11    1    4    4    0    0 -0.51163290728E-01 -0.27652039721E-01 -0.32345517907E-02  0.58249816009E-01  0.51100000000E-03 0. -1.
</event>
<event>
 7    1  0.1092993E+005  0.1043930E+01  0.7957747E-01            NaN
         13   -1    0    0    0    0  0.00000000000E+00  0.00000000000E+00  0.74505805969E-08  0.10566000000E+00  0.10566000000E+00 0.  1.
     999900   -1    0    0    0    0 -0.00000000000E+00 -0.00000000000E+00 -0.74505805969E-08  0.93827000000E+00  0.93827000000E+00 0. -1.
     999902    2    1    2    0    0 -0.35042659538E-02 -0.10178189348E-01  0.20745672359E-01  0.10205578298E+01  0.10202901674E+01 0.  0.
         14    1    1    2    0    0  0.35042659538E-02  0.10178189348E-01 -0.20745672359E-01  0.23372170201E-01  0.00000000000E+00 0. -1.
     999901    1    3    3    0    0 -0.91551497207E-01  0.59021549043E-01  0.59762319412E-01  0.88872760434E+00  0.88000000000E+00 0.  1.
        -11    1    3    3    0    0  0.81963832812E-01 -0.34444771423E-01 -0.37548887533E-01  0.96512653282E-01  0.51100000000E-03 0. -1.
         11    1    3    3    0    0  0.60833984408E-02 -0.34754966968E-01 -0.14677595193E-02  0.35317572178E-01  0.51100000000E-03 0.  1.
</event>
<event>
 8    1  0.1092993E+005  0.1043930E+01  0.7957747E-01            NaN
         13   -1    0    0    0    0  0.00000000000E+00  0.00000000000E+00  0.74505805969E-08  0.10566000000E+00  0.10566000000E+00 0. -1.
     999900   -1    0    0    0    0 -0.00000000000E+00 -0.00000000000E+00 -0.74505805969E-08  0.93827000000E+00  0.93827000000E+00 0.  1.
     999902    2    1    2    0    0 -0.18760500941E-01  0.14591980868E-01 -0.37949285147E-02  0.10198616851E+01  0.10195776444E+01 0.  0.
     999903    2    3    3    0    0  0.12358601751E+00  0.86396839741E-02  0.24066598882E-01  0.12796806705E+00  0.21177278845E-01 0.  0.
         14    1    1    2    0    0  0.18760500941E-01 -0.14591980868E-01  0.37949285147E-02  0.24068314931E-01  0.00000000000E+00 0. -1.
     999901    1    3    3    0    0 -0.14234651845E+00  0.59522968940E-02 -0.27861527396E-01  0.89189361802E+00  0.88000000000E+00 0. -1.
        -11    1    4    4    0    0  0.94101122350E-01  0.11690941570E-01  0.25792470782E-01  0.98271114842E-01  0.51100000000E-03 0. -1.
         11    1    4    4    0    0  0.29484895162E-01 -0.30512575962E-02 -0.17258719003E-02  0.29696952208E-01  0.51100000000E-03 0.  1.
</event>
<event>
 8    1  0.1092993E+005  0.1043930E+01  0.7957747E-01            NaN
         13   -1    0    0    0    0  0.00000000000E+00  0.00000000000E+00  0.74505805969E-08  0.10566000000E+00  0.10566000000E+00 0. -1.
     999900   -1    0    0    0    0 -0.00000000000E+00 -0.00000000000E+00 -0.74505805969E-08  0.93827000000E+00  0.93827000000E+00 0.  1.
     999902    2    1    2    0    0  0.15768865510E-01 -0.16883996777E-01 -0.26419275965E-02  0.10206769088E+01  0.10204119982E+01 0.  0.
     999903    2    3    3    0    0  0.77270727847E-01  0.98320786601E-01 -0.31852507926E-01  0.13056013045E+00  0.19839933022E-01 0.  0.
         14    1    1    2    0    0 -0.15768865510E-01  0.16883996777E-01  0.26419275965E-02  0.23253091150E-01  0.00000000000E+00 0. -1.
     999901    1    3    3    0    0 -0.61501862337E-01 -0.11520478338E+00  0.29210580329E-01  0.89011677840E+00  0.88000000000E+00 0. -1.
        -11    1    4    4    0    0  0.40095121917E-01  0.37419105793E-01 -0.19097711243E-01  0.58075743436E-01  0.51100000000E-03 0. -1.
         11    1    4    4    0    0  0.37175605930E-01  0.60901680808E-01 -0.12754796682E-01  0.72484387015E-01  0.51100000000E-03 0.  1.
</event>
<event>
 8    1  0.1092993E+005  0.1043930E+01  0.7957747E-01            NaN
         13   -1    0    0    0    0  0.00000000000E+00  0.00000000000E+00  0.74505805969E-08  0.10566000000E+00  0.10566000000E+00 0. -1.
     999900   -1    0    0    0    0 -0.00000000000E+00 -0.00000000000E+00 -0.74505805969E-08  0.93827000000E+00  0.93827000000E+00 0. -1.
     999902    2    1    2    0    0  0.40744993780E-02  0.16664103972E-01  0.15724479288E-01  0.10206587053E+01  0.10203933749E+01 0.  0.
     999903    2    3    3    0    0 -0.10697328375E+00  0.36574646944E-01 -0.61784838583E-01  0.13007702227E+00  0.17935361942E-01 0.  0.
         14    1    1    2    0    0 -0.40744993780E-02 -0.16664103972E-01 -0.15724479288E-01  0.23271294662E-01  0.00000000000E+00 0.  1.
     999901    1    3    3    0    0  0.11104778313E+00 -0.19910542972E-01  0.77509317870E-01  0.89058168307E+00  0.88000000000E+00 0.  1.
        -11    1    4    4    0    0 -0.75286934544E-01  0.24747067633E-01 -0.33729104611E-01  0.86130444608E-01  0.51100000000E-03 0.  1.
         11    1    4    4    0    0 -0.31686349209E-01  0.11827579311E-01 -0.28055733972E-01  0.43946577662E-01  0.51100000000E-03 0. -1.
</event>
<event>
 8    1  0.1092993E+005  0.1043930E+01  0.7957747E-01            NaN
         13   -1    0    0    0    0  0.00000000000E+00  0.00000000000E+00  0.74505805969E-08  0.10566000000E+00  0.10566000000E+00 0.  1.
     999900   -1    0    0    0    0 -0.00000000000E+00 -0.00000000000E+00 -0.74505805969E-08  0.93827000000E+00  0.93827000000E+00 0. -1.
     999902    2    1    2    0    0 -0.70317119550E-02 -0.15663388507E-01 -0.15908521585E-01  0.10205234246E+01  0.10202549644E+01 0.  0.
     999903    2    3    3    0    0 -0.82035772589E-01 -0.70603434991E-01  0.71624969876E-01  0.13130684247E+00  0.19915761432E-01 0.  0.
         14    1    1    2    0    0  0.70317119550E-02  0.15663388507E-01  0.15908521585E-01  0.23406575391E-01  0.00000000000E+00 0.  1.
     999901    1    3    3    0    0  0.75004060634E-01  0.54940046484E-01 -0.87533491461E-01  0.88921658214E+00  0.88000000000E+00 0. -1.
        -11    1    4    4    0    0 -0.61489643491E-01 -0.41499220292E-01  0.52365888841E-01  0.90805335617E-01  0.51100000000E-03 0. -1.
         11    1    4    4    0    0 -0.20546129097E-01 -0.29104214700E-01  0.19259081036E-01  0.40501506855E-01  0.51100000000E-03 0.  1.
</event>
<event>
 8    1  0.1092993E+005  0.1043930E+01  0.7957747E-01            NaN
         13   -1    0    0    0    0  0.00000000000E+00  0.00000000000E+00  0.74505805969E-08  0.10566000000E+00  0.10566000000E+00 0.  1.
     999900   -1    0    0    0    0 -0.00000000000E+00 -0.00000000000E+00 -0.74505805969E-08  0.93827000000E+00  0.93827000000E+00 0.  1.
     999902    2    1    2    0    0 -0.16159532674E-01 -0.13247650497E-01  0.10227388462E-01  0.10206656450E+01  0.10204004746E+01 0.  0.
     999903    2    3    3    0    0 -0.54355267501E-01  0.34350508651E-01  0.11438167121E+00  0.13242434132E+00  0.17849003213E-01 0.  0.
         14    1    1    2    0    0  0.16159532674E-01  0.13247650497E-01 -0.10227388462E-01  0.23264355024E-01  0.00000000000E+00 0. -1.
     999901    1    3    3    0    0  0.38195734827E-01 -0.47598159148E-01 -0.10415428274E+00  0.88824130366E+00  0.88000000000E+00 0.  1.
        -11    1    4    4    0    0 -0.35698085463E-01  0.16048514071E-01  0.81547681388E-01  0.90455478388E-01  0.51100000000E-03 0. -1.
         11    1    4    4    0    0 -0.18657182038E-01  0.18301994580E-01  0.32833989817E-01  0.41968862928E-01  0.51100000000E-03 0.  1.
</event>
<event>
 8    1  0.1092993E+005  0.1043930E+01  0.7957747E-01            NaN
         13   -1    0    0    0    0  0.00000000000E+00  0.00000000000E+00  0.74505805969E-08  0.10566000000E+00  0.10566000000E+00 0.  1.
     999900   -1    0    0    0    0 -0.00000000000E+00 -0.00000000000E+00 -0.74505805969E-08  0.93827000000E+00  0.93827000000E+00 0. -1.
     999902    2    1    2    0    0  0.19716553665E-01  0.13177957235E-01 -0.16759004012E-02  0.10201558610E+01  0.10198788021E+01 0.  0.
     999903    2    3    3    0    0  0.41831282696E-01  0.91761838867E-01 -0.83766665827E-01  0.13257297386E+00  0.19714152526E-01 0.  0.
         14    1    1    2    0    0 -0.19716553665E-01 -0.13177957235E-01  0.16759004012E-02  0.23774139048E-01  0.00000000000E+00 0. -1.
     999901    1    3    3    0    0 -0.22114729031E-01 -0.78583881632E-01  0.82090765426E-01  0.88758288709E+00  0.88000000000E+00 0.  1.
        -11    1    4    4    0    0  0.27194373123E-01  0.78135191640E-01 -0.66488361969E-01  0.10613955672E+00  0.51100000000E-03 0. -1.
         11    1    4    4    0    0  0.14636909573E-01  0.13626647228E-01 -0.17278303858E-01  0.26433417141E-01  0.51100000000E-03 0.  1.
</event>
<event>
 8    1  0.1092993E+005  0.1043930E+01  0.7957747E-01            NaN
         13   -1    0    0    0    0  0.00000000000E+00  0.00000000000E+00  0.74505805969E-08  0.10566000000E+00  0.10566000000E+00 0. -1.
     999900   -1    0    0    0    0 -0.00000000000E+00 -0.00000000000E+00 -0.74505805969E-08  0.93827000000E+00  0.93827000000E+00 0.  1.
     999902    2    1    2    0    0  0.18688488737E-01 -0.38878059719E-02 -0.12545045076E-01  0.10210880911E+01  0.10208325705E+01 0.  0.
     999903    2    3    3    0    0  0.86676237259E-01 -0.60251663087E-02 -0.99859339009E-01  0.13415478572E+00  0.21829938371E-01 0.  0.
         14    1    1    2    0    0 -0.18688488737E-01  0.38878059719E-02  0.12545045076E-01  0.22841908907E-01  0.00000000000E+00 0. -1.
     999901    1    3    3    0    0 -0.67987748522E-01  0.21373603368E-02  0.87314293933E-01  0.88693330537E+00  0.88000000000E+00 0. -1.
        -11    1    4    4    0    0  0.17013373569E-01  0.62068763868E-02 -0.13893973743E-01  0.22831640810E-01  0.51100000000E-03 0. -1.
         11    1    4    4    0    0  0.69662863690E-01 -0.12232042695E-01 -0.85965365266E-01  0.11132314491E+00  0.51100000000E-03 0.  1.
</event>
<event>
 8    1  0.1092993E+005  0.1043930E+01  0.7957747E-01            NaN
         13   -1    0    0    0    0  0.00000000000E+00  0.00000000000E+00  0.74505805969E-08  0.10566000000E+00  0.10566000000E+00 0. -1.
     999900   -1    0    0    0    0 -0.00000000000E+00 -0.00000000000E+00 -0.74505805969E-08  0.93827000000E+00  0.93827000000E+00 0. -1.
     999902    2    1    2    0    0  0.25115311757E-02  0.18144117830E-01  0.16513969836E-01  0.10192677211E+01  0.10189693122E+01 0.  0.
     999903    2    3    3    0    0  0.12374183147E+00 -0.23286441161E-01  0.25737227715E-01  0.12994306418E+00  0.19196245447E-01 0.  0.
         14    1    1    2    0    0 -0.25115311757E-02 -0.18144117830E-01 -0.16513969836E-01  0.24662278897E-01  0.00000000000E+00 0.  1.
     999901    1    3    3    0    0 -0.12123030030E+00  0.41430558992E-01 -0.92232578795E-02  0.88932465692E+00  0.88000000000E+00 0. -1.
        -11    1    4    4    0    0  0.92527054373E-01 -0.24652228970E-01  0.15136699766E-01  0.96945185466E-01  0.51100000000E-03 0.  1.
         11    1    4    4    0    0  0.31214777099E-01  0.13657878082E-02  0.10600527949E-01  0.32997878712E-01  0.51100000000E-03 0. -1.
</event>
<event>
 8    1  0.1092993E+005  0.1043930E+01  0.7957747E-01            NaN
         13   -1    0    0    0    0  0.00000000000E+00  0.00000000000E+00  0.74505805969E-08  0.10566000000E+00  0.10566000000E+00 0.  1.
     999900   -1    0    0    0    0 -0.00000000000E+00 -0.00000000000E+00 -0.74505805969E-08  0.93827000000E+00  0.93827000000E+00 0.  1.
     999902    2    1    2    0    0  0.15455824616E-01  0.11936361137E-01 -0.14099718241E-01  0.10198434626E+01  0.10195589864E+01 0.  0.
     999903    2    3    3    0    0  0.53806275278E-01 -0.77400657101E-01  0.85540564885E-01  0.12890011648E+00  0.20299625809E-01 0.  0.
         14    1    1    2    0    0 -0.15455824616E-01 -0.11936361137E-01  0.14099718241E-01  0.24086537448E-01  0.00000000000E+00 0.  1.
     999901    1    3    3    0    0 -0.38350450662E-01  0.89337018239E-01 -0.99640283125E-01  0.89094334607E+00  0.88000000000E+00 0. -1.
        -11    1    4    4    0    0  0.36623909923E-01 -0.59751147286E-01  0.73213987348E-01  0.10135116893E+00  0.51100000000E-03 0. -1.
         11    1    4    4    0    0  0.17182365355E-01 -0.17649509816E-01  0.12326577537E-01  0.27548947542E-01  0.51100000000E-03 0.  1.
</event>
<event>
 8    1  0.1092993E+005  0.1043930E+01  0.7957747E-01            NaN
         13   -1    0    0    0    0  0.00000000000E+00  0.00000000000E+00  0.74505805969E-08  0.10566000000E+00  0.10566000000E+00 0. -1.
     999900   -1    0    0    0    0 -0.00000000000E+00 -0.00000000000E+00 -0.74505805969E-08  0.93827000000E+00  0.93827000000E+00 0. -1.
     999902    2    1    2    0    0 -0.19604710572E-01 -0.45151748720E-02  0.13608377721E-01  0.10196417431E+01  0.10193524242E+01 0.  0.
     999903    2    3    3    0    0  0.93468869056E-01 -0.10347407339E-01  0.86223969505E-01  0.12942116730E+00  0.21720205036E-01 0.  0.
         14    1    1    2    0    0  0.19604710572E-01  0.45151748720E-02 -0.13608377721E-01  0.24288256935E-01  0.00000000000E+00 0. -1.
     999901    1    3    3    0    0 -0.11307357963E+00  0.58322324665E-02 -0.72615591784E-01  0.89022057577E+00  0.88000000000E+00 0. -1.
        -11    1    4    4    0    0  0.66879554369E-01 -0.16785995074E-01  0.57921550132E-01  0.90054491914E-01  0.51100000000E-03 0.  1.
         11    1    4    4    0    0  0.26589314687E-01  0.64385877353E-02  0.28302419373E-01  0.39366675386E-01  0.51100000000E-03 0. -1.
</event>
<event>
 8    1  0.1092993E+005  0.1043930E+01  0.7957747E-01            NaN
         13   -1    0    0    0    0  0.00000000000E+00  0.00000000000E+00  0.74505805969E-08  0.10566000000E+00  0.10566000000E+00 0.  1.
     999900   -1    0    0    0    0 -0.00000000000E+00 -0.00000000000E+00 -0.74505805969E-08  0.93827000000E+00  0.93827000000E+00 0. -1.
     999902    2    1    2    0    0 -0.21503274537E-01  0.43337011105E-02  0.12633217797E-01  0.10186165654E+01  0.10183019873E+01 0.  0.
     999903    2    3    3    0    0 -0.12995853595E+00 -0.13546115204E-02 -0.66619867559E-02  0.13173032376E+00  0.20431350745E-01 0.  0.
         14    1    1    2    0    0  0.21503274537E-01 -0.43337011105E-02 -0.12633217797E-01  0.25313434635E-01  0.00000000000E+00 0.  1.
     999901    1    3    3    0    0  0.10845526141E+00  0.56883126308E-02  0.19295204553E-01  0.88688624160E+00  0.88000000000E+00 0.  1.
        -11    1    4    4    0    0 -0.91796078219E-01 -0.49429931281E-03 -0.13987186990E-01  0.92858315885E-01  0.51100000000E-03 0. -1.
         11    1    4    4    0    0 -0.38162457726E-01 -0.86031220755E-03  0.73252002346E-02  0.38872007876E-01  0.51100000000E-03 0.  1.
</event>
<event>
 8    1  0.1092993E+005  0.1043930E+01  0.7957747E-01            NaN
         13   -1    0    0    0    0  0.00000000000E+00  0.00000000000E+00  0.74505805969E-08  0.10566000000E+00  0.10566000000E+00 0. -1.
     999900   -1    0    0    0    0 -0.00000000000E+00 -0.00000000000E+00 -0.74505805969E-08  0.93827000000E+00  0.93827000000E+00 0. -1.
     999902    2    1    2    0    0 -0.63778794643E-02  0.19525766431E-01 -0.10471106687E-01  0.10208740468E+01  0.10206136598E+01 0.  0.
     999903    2    3    3    0    0  0.57740051831E-01  0.82166013286E-01 -0.85071124596E-01  0.13318036526E+00  0.20365316719E-01 0.  0.
         14    1    1    2    0    0  0.63778794643E-02 -0.19525766431E-01  0.10471106687E-01  0.23055953167E-01  0.00000000000E+00 0.  1.
     999901    1    3    3    0    0 -0.64117931295E-01 -0.62640246855E-01  0.74600017910E-01  0.88769368158E+00  0.88000000000E+00 0.  1.
        -11    1    4    4    0    0  0.38806608269E-01  0.38246187876E-01 -0.41690405363E-01  0.68608124539E-01  0.51100000000E-03 0. -1.
         11    1    4    4    0    0  0.18933443562E-01  0.43919825410E-01 -0.43380719233E-01  0.64572240718E-01  0.51100000000E-03 0.  1.
</event>
<event>
 8    1  0.1092993E+005  0.1043930E+01  0.7957747E-01            NaN
         13   -1    0    0    0    0  0.00000000000E+00  0.00000000000E+00  0.74505805969E-08  0.10566000000E+00  0.10566000000E+00 0. -1.
     999900   -1    0    0    0    0 -0.00000000000E+00 -0.00000000000E+00 -0.74505805969E-08  0.93827000000E+00  0.93827000000E+00 0. -1.
     999902    2    1    2    0    0  0.17481177907E-01  0.11881797226E-01  0.90884493974E-02  0.10209219884E+01  0.10206626954E+01 0.  0.
     999903    2    3    3    0    0  0.11044289617E+00 -0.69832593606E-01  0.62080840984E-02  0.13225589854E+00  0.19464273557E-01 0.  0.
         14    1    1    2    0    0 -0.17481177907E-01 -0.11881797226E-01 -0.90884493974E-02  0.23008011622E-01  0.00000000000E+00 0.  1.
     999901    1    3    3    0    0 -0.92961718263E-01  0.81714390832E-01  0.28803652990E-02  0.88866608984E+00  0.88000000000E+00 0.  1.
        -11    1    4    4    0    0  0.34971057932E-01 -0.27057286578E-01  0.10314995565E-01  0.45406298069E-01  0.51100000000E-03 0. -1.
         11    1    4    4    0    0  0.75471838238E-01 -0.42775307028E-01 -0.41069114666E-02  0.86849600467E-01  0.51100000000E-03 0.  1.
</event>
<event>
 8    1  0.1092993E+005  0.1043930E+01  0.7957747E-01            NaN
         13   -1    0    0    0    0  0.00000000000E+00  0.00000000000E+00  0.74505805969E-08  0.10566000000E+00  0.10566000000E+00 0. -1.
     999900   -1    0    0    0    0 -0.00000000000E+00 -0.00000000000E+00 -0.74505805969E-08  0.93827000000E+00  0.93827000000E+00 0. -1.
     999902    2    1    2    0    0  0.11278561337E-01 -0.15861956972E-01  0.12528532531E-01  0.10207832561E+01  0.10205207907E+01 0.  0.
     999903    2    3    3    0    0 -0.82843488137E-01 -0.61007215583E-01 -0.76981797930E-01  0.13010421526E+00  0.20395728368E-01 0.  0.
         14    1    1    2    0    0 -0.11278561337E-01  0.15861956972E-01 -0.12528532531E-01  0.23146743879E-01  0.00000000000E+00 0. -1.
     999901    1    3    3    0    0  0.94122049474E-01  0.45145258610E-01  0.89510330461E-01  0.89067904086E+00  0.88000000000E+00 0.  1.
        -11    1    4    4    0    0 -0.63580790596E-01 -0.56392564222E-01 -0.64419634464E-01  0.10664327760E+00  0.51100000000E-03 0. -1.
         11    1    4    4    0    0 -0.19262697542E-01 -0.46146513601E-02 -0.12562163466E-01  0.23460937656E-01  0.51100000000E-03 0.  1.
</event>
<event>
 8    1  0.1092993E+005  0.1043930E+01  0.7957747E-01            NaN
         13   -1    0    0    0    0  0.00000000000E+00  0.00000000000E+00  0.74505805969E-08  0.10566000000E+00  0.10566000000E+00 0.  1.
     999900   -1    0    0    0    0 -0.00000000000E+00 -0.00000000000E+00 -0.74505805969E-08  0.93827000000E+00  0.93827000000E+00 0.  1.
     999902    2    1    2    0    0  0.95478413187E-02 -0.24229358676E-01  0.24442139770E-02  0.10177728351E+01  0.10174366548E+01 0.  0.
     999903    2    3    3    0    0 -0.12357684588E+00  0.19235764517E-01  0.40138723617E-02  0.12669827976E+00  0.19876907449E-01 0.  0.
         14    1    1    2    0    0 -0.95478413187E-02  0.24229358676E-01 -0.24442139770E-02  0.26157164939E-01  0.00000000000E+00 0.  1.
     999901    1    3    3    0    0  0.13312468720E+00 -0.43465123192E-01 -0.15696583846E-02  0.89107455530E+00  0.88000000000E+00 0.  1.
        -11    1    4    4    0    0 -0.13024105662E-01 -0.40391556690E-02  0.96603427943E-03  0.13679782529E-01  0.51100000000E-03 0. -1.
         11    1    4    4    0    0 -0.11055274021E+00  0.23274920186E-01  0.30478380822E-02  0.11301849723E+00  0.51100000000E-03 0.  1.
</event>
<event>
 8    1  0.1092993E+005  0.1043930E+01  0.7957747E-01            NaN
         13   -1    0    0    0    0  0.00000000000E+00  0.00000000000E+00  0.74505805969E-08  0.10566000000E+00  0.10566000000E+00 0. -1.
     999900   -1    0    0    0    0 -0.00000000000E+00 -0.00000000000E+00 -0.74505805969E-08  0.93827000000E+00  0.93827000000E+00 0. -1.
     999902    2    1    2    0    0 -0.72661503831E-02  0.91602226496E-02 -0.20204740354E-01  0.10205860896E+01  0.10203190815E+01 0.  0.
     999903    2    3    3    0    0 -0.12973978176E+00  0.66992003838E-02  0.77519856925E-02  0.13166121901E+00  0.19932211404E-01 0.  0.
         14    1    1    2    0    0  0.72661503831E-02 -0.91602226496E-02  0.20204740354E-01  0.23343910409E-01  0.00000000000E+00 0. -1.
     999901    1    3    3    0    0  0.12247363138E+00  0.24610222658E-02 -0.27956726047E-01  0.88892487058E+00  0.88000000000E+00 0. -1.
        -11    1    4    4    0    0 -0.88282797469E-01  0.12340275412E-01  0.10333654063E-01  0.89739513334E-01  0.51100000000E-03 0.  1.
         11    1    4    4    0    0 -0.41456984290E-01 -0.56410750284E-02 -0.25816683701E-02  0.41921705672E-01  0.51100000000E-03 0. -1.
</event>
<event>
 8    1  0.1092993E+005  0.1043930E+01  0.7957747E-01            NaN
         13   -1    0    0    0    0  0.00000000000E+00  0.00000000000E+00  0.74505805969E-08  0.10566000000E+00  0.10566000000E+00 0. -1.
     999900   -1    0    0    0    0 -0.00000000000E+00 -0.00000000000E+00 -0.74505805969E-08  0.93827000000E+00  0.93827000000E+00 0. -1.
     999902    2    1    2    0    0  0.18389944686E-01 -0.65662418034E-02 -0.13049106156E-01  0.10204441581E+01  0.10201738553E+01 0.  0.
     999903    2    3    3    0    0  0.41081586636E-01  0.65622421989E-01  0.10214797005E+00  0.12971609628E+00  0.19951411522E-01 0.  0.
         14    1    1    2    0    0 -0.18389944686E-01  0.65662418034E-02  0.13049106156E-01  0.23485841872E-01  0.00000000000E+00 0. -1.
     999901    1    3    3    0    0 -0.22691641950E-01 -0.72188663793E-01 -0.11519707620E+00  0.89072806185E+00  0.88000000000E+00 0. -1.
        -11    1    4    4    0    0  0.30028889543E-01  0.48859664537E-01  0.88406356099E-01  0.10538000733E+00  0.51100000000E-03 0.  1.
         11    1    4    4    0    0  0.11052697092E-01  0.16762757452E-01  0.13741613947E-01  0.24336088948E-01  0.51100000000E-03 0. -1.
</event>
<event>
 8    1  0.1092993E+005  0.1043930E+01  0.7957747E-01            NaN
         13   -1    0    0    0    0  0.00000000000E+00  0.00000000000E+00  0.74505805969E-08  0.10566000000E+00  0.10566000000E+00 0.  1.
     999900   -1    0    0    0    0 -0.00000000000E+00 -0.00000000000E+00 -0.74505805969E-08  0.93827000000E+00  0.93827000000E+00 0. -1.
     999902    2    1    2    0    0  0.21616397358E-01 -0.18003349570E-02  0.95235535776E-02  0.10202401728E+01  0.10199650985E+01 0.  0.
     999903    2    3    3    0    0 -0.40114266630E-01 -0.10649007431E+00  0.60810972102E-01  0.13040815735E+00  0.18947898553E-01 0.  0.
         14    1    1    2    0    0 -0.21616397358E-01  0.18003349570E-02 -0.95235535776E-02  0.23689827214E-01  0.00000000000E+00 0. -1.
     999901    1    3    3    0    0  0.61730663987E-01  0.10468973936E+00 -0.51287418525E-01  0.88983201544E+00  0.88000000000E+00 0. -1.
        -11    1    4    4    0    0 -0.31677696319E-01 -0.94072599774E-01  0.46330952749E-01  0.10954427770E+00  0.51100000000E-03 0.  1.
         11    1    4    4    0    0 -0.84365703105E-02 -0.12417474540E-01  0.14480019353E-01  0.20863879650E-01  0.51100000000E-03 0. -1.
</event>
<event>
 7    1  0.1092993E+005  0.1043930E+01  0.7957747E-01            NaN
         13   -1    0    0    0    0  0.00000000000E+00  0.00000000000E+00  0.74505805969E-08  0.10566000000E+00  0.10566000000E+00 0. -1.
     999900   -1    0    0    0    0 -0.00000000000E+00 -0.00000000000E+00 -0.74505805969E-08  0.93827000000E+00  0.93827000000E+00 0.  1.
     999902    2    1    2    0    0  0.18085037342E-01 -0.11126154777E-01  0.13320259398E-01  0.10188643022E+01  0.10185559273E+01 0.  0.
         14    1    1    2    0    0 -0.18085037342E-01  0.11126154777E-01 -0.13320259398E-01  0.25065697800E-01  0.00000000000E+00 0.  1.
     999901    1    3    3    0    0 -0.42800305012E-01  0.90235548673E-01 -0.33277822201E-01  0.88627407375E+00  0.88000000000E+00 0.  1.
        -11    1    3    3    0    0  0.38441370504E-01 -0.91633388486E-01  0.40959690814E-01  0.10748197172E+00  0.51100000000E-03 0. -1.
         11    1    3    3    0    0  0.22443971850E-01 -0.97283149640E-02  0.56383907857E-02  0.25108256731E-01  0.51100000000E-03 0.  1.
</event>
<event>
 8    1  0.1092993E+005  0.1043930E+01  0.7957747E-01            NaN
         13   -1    0    0    0    0  0.00000000000E+00  0.00000000000E+00  0.74505805969E-08  0.10566000000E+00  0.10566000000E+00 0.  1.
     999900   -1    0    0    0    0 -0.00000000000E+00 -0.00000000000E+00 -0.74505805969E-08  0.93827000000E+00  0.93827000000E+00 0. -1.
     999902    2    1    2    0    0 -0.15709241451E-01  0.85478819588E-02 -0.15251526349E-01  0.10204256257E+01  0.10201548912E+01 0.  0.
     999903    2    3    3    0    0 -0.12532079082E+00 -0.18695678631E-01  0.31358895483E-01  0.13198348651E+00  0.19530268143E-01 0.  0.
         14    1    1    2    0    0  0.15709241451E-01 -0.85478819588E-02  0.15251526349E-01  0.23504374251E-01  0.00000000000E+00 0.  1.
     999901    1    3    3    0    0  0.10961154937E+00  0.27243560590E-01 -0.46610421832E-01  0.88844213924E+00  0.88000000000E+00 0. -1.
        -11    1    4    4    0    0 -0.98257633221E-01 -0.15619300142E-01  0.32643551343E-01  0.10471097167E+00  0.51100000000E-03 0. -1.
         11    1    4    4    0    0 -0.27063157603E-01 -0.30763784894E-02 -0.12846558597E-02  0.27272514841E-01  0.51100000000E-03 0.  1.
</event>
<event>
 8    1  0.1092993E+005  0.1043930E+01  0.7957747E-01            NaN
         13   -1    0    0    0    0  0.00000000000E+00  0.00000000000E+00  0.74505805969E-08  0.10566000000E+00  0.10566000000E+00 0. -1.
     999900   -1    0    0    0    0 -0.00000000000E+00 -0.00000000000E+00 -0.74505805969E-08  0.93827000000E+00  0.93827000000E+00 0.  1.
     999902    2    1    2    0    0 -0.54188580288E-02 -0.19520102537E-01 -0.11859319013E-01  0.10204557189E+01  0.10201856852E+01 0.  0.
     999903    2    3    3    0    0 -0.33232360803E-01  0.12163115238E+00 -0.14926881350E-01  0.12876817406E+00  0.21445368496E-01 0.  0.
         14    1    1    2    0    0  0.54188580288E-02  0.19520102537E-01  0.11859319013E-01  0.23474281093E-01  0.00000000000E+00 0. -1.
     999901    1    3    3    0    0  0.27813502774E-01 -0.14115125492E+00  0.30675623374E-02  0.89168754485E+00  0.88000000000E+00 0.  1.
        -11    1    4    4    0    0 -0.96654880045E-02  0.24189277673E-01 -0.11440413195E-01  0.28454999346E-01  0.51100000000E-03 0.  1.
         11    1    4    4    0    0 -0.23566872798E-01  0.97441874705E-01 -0.34864681551E-02  0.10031317471E+00  0.51100000000E-03 0. -1.
</event>
<event>
 8    1  0.1092993E+005  0.1043930E+01  0.7957747E-01            NaN
         13   -1    0    0    0    0  0.00000000000E+00  0.00000000000E+00  0.74505805969E-08  0.10566000000E+00  0.10566000000E+00 0.  1.
     999900   -1    0    0    0    0 -0.00000000000E+00 -0.00000000000E+00 -0.74505805969E-08  0.93827000000E+00  0.93827000000E+00 0.  1.
     999902    2    1    2    0    0  0.16046479328E-01 -0.11345200192E-01  0.12230533799E-01  0.10207828830E+01  0.10205204091E+01 0.  0.
     999903    2    3    3    0    0 -0.71185953669E-01 -0.73080074917E-03  0.10848504476E+00  0.13118348235E+00  0.19290594493E-01 0.  0.
         14    1    1    2    0    0 -0.16046479328E-01  0.11345200192E-01 -0.12230533799E-01  0.23147116953E-01  0.00000000000E+00 0. -1.
     999901    1    3    3    0    0  0.87232432997E-01 -0.10614399443E-01 -0.96254510958E-01  0.88959940070E+00  0.88000000000E+00 0.  1.
        -11    1    4    4    0    0 -0.57723205568E-01 -0.13215494834E-02  0.72043645639E-01  0.92326935138E-01  0.51100000000E-03 0. -1.
         11    1    4    4    0    0 -0.13462748101E-01  0.59074873418E-03  0.36441399118E-01  0.38856547211E-01  0.51100000000E-03 0.  1.
</event>
<event>
 8    1  0.1092993E+005  0.1043930E+01  0.7957747E-01            NaN
         13   -1    0    0    0    0  0.00000000000E+00  0.00000000000E+00  0.74505805969E-08  0.10566000000E+00  0.10566000000E+00 0.  1.
     999900   -1    0    0    0    0 -0.00000000000E+00 -0.00000000000E+00 -0.74505805969E-08  0.93827000000E+00  0.93827000000E+00 0.  1.
     999902    2    1    2    0    0  0.99715982014E-02  0.39199885075E-02  0.21371381157E-01  0.10200232015E+01  0.10197430052E+01 0.  0.
     999903    2    3    3    0    0 -0.14591081970E-01  0.12722705548E+00 -0.13451179936E-01  0.13040498635E+00  0.20613173016E-01 0.  0.
         14    1    1    2    0    0 -0.99715982014E-02 -0.39199885075E-02 -0.21371381157E-01  0.23906798472E-01  0.00000000000E+00 0. -1.
     999901    1    3    3    0    0  0.24562680172E-01 -0.12330706698E+00  0.34822561094E-01  0.88961821518E+00  0.88000000000E+00 0.  1.
        -11    1    4    4    0    0 -0.11812037221E-01  0.74050589439E-01  0.18082640813E-02  0.75010299024E-01  0.51100000000E-03 0. -1.
         11    1    4    4    0    0 -0.27790447495E-02  0.53176466045E-01 -0.15259444018E-01  0.55394687322E-01  0.51100000000E-03 0.  1.
</event>
<event>
 8    1  0.1092993E+005  0.1043930E+01  0.7957747E-01            NaN
         13   -1    0    0    0    0  0.00000000000E+00  0.00000000000E+00  0.74505805969E-08  0.10566000000E+00  0.10566000000E+00 0.  1.
     999900   -1    0    0    0    0 -0.00000000000E+00 -0.00000000000E+00 -0.74505805969E-08  0.93827000000E+00  0.93827000000E+00 0. -1.
     999902    2    1    2    0    0 -0.99735737448E-02  0.10112433004E-01  0.24406593561E-02  0.10295185361E+01  0.10294176634E+01 0.  0.
     999903    2    3    3    0    0  0.10161969267E+00 -0.50704579988E-02  0.91042191348E-01  0.13792793004E+00  0.19574519093E-01 0.  0.
         14    1    1    2    0    0  0.99735737448E-02 -0.10112433004E-01 -0.24406593561E-02  0.14411463930E-01  0.00000000000E+00 0. -1.
     999901    1    3    3    0    0 -0.11159326641E+00  0.15182891003E-01 -0.88601531992E-01  0.89159060603E+00  0.88000000000E+00 0. -1.
        -11    1    4    4    0    0  0.10321715444E-01 -0.41278213291E-02  0.41250630885E-02  0.11868192159E-01  0.51100000000E-03 0. -1.
         11    1    4    4    0    0  0.91297977224E-01 -0.94263666963E-03  0.86917128260E-01  0.12605973788E+00  0.51100000000E-03 0.  1.
</event>
<event>
 8    1  0.1092993E+005  0.1043930E+01  0.7957747E-01            NaN
         13   -1    0    0    0    0  0.00000000000E+00  0.00000000000E+00  0.74505805969E-08  0.10566000000E+00  0.10566000000E+00 0. -1.
     999900   -1    0    0    0    0 -0.00000000000E+00 -0.00000000000E+00 -0.74505805969E-08  0.93827000000E+00  0.93827000000E+00 0. -1.
     999902    2    1    2    0    0  0.84735620537E-02 -0.16520566781E-01  0.14733155940E-01  0.10202277582E+01  0.10199523922E+01 0.  0.
     999903    2    3    3    0    0 -0.97305340973E-01 -0.77604280930E-01  0.37647886344E-01  0.13149524430E+00  0.19567374038E-01 0.  0.
         14    1    1    2    0    0 -0.84735620537E-02  0.16520566781E-01 -0.14733155940E-01  0.23702241763E-01  0.00000000000E+00 0.  1.
     999901    1    3    3    0    0  0.10577890303E+00  0.61083714149E-01 -0.22914730404E-01  0.88873251394E+00  0.88000000000E+00 0.  1.
        -11    1    4    4    0    0 -0.44120049854E-01 -0.47655943827E-01  0.18800108569E-01  0.67611929306E-01  0.51100000000E-03 0. -1.
         11    1    4    4    0    0 -0.53185291119E-01 -0.29948337103E-01  0.18847777775E-01  0.63883314994E-01  0.51100000000E-03 0.  1.
</event>
<event>
 8    1  0.1092993E+005  0.1043930E+01  0.7957747E-01            NaN
         13   -1    0    0    0    0  0.00000000000E+00  0.00000000000E+00  0.74505805969E-08  0.10566000000E+00  0.10566000000E+00 0. -1.
     999900   -1    0    0    0    0 -0.00000000000E+00 -0.00000000000E+00 -0.74505805969E-08  0.93827000000E+00  0.93827000000E+00 0.  1.
     999902    2    1    2    0    0 -0.19986294565E-01  0.96810043013E-02 -0.98885559415E-02  0.10196203856E+01  0.10193305516E+01 0.  0.
     999903    2    3    3    0    0  0.12015164376E+00 -0.32112162487E-01 -0.19341168437E-01  0.12750230907E+00  0.20375218852E-01 0.  0.
         14    1    1    2    0    0  0.19986294565E-01 -0.96810043013E-02  0.98885559415E-02  0.24309614422E-01  0.00000000000E+00 0. -1.
     999901    1    3    3    0    0 -0.14013793833E+00  0.41793166788E-01  0.94526124951E-02  0.89211807651E+00  0.88000000000E+00 0. -1.
        -11    1    4    4    0    0  0.63944543607E-01 -0.11979968268E-01 -0.19067546290E-01  0.67795698531E-01  0.51100000000E-03 0.  1.
         11    1    4    4    0    0  0.56207100157E-01 -0.20132194219E-01 -0.27362214683E-03  0.59706610540E-01  0.51100000000E-03 0. -1.
</event>
<event>
 8    1  0.1092993E+005  0.1043930E+01  0.7957747E-01            NaN
         13   -1    0    0    0    0  0.00000000000E+00  0.00000000000E+00  0.74505805969E-08  0.10566000000E+00  0.10566000000E+00 0. -1.
     999900   -1    0    0    0    0 -0.00000000000E+00 -0.00000000000E+00 -0.74505805969E-08  0.93827000000E+00  0.93827000000E+00 0. -1.
     999902    2    1    2    0    0 -0.23337904165E-01  0.51389377634E-03 -0.49235828443E-02  0.10200728517E+01  0.10197938317E+01 0.  0.
     999903    2    3    3    0    0  0.88259093109E-01  0.80879074201E-01  0.41033859432E-01  0.12820708907E+00  0.20547211688E-01 0.  0.
         14    1    1    2    0    0  0.23337904165E-01 -0.51389377634E-03  0.49235828443E-02  0.23857148313E-01  0.00000000000E+00 0. -1.
     999901    1    3    3    0    0 -0.11159699727E+00 -0.80365180425E-01 -0.45957442277E-01  0.89186576262E+00  0.88000000000E+00 0.  1.
        -11    1    4    4    0    0  0.28750606978E-01  0.36839647409E-01  0.22608631657E-01  0.51915011020E-01  0.51100000000E-03 0.  1.
         11    1    4    4    0    0  0.59508486132E-01  0.44039426792E-01  0.18425227776E-01  0.76292078052E-01  0.51100000000E-03 0. -1.
</event>
<event>
 8    1  0.1092993E+005  0.1043930E+01  0.7957747E-01            NaN
         13   -1    0    0    0    0  0.00000000000E+00  0.00000000000E+00  0.74505805969E-08  0.10566000000E+00  0.10566000000E+00 0. -1.
     999900   -1    0    0    0    0 -0.00000000000E+00 -0.00000000000E+00 -0.74505805969E-08  0.93827000000E+00  0.93827000000E+00 0. -1.
     999902    2    1    2    0    0 -0.36301784513E-02  0.22305050509E-01 -0.75145650980E-02  0.10201148334E+01  0.10198368061E+01 0.  0.
     999903    2    3    3    0    0  0.69346045651E-01  0.29497569008E-03  0.10735119195E+00  0.12938248589E+00  0.20164031931E-01 0.  0.
         14    1    1    2    0    0  0.36301784513E-02 -0.22305050509E-01  0.75145650980E-02  0.23815166647E-01  0.00000000000E+00 0. -1.
     999901    1    3    3    0    0 -0.72976224102E-01  0.22010074819E-01 -0.11486575705E+00  0.89073234746E+00  0.88000000000E+00 0. -1.
        -11    1    4    4    0    0  0.37288633610E-01 -0.16764769939E-02  0.39708964491E-01  0.54500603240E-01  0.51100000000E-03 0.  1.
         11    1    4    4    0    0  0.32057412041E-01  0.19714526840E-02  0.67642227458E-01  0.74881882648E-01  0.51100000000E-03 0. -1.
</event>
<event>
 8    1  0.1092993E+005  0.1043930E+01  0.7957747E-01            NaN
         13   -1    0    0    0    0  0.00000000000E+00  0.00000000000E+00  0.74505805969E-08  0.10566000000E+00  0.10566000000E+00 0.  1.
     999900   -1    0    0    0    0 -0.00000000000E+00 -0.00000000000E+00 -0.74505805969E-08  0.93827000000E+00  0.93827000000E+00 0.  1.
     999902    2    1    2    0    0 -0.19936941270E-01 -0.32435038380E-02  0.12328587451E-01  0.10202657651E+01  0.10199912918E+01 0.  0.
     999903    2    3    3    0    0 -0.95992029004E-01  0.33414688941E-01 -0.80586239300E-01  0.13135555339E+00  0.20715413902E-01 0.  0.
         14    1    1    2    0    0  0.19936941270E-01  0.32435038380E-02 -0.12328587451E-01  0.23664234889E-01  0.00000000000E+00 0.  1.
     999901    1    3    3    0    0  0.76055087735E-01 -0.36658192779E-01  0.92914826750E-01  0.88891021172E+00  0.88000000000E+00 0. -1.
        -11    1    4    4    0    0 -0.62582120689E-01  0.13320237286E-01 -0.57605397943E-01  0.86096420044E-01  0.51100000000E-03 0.  1.
         11    1    4    4    0    0 -0.33409908316E-01  0.20094451654E-01 -0.22980841357E-01  0.45259133348E-01  0.51100000000E-03 0. -1.
</event>
<event>
 8    1  0.1092993E+005  0.1043930E+01  0.7957747E-01            NaN
         13   -1    0    0    0    0  0.00000000000E+00  0.00000000000E+00  0.74505805969E-08  0.10566000000E+00  0.10566000000E+00 0.  1.
     999900   -1    0    0    0    0 -0.00000000000E+00 -0.00000000000E+00 -0.74505805969E-08  0.93827000000E+00  0.93827000000E+00 0. -1.
     999902    2    1    2    0    0  0.14981832021E-01 -0.17721145014E-01 -0.62696047813E-02  0.10198924832E+01  0.10196091776E+01 0.  0.
     999903    2    3    3    0    0  0.14917491222E-02 -0.12697083219E+00 -0.32765478966E-01  0.13263856921E+00  0.19889592456E-01 0.  0.
         14    1    1    2    0    0 -0.14981832021E-01  0.17721145014E-01  0.62696047813E-02  0.24037516832E-01  0.00000000000E+00 0. -1.
     999901    1    3    3    0    0  0.13490082899E-01  0.10924968718E+00  0.26495874185E-01  0.88725391396E+00  0.88000000000E+00 0.  1.
        -11    1    4    4    0    0  0.13468055260E-02 -0.57858246204E-01 -0.25154072843E-01  0.63106093529E-01  0.51100000000E-03 0. -1.
         11    1    4    4    0    0  0.14494359620E-03 -0.69112585985E-01 -0.76114061237E-02  0.69532475682E-01  0.51100000000E-03 0.  1.
</event>
<event>
 8    1  0.1092993E+005  0.1043930E+01  0.7957747E-01            NaN
         13   -1    0    0    0    0  0.00000000000E+00  0.00000000000E+00  0.74505805969E-08  0.10566000000E+00  0.10566000000E+00 0.  1.
     999900   -1    0    0    0    0 -0.00000000000E+00 -0.00000000000E+00 -0.74505805969E-08  0.93827000000E+00  0.93827000000E+00 0.  1.
     999902    2    1    2    0    0  0.11364926944E-01  0.86516197825E-02 -0.20041750639E-01  0.10193193548E+01  0.10190222094E+01 0.  0.
     999903    2    3    3    0    0 -0.12596148219E+00 -0.16688085396E-02 -0.16832115454E-01  0.12860315102E+00  0.19656307469E-01 0.  0.
         14    1    1    2    0    0 -0.11364926944E-01 -0.86516197825E-02  0.20041750639E-01  0.24610645217E-01  0.00000000000E+00 0.  1.
     999901    1    3    3    0    0  0.13732640914E+00  0.10320428322E-01 -0.32096351847E-02  0.89071620376E+00  0.88000000000E+00 0. -1.
        -11    1    4    4    0    0 -0.10468196183E+00 -0.86843847905E-02 -0.12611025933E-01  0.10579712079E+00  0.51100000000E-03 0.  1.
         11    1    4    4    0    0 -0.21279520366E-01  0.70155762509E-02 -0.42210895213E-02  0.22806030231E-01  0.51100000000E-03 0. -1.
</event>
<event>
 8    1  0.1092993E+005  0.1043930E+01  0.7957747E-01            NaN
         13   -1    0    0    0    0  0.00000000000E+00  0.00000000000E+00  0.74505805969E-08  0.10566000000E+00  0.10566000000E+00 0.  1.
     999900   -1    0    0    0    0 -0.00000000000E+00 -0.00000000000E+00 -0.74505805969E-08  0.93827000000E+00  0.93827000000E+00 0.  1.
     999902    2    1    2    0    0  0.24134958588E-01  0.40892248670E-02 -0.13519443023E-02  0.10194137658E+01  0.10191189235E+01 0.  0.
     999903    2    3    3    0    0 -0.62936384011E-01  0.22375006574E-01  0.10770269806E+00  0.12822988829E+00  0.19529560395E-01 0.  0.
         14    1    1    2    0    0 -0.24134958588E-01 -0.40892248670E-02  0.13519443023E-02  0.24516234202E-01  0.00000000000E+00 0. -1.
     999901    1    3    3    0    0  0.87071342599E-01 -0.18285781707E-01 -0.10905464236E+00  0.89118387751E+00  0.88000000000E+00 0.  1.
        -11    1    4    4    0    0 -0.53469963419E-01  0.10896720737E-01  0.87760752626E-01  0.10334401934E+00  0.51100000000E-03 0.  1.
         11    1    4    4    0    0 -0.94664205916E-02  0.11478285836E-01  0.19941945434E-01  0.24885868947E-01  0.51100000000E-03 0. -1.
</event>
<event>
 8    1  0.1092993E+005  0.1043930E+01  0.7957747E-01            NaN
         13   -1    0    0    0    0  0.00000000000E+00  0.00000000000E+00  0.74505805969E-08  0.10566000000E+00  0.10566000000E+00 0.  1.
     999900   -1    0    0    0    0 -0.00000000000E+00 -0.00000000000E+00 -0.74505805969E-08  0.93827000000E+00  0.93827000000E+00 0.  1.
     999902    2    1    2    0    0 -0.65323268931E-02 -0.26684728989E-02  0.21655081038E-01  0.10211542546E+01  0.10209002288E+01 0.  0.
     999903    2    3    3    0    0  0.59555892770E-01  0.70134848010E-03 -0.11212810091E+00  0.12858663913E+00  0.20357222195E-01 0.  0.
         14    1    1    2    0    0  0.65323268931E-02  0.26684728989E-02 -0.21655081038E-01  0.22775745367E-01  0.00000000000E+00 0. -1.
     999901    1    3    3    0    0 -0.66088219663E-01 -0.33698213790E-02  0.13378318195E+00  0.89256761550E+00  0.88000000000E+00 0. -1.
        -11    1    4    4    0    0  0.13384798638E-01  0.52381742837E-02 -0.42920643432E-01  0.45266257389E-01  0.51100000000E-03 0. -1.
         11    1    4    4    0    0  0.46171094132E-01 -0.45368258036E-02 -0.69207457477E-01  0.83320381739E-01  0.51100000000E-03 0.  1.
</event>
<event>
 8    1  0.1092993E+005  0.1043930E+01  0.7957747E-01            NaN
         13   -1    0    0    0    0  0.00000000000E+00  0.00000000000E+00  0.74505805969E-08  0.10566000000E+00  0.10566000000E+00 0.  1.
     999900   -1    0    0    0    0 -0.00000000000E+00 -0.00000000000E+00 -0.74505805969E-08  0.93827000000E+00  0.93827000000E+00 0. -1.
     999902    2    1    2    0    0 -0.15142631976E-01  0.13319058664E-01 -0.12193967206E-01  0.10203632976E+01  0.10200911085E+01 0.  0.
     999903    2    3    3    0    0 -0.34782135737E-01 -0.96693014180E-01  0.74618323544E-01  0.12905822068E+00  0.22995524753E-01 0.  0.
         14    1    1    2    0    0  0.15142631976E-01 -0.13319058664E-01  0.12193967206E-01  0.23566702423E-01  0.00000000000E+00 0.  1.
     999901    1    3    3    0    0  0.19639503760E-01  0.11001207284E+00 -0.86812290750E-01  0.89130507690E+00  0.88000000000E+00 0. -1.
        -11    1    4    4    0    0  0.79727236474E-03 -0.26036521861E-01  0.15704778169E-01  0.30421000842E-01  0.51100000000E-03 0. -1.
         11    1    4    4    0    0 -0.35579408101E-01 -0.70656492319E-01  0.58913545375E-01  0.98637219837E-01  0.51100000000E-03 0.  1.
</event>
<event>
 7    1  0.1375679E+005  0.1043930E+01  0.7957747E-01            NaN
         13   -1    0    0    0    0  0.00000000000E+00  0.00000000000E+00  0.74505805969E-08  0.10566000000E+00  0.10566000000E+00 0.  1.
     999900   -1    0    0    0    0 -0.00000000000E+00 -0.00000000000E+00 -0.74505805969E-08  0.93827000000E+00  0.93827000000E+00 0.  1.
     999903    2    1    2    0    0 -0.92400195164E-01  0.41114759397E-01  0.47848488293E-01  0.11355551849E+00  0.19420567463E-01 0.  0.
         14    1    1    2    0    0  0.39177879444E-01 -0.91090179394E-02  0.21236484246E-01  0.45484818442E-01  0.00000000000E+00 0.  1.
     999901    1    1    2    0    0  0.53222315720E-01 -0.32005741458E-01 -0.69084972540E-01  0.88488966307E+00  0.88000000000E+00 0.  1.
        -11    1    3    3    0    0 -0.29017737371E-01  0.23071198703E-01  0.16717580856E-01  0.40669987982E-01  0.51100000000E-03 0.  1.
         11    1    3    3    0    0 -0.63382457793E-01  0.18043560694E-01  0.31130907438E-01  0.72885530507E-01  0.51100000000E-03 0. -1.
</event>
<event>
 8    1  0.1092993E+005  0.1043930E+01  0.7957747E-01            NaN
         13   -1    0    0    0    0  0.00000000000E+00  0.00000000000E+00  0.74505805969E-08  0.10566000000E+00  0.10566000000E+00 0.  1.
     999900   -1    0    0    0    0 -0.00000000000E+00 -0.00000000000E+00 -0.74505805969E-08  0.93827000000E+00  0.93827000000E+00 0. -1.
     999902    2    1    2    0    0  0.16513758324E-01  0.78577800185E-02  0.12306811004E-01  0.10218867126E+01  0.10216489353E+01 0.  0.
     999903    2    3    3    0    0  0.82951504448E-01  0.76015543651E-01 -0.68395273041E-01  0.13308286407E+00  0.19334434773E-01 0.  0.
         14    1    1    2    0    0 -0.16513758324E-01 -0.78577800185E-02 -0.12306811004E-01  0.22043287366E-01  0.00000000000E+00 0. -1.
     999901    1    3    3    0    0 -0.66437746124E-01 -0.68157763633E-01  0.80702084045E-01  0.88880384856E+00  0.88000000000E+00 0. -1.
        -11    1    4    4    0    0  0.20507417289E-01  0.17706665591E-01 -0.73487454391E-02  0.28077488326E-01  0.51100000000E-03 0. -1.
         11    1    4    4    0    0  0.62444087159E-01  0.58308878061E-01 -0.61046527602E-01  0.10500537574E+00  0.51100000000E-03 0.  1.
</event>
<event>
 8    1  0.1092993E+005  0.1043930E+01  0.7957747E-01            NaN
         13   -1    0    0    0    0  0.00000000000E+00  0.00000000000E+00  0.74505805969E-08  0.10566000000E+00  0.10566000000E+00 0.  1.
     999900   -1    0    0    0    0 -0.00000000000E+00 -0.00000000000E+00 -0.74505805969E-08  0.93827000000E+00  0.93827000000E+00 0. -1.
     999902    2    1    2    0    0 -0.10158296554E-01  0.18430480115E-01 -0.74562672905E-02  0.10216035693E+01  0.10213595759E+01 0.  0.
     999903    2    3    3    0    0 -0.79063022895E-01 -0.68609822006E-01 -0.77896747778E-01  0.13183633187E+00  0.18832042407E-01 0.  0.
         14    1    1    2    0    0  0.10158296554E-01 -0.18430480115E-01  0.74562672905E-02  0.22326430706E-01  0.00000000000E+00 0.  1.
     999901    1    3    3    0    0  0.68904726341E-01  0.87040302121E-01  0.70440480487E-01  0.88976723743E+00  0.88000000000E+00 0. -1.
        -11    1    4    4    0    0 -0.40253246727E-01 -0.33449424178E-01 -0.50508273326E-01  0.72736061519E-01  0.51100000000E-03 0. -1.
         11    1    4    4    0    0 -0.38809776168E-01 -0.35160397827E-01 -0.27388474452E-01  0.59100270349E-01  0.51100000000E-03 0.  1.
</event>
<event>
 8    1  0.1092993E+005  0.1043930E+01  0.7957747E-01            NaN
         13   -1    0    0    0    0  0.00000000000E+00  0.00000000000E+00  0.74505805969E-08  0.10566000000E+00  0.10566000000E+00 0. -1.
     999900   -1    0    0    0    0 -0.00000000000E+00 -0.00000000000E+00 -0.74505805969E-08  0.93827000000E+00  0.93827000000E+00 0.  1.
     999902    2    1    2    0    0 -0.10921756736E-02 -0.22654843841E-01 -0.27357385319E-02  0.10210844520E+01  0.10208288491E+01 0.  0.
     999903    2    3    3    0    0  0.69784639213E-01 -0.77731694733E-01 -0.80090742513E-01  0.13314257384E+00  0.20007640925E-01 0.  0.
         14    1    1    2    0    0  0.10921756736E-02  0.22654843841E-01  0.27357385319E-02  0.22845547979E-01  0.00000000000E+00 0.  1.
     999901    1    3    3    0    0 -0.70876814886E-01  0.55076850892E-01  0.77355003981E-01  0.88794187818E+00  0.88000000000E+00 0. -1.
        -11    1    4    4    0    0  0.27233840558E-01 -0.42418433210E-01 -0.30870351645E-01  0.59112141555E-01  0.51100000000E-03 0. -1.
         11    1    4    4    0    0  0.42550798655E-01 -0.35313261523E-01 -0.49220390869E-01  0.74030432282E-01  0.51100000000E-03 0.  1.
</event>
<event>
 8    1  0.1092993E+005  0.1043930E+01  0.7957747E-01            NaN
         13   -1    0    0    0    0  0.00000000000E+00  0.00000000000E+00  0.74505805969E-08  0.10566000000E+00  0.10566000000E+00 0. -1.
     999900   -1    0    0    0    0 -0.00000000000E+00 -0.00000000000E+00 -0.74505805969E-08  0.93827000000E+00  0.93827000000E+00 0.  1.
     999902    2    1    2    0    0 -0.67717537445E-03 -0.49756049531E-02  0.23208156415E-01  0.10201848166E+01  0.10199084401E+01 0.  0.
     999903    2    3    3    0    0 -0.65935323786E-01  0.10679534274E+00 -0.24163631370E-01  0.12945732910E+00  0.20557403159E-01 0.  0.
         14    1    1    2    0    0  0.67717537445E-03  0.49756049531E-02 -0.23208156415E-01  0.23745183413E-01  0.00000000000E+00 0.  1.
     999901    1    3    3    0    0  0.65258148411E-01 -0.11177094769E+00  0.47371787784E-01  0.89072748748E+00  0.88000000000E+00 0.  1.
        -11    1    4    4    0    0 -0.28656794320E-01  0.64138111002E-01 -0.91160802223E-02  0.70839771197E-01  0.51100000000E-03 0. -1.
         11    1    4    4    0    0 -0.37278529465E-01  0.42657231734E-01 -0.15047551147E-01  0.58617557906E-01  0.51100000000E-03 0.  1.
</event>
<event>
 8    1  0.1092993E+005  0.1043930E+01  0.7957747E-01            NaN
         13   -1    0    0    0    0  0.00000000000E+00  0.00000000000E+00  0.74505805969E-08  0.10566000000E+00  0.10566000000E+00 0.  1.
     999900   -1    0    0    0    0 -0.00000000000E+00 -0.00000000000E+00 -0.74505805969E-08  0.93827000000E+00  0.93827000000E+00 0. -1.
     999902    2    1    2    0    0 -0.49465865986E-02  0.12192222465E-01  0.14988111031E-01  0.10239860164E+01  0.10237917754E+01 0.  0.
     999903    2    3    3    0    0  0.57774324209E-01 -0.80290161892E-01  0.88013957407E-01  0.13391878398E+00  0.20084854264E-01 0.  0.
         14    1    1    2    0    0  0.49465865986E-02 -0.12192222465E-01 -0.14988111031E-01  0.19943983551E-01  0.00000000000E+00 0. -1.
     999901    1    3    3    0    0 -0.62720910808E-01  0.92482384357E-01 -0.73025846375E-01  0.89006723246E+00  0.88000000000E+00 0. -1.
        -11    1    4    4    0    0  0.48177228737E-01 -0.63758013140E-01  0.80328221499E-01  0.11330937251E+00  0.51100000000E-03 0. -1.
         11    1    4    4    0    0  0.95970954724E-02 -0.16532148752E-01  0.76857359076E-02  0.20609411474E-01  0.51100000000E-03 0.  1.
</event>
<event>
 8    1  0.1092993E+005  0.1043930E+01  0.7957747E-01            NaN
         13   -1    0    0    0    0  0.00000000000E+00  0.00000000000E+00  0.74505805969E-08  0.10566000000E+00  0.10566000000E+00 0.  1.
     999900   -1    0    0    0    0 -0.00000000000E+00 -0.00000000000E+00 -0.74505805969E-08  0.93827000000E+00  0.93827000000E+00 0. -1.
     999902    2    1    2    0    0  0.23470123940E-01 -0.36952521784E-03  0.54502219305E-02  0.10198325274E+01  0.10195477898E+01 0.  0.
     999903    2    3    3    0    0  0.56378515312E-01 -0.60996237316E-01  0.10055281943E+00  0.13202451634E+00  0.20506717581E-01 0.  0.
         14    1    1    2    0    0 -0.23470123940E-01  0.36952521784E-03 -0.54502219305E-02  0.24097472601E-01  0.00000000000E+00 0. -1.
     999901    1    3    3    0    0 -0.32908391371E-01  0.60626712098E-01 -0.95102597495E-01  0.88780801105E+00  0.88000000000E+00 0. -1.
        -11    1    4    4    0    0  0.84259559752E-02 -0.21360047551E-01  0.32775620965E-01  0.40021879218E-01  0.51100000000E-03 0.  1.
         11    1    4    4    0    0  0.47952559337E-01 -0.39636189765E-01  0.67777198461E-01  0.92002637126E-01  0.51100000000E-03 0. -1.
</event>
<event>
 8    1  0.1092993E+005  0.1043930E+01  0.7957747E-01            NaN
         13   -1    0    0    0    0  0.00000000000E+00  0.00000000000E+00  0.74505805969E-08  0.10566000000E+00  0.10566000000E+00 0.  1.
     999900   -1    0    0    0    0 -0.00000000000E+00 -0.00000000000E+00 -0.74505805969E-08  0.93827000000E+00  0.93827000000E+00 0. -1.
     999902    2    1    2    0    0  0.20521873724E-01 -0.42862761407E-02  0.10303828310E-01  0.10205700269E+01  0.10203026470E+01 0.  0.
     999903    2    3    3    0    0  0.77675005645E-01 -0.62817819154E-01 -0.83484573822E-01  0.13181320620E+00  0.20629162763E-01 0.  0.
         14    1    1    2    0    0 -0.20521873724E-01  0.42862761407E-02 -0.10303828310E-01  0.23359973076E-01  0.00000000000E+00 0. -1.
     999901    1    3    3    0    0 -0.57153131921E-01  0.58531543014E-01  0.93788402131E-01  0.88875682073E+00  0.88000000000E+00 0. -1.
        -11    1    4    4    0    0  0.29606487926E-01 -0.32582955664E-01 -0.26629429151E-01  0.51454647458E-01  0.51100000000E-03 0.  1.
         11    1    4    4    0    0  0.48068517719E-01 -0.30234863491E-01 -0.56855144670E-01  0.80358558738E-01  0.51100000000E-03 0. -1.
</event>
<event>
 8    1  0.1092993E+005  0.1043930E+01  0.7957747E-01            NaN
         13   -1    0    0    0    0  0.00000000000E+00  0.00000000000E+00  0.74505805969E-08  0.10566000000E+00  0.10566000000E+00 0.  1.
     999900   -1    0    0    0    0 -0.00000000000E+00 -0.00000000000E+00 -0.74505805969E-08  0.93827000000E+00  0.93827000000E+00 0.  1.
     999902    2    1    2    0    0 -0.13218405475E-02  0.12032380181E-01  0.20167529198E-01  0.10204086338E+01  0.10201375031E+01 0.  0.
     999903    2    3    3    0    0  0.10755259319E-01 -0.12705708523E+00  0.84952554554E-02  0.12932615852E+00  0.19847100572E-01 0.  0.
         14    1    1    2    0    0  0.13218405475E-02 -0.12032380181E-01 -0.20167529198E-01  0.23521366227E-01  0.00000000000E+00 0. -1.
     999901    1    3    3    0    0 -0.12077099866E-01  0.13908946541E+00  0.11672273743E-01  0.89108247525E+00  0.88000000000E+00 0. -1.
        -11    1    4    4    0    0  0.26703374050E-02 -0.30128401159E-01 -0.64145050069E-02  0.30923425646E-01  0.51100000000E-03 0. -1.
         11    1    4    4    0    0  0.80849219136E-02 -0.96928684074E-01  0.14909760462E-01  0.98402732872E-01  0.51100000000E-03 0.  1.
</event>
<event>
 8    1  0.1092993E+005  0.1043930E+01  0.7957747E-01            NaN
         13   -1    0    0    0    0  0.00000000000E+00  0.00000000000E+00  0.74505805969E-08  0.10566000000E+00  0.10566000000E+00 0.  1.
     999900   -1    0    0    0    0 -0.00000000000E+00 -0.00000000000E+00 -0.74505805969E-08  0.93827000000E+00  0.93827000000E+00 0.  1.
     999902    2    1    2    0    0 -0.55842875089E-02 -0.21993584315E-01 -0.76002641430E-02  0.10199995584E+01  0.10197188010E+01 0.  0.
     999903    2    3    3    0    0 -0.63749179725E-01  0.86724040094E-01  0.65172085436E-01  0.12842875845E+00  0.25720191101E-01 0.  0.
         14    1    1    2    0    0  0.55842875089E-02  0.21993584315E-01  0.76002641430E-02  0.23930441556E-01  0.00000000000E+00 0. -1.
     999901    1    3    3    0    0  0.58164892216E-01 -0.10871762441E+00 -0.72772349579E-01  0.89157080000E+00  0.88000000000E+00 0.  1.
        -11    1    4    4    0    0 -0.32035098760E-01  0.62266455983E-01  0.47715811148E-01  0.84737352140E-01  0.51100000000E-03 0.  1.
         11    1    4    4    0    0 -0.31714080966E-01  0.24457584111E-01  0.17456274288E-01  0.43691406307E-01  0.51100000000E-03 0. -1.
</event>
<event>
 8    1  0.1092993E+005  0.1043930E+01  0.7957747E-01            NaN
         13   -1    0    0    0    0  0.00000000000E+00  0.00000000000E+00  0.74505805969E-08  0.10566000000E+00  0.10566000000E+00 0.  1.
     999900   -1    0    0    0    0 -0.00000000000E+00 -0.00000000000E+00 -0.74505805969E-08  0.93827000000E+00  0.93827000000E+00 0.  1.
     999902    2    1    2    0    0 -0.26210631133E-02 -0.17702087845E-01  0.16975684776E-01  0.10192640770E+01  0.10189655788E+01 0.  0.
     999903    2    3    3    0    0 -0.77334477768E-01  0.31578026982E-03 -0.10065408431E+00  0.12811678247E+00  0.17376538590E-01 0.  0.
         14    1    1    2    0    0  0.26210631133E-02  0.17702087845E-01 -0.16975684776E-01  0.24665923042E-01  0.00000000000E+00 0. -1.
     999901    1    3    3    0    0  0.74713414655E-01 -0.18017868115E-01  0.11762976908E+00  0.89114729449E+00  0.88000000000E+00 0. -1.
        -11    1    4    4    0    0 -0.34863543832E-01 -0.84694868783E-02 -0.46532418670E-01  0.58759901334E-01  0.51100000000E-03 0. -1.
         11    1    4    4    0    0 -0.42470933936E-01  0.87852671481E-02 -0.54121665638E-01  0.69356881135E-01  0.51100000000E-03 0.  1.
</event>
<event>
 8    1  0.1092993E+005  0.1043930E+01  0.7957747E-01            NaN
         13   -1    0    0    0    0  0.00000000000E+00  0.00000000000E+00  0.74505805969E-08  0.10566000000E+00  0.10566000000E+00 0. -1.
     999900   -1    0    0    0    0 -0.00000000000E+00 -0.00000000000E+00 -0.74505805969E-08  0.93827000000E+00  0.93827000000E+00 0. -1.
     999902    2    1    2    0    0  0.19676611657E-01  0.11568249476E-01  0.93422821660E-02  0.10192668356E+01  0.10189684050E+01 0.  0.
     999903    2    3    3    0    0 -0.80656589382E-01 -0.48578886639E-01  0.84788177077E-01  0.12832547262E+00  0.20322359906E-01 0.  0.
         14    1    1    2    0    0 -0.19676611657E-01 -0.11568249476E-01 -0.93422821660E-02  0.24663164402E-01  0.00000000000E+00 0. -1.
     999901    1    3    3    0    0  0.10033320104E+00  0.60147136114E-01 -0.75445894911E-01  0.89094136298E+00  0.88000000000E+00 0. -1.
        -11    1    4    4    0    0 -0.20062094965E-01 -0.21782246981E-01  0.32069131618E-01  0.43653685544E-01  0.51100000000E-03 0.  1.
         11    1    4    4    0    0 -0.60594494418E-01 -0.26796639658E-01  0.52719045460E-01  0.84671787071E-01  0.51100000000E-03 0. -1.
</event>
<event>
 8    1  0.1092993E+005  0.1043930E+01  0.7957747E-01            NaN
         13   -1    0    0    0    0  0.00000000000E+00  0.00000000000E+00  0.74505805969E-08  0.10566000000E+00  0.10566000000E+00 0.  1.
     999900   -1    0    0    0    0 -0.00000000000E+00 -0.00000000000E+00 -0.74505805969E-08  0.93827000000E+00  0.93827000000E+00 0. -1.
     999902    2    1    2    0    0 -0.10202252845E-01  0.21251442874E-01  0.32277957053E-02  0.10201365460E+01  0.10198590315E+01 0.  0.
     999903    2    3    3    0    0 -0.46812470077E-01  0.10696489042E+00 -0.60351662103E-01  0.13293338408E+00  0.19901415704E-01 0.  0.
         14    1    1    2    0    0  0.10202252845E-01 -0.21251442874E-01 -0.32277957053E-02  0.23793453983E-01  0.00000000000E+00 0.  1.
     999901    1    3    3    0    0  0.36610217232E-01 -0.85713447547E-01  0.63579457808E-01  0.88720316194E+00  0.88000000000E+00 0.  1.
        -11    1    4    4    0    0 -0.33972271995E-01  0.83341851022E-01 -0.55114976450E-01  0.10553625513E+00  0.51100000000E-03 0.  1.
         11    1    4    4    0    0 -0.12840198082E-01  0.23623039398E-01 -0.52366856526E-02  0.27397128952E-01  0.51100000000E-03 0. -1.
</event>
<event>
 8    1  0.1092993E+005  0.1043930E+01  0.7957747E-01            NaN
         13   -1    0    0    0    0  0.00000000000E+00  0.00000000000E+00  0.74505805969E-08  0.10566000000E+00  0.10566000000E+00 0. -1.
     999900   -1    0    0    0    0 -0.00000000000E+00 -0.00000000000E+00 -0.74505805969E-08  0.93827000000E+00  0.93827000000E+00 0.  1.
     999902    2    1    2    0    0 -0.16792916912E-01 -0.18423202618E-02  0.19260121912E-01  0.10183107007E+01  0.10179883765E+01 0.  0.
     999903    2    3    3    0    0 -0.30539694896E-01  0.32180900796E-01 -0.11727727014E+00  0.12702566606E+00  0.20329250038E-01 0.  0.
         14    1    1    2    0    0  0.16792916912E-01  0.18423202618E-02 -0.19260121912E-01  0.25619299335E-01  0.00000000000E+00 0.  1.
     999901    1    3    3    0    0  0.13746777984E-01 -0.34023221058E-01  0.13653739205E+00  0.89128503460E+00  0.88000000000E+00 0. -1.
        -11    1    4    4    0    0 -0.21571902981E-01  0.19547830339E-01 -0.48884797209E-01  0.56898586874E-01  0.51100000000E-03 0.  1.
         11    1    4    4    0    0 -0.89677919150E-02  0.12633070458E-01 -0.68392472930E-01  0.70127079189E-01  0.51100000000E-03 0. -1.
</event>
<event>
 8    1  0.1092993E+005  0.1043930E+01  0.7957747E-01            NaN
         13   -1    0    0    0    0  0.00000000000E+00  0.00000000000E+00  0.74505805969E-08  0.10566000000E+00  0.10566000000E+00 0. -1.
     999900   -1    0    0    0    0 -0.00000000000E+00 -0.00000000000E+00 -0.74505805969E-08  0.93827000000E+00  0.93827000000E+00 0.  1.
     999902    2    1    2    0    0 -0.14425514028E-01  0.16909549122E-01  0.63079916648E-02  0.10208254752E+01  0.10205639773E+01 0.  0.
     999903    2    3    3    0    0 -0.97993357239E-01 -0.81369985772E-01  0.23953169051E-01  0.13124478541E+00  0.20680104980E-01 0.  0.
         14    1    1    2    0    0  0.14425514028E-01 -0.16909549122E-01 -0.63079916648E-02  0.23104524781E-01  0.00000000000E+00 0. -1.
     999901    1    3    3    0    0  0.83567843211E-01  0.98279534894E-01 -0.17645177387E-01  0.88958068981E+00  0.88000000000E+00 0. -1.
        -11    1    4    4    0    0 -0.43220114099E-01 -0.47744614659E-01  0.70630955609E-02  0.64789466208E-01  0.51100000000E-03 0.  1.
         11    1    4    4    0    0 -0.54773243140E-01 -0.33625371113E-01  0.16890073491E-01  0.66455319201E-01  0.51100000000E-03 0. -1.
</event>
<event>
 8    1  0.1092993E+005  0.1043930E+01  0.7957747E-01            NaN
         13   -1    0    0    0    0  0.00000000000E+00  0.00000000000E+00  0.74505805969E-08  0.10566000000E+00  0.10566000000E+00 0.  1.
     999900   -1    0    0    0    0 -0.00000000000E+00 -0.00000000000E+00 -0.74505805969E-08  0.93827000000E+00  0.93827000000E+00 0. -1.
     999902    2    1    2    0    0 -0.73680326321E-02  0.21919534842E-01 -0.28496216079E-03  0.10208034975E+01  0.10205414962E+01 0.  0.
     999903    2    3    3    0    0 -0.90390092348E-01  0.10824807614E-01 -0.92335133249E-01  0.13204650636E+00  0.24959121696E-01 0.  0.
         14    1    1    2    0    0  0.73680326321E-02 -0.21919534842E-01  0.28496216079E-03  0.23126502459E-01  0.00000000000E+00 0.  1.
     999901    1    3    3    0    0  0.83022059716E-01  0.11094727227E-01  0.92050171088E-01  0.88875699118E+00  0.88000000000E+00 0.  1.
        -11    1    4    4    0    0 -0.37517467451E-01  0.12703224076E-01 -0.26834206101E-01  0.47846295613E-01  0.51100000000E-03 0. -1.
         11    1    4    4    0    0 -0.52872624897E-01 -0.18784164618E-02 -0.65500927148E-01  0.84200210749E-01  0.51100000000E-03 0.  1.
</event>
<event>
 8    1  0.1092993E+005  0.1043930E+01  0.7957747E-01            NaN
         13   -1    0    0    0    0  0.00000000000E+00  0.00000000000E+00  0.74505805969E-08  0.10566000000E+00  0.10566000000E+00 0. -1.
     999900   -1    0    0    0    0 -0.00000000000E+00 -0.00000000000E+00 -0.74505805969E-08  0.93827000000E+00  0.93827000000E+00 0. -1.
     999902    2    1    2    0    0  0.23264019595E-01 -0.28654856796E-02 -0.72597681502E-02  0.10193916657E+01  0.10190962851E+01 0.  0.
     999903    2    3    3    0    0  0.66291746934E-01  0.76354383933E-01 -0.82129847764E-01  0.13162328270E+00  0.18835843418E-01 0.  0.
         14    1    1    2    0    0 -0.23264019595E-01  0.28654856796E-02  0.72597681502E-02  0.24538334286E-01  0.00000000000E+00 0. -1.
     999901    1    3    3    0    0 -0.43027727338E-01 -0.79219869612E-01  0.74870079614E-01  0.88776838302E+00  0.88000000000E+00 0.  1.
        -11    1    4    4    0    0  0.15194544585E-01  0.30923917866E-01 -0.28820341832E-01  0.44922556758E-01  0.51100000000E-03 0. -1.
         11    1    4    4    0    0  0.51097202349E-01  0.45430466067E-01 -0.53309505932E-01  0.86700725941E-01  0.51100000000E-03 0.  1.
</event>
<event>
 8    1  0.1092993E+005  0.1043930E+01  0.7957747E-01            NaN
         13   -1    0    0    0    0  0.00000000000E+00  0.00000000000E+00  0.74505805969E-08  0.10566000000E+00  0.10566000000E+00 0. -1.
     999900   -1    0    0    0    0 -0.00000000000E+00 -0.00000000000E+00 -0.74505805969E-08  0.93827000000E+00  0.93827000000E+00 0. -1.
     999902    2    1    2    0    0  0.63406424785E-02  0.18252549625E-03 -0.22425930038E-01  0.10206242196E+01  0.10203580931E+01 0.  0.
     999903    2    3    3    0    0 -0.38486528632E-01 -0.61330019105E-01  0.10427736118E+00  0.12829748995E+00  0.18544372295E-01 0.  0.
         14    1    1    2    0    0 -0.63406424785E-02 -0.18252549625E-03  0.22425930038E-01  0.23305780413E-01  0.00000000000E+00 0. -1.
     999901    1    3    3    0    0  0.44827171111E-01  0.61512544601E-01 -0.12670329122E+00  0.89232672963E+00  0.88000000000E+00 0. -1.
        -11    1    4    4    0    0 -0.13591713794E-01 -0.12952317762E-01  0.39230548637E-01  0.43494761600E-01  0.51100000000E-03 0. -1.
         11    1    4    4    0    0 -0.24894814838E-01 -0.48377701343E-01  0.65046812545E-01  0.84802728354E-01  0.51100000000E-03 0.  1.
</event>
<event>
 8    1  0.1092993E+005  0.1043930E+01  0.7957747E-01            NaN
         13   -1    0    0    0    0  0.00000000000E+00  0.00000000000E+00  0.74505805969E-08  0.10566000000E+00  0.10566000000E+00 0. -1.
     999900   -1    0    0    0    0 -0.00000000000E+00 -0.00000000000E+00 -0.74505805969E-08  0.93827000000E+00  0.93827000000E+00 0.  1.
     999902    2    1    2    0    0 -0.95484604288E-02 -0.48188907147E-02  0.19754430078E-01  0.10214659774E+01  0.10212189337E+01 0.  0.
     999903    2    3    3    0    0 -0.20327211337E-01 -0.12773095155E+00 -0.16445125230E-01  0.13212129506E+00  0.21382304869E-01 0.  0.
         14    1    1    2    0    0  0.95484604288E-02  0.48188907147E-02 -0.19754430078E-01  0.22464022614E-01  0.00000000000E+00 0. -1.
     999901    1    3    3    0    0  0.10778750908E-01  0.12291206083E+00  0.36199555308E-01  0.88934468232E+00  0.88000000000E+00 0. -1.
        -11    1    4    4    0    0 -0.10610254411E-01 -0.56610310329E-01  0.32354165539E-02  0.57689113145E-01  0.51100000000E-03 0. -1.
         11    1    4    4    0    0 -0.97169569259E-02 -0.71120641219E-01 -0.19680541783E-01  0.74432181919E-01  0.51100000000E-03 0.  1.
</event>
<event>
 8    1  0.1092993E+005  0.1043930E+01  0.7957747E-01            NaN
         13   -1    0    0    0    0  0.00000000000E+00  0.00000000000E+00  0.74505805969E-08  0.10566000000E+00  0.10566000000E+00 0. -1.
     999900   -1    0    0    0    0 -0.00000000000E+00 -0.00000000000E+00 -0.74505805969E-08  0.93827000000E+00  0.93827000000E+00 0. -1.
     999902    2    1    2    0    0 -0.96373046923E-03  0.78456978877E-02 -0.21379810648E-01  0.10211357013E+01  0.10208812567E+01 0.  0.
     999903    2    3    3    0    0 -0.79072149510E-02  0.14880385445E-01 -0.13088157643E+00  0.13429392534E+00  0.24918294758E-01 0.  0.
         14    1    1    2    0    0  0.96373046923E-03 -0.78456978877E-02  0.21379810648E-01  0.22794298742E-01  0.00000000000E+00 0. -1.
     999901    1    3    3    0    0  0.69434844818E-02 -0.70346875570E-02  0.10950176579E+00  0.88684177592E+00  0.88000000000E+00 0.  1.
        -11    1    4    4    0    0 -0.31374947342E-02 -0.66928954813E-03 -0.93103527238E-01  0.93160183162E-01  0.51100000000E-03 0. -1.
         11    1    4    4    0    0 -0.47697202168E-02  0.15549674993E-01 -0.37778049197E-01  0.41133742176E-01  0.51100000000E-03 0.  1.
</event>
<event>
 8    1  0.1092993E+005  0.1043930E+01  0.7957747E-01            NaN
         13   -1    0    0    0    0  0.00000000000E+00  0.00000000000E+00  0.74505805969E-08  0.10566000000E+00  0.10566000000E+00 0. -1.
     999900   -1    0    0    0    0 -0.00000000000E+00 -0.00000000000E+00 -0.74505805969E-08  0.93827000000E+00  0.93827000000E+00 0. -1.
     999902    2    1    2    0    0 -0.11881805178E-01  0.15649569186E-01  0.14468643799E-01  0.10195286073E+01  0.10192365541E+01 0.  0.
     999903    2    3    3    0    0 -0.11235505488E+00 -0.11550282460E-01  0.64401199423E-01  0.13198820492E+00  0.22722331920E-01 0.  0.
         14    1    1    2    0    0  0.11881805178E-01 -0.15649569186E-01 -0.14468643799E-01  0.24401392652E-01  0.00000000000E+00 0.  1.
     999901    1    3    3    0    0  0.10047324970E+00  0.27199851646E-01 -0.49932555625E-01  0.88754040243E+00  0.88000000000E+00 0. -1.
        -11    1    4    4    0    0 -0.68493731018E-01  0.23014205313E-02  0.45464785004E-01  0.82243513553E-01  0.51100000000E-03 0.  1.
         11    1    4    4    0    0 -0.43861323864E-01 -0.13851702992E-01  0.18936414420E-01  0.49744691364E-01  0.51100000000E-03 0. -1.
</event>
<event>
 8    1  0.1092993E+005  0.1043930E+01  0.7957747E-01            NaN
         13   -1    0    0    0    0  0.00000000000E+00  0.00000000000E+00  0.74505805969E-08  0.10566000000E+00  0.10566000000E+00 0.  1.
     999900   -1    0    0    0    0 -0.00000000000E+00 -0.00000000000E+00 -0.74505805969E-08  0.93827000000E+00  0.93827000000E+00 0.  1.
     999902    2    1    2    0    0 -0.85520320038E-02  0.13690324117E-01  0.16724945832E-01  0.10206859462E+01  0.10204212437E+01 0.  0.
     999903    2    3    3    0    0  0.19913837564E-01  0.12561048353E+00 -0.28533652425E-01  0.13198758984E+00  0.20784610954E-01 0.  0.
         14    1    1    2    0    0  0.85520320038E-02 -0.13690324117E-01 -0.16724945832E-01  0.23244053840E-01  0.00000000000E+00 0. -1.
     999901    1    3    3    0    0 -0.28465869568E-01 -0.11192015941E+00  0.45258598257E-01  0.88869835632E+00  0.88000000000E+00 0.  1.
        -11    1    4    4    0    0  0.94667680926E-02  0.67030849914E-01 -0.46175790679E-02  0.67855270213E-01  0.51100000000E-03 0.  1.
         11    1    4    4    0    0  0.10447069472E-01  0.58579633612E-01 -0.23916073357E-01  0.64132319625E-01  0.51100000000E-03 0. -1.
</event>
<event>
 8    1  0.1092993E+005  0.1043930E+01  0.7957747E-01            NaN
         13   -1    0    0    0    0  0.00000000000E+00  0.00000000000E+00  0.74505805969E-08  0.10566000000E+00  0.10566000000E+00 0. -1.
     999900   -1    0    0    0    0 -0.00000000000E+00 -0.00000000000E+00 -0.74505805969E-08  0.93827000000E+00  0.93827000000E+00 0.  1.
     999902    2    1    2    0    0 -0.59263822156E-02 -0.23759253122E-01  0.22379780657E-02  0.10193407206E+01  0.10190440972E+01 0.  0.
     999903    2    3    3    0    0 -0.12633479587E-01  0.19680995646E-02  0.12716539069E+00  0.13011985926E+00  0.24426685444E-01 0.  0.
         14    1    1    2    0    0  0.59263822156E-02  0.23759253122E-01 -0.22379780657E-02  0.24589279390E-01  0.00000000000E+00 0. -1.
     999901    1    3    3    0    0  0.67070973712E-02 -0.25727352687E-01 -0.12492741263E+00  0.88922086135E+00  0.88000000000E+00 0.  1.
        -11    1    4    4    0    0 -0.13239145947E-01  0.10020930581E-01  0.53713821693E-01  0.56223925485E-01  0.51100000000E-03 0.  1.
         11    1    4    4    0    0  0.60566636013E-03 -0.80528310160E-02  0.73451569000E-01  0.73895933776E-01  0.51100000000E-03 0. -1.
</event>
<event>
 8    1  0.1092993E+005  0.1043930E+01  0.7957747E-01            NaN
         13   -1    0    0    0    0  0.00000000000E+00  0.00000000000E+00  0.74505805969E-08  0.10566000000E+00  0.10566000000E+00 0. -1.
     999900   -1    0    0    0    0 -0.00000000000E+00 -0.00000000000E+00 -0.74505805969E-08  0.93827000000E+00  0.93827000000E+00 0. -1.
     999902    2    1    2    0    0 -0.20713855242E-01  0.80250377626E-02 -0.49713500127E-02  0.10211664469E+01  0.10209126960E+01 0.  0.
     999903    2    3    3    0    0  0.11828426443E+00 -0.36502247912E-01 -0.32591672125E-01  0.12871698688E+00  0.13500529823E-01 0.  0.
         14    1    1    2    0    0  0.20713855242E-01 -0.80250377626E-02  0.49713500127E-02  0.22763553128E-01  0.00000000000E+00 0.  1.
     999901    1    3    3    0    0 -0.13899811967E+00  0.44527285674E-01  0.27620322113E-01  0.89244945999E+00  0.88000000000E+00 0. -1.
        -11    1    4    4    0    0  0.10618410461E-01 -0.41118635458E-02 -0.71033316761E-02  0.13430432027E-01  0.51100000000E-03 0.  1.
         11    1    4    4    0    0  0.10766585397E+00 -0.32390384366E-01 -0.25488340449E-01  0.11528655485E+00  0.51100000000E-03 0. -1.
</event>
<event>
 8    1  0.1092993E+005  0.1043930E+01  0.7957747E-01            NaN
         13   -1    0    0    0    0  0.00000000000E+00  0.00000000000E+00  0.74505805969E-08  0.10566000000E+00  0.10566000000E+00 0.  1.
     999900   -1    0    0    0    0 -0.00000000000E+00 -0.00000000000E+00 -0.74505805969E-08  0.93827000000E+00  0.93827000000E+00 0.  1.
     999902    2    1    2    0    0 -0.19105217700E-01 -0.43665498886E-02 -0.13781520063E-01  0.10199715694E+01  0.10196901471E+01 0.  0.
     999903    2    3    3    0    0 -0.57575964574E-01 -0.50317068238E-01 -0.10699942134E+00  0.13302116176E+00  0.19973839293E-01 0.  0.
         14    1    1    2    0    0  0.19105217700E-01  0.43665498886E-02  0.13781520063E-01  0.23958430594E-01  0.00000000000E+00 0.  1.
     999901    1    3    3    0    0  0.38470746874E-01  0.45950518350E-01  0.93217901278E-01  0.88695040764E+00  0.88000000000E+00 0. -1.
        -11    1    4    4    0    0 -0.40502217990E-01 -0.39859397905E-01 -0.91435141627E-01  0.10765615407E+00  0.51100000000E-03 0.  1.
         11    1    4    4    0    0 -0.17073746584E-01 -0.10457670333E-01 -0.15564279715E-01  0.25365007693E-01  0.51100000000E-03 0. -1.
</event>
<event>
 8    1  0.1092993E+005  0.1043930E+01  0.7957747E-01            NaN
         13   -1    0    0    0    0  0.00000000000E+00  0.00000000000E+00  0.74505805969E-08  0.10566000000E+00  0.10566000000E+00 0.  1.
     999900   -1    0    0    0    0 -0.00000000000E+00 -0.00000000000E+00 -0.74505805969E-08  0.93827000000E+00  0.93827000000E+00 0. -1.
     999902    2    1    2    0    0 -0.20731940031E-01  0.35330367015E-02  0.99983911714E-02  0.10206434478E+01  0.10203777654E+01 0.  0.
     999903    2    3    3    0    0 -0.12628207949E+00 -0.34155600655E-01  0.18223107883E-01  0.13349694849E+00  0.19380013893E-01 0.  0.
         14    1    1    2    0    0  0.20731940031E-01 -0.35330367015E-02 -0.99983911714E-02  0.23286552166E-01  0.00000000000E+00 0. -1.
     999901    1    3    3    0    0  0.10555013946E+00  0.37688637357E-01 -0.82247167112E-02  0.88714649934E+00  0.88000000000E+00 0. -1.
        -11    1    4    4    0    0 -0.61362201767E-01 -0.12988165028E-01  0.17835751005E-01  0.65210331784E-01  0.51100000000E-03 0.  1.
         11    1    4    4    0    0 -0.64919877728E-01 -0.21167435627E-01  0.38735687721E-03  0.68286616709E-01  0.51100000000E-03 0. -1.
</event>
<event>
 8    1  0.1092993E+005  0.1043930E+01  0.7957747E-01            NaN
         13   -1    0    0    0    0  0.00000000000E+00  0.00000000000E+00  0.74505805969E-08  0.10566000000E+00  0.10566000000E+00 0.  1.
     999900   -1    0    0    0    0 -0.00000000000E+00 -0.00000000000E+00 -0.74505805969E-08  0.93827000000E+00  0.93827000000E+00 0.  1.
     999902    2    1    2    0    0  0.18153062032E-01  0.21342736381E-01  0.57314471260E-02  0.10153311269E+01  0.10149282742E+01 0.  0.
     999903    2    3    3    0    0 -0.10858065244E+00 -0.47749201894E-01 -0.25868682048E-01  0.12301184631E+00  0.19823754873E-01 0.  0.
         14    1    1    2    0    0 -0.18153062032E-01 -0.21342736381E-01 -0.57314471260E-02  0.28598873116E-01  0.00000000000E+00 0. -1.
     999901    1    3    3    0    0  0.12673371447E+00  0.69091938274E-01  0.31600129174E-01  0.89231928057E+00  0.88000000000E+00 0.  1.
        -11    1    4    4    0    0 -0.58091775241E-01 -0.14943985492E-01 -0.10918523250E-01  0.60970913754E-01  0.51100000000E-03 0.  1.
         11    1    4    4    0    0 -0.50488877194E-01 -0.32805216402E-01 -0.14950158799E-01  0.62040932558E-01  0.51100000000E-03 0. -1.
</event>
<event>
 7    1  0.1092993E+005  0.1043930E+01  0.7957747E-01            NaN
         13   -1    0    0    0    0  0.00000000000E+00  0.00000000000E+00  0.74505805969E-08  0.10566000000E+00  0.10566000000E+00 0. -1.
     999900   -1    0    0    0    0 -0.00000000000E+00 -0.00000000000E+00 -0.74505805969E-08  0.93827000000E+00  0.93827000000E+00 0.  1.
     999903    2    1    2    0    0 -0.70732523378E-01 -0.72367192769E-01 -0.41092063068E-01  0.11099858659E+00  0.19799700118E-01 0.  0.
         14    1    1    2    0    0 -0.26876460967E-01 -0.73494508090E-02 -0.30211050676E-01  0.41098250136E-01  0.00000000000E+00 0.  1.
     999901    1    1    2    0    0  0.97608984345E-01  0.79716643578E-01  0.71303113744E-01  0.89183316328E+00  0.88000000000E+00 0.  1.
        -11    1    3    3    0    0 -0.50059548872E-01 -0.57167370053E-01 -0.22312649826E-01  0.79197109135E-01  0.51100000000E-03 0. -1.
         11    1    3    3    0    0 -0.20672974506E-01 -0.15199822716E-01 -0.18779413242E-01  0.31801477454E-01  0.51100000000E-03 0.  1.
</event>
<event>
 8    1  0.1092993E+005  0.1043930E+01  0.7957747E-01            NaN
         13   -1    0    0    0    0  0.00000000000E+00  0.00000000000E+00  0.74505805969E-08  0.10566000000E+00  0.10566000000E+00 0. -1.
     999900   -1    0    0    0    0 -0.00000000000E+00 -0.00000000000E+00 -0.74505805969E-08  0.93827000000E+00  0.93827000000E+00 0. -1.
     999902    2    1    2    0    0 -0.14308185174E-01 -0.79679638306E-02  0.19627471144E-01  0.10183673273E+01  0.10180464445E+01 0.  0.
     999903    2    3    3    0    0  0.31612353142E-01 -0.73376332620E-01  0.10191374127E+00  0.13092269199E+00  0.19259116205E-01 0.  0.
         14    1    1    2    0    0  0.14308185174E-01  0.79679638306E-02 -0.19627471144E-01  0.25562672671E-01  0.00000000000E+00 0.  1.
     999901    1    3    3    0    0 -0.45920538315E-01  0.65408368789E-01 -0.82286270127E-01  0.88744463534E+00  0.88000000000E+00 0. -1.
        -11    1    4    4    0    0  0.27211500257E-01 -0.43722009648E-01  0.72415485436E-01  0.88861372518E-01  0.51100000000E-03 0.  1.
         11    1    4    4    0    0  0.44008528848E-02 -0.29654322972E-01  0.29498255836E-01  0.42061319468E-01  0.51100000000E-03 0. -1.
</event>
<event>
 8    1  0.1092993E+005  0.1043930E+01  0.7957747E-01            NaN
         13   -1    0    0    0    0  0.00000000000E+00  0.00000000000E+00  0.74505805969E-08  0.10566000000E+00  0.10566000000E+00 0.  1.
     999900   -1    0    0    0    0 -0.00000000000E+00 -0.00000000000E+00 -0.74505805969E-08  0.93827000000E+00  0.93827000000E+00 0. -1.
     999902    2    1    2    0    0 -0.24608837960E-01  0.12671005107E-01  0.54515389918E-02  0.10157188576E+01  0.10153270060E+01 0.  0.
     999903    2    3    3    0    0  0.50882413629E-02  0.12613202213E+00 -0.52498163433E-02  0.12787324160E+00  0.19718725619E-01 0.  0.
         14    1    1    2    0    0  0.24608837960E-01 -0.12671005107E-01 -0.54515389918E-02  0.28211142365E-01  0.00000000000E+00 0.  1.
     999901    1    3    3    0    0 -0.29697079322E-01 -0.11346101702E+00  0.10701355335E-01  0.88784561603E+00  0.88000000000E+00 0.  1.
        -11    1    4    4    0    0 -0.28525493400E-02  0.10652898382E+00 -0.55772135749E-02  0.10671423459E+00  0.51100000000E-03 0. -1.
         11    1    4    4    0    0  0.79407907029E-02  0.19603038308E-01  0.32739723161E-03  0.21159007015E-01  0.51100000000E-03 0.  1.
</event>
<event>
 8    1  0.1092993E+005  0.1043930E+01  0.7957747E-01            NaN
         13   -1    0    0    0    0  0.00000000000E+00  0.00000000000E+00  0.74505805969E-08  0.10566000000E+00  0.10566000000E+00 0.  1.
     999900   -1    0    0    0    0 -0.00000000000E+00 -0.00000000000E+00 -0.74505805969E-08  0.93827000000E+00  0.93827000000E+00 0.  1.
     999902    2    1    2    0    0 -0.38873910894E-02  0.17625558412E-01 -0.89182849489E-02  0.10237977392E+01  0.10235997767E+01 0.  0.
     999903    2    3    3    0    0 -0.79357446622E-01 -0.98077698455E-01 -0.36265414761E-01  0.13260144295E+00  0.18738278875E-01 0.  0.
         14    1    1    2    0    0  0.38873910894E-02 -0.17625558412E-01  0.89182849489E-02  0.20132260808E-01  0.00000000000E+00 0.  1.
     999901    1    3    3    0    0  0.75470055533E-01  0.11570325687E+00  0.27347129813E-01  0.89119629624E+00  0.88000000000E+00 0.  1.
        -11    1    4    4    0    0 -0.38642695819E-01 -0.35786746551E-01 -0.20575184377E-01  0.56546869958E-01  0.51100000000E-03 0. -1.
         11    1    4    4    0    0 -0.40714750803E-01 -0.62290951903E-01 -0.15690230384E-01  0.76054572988E-01  0.51100000000E-03 0.  1.
</event>
<event>
 8    1  0.1092993E+005  0.1043930E+01  0.7957747E-01            NaN
         13   -1    0    0    0    0  0.00000000000E+00  0.00000000000E+00  0.74505805969E-08  0.10566000000E+00  0.10566000000E+00 0. -1.
     999900   -1    0    0    0    0 -0.00000000000E+00 -0.00000000000E+00 -0.74505805969E-08  0.93827000000E+00  0.93827000000E+00 0.  1.
     999902    2    1    2    0    0 -0.36578501849E-02 -0.13360301864E-01  0.19738262199E-01  0.10198161756E+01  0.10195310468E+01 0.  0.
     999903    2    3    3    0    0  0.96893096701E-01  0.76881462532E-01  0.32503936932E-01  0.12941344006E+00  0.19806591887E-01 0.  0.
         14    1    1    2    0    0  0.36578501849E-02  0.13360301864E-01 -0.19738262199E-01  0.24113824428E-01  0.00000000000E+00 0.  1.
     999901    1    3    3    0    0 -0.10055094689E+00 -0.90241764396E-01 -0.12765674733E-01  0.89040273551E+00  0.88000000000E+00 0.  1.
        -11    1    4    4    0    0  0.78164289601E-01  0.67990037300E-01  0.21025126892E-01  0.10571006775E+00  0.51100000000E-03 0.  1.
         11    1    4    4    0    0  0.18728807100E-01  0.88914252311E-02  0.11478810040E-01  0.23703372312E-01  0.51100000000E-03 0. -1.
</event>
<event>
 8    1  0.1092993E+005  0.1043930E+01  0.7957747E-01            NaN
         13   -1    0    0    0    0  0.00000000000E+00  0.00000000000E+00  0.74505805969E-08  0.10566000000E+00  0.10566000000E+00 0. -1.
     999900   -1    0    0    0    0 -0.00000000000E+00 -0.00000000000E+00 -0.74505805969E-08  0.93827000000E+00  0.93827000000E+00 0. -1.
     999902    2    1    2    0    0  0.18027080675E-02  0.23907203534E-01 -0.25389470982E-02  0.10198208650E+01  0.10195358485E+01 0.  0.
     999903    2    3    3    0    0  0.23836257019E-01 -0.43057376552E-01 -0.11820371298E+00  0.12945685500E+00  0.19101170675E-01 0.  0.
         14    1    1    2    0    0 -0.18027080675E-02 -0.23907203534E-01  0.25389470982E-02  0.24109134982E-01  0.00000000000E+00 0.  1.
     999901    1    3    3    0    0 -0.22033548952E-01  0.66964580086E-01  0.11566476588E+00  0.89036401002E+00  0.88000000000E+00 0.  1.
        -11    1    4    4    0    0  0.22609634924E-02 -0.21039418708E-01 -0.37450002152E-01  0.43017820466E-01  0.51100000000E-03 0.  1.
         11    1    4    4    0    0  0.21575293527E-01 -0.22017957844E-01 -0.80753710826E-01  0.86439034536E-01  0.51100000000E-03 0. -1.
</event>
<event>
 8    1  0.1092993E+005  0.1043930E+01  0.7957747E-01            NaN
         13   -1    0    0    0    0  0.00000000000E+00  0.00000000000E+00  0.74505805969E-08  0.10566000000E+00  0.10566000000E+00 0. -1.
     999900   -1    0    0    0    0 -0.00000000000E+00 -0.00000000000E+00 -0.74505805969E-08  0.93827000000E+00  0.93827000000E+00 0. -1.
     999902    2    1    2    0    0  0.49176776122E-02 -0.21131145208E-01  0.16585433234E-01  0.10166209274E+01  0.10162540650E+01 0.  0.
     999903    2    3    3    0    0  0.88866757655E-01  0.27708108287E-01  0.86370225888E-01  0.12853160869E+00  0.19887650203E-01 0.  0.
         14    1    1    2    0    0 -0.49176776122E-02  0.21131145208E-01 -0.16585433234E-01  0.27309072603E-01  0.00000000000E+00 0.  1.
     999901    1    3    3    0    0 -0.83949080043E-01 -0.48839253495E-01 -0.69784792654E-01  0.88808931871E+00  0.88000000000E+00 0. -1.
        -11    1    4    4    0    0  0.43617757239E-01  0.23490163421E-01  0.49151626217E-01  0.69788537776E-01  0.51100000000E-03 0. -1.
         11    1    4    4    0    0  0.45249000416E-01  0.42179448662E-02  0.37218599671E-01  0.58743070910E-01  0.51100000000E-03 0.  1.
</event>
<event>
 8    1  0.1092993E+005  0.1043930E+01  0.7957747E-01            NaN
         13   -1    0    0    0    0  0.00000000000E+00  0.00000000000E+00  0.74505805969E-08  0.10566000000E+00  0.10566000000E+00 0. -1.
     999900   -1    0    0    0    0 -0.00000000000E+00 -0.00000000000E+00 -0.74505805969E-08  0.93827000000E+00  0.93827000000E+00 0.  1.
     999902    2    1    2    0    0 -0.13458197388E-02  0.17310275912E-02 -0.23716588054E-01  0.10201122705E+01  0.10198341827E+01 0.  0.
     999903    2    3    3    0    0  0.10825685075E+00 -0.75417186728E-02 -0.72427852324E-01  0.13192787727E+00  0.19563940148E-01 0.  0.
         14    1    1    2    0    0  0.13458197388E-02 -0.17310275912E-02  0.23716588054E-01  0.23817729451E-01  0.00000000000E+00 0. -1.
     999901    1    3    3    0    0 -0.10960267049E+00  0.92727462640E-02  0.48711264270E-01  0.88818439328E+00  0.88000000000E+00 0. -1.
        -11    1    4    4    0    0  0.91926153716E-01 -0.43140180798E-02 -0.52476908780E-01  0.10593920693E+00  0.51100000000E-03 0. -1.
         11    1    4    4    0    0  0.16330697030E-01 -0.32277005931E-02 -0.19950943543E-01  0.25988670337E-01  0.51100000000E-03 0.  1.
</event>
<event>
 8    1  0.1092993E+005  0.1043930E+01  0.7957747E-01            NaN
         13   -1    0    0    0    0  0.00000000000E+00  0.00000000000E+00  0.74505805969E-08  0.10566000000E+00  0.10566000000E+00 0.  1.
     999900   -1    0    0    0    0 -0.00000000000E+00 -0.00000000000E+00 -0.74505805969E-08  0.93827000000E+00  0.93827000000E+00 0.  1.
     999902    2    1    2    0    0  0.73116852473E-02  0.11394275356E-01 -0.39521379484E-02  0.10298264669E+01  0.10297298880E+01 0.  0.
     999903    2    3    3    0    0 -0.18809152538E-01 -0.24026445311E-01 -0.13429148380E+00  0.13913837855E+00  0.19855263024E-01 0.  0.
         14    1    1    2    0    0 -0.73116852473E-02 -0.11394275356E-01  0.39521379484E-02  0.14103533118E-01  0.00000000000E+00 0.  1.
     999901    1    3    3    0    0  0.26120837785E-01  0.35420720667E-01  0.13033934586E+00  0.89068808833E+00  0.88000000000E+00 0. -1.
        -11    1    4    4    0    0 -0.87407648655E-02  0.14676417437E-02 -0.28374536749E-01  0.29730967011E-01  0.51100000000E-03 0. -1.
         11    1    4    4    0    0 -0.10068387672E-01 -0.25494087054E-01 -0.10591694706E+00  0.10940741154E+00  0.51100000000E-03 0.  1.
</event>
<event>
 8    1  0.1092993E+005  0.1043930E+01  0.7957747E-01            NaN
         13   -1    0    0    0    0  0.00000000000E+00  0.00000000000E+00  0.74505805969E-08  0.10566000000E+00  0.10566000000E+00 0. -1.
     999900   -1    0    0    0    0 -0.00000000000E+00 -0.00000000000E+00 -0.74505805969E-08  0.93827000000E+00  0.93827000000E+00 0. -1.
     999902    2    1    2    0    0  0.96472686136E-02 -0.79087162555E-02 -0.16831058578E-01  0.10229800091E+01  0.10227654653E+01 0.  0.
     999903    2    3    3    0    0  0.42880281506E-01  0.52168542328E-01 -0.11509665837E+00  0.13485285706E+00  0.19436484713E-01 0.  0.
         14    1    1    2    0    0 -0.96472686136E-02  0.79087162555E-02  0.16831058578E-01  0.20949990868E-01  0.00000000000E+00 0. -1.
     999901    1    3    3    0    0 -0.33233012893E-01 -0.60077258583E-01  0.98265599794E-01  0.88812715207E+00  0.88000000000E+00 0.  1.
        -11    1    4    4    0    0  0.31873538688E-01  0.24389110204E-01 -0.71525010707E-01  0.82017311848E-01  0.51100000000E-03 0. -1.
         11    1    4    4    0    0  0.11006742818E-01  0.27779432124E-01 -0.43571647665E-01  0.52835545212E-01  0.51100000000E-03 0.  1.
</event>
<event>
 8    1  0.1092993E+005  0.1043930E+01  0.7957747E-01            NaN
         13   -1    0    0    0    0  0.00000000000E+00  0.00000000000E+00  0.74505805969E-08  0.10566000000E+00  0.10566000000E+00 0. -1.
     999900   -1    0    0    0    0 -0.00000000000E+00 -0.00000000000E+00 -0.74505805969E-08  0.93827000000E+00  0.93827000000E+00 0.  1.
     999902    2    1    2    0    0 -0.15120050068E-01  0.17492648685E-01 -0.77887490864E-02  0.10195317770E+01  0.10192398006E+01 0.  0.
     999903    2    3    3    0    0  0.48051756414E-01 -0.11310068837E+00 -0.27357940181E-01  0.12743971336E+00  0.19791074891E-01 0.  0.
         14    1    1    2    0    0  0.15120050068E-01 -0.17492648685E-01  0.77887490864E-02  0.24398222977E-01  0.00000000000E+00 0.  1.
     999901    1    3    3    0    0 -0.63171806483E-01  0.13059333705E+00  0.19569191095E-01  0.89209206367E+00  0.88000000000E+00 0.  1.
        -11    1    4    4    0    0  0.33800447122E-01 -0.98127737722E-01 -0.23196029815E-01  0.10634773179E+00  0.51100000000E-03 0. -1.
         11    1    4    4    0    0  0.14251309292E-01 -0.14972950647E-01 -0.41619103662E-02  0.21091981569E-01  0.51100000000E-03 0.  1.
</event>
<event>
 7    1  0.1092993E+005  0.1043930E+01  0.7957747E-01            NaN
         13   -1    0    0    0    0  0.00000000000E+00  0.00000000000E+00  0.74505805969E-08  0.10566000000E+00  0.10566000000E+00 0.  1.
     999900   -1    0    0    0    0 -0.00000000000E+00 -0.00000000000E+00 -0.74505805969E-08  0.93827000000E+00  0.93827000000E+00 0.  1.
     999902    2    1    2    0    0 -0.18551218611E-02  0.23402682227E-01  0.21702870756E-02  0.10203538010E+01  0.10200813899E+01 0.  0.
         14    1    1    2    0    0  0.18551218611E-02 -0.23402682227E-01 -0.21702870756E-02  0.23576198984E-01  0.00000000000E+00 0. -1.
     999901    1    3    3    0    0  0.52421447845E-01 -0.79883521793E-01  0.65441478060E-01  0.88758772654E+00  0.88000000000E+00 0.  1.
        -11    1    3    3    0    0 -0.27470748629E-01  0.49283503296E-01 -0.30080121916E-01  0.63942009531E-01  0.51100000000E-03 0.  1.
         11    1    3    3    0    0 -0.26805821078E-01  0.54002700724E-01 -0.33191069069E-01  0.68824064948E-01  0.51100000000E-03 0. -1.
</event>
<event>
 8    1  0.1092993E+005  0.1043930E+01  0.7957747E-01            NaN
         13   -1    0    0    0    0  0.00000000000E+00  0.00000000000E+00  0.74505805969E-08  0.10566000000E+00  0.10566000000E+00 0. -1.
     999900   -1    0    0    0    0 -0.00000000000E+00 -0.00000000000E+00 -0.74505805969E-08  0.93827000000E+00  0.93827000000E+00 0.  1.
     999902    2    1    2    0    0  0.69410661139E-02  0.22190889422E-01 -0.90626089835E-02  0.10189751437E+01  0.10186695237E+01 0.  0.
     999903    2    3    3    0    0 -0.64780964234E-01  0.64053345610E-01 -0.92333020851E-01  0.13115169481E+00  0.19390098035E-01 0.  0.
         14    1    1    2    0    0 -0.69410661139E-02 -0.22190889422E-01  0.90626089835E-02  0.24954856316E-01  0.00000000000E+00 0. -1.
     999901    1    3    3    0    0  0.71722030348E-01 -0.41862456187E-01  0.83270411867E-01  0.88782344887E+00  0.88000000000E+00 0. -1.
        -11    1    4    4    0    0 -0.64059990379E-01  0.62473352018E-01 -0.84366216171E-01  0.12298179390E+00  0.51100000000E-03 0.  1.
         11    1    4    4    0    0 -0.72097385492E-03  0.15799935913E-02 -0.79668046799E-02  0.81699009086E-02  0.51100000000E-03 0. -1.
</event>
<event>
 8    1  0.1092993E+005  0.1043930E+01  0.7957747E-01            NaN
         13   -1    0    0    0    0  0.00000000000E+00  0.00000000000E+00  0.74505805969E-08  0.10566000000E+00  0.10566000000E+00 0.  1.
     999900   -1    0    0    0    0 -0.00000000000E+00 -0.00000000000E+00 -0.74505805969E-08  0.93827000000E+00  0.93827000000E+00 0. -1.
     999902    2    1    2    0    0 -0.20428972401E-01 -0.12235723218E-01  0.42353414171E-02  0.10197433518E+01  0.10194564775E+01 0.  0.
     999903    2    3    3    0    0  0.75393796497E-01 -0.10400700317E-01 -0.10134970299E+00  0.12826504471E+00  0.19691629724E-01 0.  0.
         14    1    1    2    0    0  0.20428972401E-01  0.12235723218E-01 -0.42353414171E-02  0.24186648238E-01  0.00000000000E+00 0.  1.
     999901    1    3    3    0    0 -0.95822768898E-01 -0.18350229013E-02  0.10558504440E+00  0.89147830706E+00  0.88000000000E+00 0. -1.
        -11    1    4    4    0    0  0.33201611883E-01 -0.71103416055E-02 -0.60860392435E-01  0.69693274265E-01  0.51100000000E-03 0. -1.
         11    1    4    4    0    0  0.42192184613E-01 -0.32903587112E-02 -0.40489310550E-01  0.58571770442E-01  0.51100000000E-03 0.  1.
</event>
<event>
 8    1  0.1092993E+005  0.1043930E+01  0.7957747E-01            NaN
         13   -1    0    0    0    0  0.00000000000E+00  0.00000000000E+00  0.74505805969E-08  0.10566000000E+00  0.10566000000E+00 0.  1.
     999900   -1    0    0    0    0 -0.00000000000E+00 -0.00000000000E+00 -0.74505805969E-08  0.93827000000E+00  0.93827000000E+00 0. -1.
     999902    2    1    2    0    0  0.16148255938E-01  0.10236712712E-01  0.13075833638E-01  0.10207667990E+01  0.10205039559E+01 0.  0.
     999903    2    3    3    0    0 -0.10811496714E+00  0.57118256312E-03  0.69866224763E-01  0.13017153757E+00  0.19343408760E-01 0.  0.
         14    1    1    2    0    0 -0.16148255938E-01 -0.10236712712E-01 -0.13075833638E-01  0.23163201038E-01  0.00000000000E+00 0. -1.
     999901    1    3    3    0    0  0.12426322308E+00  0.96655301490E-02 -0.56790391124E-01  0.89059526139E+00  0.88000000000E+00 0.  1.
        -11    1    4    4    0    0 -0.10671539246E+00  0.15231625285E-02  0.64926242127E-01  0.12492466950E+00  0.51100000000E-03 0. -1.
         11    1    4    4    0    0 -0.13995746802E-02 -0.95197996540E-03  0.49399826355E-02  0.52468680733E-02  0.51100000000E-03 0.  1.
</event>
<event>
 8    1  0.1092993E+005  0.1043930E+01  0.7957747E-01            NaN
         13   -1    0    0    0    0  0.00000000000E+00  0.00000000000E+00  0.74505805969E-08  0.10566000000E+00  0.10566000000E+00 0. -1.
     999900   -1    0    0    0    0 -0.00000000000E+00 -0.00000000000E+00 -0.74505805969E-08  0.93827000000E+00  0.93827000000E+00 0.  1.
     999902    2    1    2    0    0  0.17456105772E-01 -0.13603235564E-01  0.10951298305E-01  0.10192380057E+01  0.10189388685E+01 0.  0.
     999903    2    3    3    0    0 -0.21560342153E-01  0.11546687495E+00  0.46086114626E-01  0.12827457665E+00  0.23086565112E-01 0.  0.
         14    1    1    2    0    0 -0.17456105772E-01  0.13603235564E-01 -0.10951298305E-01  0.24691994272E-01  0.00000000000E+00 0. -1.
     999901    1    3    3    0    0  0.39016447925E-01 -0.12907011052E+00 -0.35134816321E-01  0.89096342908E+00  0.88000000000E+00 0.  1.
        -11    1    4    4    0    0 -0.22508189519E-01  0.70106305885E-01  0.21702633161E-01  0.76764432697E-01  0.51100000000E-03 0. -1.
         11    1    4    4    0    0  0.94784736632E-03  0.45360569066E-01  0.24383481465E-01  0.51510143953E-01  0.51100000000E-03 0.  1.
</event>
<event>
 8    1  0.1092993E+005  0.1043930E+01  0.7957747E-01            NaN
         13   -1    0    0    0    0  0.00000000000E+00  0.00000000000E+00  0.74505805969E-08  0.10566000000E+00  0.10566000000E+00 0. -1.
     999900   -1    0    0    0    0 -0.00000000000E+00 -0.00000000000E+00 -0.74505805969E-08  0.93827000000E+00  0.93827000000E+00 0.  1.
     999902    2    1    2    0    0  0.14881070271E-01  0.86613248314E-02  0.15101225851E-01  0.10210277769E+01  0.10207708898E+01 0.  0.
     999903    2    3    3    0    0 -0.18383494056E-01  0.79875944108E-01 -0.99493089418E-01  0.13012379200E+00  0.17754072818E-01 0.  0.
         14    1    1    2    0    0 -0.14881070271E-01 -0.86613248314E-02 -0.15101225851E-01  0.22902223089E-01  0.00000000000E+00 0.  1.
     999901    1    3    3    0    0  0.33264564326E-01 -0.71214619276E-01  0.11459431527E+00  0.89090398491E+00  0.88000000000E+00 0. -1.
        -11    1    4    4    0    0 -0.12809333507E-01  0.73252490938E-01 -0.82663713055E-01  0.11119153309E+00  0.51100000000E-03 0. -1.
         11    1    4    4    0    0 -0.55741605490E-02  0.66234531697E-02 -0.16829376363E-01  0.18932258911E-01  0.51100000000E-03 0.  1.
</event>
<event>
 8    1  0.1092993E+005  0.1043930E+01  0.7957747E-01            NaN
         13   -1    0    0    0    0  0.00000000000E+00  0.00000000000E+00  0.74505805969E-08  0.10566000000E+00  0.10566000000E+00 0.  1.
     999900   -1    0    0    0    0 -0.00000000000E+00 -0.00000000000E+00 -0.74505805969E-08  0.93827000000E+00  0.93827000000E+00 0.  1.
     999902    2    1    2    0    0  0.13611363511E-01  0.57557246986E-02  0.18652561253E-01  0.10201326131E+01  0.10198550057E+01 0.  0.
     999903    2    3    3    0    0  0.73818206444E-01 -0.63187249427E-01  0.85795341144E-01  0.13284114432E+00  0.29054654882E-01 0.  0.
         14    1    1    2    0    0 -0.13611363511E-01 -0.57557246986E-02 -0.18652561253E-01  0.23797386931E-01  0.00000000000E+00 0. -1.
     999901    1    3    3    0    0 -0.60206842934E-01  0.68942974126E-01 -0.67142779891E-01  0.88729146875E+00  0.88000000000E+00 0. -1.
        -11    1    4    4    0    0  0.68034667161E-01 -0.53159691851E-01  0.61753893351E-01  0.10615306514E+00  0.51100000000E-03 0.  1.
         11    1    4    4    0    0  0.57835392835E-02 -0.10027557577E-01  0.24041447793E-01  0.26688079185E-01  0.51100000000E-03 0. -1.
</event>
<event>
 8    1  0.1092993E+005  0.1043930E+01  0.7957747E-01            NaN
         13   -1    0    0    0    0  0.00000000000E+00  0.00000000000E+00  0.74505805969E-08  0.10566000000E+00  0.10566000000E+00 0.  1.
     999900   -1    0    0    0    0 -0.00000000000E+00 -0.00000000000E+00 -0.74505805969E-08  0.93827000000E+00  0.93827000000E+00 0.  1.
     999902    2    1    2    0    0  0.10830329414E-01 -0.14434269654E-02  0.22322597468E-01  0.10190768740E+01  0.10187737713E+01 0.  0.
     999903    2    3    3    0    0  0.23577045642E-01 -0.10529505962E+00  0.72372319571E-01  0.13146625264E+00  0.20067293823E-01 0.  0.
         14    1    1    2    0    0 -0.10830329414E-01  0.14434269654E-02 -0.22322597468E-01  0.24853126047E-01  0.00000000000E+00 0. -1.
     999901    1    3    3    0    0 -0.12746716228E-01  0.10385163266E+00 -0.50049722104E-01  0.88761062131E+00  0.88000000000E+00 0.  1.
        -11    1    4    4    0    0  0.18388055506E-01 -0.82942214518E-01  0.46391044474E-01  0.96798355683E-01  0.51100000000E-03 0.  1.
         11    1    4    4    0    0  0.51889901356E-02 -0.22352845105E-01  0.25981275097E-01  0.34667896960E-01  0.51100000000E-03 0. -1.
</event>
<event>
 7    1  0.1092993E+005  0.1043930E+01  0.7957747E-01            NaN
         13   -1    0    0    0    0  0.00000000000E+00  0.00000000000E+00  0.74505805969E-08  0.10566000000E+00  0.10566000000E+00 0.  1.
     999900   -1    0    0    0    0 -0.00000000000E+00 -0.00000000000E+00 -0.74505805969E-08  0.93827000000E+00  0.93827000000E+00 0. -1.
     999903    2    1    2    0    0  0.61738207871E-01 -0.48046683203E-01  0.39256296230E-01  0.89857805087E-01  0.20329246504E-01 0.  0.
         14    1    1    2    0    0  0.12110297057E-01  0.12791499494E-01  0.62037442689E-01  0.64489736001E-01  0.00000000000E+00 0.  1.
     999901    1    1    2    0    0 -0.73848504929E-01  0.35255183709E-01 -0.10129373892E+00  0.88958245891E+00  0.88000000000E+00 0. -1.
        -11    1    3    3    0    0  0.28077560047E-01 -0.12056967361E-01  0.21949991470E-01  0.37626893131E-01  0.51100000000E-03 0. -1.
         11    1    3    3    0    0  0.33660647825E-01 -0.35989715843E-01  0.17306304760E-01  0.52230911957E-01  0.51100000000E-03 0.  1.
</event>
<event>
 8    1  0.1092993E+005  0.1043930E+01  0.7957747E-01            NaN
         13   -1    0    0    0    0  0.00000000000E+00  0.00000000000E+00  0.74505805969E-08  0.10566000000E+00  0.10566000000E+00 0.  1.
     999900   -1    0    0    0    0 -0.00000000000E+00 -0.00000000000E+00 -0.74505805969E-08  0.93827000000E+00  0.93827000000E+00 0.  1.
     999902    2    1    2    0    0  0.18928458360E-01 -0.35933314594E-02 -0.13989959119E-01  0.10201199701E+01  0.10198420642E+01 0.  0.
     999903    2    3    3    0    0  0.34507707941E-03 -0.10580958181E+00  0.72533429325E-01  0.12979429900E+00  0.19740187489E-01 0.  0.
         14    1    1    2    0    0 -0.18928458360E-01  0.35933314594E-02  0.13989959119E-01  0.23810029883E-01  0.00000000000E+00 0.  1.
     999901    1    3    3    0    0  0.18583381281E-01  0.10221625036E+00 -0.86523388444E-01  0.89032567111E+00  0.88000000000E+00 0.  1.
        -11    1    4    4    0    0 -0.37339329095E-02 -0.73661853608E-01  0.59871017412E-01  0.94999004094E-01  0.51100000000E-03 0. -1.
         11    1    4    4    0    0  0.40790099889E-02 -0.32147728207E-01  0.12662411913E-01  0.34795294910E-01  0.51100000000E-03 0.  1.
</event>
<event>
 8    1  0.1092993E+005  0.1043930E+01  0.7957747E-01            NaN
         13   -1    0    0    0    0  0.00000000000E+00  0.00000000000E+00  0.74505805969E-08  0.10566000000E+00  0.10566000000E+00 0. -1.
     999900   -1    0    0    0    0 -0.00000000000E+00 -0.00000000000E+00 -0.74505805969E-08  0.93827000000E+00  0.93827000000E+00 0.  1.
     999902    2    1    2    0    0  0.45244827771E-02 -0.19920557045E-02 -0.23404543453E-01  0.10200090493E+01  0.10197285171E+01 0.  0.
     999903    2    3    3    0    0 -0.32675378153E-01  0.11478872259E+00  0.44796216369E-01  0.12890135460E+00  0.19097828320E-01 0.  0.
         14    1    1    2    0    0 -0.45244827771E-02  0.19920557045E-02  0.23404543453E-01  0.23920950746E-01  0.00000000000E+00 0. -1.
     999901    1    3    3    0    0  0.37199860930E-01 -0.11678077829E+00 -0.68200759822E-01  0.89110769465E+00  0.88000000000E+00 0.  1.
        -11    1    4    4    0    0 -0.20315124474E-01  0.38099745872E-01  0.16633795069E-01  0.46273525663E-01  0.51100000000E-03 0.  1.
         11    1    4    4    0    0 -0.12360253679E-01  0.76688976714E-01  0.28162421300E-01  0.82627828938E-01  0.51100000000E-03 0. -1.
</event>
<event>
 8    1  0.1092993E+005  0.1043930E+01  0.7957747E-01            NaN
         13   -1    0    0    0    0  0.00000000000E+00  0.00000000000E+00  0.74505805969E-08  0.10566000000E+00  0.10566000000E+00 0. -1.
     999900   -1    0    0    0    0 -0.00000000000E+00 -0.00000000000E+00 -0.74505805969E-08  0.93827000000E+00  0.93827000000E+00 0. -1.
     999902    2    1    2    0    0 -0.28969033603E-01  0.58304319497E-02  0.39424301350E-03  0.10143774321E+01  0.10139468528E+01 0.  0.
     999903    2    3    3    0    0 -0.94951359579E-01  0.86841432138E-02 -0.83196303561E-01  0.12795248290E+00  0.18948296087E-01 0.  0.
         14    1    1    2    0    0  0.28969033603E-01 -0.58304319497E-02 -0.39424301350E-03  0.29552567945E-01  0.00000000000E+00 0.  1.
     999901    1    3    3    0    0  0.65982325976E-01 -0.28537112641E-02  0.83590546574E-01  0.88642494916E+00  0.88000000000E+00 0.  1.
        -11    1    4    4    0    0 -0.87685461812E-01  0.11906274114E-01 -0.80249218155E-01  0.11946002558E+00  0.51100000000E-03 0. -1.
         11    1    4    4    0    0 -0.72658977666E-02 -0.32221309006E-02 -0.29470854060E-02  0.84924573173E-02  0.51100000000E-03 0.  1.
</event>
<event>
 8    1  0.1092993E+005  0.1043930E+01  0.7957747E-01            NaN
         13   -1    0    0    0    0  0.00000000000E+00  0.00000000000E+00  0.74505805969E-08  0.10566000000E+00  0.10566000000E+00 0.  1.
     999900   -1    0    0    0    0 -0.00000000000E+00 -0.00000000000E+00 -0.74505805969E-08  0.93827000000E+00  0.93827000000E+00 0.  1.
     999902    2    1    2    0    0  0.13688267936E-01 -0.11005201298E-01 -0.25834772910E-01  0.10126903037E+01  0.10122083444E+01 0.  0.
     999903    2    3    3    0    0 -0.10845154542E+00 -0.48127882413E-01 -0.28221870294E-01  0.12347608557E+00  0.19283126705E-01 0.  0.
         14    1    1    2    0    0 -0.13688267936E-01  0.11005201298E-01  0.25834772910E-01  0.31239696318E-01  0.00000000000E+00 0.  1.
     999901    1    3    3    0    0  0.12213981336E+00  0.37122681115E-01  0.23870973845E-02  0.88921421811E+00  0.88000000000E+00 0. -1.
        -11    1    4    4    0    0 -0.66244039700E-01 -0.38786009370E-01 -0.14533632826E-01  0.78128835411E-01  0.51100000000E-03 0. -1.
         11    1    4    4    0    0 -0.42207505719E-01 -0.93418730427E-02 -0.13688237468E-01  0.45347250159E-01  0.51100000000E-03 0.  1.
</event>
<event>
 8    1  0.1092993E+005  0.1043930E+01  0.7957747E-01            NaN
         13   -1    0    0    0    0  0.00000000000E+00  0.00000000000E+00  0.74505805969E-08  0.10566000000E+00  0.10566000000E+00 0. -1.
     999900   -1    0    0    0    0 -0.00000000000E+00 -0.00000000000E+00 -0.74505805969E-08  0.93827000000E+00  0.93827000000E+00 0.  1.
     999902    2    1    2    0    0 -0.12946039351E-01  0.12576912054E-01 -0.15376582729E-01  0.10202188645E+01  0.10199432893E+01 0.  0.
     999903    2    3    3    0    0 -0.99574955155E-01 -0.64629794533E-01  0.49667055207E-01  0.13022104457E+00  0.19963016808E-01 0.  0.
         14    1    1    2    0    0  0.12946039351E-01 -0.12576912054E-01  0.15376582729E-01  0.23711135529E-01  0.00000000000E+00 0. -1.
     999901    1    3    3    0    0  0.86628915804E-01  0.77206706587E-01 -0.65043637935E-01  0.88999781990E+00  0.88000000000E+00 0. -1.
        -11    1    4    4    0    0 -0.29082233603E-01 -0.29261750586E-01  0.13113288710E-01  0.43292560799E-01  0.51100000000E-03 0.  1.
         11    1    4    4    0    0 -0.70492721552E-01 -0.35368043947E-01  0.36553766497E-01  0.86928483769E-01  0.51100000000E-03 0. -1.
</event>
<event>
 8    1  0.1092993E+005  0.1043930E+01  0.7957747E-01            NaN
         13   -1    0    0    0    0  0.00000000000E+00  0.00000000000E+00  0.74505805969E-08  0.10566000000E+00  0.10566000000E+00 0. -1.
     999900   -1    0    0    0    0 -0.00000000000E+00 -0.00000000000E+00 -0.74505805969E-08  0.93827000000E+00  0.93827000000E+00 0.  1.
     999902    2    1    2    0    0  0.22830307836E-01  0.52751421712E-03 -0.57864780224E-02  0.10203718898E+01  0.10200999015E+01 0.  0.
     999903    2    3    3    0    0 -0.32240289774E-01 -0.87060072660E-01 -0.89769525259E-01  0.13033958237E+00  0.17633676023E-01 0.  0.
         14    1    1    2    0    0 -0.22830307836E-01 -0.52751421712E-03  0.57864780224E-02  0.23558110175E-01  0.00000000000E+00 0. -1.
     999901    1    3    3    0    0  0.55070597610E-01  0.87587586877E-01  0.83983047236E-01  0.89003230746E+00  0.88000000000E+00 0. -1.
        -11    1    4    4    0    0 -0.17868725241E-01 -0.27037101708E-01 -0.36448890307E-01  0.48775802772E-01  0.51100000000E-03 0. -1.
         11    1    4    4    0    0 -0.14371564533E-01 -0.60022970952E-01 -0.53320634952E-01  0.81563779594E-01  0.51100000000E-03 0.  1.
</event>
<event>
 8    1  0.1092993E+005  0.1043930E+01  0.7957747E-01            NaN
         13   -1    0    0    0    0  0.00000000000E+00  0.00000000000E+00  0.74505805969E-08  0.10566000000E+00  0.10566000000E+00 0.  1.
     999900   -1    0    0    0    0 -0.00000000000E+00 -0.00000000000E+00 -0.74505805969E-08  0.93827000000E+00  0.93827000000E+00 0.  1.
     999902    2    1    2    0    0 -0.18955771830E-01 -0.11061248282E-01 -0.95644750256E-02  0.10199894135E+01  0.10197084152E+01 0.  0.
     999903    2    3    3    0    0  0.63542377845E-01 -0.90996291187E-01 -0.66207224932E-01  0.13071782569E+00  0.19641652857E-01 0.  0.
         14    1    1    2    0    0  0.18955771830E-01  0.11061248282E-01  0.95644750256E-02  0.23940586496E-01  0.00000000000E+00 0.  1.
     999901    1    3    3    0    0 -0.82498149676E-01  0.79935042904E-01  0.56642749906E-01  0.88927158782E+00  0.88000000000E+00 0. -1.
        -11    1    4    4    0    0  0.42306205313E-01 -0.59228193919E-01 -0.32316849703E-01  0.79639398909E-01  0.51100000000E-03 0. -1.
         11    1    4    4    0    0  0.21236172532E-01 -0.31768097267E-01 -0.33890375229E-01  0.51078426776E-01  0.51100000000E-03 0.  1.
</event>
<event>
 8    1  0.1092993E+005  0.1043930E+01  0.7957747E-01            NaN
         13   -1    0    0    0    0  0.00000000000E+00  0.00000000000E+00  0.74505805969E-08  0.10566000000E+00  0.10566000000E+00 0.  1.
     999900   -1    0    0    0    0 -0.00000000000E+00 -0.00000000000E+00 -0.74505805969E-08  0.93827000000E+00  0.93827000000E+00 0. -1.
     999902    2    1    2    0    0 -0.22372082426E-01 -0.97678587563E-03 -0.81607605236E-02  0.10200959446E+01  0.10198174710E+01 0.  0.
     999903    2    3    3    0    0  0.15277530473E-01  0.39585359013E-01  0.12032734461E+00  0.12904489441E+00  0.19326441118E-01 0.  0.
         14    1    1    2    0    0  0.22372082426E-01  0.97678587563E-03  0.81607605236E-02  0.23834055363E-01  0.00000000000E+00 0.  1.
     999901    1    3    3    0    0 -0.37649612899E-01 -0.40562144889E-01 -0.12848810514E+00  0.89105105023E+00  0.88000000000E+00 0. -1.
        -11    1    4    4    0    0  0.17401608967E-01  0.39544211090E-01  0.10468876609E+00  0.11325440165E+00  0.51100000000E-03 0. -1.
         11    1    4    4    0    0 -0.21240784933E-02  0.41147923093E-04  0.15638578518E-01  0.15790492761E-01  0.51100000000E-03 0.  1.
</event>
<event>
 8    1  0.1092993E+005  0.1043930E+01  0.7957747E-01            NaN
         13   -1    0    0    0    0  0.00000000000E+00  0.00000000000E+00  0.74505805969E-08  0.10566000000E+00  0.10566000000E+00 0.  1.
     999900   -1    0    0    0    0 -0.00000000000E+00 -0.00000000000E+00 -0.74505805969E-08  0.93827000000E+00  0.93827000000E+00 0.  1.
     999902    2    1    2    0    0  0.21957594656E-01  0.60150779539E-02  0.46724510208E-02  0.10206888958E+01  0.10204242613E+01 0.  0.
     999903    2    3    3    0    0  0.29063493572E-01  0.11642211354E+00  0.52395574839E-01  0.13247850189E+00  0.20160903255E-01 0.  0.
         14    1    1    2    0    0 -0.21957594656E-01 -0.60150779539E-02 -0.46724510208E-02  0.23241104200E-01  0.00000000000E+00 0.  1.
     999901    1    3    3    0    0 -0.71058989164E-02 -0.11040703559E+00 -0.47723123818E-01  0.88821039391E+00  0.88000000000E+00 0.  1.
        -11    1    4    4    0    0  0.29602432410E-01  0.82925015789E-01  0.40556203328E-01  0.96942916180E-01  0.51100000000E-03 0.  1.
         11    1    4    4    0    0 -0.53893883756E-03  0.33497097752E-01  0.11839371511E-01  0.35535585708E-01  0.51100000000E-03 0. -1.
</event>
<event>
 8    1  0.1092993E+005  0.1043930E+01  0.7957747E-01            NaN
         13   -1    0    0    0    0  0.00000000000E+00  0.00000000000E+00  0.74505805969E-08  0.10566000000E+00  0.10566000000E+00 0.  1.
     999900   -1    0    0    0    0 -0.00000000000E+00 -0.00000000000E+00 -0.74505805969E-08  0.93827000000E+00  0.93827000000E+00 0. -1.
     999902    2    1    2    0    0  0.12587464772E-01 -0.18430434412E-01  0.11090865595E-01  0.10190074704E+01  0.10187026515E+01 0.  0.
     999903    2    3    3    0    0 -0.87155346667E-02 -0.12801811468E+00 -0.20230349899E-01  0.13140153532E+00  0.19811567227E-01 0.  0.
         14    1    1    2    0    0 -0.12587464772E-01  0.18430434412E-01 -0.11090865595E-01  0.24922529599E-01  0.00000000000E+00 0. -1.
     999901    1    3    3    0    0  0.21302999439E-01  0.10958768027E+00  0.31321215493E-01  0.88760593508E+00  0.88000000000E+00 0.  1.
        -11    1    4    4    0    0 -0.32337761806E-02 -0.96891435871E-01 -0.23102799636E-01  0.99661467607E-01  0.51100000000E-03 0. -1.
         11    1    4    4    0    0 -0.54817584861E-02 -0.31126678811E-01  0.28724497372E-02  0.31740067713E-01  0.51100000000E-03 0.  1.
</event>
<event>
 8    1  0.1092993E+005  0.1043930E+01  0.7957747E-01            NaN
         13   -1    0    0    0    0  0.00000000000E+00  0.00000000000E+00  0.74505805969E-08  0.10566000000E+00  0.10566000000E+00 0. -1.
     999900   -1    0    0    0    0 -0.00000000000E+00 -0.00000000000E+00 -0.74505805969E-08  0.93827000000E+00  0.93827000000E+00 0. -1.
     999902    2    1    2    0    0 -0.34570113199E-02 -0.16502900596E-01  0.16179817072E-01  0.10205615782E+01  0.10202940026E+01 0.  0.
     999903    2    3    3    0    0  0.10886754577E+00 -0.30586878246E-01  0.65091447634E-01  0.13196295560E+00  0.19738932377E-01 0.  0.
         14    1    1    2    0    0  0.34570113199E-02  0.16502900596E-01 -0.16179817072E-01  0.23368421766E-01  0.00000000000E+00 0.  1.
     999901    1    3    3    0    0 -0.11232455709E+00  0.14083977650E-01 -0.48911630562E-01  0.88859862264E+00  0.88000000000E+00 0.  1.
        -11    1    4    4    0    0  0.34918777980E-01 -0.46252296341E-02  0.11659124173E-01  0.37106739310E-01  0.51100000000E-03 0.  1.
         11    1    4    4    0    0  0.73948767791E-01 -0.25961648612E-01  0.53432323461E-01  0.94856216285E-01  0.51100000000E-03 0. -1.
</event>
<event>
 8    1  0.1092993E+005  0.1043930E+01  0.7957747E-01            NaN
         13   -1    0    0    0    0  0.00000000000E+00  0.00000000000E+00  0.74505805969E-08  0.10566000000E+00  0.10566000000E+00 0.  1.
     999900   -1    0    0    0    0 -0.00000000000E+00 -0.00000000000E+00 -0.74505805969E-08  0.93827000000E+00  0.93827000000E+00 0. -1.
     999902    2    1    2    0    0  0.56902736880E-02  0.16702257471E-01  0.18170168924E-01  0.10186021565E+01  0.10182872156E+01 0.  0.
     999903    2    3    3    0    0 -0.10672504466E+00  0.70275706204E-01  0.10267522177E-01  0.12979972058E+00  0.20338028691E-01 0.  0.
         14    1    1    2    0    0 -0.56902736880E-02 -0.16702257471E-01 -0.18170168924E-01  0.25327843532E-01  0.00000000000E+00 0. -1.
     999901    1    3    3    0    0  0.11241531835E+00 -0.53573448733E-01  0.79026467469E-02  0.88880243588E+00  0.88000000000E+00 0.  1.
        -11    1    4    4    0    0 -0.82439651003E-01  0.57957378580E-01  0.15804650173E-01  0.10200687172E+00  0.51100000000E-03 0. -1.
         11    1    4    4    0    0 -0.24285393660E-01  0.12318327624E-01 -0.55371279957E-02  0.27792848866E-01  0.51100000000E-03 0.  1.
</event>
<event>
 8    1  0.1092993E+005  0.1043930E+01  0.7957747E-01            NaN
         13   -1    0    0    0    0  0.00000000000E+00  0.00000000000E+00  0.74505805969E-08  0.10566000000E+00  0.10566000000E+00 0. -1.
     999900   -1    0    0    0    0 -0.00000000000E+00 -0.00000000000E+00 -0.74505805969E-08  0.93827000000E+00  0.93827000000E+00 0. -1.
     999902    2    1    2    0    0 -0.98601499971E-02  0.20967850318E-01  0.46965847426E-02  0.10202882739E+01  0.10200143286E+01 0.  0.
     999903    2    3    3    0    0  0.81487926323E-01 -0.95113514220E-01 -0.15630445404E-01  0.12774553408E+00  0.19691316120E-01 0.  0.
         14    1    1    2    0    0  0.98601499971E-02 -0.20967850318E-01 -0.46965847426E-02  0.23641726104E-01  0.00000000000E+00 0.  1.
     999901    1    3    3    0    0 -0.91348076320E-01  0.11608136454E+00  0.20327030147E-01  0.89254273981E+00  0.88000000000E+00 0. -1.
        -11    1    4    4    0    0  0.25810077271E-01 -0.42683055851E-01 -0.10847317596E-02  0.49894299369E-01  0.51100000000E-03 0.  1.
         11    1    4    4    0    0  0.55677849052E-01 -0.52430458369E-01 -0.14545713645E-01  0.77851234712E-01  0.51100000000E-03 0. -1.
</event>
<event>
 8    1  0.1092993E+005  0.1043930E+01  0.7957747E-01            NaN
         13   -1    0    0    0    0  0.00000000000E+00  0.00000000000E+00  0.74505805969E-08  0.10566000000E+00  0.10566000000E+00 0. -1.
     999900   -1    0    0    0    0 -0.00000000000E+00 -0.00000000000E+00 -0.74505805969E-08  0.93827000000E+00  0.93827000000E+00 0. -1.
     999902    2    1    2    0    0 -0.95078341614E-02  0.20717883396E-01  0.44670070501E-02  0.10207010578E+01  0.10204367034E+01 0.  0.
     999903    2    3    3    0    0  0.50754307521E-01  0.38574386185E-01  0.11347329038E+00  0.13175069350E+00  0.20446872781E-01 0.  0.
         14    1    1    2    0    0  0.95078341614E-02 -0.20717883396E-01 -0.44670070501E-02  0.23228942181E-01  0.00000000000E+00 0.  1.
     999901    1    3    3    0    0 -0.60262141683E-01 -0.17856502790E-01 -0.10900628333E+00  0.88895036432E+00  0.88000000000E+00 0. -1.
        -11    1    4    4    0    0  0.38145792552E-01  0.31677344895E-01  0.68710328999E-01  0.84734444597E-01  0.51100000000E-03 0. -1.
         11    1    4    4    0    0  0.12608514970E-01  0.68970412907E-02  0.44762961385E-01  0.47016248906E-01  0.51100000000E-03 0.  1.
</event>
<event>
 8    1  0.1092993E+005  0.1043930E+01  0.7957747E-01            NaN
         13   -1    0    0    0    0  0.00000000000E+00  0.00000000000E+00  0.74505805969E-08  0.10566000000E+00  0.10566000000E+00 0.  1.
     999900   -1    0    0    0    0 -0.00000000000E+00 -0.00000000000E+00 -0.74505805969E-08  0.93827000000E+00  0.93827000000E+00 0. -1.
     999902    2    1    2    0    0 -0.25843654014E-02 -0.32012287985E-02 -0.22883359521E-01  0.10206797322E+01  0.10204148866E+01 0.  0.
     999903    2    3    3    0    0 -0.15481252946E-01 -0.40545071693E-01  0.11920516109E+00  0.12840732984E+00  0.19874604206E-01 0.  0.
         14    1    1    2    0    0  0.25843654014E-02  0.32012287985E-02  0.22883359521E-01  0.23250267812E-01  0.00000000000E+00 0.  1.
     999901    1    3    3    0    0  0.12896887545E-01  0.37343842894E-01 -0.14208852062E+00  0.89227240235E+00  0.88000000000E+00 0. -1.
        -11    1    4    4    0    0 -0.17772011996E-03 -0.24584503209E-01  0.49400834035E-01  0.55182722901E-01  0.51100000000E-03 0. -1.
         11    1    4    4    0    0 -0.15303532826E-01 -0.15960568484E-01  0.69804327060E-01  0.73224606934E-01  0.51100000000E-03 0.  1.
</event>
<event>
 8    1  0.1092993E+005  0.1043930E+01  0.7957747E-01            NaN
         13   -1    0    0    0    0  0.00000000000E+00  0.00000000000E+00  0.74505805969E-08  0.10566000000E+00  0.10566000000E+00 0. -1.
     999900   -1    0    0    0    0 -0.00000000000E+00 -0.00000000000E+00 -0.74505805969E-08  0.93827000000E+00  0.93827000000E+00 0. -1.
     999902    2    1    2    0    0  0.70160230713E-02 -0.17289610045E-01 -0.14036388204E-01  0.10205810088E+01  0.10203138832E+01 0.  0.
     999903    2    3    3    0    0  0.82652898613E-01  0.29885961472E-01  0.93031952005E-01  0.12962079592E+00  0.20541039412E-01 0.  0.
         14    1    1    2    0    0 -0.70160230713E-02  0.17289610045E-01  0.14036388204E-01  0.23348991179E-01  0.00000000000E+00 0.  1.
     999901    1    3    3    0    0 -0.75636875541E-01 -0.47175571517E-01 -0.10706834021E+00  0.89096021290E+00  0.88000000000E+00 0. -1.
        -11    1    4    4    0    0  0.48203159759E-01  0.26728806076E-01  0.50132548793E-01  0.74508437472E-01  0.51100000000E-03 0.  1.
         11    1    4    4    0    0  0.34449738853E-01  0.31571553955E-02  0.42899403212E-01  0.55112358453E-01  0.51100000000E-03 0. -1.
</event>
<event>
 8    1  0.1092993E+005  0.1043930E+01  0.7957747E-01            NaN
         13   -1    0    0    0    0  0.00000000000E+00  0.00000000000E+00  0.74505805969E-08  0.10566000000E+00  0.10566000000E+00 0. -1.
     999900   -1    0    0    0    0 -0.00000000000E+00 -0.00000000000E+00 -0.74505805969E-08  0.93827000000E+00  0.93827000000E+00 0.  1.
     999902    2    1    2    0    0 -0.17965014695E-01  0.93295162605E-02  0.18105915643E-01  0.10167711008E+01  0.10164083163E+01 0.  0.
     999903    2    3    3    0    0  0.67507990654E-01 -0.97680824411E-01 -0.32639213492E-01  0.12473303219E+00  0.19852929288E-01 0.  0.
         14    1    1    2    0    0  0.17965014695E-01 -0.93295162605E-02 -0.18105915643E-01  0.27158899239E-01  0.00000000000E+00 0.  1.
     999901    1    3    3    0    0 -0.85473005349E-01  0.10701034067E+00  0.50745129134E-01  0.89203806857E+00  0.88000000000E+00 0. -1.
        -11    1    4    4    0    0  0.31476690346E-01 -0.29024558424E-01 -0.10291456714E-01  0.44038417650E-01  0.51100000000E-03 0. -1.
         11    1    4    4    0    0  0.36031300309E-01 -0.68656265987E-01 -0.22347756778E-01  0.80694614537E-01  0.51100000000E-03 0.  1.
</event>
<event>
 8    1  0.1092993E+005  0.1043930E+01  0.7957747E-01            NaN
         13   -1    0    0    0    0  0.00000000000E+00  0.00000000000E+00  0.74505805969E-08  0.10566000000E+00  0.10566000000E+00 0.  1.
     999900   -1    0    0    0    0 -0.00000000000E+00 -0.00000000000E+00 -0.74505805969E-08  0.93827000000E+00  0.93827000000E+00 0.  1.
     999902    2    1    2    0    0 -0.58640175842E-02  0.17111412548E-01  0.90332904720E-02  0.10237115065E+01  0.10235118275E+01 0.  0.
     999903    2    3    3    0    0 -0.12897428685E+00 -0.75875140476E-02  0.31111170209E-01  0.13452445750E+00  0.20904251170E-01 0.  0.
         14    1    1    2    0    0  0.58640175842E-02 -0.17111412548E-01 -0.90332904720E-02  0.20218493474E-01  0.00000000000E+00 0. -1.
     999901    1    3    3    0    0  0.12311026927E+00  0.24698926596E-01 -0.22077879737E-01  0.88918704902E+00  0.88000000000E+00 0.  1.
        -11    1    4    4    0    0 -0.76262151332E-01  0.41796967133E-02  0.23917040821E-01  0.80035439356E-01  0.51100000000E-03 0.  1.
         11    1    4    4    0    0 -0.52712135519E-01 -0.11767210761E-01  0.71941293886E-02  0.54489018148E-01  0.51100000000E-03 0. -1.
</event>
<event>
 8    1  0.1092993E+005  0.1043930E+01  0.7957747E-01            NaN
         13   -1    0    0    0    0  0.00000000000E+00  0.00000000000E+00  0.74505805969E-08  0.10566000000E+00  0.10566000000E+00 0. -1.
     999900   -1    0    0    0    0 -0.00000000000E+00 -0.00000000000E+00 -0.74505805969E-08  0.93827000000E+00  0.93827000000E+00 0.  1.
     999902    2    1    2    0    0 -0.18664690056E-01 -0.96990247755E-03  0.15288585280E-01  0.10197835260E+01  0.10194976154E+01 0.  0.
     999903    2    3    3    0    0  0.99455507429E-02 -0.56613611636E-01  0.11661252390E+00  0.13176251907E+00  0.21421150769E-01 0.  0.
         14    1    1    2    0    0  0.18664690056E-01  0.96990247755E-03 -0.15288585280E-01  0.24146473978E-01  0.00000000000E+00 0.  1.
     999901    1    3    3    0    0 -0.28610240799E-01  0.55643709158E-01 -0.10132393862E+00  0.88802100695E+00  0.88000000000E+00 0. -1.
        -11    1    4    4    0    0  0.10687559917E-01 -0.32580716617E-01  0.47501445687E-01  0.58586478779E-01  0.51100000000E-03 0.  1.
         11    1    4    4    0    0 -0.74200917389E-03 -0.24032895018E-01  0.69111078210E-01  0.73176040293E-01  0.51100000000E-03 0. -1.
</event>
<event>
 8    1  0.1092993E+005  0.1043930E+01  0.7957747E-01            NaN
         13   -1    0    0    0    0  0.00000000000E+00  0.00000000000E+00  0.74505805969E-08  0.10566000000E+00  0.10566000000E+00 0.  1.
     999900   -1    0    0    0    0 -0.00000000000E+00 -0.00000000000E+00 -0.74505805969E-08  0.93827000000E+00  0.93827000000E+00 0. -1.
     999902    2    1    2    0    0 -0.28425831287E-01 -0.11520212709E-01 -0.80960568813E-02  0.10122079363E+01  0.10117107379E+01 0.  0.
     999903    2    3    3    0    0 -0.31115736487E-01  0.11508011999E+00 -0.22906663228E-01  0.12302053547E+00  0.19942764422E-01 0.  0.
         14    1    1    2    0    0  0.28425831287E-01  0.11520212709E-01  0.80960568813E-02  0.31722063651E-01  0.00000000000E+00 0.  1.
     999901    1    3    3    0    0  0.26899051998E-02 -0.12660033270E+00  0.14810606346E-01  0.88918740088E+00  0.88000000000E+00 0.  1.
        -11    1    4    4    0    0  0.37133663408E-03  0.17524641144E-01  0.16332717432E-02  0.17611917435E-01  0.51100000000E-03 0. -1.
         11    1    4    4    0    0 -0.31487073121E-01  0.97555478843E-01 -0.24539934971E-01  0.10540861803E+00  0.51100000000E-03 0.  1.
</event>
<event>
 8    1  0.1092993E+005  0.1043930E+01  0.7957747E-01            NaN
         13   -1    0    0    0    0  0.00000000000E+00  0.00000000000E+00  0.74505805969E-08  0.10566000000E+00  0.10566000000E+00 0. -1.
     999900   -1    0    0    0    0 -0.00000000000E+00 -0.00000000000E+00 -0.74505805969E-08  0.93827000000E+00  0.93827000000E+00 0. -1.
     999902    2    1    2    0    0  0.12786988565E-01 -0.13790750207E-01  0.15499896517E-01  0.10195591432E+01  0.10192678293E+01 0.  0.
     999903    2    3    3    0    0  0.57787587441E-01 -0.11523543725E+00  0.23321556303E-01  0.13255448890E+00  0.20203620481E-01 0.  0.
         14    1    1    2    0    0 -0.12786988565E-01  0.13790750207E-01 -0.15499896517E-01  0.24370856773E-01  0.00000000000E+00 0.  1.
     999901    1    3    3    0    0 -0.45000598875E-01  0.10144468704E+00 -0.78216597866E-02  0.88700465432E+00  0.88000000000E+00 0.  1.
        -11    1    4    4    0    0  0.13997216194E-01 -0.49724422834E-01  0.10544581948E-01  0.52724658527E-01  0.51100000000E-03 0.  1.
         11    1    4    4    0    0  0.43790371247E-01 -0.65511014413E-01  0.12776974355E-01  0.79829830377E-01  0.51100000000E-03 0. -1.
</event>
<event>
 8    1  0.1092993E+005  0.1043930E+01  0.7957747E-01            NaN
         13   -1    0    0    0    0  0.00000000000E+00  0.00000000000E+00  0.74505805969E-08  0.10566000000E+00  0.10566000000E+00 0. -1.
     999900   -1    0    0    0    0 -0.00000000000E+00 -0.00000000000E+00 -0.74505805969E-08  0.93827000000E+00  0.93827000000E+00 0.  1.
     999902    2    1    2    0    0  0.10187348893E-01 -0.15302650447E-01  0.15501611412E-01  0.10198831053E+01  0.10195995760E+01 0.  0.
     999903    2    3    3    0    0  0.86274706842E-01  0.43209751728E-01 -0.83543289702E-01  0.12914022451E+00  0.19680158712E-01 0.  0.
         14    1    1    2    0    0 -0.10187348893E-01  0.15302650447E-01 -0.15501611412E-01  0.24046894697E-01  0.00000000000E+00 0.  1.
     999901    1    3    3    0    0 -0.76087357950E-01 -0.58512402176E-01  0.99044901114E-01  0.89074288079E+00  0.88000000000E+00 0. -1.
        -11    1    4    4    0    0  0.20783833167E-01  0.59317389946E-02 -0.28726292519E-01  0.35952944963E-01  0.51100000000E-03 0.  1.
         11    1    4    4    0    0  0.65490873675E-01  0.37278012734E-01 -0.54816997183E-01  0.93187279547E-01  0.51100000000E-03 0. -1.
</event>
<event>
 8    1  0.1092993E+005  0.1043930E+01  0.7957747E-01            NaN
         13   -1    0    0    0    0  0.00000000000E+00  0.00000000000E+00  0.74505805969E-08  0.10566000000E+00  0.10566000000E+00 0. -1.
     999900   -1    0    0    0    0 -0.00000000000E+00 -0.00000000000E+00 -0.74505805969E-08  0.93827000000E+00  0.93827000000E+00 0.  1.
     999902    2    1    2    0    0  0.51824603400E-02 -0.15724622274E-01  0.16537670188E-01  0.10205287997E+01  0.10202604642E+01 0.  0.
     999903    2    3    3    0    0  0.10412158656E+00 -0.74165448581E-01  0.30241170281E-01  0.13295228648E+00  0.20493012201E-01 0.  0.
         14    1    1    2    0    0 -0.51824603400E-02  0.15724622274E-01 -0.16537670188E-01  0.23401200313E-01  0.00000000000E+00 0.  1.
     999901    1    3    3    0    0 -0.98939126225E-01  0.58440826307E-01 -0.13703500093E-01  0.88757651320E+00  0.88000000000E+00 0.  1.
        -11    1    4    4    0    0  0.47161962812E-01 -0.24824035028E-01  0.19866696136E-01  0.56880842009E-01  0.51100000000E-03 0.  1.
         11    1    4    4    0    0  0.56959623753E-01 -0.49341413553E-01  0.10374474145E-01  0.76071444473E-01  0.51100000000E-03 0. -1.
</event>
<event>
 8    1  0.1092993E+005  0.1043930E+01  0.7957747E-01            NaN
         13   -1    0    0    0    0  0.00000000000E+00  0.00000000000E+00  0.74505805969E-08  0.10566000000E+00  0.10566000000E+00 0.  1.
     999900   -1    0    0    0    0 -0.00000000000E+00 -0.00000000000E+00 -0.74505805969E-08  0.93827000000E+00  0.93827000000E+00 0. -1.
     999902    2    1    2    0    0  0.63445851738E-04  0.15741319515E-01  0.20211102679E-01  0.10183120017E+01  0.10179897106E+01 0.  0.
     999903    2    3    3    0    0  0.17069941846E-01  0.86118585045E-01 -0.91247752514E-01  0.12833152056E+00  0.20857450116E-01 0.  0.
         14    1    1    2    0    0 -0.63445851738E-04 -0.15741319515E-01 -0.20211102679E-01  0.25617998301E-01  0.00000000000E+00 0. -1.
     999901    1    3    3    0    0 -0.17006495995E-01 -0.70377265531E-01  0.11145885519E+00  0.88998048114E+00  0.88000000000E+00 0.  1.
        -11    1    4    4    0    0  0.21762873949E-01  0.63404761473E-01 -0.68018948198E-01  0.95501962781E-01  0.51100000000E-03 0.  1.
         11    1    4    4    0    0 -0.46929321025E-02  0.22713823572E-01 -0.23228804316E-01  0.32829557779E-01  0.51100000000E-03 0. -1.
</event>
<event>
 8    1  0.1092993E+005  0.1043930E+01  0.7957747E-01            NaN
         13   -1    0    0    0    0  0.00000000000E+00  0.00000000000E+00  0.74505805969E-08  0.10566000000E+00  0.10566000000E+00 0. -1.
     999900   -1    0    0    0    0 -0.00000000000E+00 -0.00000000000E+00 -0.74505805969E-08  0.93827000000E+00  0.93827000000E+00 0. -1.
     999902    2    1    2    0    0 -0.85371190808E-02 -0.11359539914E-01 -0.18601318846E-01  0.10205220823E+01  0.10202535909E+01 0.  0.
     999903    2    3    3    0    0  0.10807524427E+00 -0.70775774211E-01 -0.81164746538E-03  0.13066523728E+00  0.19577456992E-01 0.  0.
         14    1    1    2    0    0  0.85371190808E-02  0.11359539914E-01  0.18601318846E-01  0.23407917722E-01  0.00000000000E+00 0.  1.
     999901    1    3    3    0    0 -0.11661236335E+00  0.59416234297E-01 -0.17789671381E-01  0.88985684500E+00  0.88000000000E+00 0. -1.
        -11    1    4    4    0    0  0.19772599718E-01 -0.51145083803E-02 -0.27043269911E-02  0.20607969358E-01  0.51100000000E-03 0.  1.
         11    1    4    4    0    0  0.88302644552E-01 -0.65661265831E-01  0.18926795258E-02  0.11005726792E+00  0.51100000000E-03 0. -1.
</event>
<event>
 8    1  0.1092993E+005  0.1043930E+01  0.7957747E-01            NaN
         13   -1    0    0    0    0  0.00000000000E+00  0.00000000000E+00  0.74505805969E-08  0.10566000000E+00  0.10566000000E+00 0.  1.
     999900   -1    0    0    0    0 -0.00000000000E+00 -0.00000000000E+00 -0.74505805969E-08  0.93827000000E+00  0.93827000000E+00 0. -1.
     999902    2    1    2    0    0  0.19704934613E-01  0.80357522028E-02  0.10871222750E-01  0.10200335307E+01  0.10197535793E+01 0.  0.
     999903    2    3    3    0    0  0.47641750260E-01 -0.11955684191E+00  0.27398563988E-02  0.13035580541E+00  0.20531789355E-01 0.  0.
         14    1    1    2    0    0 -0.19704934613E-01 -0.80357522028E-02 -0.10871222750E-01  0.23896469314E-01  0.00000000000E+00 0.  1.
     999901    1    3    3    0    0 -0.27936815647E-01  0.12759259411E+00  0.81313663512E-02  0.88967772528E+00  0.88000000000E+00 0. -1.
        -11    1    4    4    0    0  0.54103200634E-02 -0.77535877547E-02  0.52270511296E-02  0.10815399705E-01  0.51100000000E-03 0.  1.
         11    1    4    4    0    0  0.42231430197E-01 -0.11180325416E+00 -0.24871947308E-02  0.11954040570E+00  0.51100000000E-03 0. -1.
</event>
<event>
 8    1  0.1092993E+005  0.1043930E+01  0.7957747E-01            NaN
         13   -1    0    0    0    0  0.00000000000E+00  0.00000000000E+00  0.74505805969E-08  0.10566000000E+00  0.10566000000E+00 0. -1.
     999900   -1    0    0    0    0 -0.00000000000E+00 -0.00000000000E+00 -0.74505805969E-08  0.93827000000E+00  0.93827000000E+00 0. -1.
     999902    2    1    2    0    0 -0.98605351620E-02 -0.19359764968E-01 -0.69639018789E-02  0.10211149483E+01  0.10208600350E+01 0.  0.
     999903    2    3    3    0    0  0.89847377546E-02  0.43875232435E-01  0.12004982348E+00  0.12955098784E+00  0.19124246399E-01 0.  0.
         14    1    1    2    0    0  0.98605351620E-02  0.19359764968E-01  0.69639018789E-02  0.22815051669E-01  0.00000000000E+00 0. -1.
     999901    1    3    3    0    0 -0.18845272917E-01 -0.63234997403E-01 -0.12701372536E+00  0.89156396049E+00  0.88000000000E+00 0. -1.
        -11    1    4    4    0    0 -0.22255533615E-02  0.29874754933E-01  0.63314094445E-01  0.70045626176E-01  0.51100000000E-03 0.  1.
         11    1    4    4    0    0  0.11210291116E-01  0.14000477502E-01  0.56735729035E-01  0.59505361669E-01  0.51100000000E-03 0. -1.
</event>
<event>
 8    1  0.1092993E+005  0.1043930E+01  0.7957747E-01            NaN
         13   -1    0    0    0    0  0.00000000000E+00  0.00000000000E+00  0.74505805969E-08  0.10566000000E+00  0.10566000000E+00 0.  1.
     999900   -1    0    0    0    0 -0.00000000000E+00 -0.00000000000E+00 -0.74505805969E-08  0.93827000000E+00  0.93827000000E+00 0.  1.
     999902    2    1    2    0    0  0.55063340686E-03 -0.20406329494E-01 -0.11391375847E-01  0.10205529830E+01  0.10202852082E+01 0.  0.
     999903    2    3    3    0    0 -0.79040045765E-01 -0.54043652062E-01  0.86808419709E-01  0.13088487323E+00  0.20666473936E-01 0.  0.
         14    1    1    2    0    0 -0.55063340686E-03  0.20406329494E-01  0.11391375847E-01  0.23377017010E-01  0.00000000000E+00 0.  1.
     999901    1    3    3    0    0  0.79590679171E-01  0.33637322568E-01 -0.98199795556E-01  0.88966810976E+00  0.88000000000E+00 0.  1.
        -11    1    4    4    0    0 -0.44509952931E-01 -0.38765703856E-01  0.62539393900E-01  0.85996236056E-01  0.51100000000E-03 0.  1.
         11    1    4    4    0    0 -0.34530092834E-01 -0.15277948206E-01  0.24269025809E-01  0.44888637173E-01  0.51100000000E-03 0. -1.
</event>
<event>
 8    1  0.1092993E+005  0.1043930E+01  0.7957747E-01            NaN
         13   -1    0    0    0    0  0.00000000000E+00  0.00000000000E+00  0.74505805969E-08  0.10566000000E+00  0.10566000000E+00 0. -1.
     999900   -1    0    0    0    0 -0.00000000000E+00 -0.00000000000E+00 -0.74505805969E-08  0.93827000000E+00  0.93827000000E+00 0. -1.
     999902    2    1    2    0    0 -0.59870214975E-02 -0.13914802425E-01 -0.44815677862E-02  0.10281328293E+01  0.10280114610E+01 0.  0.
     999903    2    3    3    0    0  0.58379650506E-01  0.98710073178E-01  0.69362716546E-01  0.13556327490E+00  0.20355660547E-01 0.  0.
         14    1    1    2    0    0  0.59870214975E-02  0.13914802425E-01  0.44815677862E-02  0.15797170720E-01  0.00000000000E+00 0. -1.
     999901    1    3    3    0    0 -0.64366672003E-01 -0.11262487560E+00 -0.73844284332E-01  0.89256955438E+00  0.88000000000E+00 0. -1.
        -11    1    4    4    0    0  0.52453468142E-01  0.80668664195E-01  0.64852964183E-01  0.11603864782E+00  0.51100000000E-03 0. -1.
         11    1    4    4    0    0  0.59261823635E-02  0.18041408983E-01  0.45097523632E-02  0.19524627087E-01  0.51100000000E-03 0.  1.
</event>
<event>
 8    1  0.1092993E+005  0.1043930E+01  0.7957747E-01            NaN
         13   -1    0    0    0    0  0.00000000000E+00  0.00000000000E+00  0.74505805969E-08  0.10566000000E+00  0.10566000000E+00 0.  1.
     999900   -1    0    0    0    0 -0.00000000000E+00 -0.00000000000E+00 -0.74505805969E-08  0.93827000000E+00  0.93827000000E+00 0. -1.
     999902    2    1    2    0    0  0.93823086149E-02  0.21973348041E-01  0.50104134980E-02  0.10195177084E+01  0.10192253910E+01 0.  0.
     999903    2    3    3    0    0  0.74998510861E-01  0.31118659443E-01 -0.10049881894E+00  0.13074252822E+00  0.20011208902E-01 0.  0.
         14    1    1    2    0    0 -0.93823086149E-02 -0.21973348041E-01 -0.50104134980E-02  0.24412291628E-01  0.00000000000E+00 0. -1.
     999901    1    3    3    0    0 -0.65616202246E-01 -0.91453114015E-02  0.10550923244E+00  0.88877518015E+00  0.88000000000E+00 0.  1.
        -11    1    4    4    0    0  0.11489782925E-01 -0.24723414650E-02 -0.13238804679E-01  0.17710297973E-01  0.51100000000E-03 0.  1.
         11    1    4    4    0    0  0.63508727936E-01  0.33591000908E-01 -0.87260014259E-01  0.11303223025E+00  0.51100000000E-03 0. -1.
</event>
<event>
 8    1  0.1092993E+005  0.1043930E+01  0.7957747E-01            NaN
         13   -1    0    0    0    0  0.00000000000E+00  0.00000000000E+00  0.74505805969E-08  0.10566000000E+00  0.10566000000E+00 0. -1.
     999900   -1    0    0    0    0 -0.00000000000E+00 -0.00000000000E+00 -0.74505805969E-08  0.93827000000E+00  0.93827000000E+00 0.  1.
     999902    2    1    2    0    0  0.27955416980E-02  0.17864197919E-01  0.15105177119E-01  0.10203692064E+01  0.10200971553E+01 0.  0.
     999903    2    3    3    0    0 -0.11614510091E+00 -0.48817930936E-01  0.25100426615E-01  0.12981135436E+00  0.18656941232E-01 0.  0.
         14    1    1    2    0    0 -0.27955416980E-02 -0.17864197919E-01 -0.15105177119E-01  0.23560793630E-01  0.00000000000E+00 0.  1.
     999901    1    3    3    0    0  0.11894064261E+00  0.66682128854E-01 -0.99952494964E-02  0.89055785202E+00  0.88000000000E+00 0.  1.
        -11    1    4    4    0    0 -0.46300940356E-01 -0.25035594938E-01  0.27239958350E-02  0.52709006499E-01  0.51100000000E-03 0.  1.
         11    1    4    4    0    0 -0.69844160557E-01 -0.23782335998E-01  0.22376430780E-01  0.77102347856E-01  0.51100000000E-03 0. -1.
</event>
<event>
 8    1  0.1092993E+005  0.1043930E+01  0.7957747E-01            NaN
         13   -1    0    0    0    0  0.00000000000E+00  0.00000000000E+00  0.74505805969E-08  0.10566000000E+00  0.10566000000E+00 0. -1.
     999900   -1    0    0    0    0 -0.00000000000E+00 -0.00000000000E+00 -0.74505805969E-08  0.93827000000E+00  0.93827000000E+00 0.  1.
     999902    2    1    2    0    0 -0.16995961757E-01 -0.96840138523E-02  0.13186857103E-01  0.10203389839E+01  0.10200662263E+01 0.  0.
     999903    2    3    3    0    0 -0.18560406094E-01  0.12645403286E+00 -0.82598851758E-02  0.12961120393E+00  0.19892897731E-01 0.  0.
         14    1    1    2    0    0  0.16995961757E-01  0.96840138523E-02 -0.13186857103E-01  0.23591016099E-01  0.00000000000E+00 0.  1.
     999901    1    3    3    0    0  0.15644443367E-02 -0.13613804672E+00  0.21446742279E-01  0.89072777997E+00  0.88000000000E+00 0. -1.
        -11    1    4    4    0    0  0.18980828152E-02  0.54496728430E-01 -0.29358918567E-02  0.54611140896E-01  0.51100000000E-03 0. -1.
         11    1    4    4    0    0 -0.20458488909E-01  0.71957304434E-01 -0.53239933191E-02  0.75000063038E-01  0.51100000000E-03 0.  1.
</event>
<event>
 8    1  0.1092993E+005  0.1043930E+01  0.7957747E-01            NaN
         13   -1    0    0    0    0  0.00000000000E+00  0.00000000000E+00  0.74505805969E-08  0.10566000000E+00  0.10566000000E+00 0. -1.
     999900   -1    0    0    0    0 -0.00000000000E+00 -0.00000000000E+00 -0.74505805969E-08  0.93827000000E+00  0.93827000000E+00 0. -1.
     999902    2    1    2    0    0 -0.15015472161E-01  0.17587729042E-01 -0.72035732216E-02  0.10197084376E+01  0.10194207246E+01 0.  0.
     999903    2    3    3    0    0 -0.51735496542E-01  0.11917258823E+00  0.18299063302E-01  0.13273705799E+00  0.20139599300E-01 0.  0.
         14    1    1    2    0    0  0.15015472161E-01 -0.17587729042E-01  0.72035732216E-02  0.24221562382E-01  0.00000000000E+00 0.  1.
     999901    1    3    3    0    0  0.36720024381E-01 -0.10158485918E+00 -0.25502636523E-01  0.88697137963E+00  0.88000000000E+00 0. -1.
        -11    1    4    4    0    0 -0.22552280920E-01  0.64096591988E-01  0.18428355798E-01  0.70404857060E-01  0.51100000000E-03 0.  1.
         11    1    4    4    0    0 -0.29183215622E-01  0.55075996237E-01 -0.12929249575E-03  0.62332200932E-01  0.51100000000E-03 0. -1.
</event>
<event>
 8    1  0.1092993E+005  0.1043930E+01  0.7957747E-01            NaN
         13   -1    0    0    0    0  0.00000000000E+00  0.00000000000E+00  0.74505805969E-08  0.10566000000E+00  0.10566000000E+00 0. -1.
     999900   -1    0    0    0    0 -0.00000000000E+00 -0.00000000000E+00 -0.74505805969E-08  0.93827000000E+00  0.93827000000E+00 0. -1.
     999902    2    1    2    0    0  0.23361890396E-01 -0.41925324959E-02 -0.30507125713E-02  0.10199996406E+01  0.10197188852E+01 0.  0.
     999903    2    3    3    0    0  0.55494032166E-01  0.11615190179E+00 -0.13713411068E-01  0.13116391311E+00  0.21096505960E-01 0.  0.
         14    1    1    2    0    0 -0.23361890396E-01  0.41925324959E-02  0.30507125713E-02  0.23930359354E-01  0.00000000000E+00 0.  1.
     999901    1    3    3    0    0 -0.32132141771E-01 -0.12034443429E+00  0.10662698496E-01  0.88883572753E+00  0.88000000000E+00 0.  1.
        -11    1    4    4    0    0  0.13200668887E-01  0.49906734066E-01 -0.91914341756E-02  0.52437423158E-01  0.51100000000E-03 0.  1.
         11    1    4    4    0    0  0.42293363280E-01  0.66245167728E-01 -0.45219768920E-02  0.78726489956E-01  0.51100000000E-03 0. -1.
</event>
<event>
 8    1  0.1092993E+005  0.1043930E+01  0.7957747E-01            NaN
         13   -1    0    0    0    0  0.00000000000E+00  0.00000000000E+00  0.74505805969E-08  0.10566000000E+00  0.10566000000E+00 0. -1.
     999900   -1    0    0    0    0 -0.00000000000E+00 -0.00000000000E+00 -0.74505805969E-08  0.93827000000E+00  0.93827000000E+00 0. -1.
     999902    2    1    2    0    0 -0.97504475491E-03  0.21196546417E-01  0.91664876221E-02  0.10208157449E+01  0.10205540242E+01 0.  0.
     999903    2    3    3    0    0  0.14387743370E-01  0.42210647609E-01 -0.12122766850E+00  0.13082684406E+00  0.20754989416E-01 0.  0.
         14    1    1    2    0    0  0.97504475491E-03 -0.21196546417E-01 -0.91664876221E-02  0.23114255074E-01  0.00000000000E+00 0. -1.
     999901    1    3    3    0    0 -0.15362788125E-01 -0.21014101192E-01  0.13039415613E+00  0.88998890086E+00  0.88000000000E+00 0.  1.
        -11    1    4    4    0    0  0.16277439303E-01  0.17445357276E-01 -0.68541880380E-01  0.72577861692E-01  0.51100000000E-03 0.  1.
         11    1    4    4    0    0 -0.18896959330E-02  0.24765290333E-01 -0.52685788124E-01  0.58248982371E-01  0.51100000000E-03 0. -1.
</event>
<event>
 8    1  0.1092993E+005  0.1043930E+01  0.7957747E-01            NaN
         13   -1    0    0    0    0  0.00000000000E+00  0.00000000000E+00  0.74505805969E-08  0.10566000000E+00  0.10566000000E+00 0.  1.
     999900   -1    0    0    0    0 -0.00000000000E+00 -0.00000000000E+00 -0.74505805969E-08  0.93827000000E+00  0.93827000000E+00 0. -1.
     999902    2    1    2    0    0  0.21933467283E-01 -0.35949627071E-02 -0.56797485393E-02  0.10209896363E+01  0.10207318831E+01 0.  0.
     999903    2    3    3    0    0  0.44270456044E-01 -0.12270237283E+00  0.12700377957E-01  0.13249464741E+00  0.19436728517E-01 0.  0.
         14    1    1    2    0    0 -0.21933467283E-01  0.35949627071E-02  0.56797485393E-02  0.22940363715E-01  0.00000000000E+00 0. -1.
     999901    1    3    3    0    0 -0.22336988761E-01  0.11910741012E+00 -0.18380126496E-01  0.88849498888E+00  0.88000000000E+00 0.  1.
        -11    1    4    4    0    0  0.32289985028E-01 -0.10870255146E+00  0.96175206218E-02  0.11380529711E+00  0.51100000000E-03 0.  1.
         11    1    4    4    0    0  0.11980471016E-01 -0.13999821369E-01  0.30828573354E-02  0.18689350296E-01  0.51100000000E-03 0. -1.
</event>
<event>
 8    1  0.1092993E+005  0.1043930E+01  0.7957747E-01            NaN
         13   -1    0    0    0    0  0.00000000000E+00  0.00000000000E+00  0.74505805969E-08  0.10566000000E+00  0.10566000000E+00 0. -1.
     999900   -1    0    0    0    0 -0.00000000000E+00 -0.00000000000E+00 -0.74505805969E-08  0.93827000000E+00  0.93827000000E+00 0. -1.
     999902    2    1    2    0    0  0.19982924062E-01  0.92551813534E-02  0.83566743477E-02  0.10203756025E+01  0.10201037009E+01 0.  0.
     999903    2    3    3    0    0 -0.92449213515E-01  0.93356315635E-02  0.88365280667E-01  0.12962178177E+00  0.18957119684E-01 0.  0.
         14    1    1    2    0    0 -0.19982924062E-01 -0.92551813534E-02 -0.83566743477E-02  0.23554397511E-01  0.00000000000E+00 0.  1.
     999901    1    3    3    0    0  0.11243213758E+00 -0.80450210077E-04 -0.80008606319E-01  0.89075382071E+00  0.88000000000E+00 0. -1.
        -11    1    4    4    0    0 -0.62002726691E-02  0.41833488985E-02  0.12809720134E-01  0.14842299016E-01  0.51100000000E-03 0.  1.
         11    1    4    4    0    0 -0.86248940846E-01  0.51522826650E-02  0.75555560533E-01  0.11477948276E+00  0.51100000000E-03 0. -1.
</event>
<event>
 8    1  0.1092993E+005  0.1043930E+01  0.7957747E-01            NaN
         13   -1    0    0    0    0  0.00000000000E+00  0.00000000000E+00  0.74505805969E-08  0.10566000000E+00  0.10566000000E+00 0.  1.
     999900   -1    0    0    0    0 -0.00000000000E+00 -0.00000000000E+00 -0.74505805969E-08  0.93827000000E+00  0.93827000000E+00 0.  1.
     999902    2    1    2    0    0 -0.15785791097E-01  0.12766622233E-01 -0.13131898377E-01  0.10197509885E+01  0.10194642975E+01 0.  0.
     999903    2    3    3    0    0  0.74086103466E-01 -0.51070913011E-01  0.87183694800E-01  0.12721784814E+00  0.22054372916E-01 0.  0.
         14    1    1    2    0    0  0.15785791097E-01 -0.12766622233E-01  0.13131898377E-01  0.24179011534E-01  0.00000000000E+00 0. -1.
     999901    1    3    3    0    0 -0.89871894563E-01  0.63837535244E-01 -0.10031559318E+00  0.89253314032E+00  0.88000000000E+00 0.  1.
        -11    1    4    4    0    0  0.44047529622E-01 -0.26898256947E-01  0.35117575083E-01  0.62427608422E-01  0.51100000000E-03 0. -1.
         11    1    4    4    0    0  0.30038573845E-01 -0.24172656063E-01  0.52066119717E-01  0.64790239722E-01  0.51100000000E-03 0.  1.
</event>
<event>
 8    1  0.1092993E+005  0.1043930E+01  0.7957747E-01            NaN
         13   -1    0    0    0    0  0.00000000000E+00  0.00000000000E+00  0.74505805969E-08  0.10566000000E+00  0.10566000000E+00 0.  1.
     999900   -1    0    0    0    0 -0.00000000000E+00 -0.00000000000E+00 -0.74505805969E-08  0.93827000000E+00  0.93827000000E+00 0. -1.
     999902    2    1    2    0    0  0.10763759022E-01  0.10694230599E-01 -0.25506573498E-01  0.10142515504E+01  0.10138172405E+01 0.  0.
     999903    2    3    3    0    0 -0.13606848216E-01 -0.12620547658E-01 -0.12500100210E+00  0.12800291338E+00  0.20373285552E-01 0.  0.
         14    1    1    2    0    0 -0.10763759022E-01 -0.10694230599E-01  0.25506573498E-01  0.29678449556E-01  0.00000000000E+00 0.  1.
     999901    1    3    3    0    0  0.24370607238E-01  0.23314778257E-01  0.99494428606E-01  0.88624863707E+00  0.88000000000E+00 0.  1.
        -11    1    4    4    0    0 -0.11332896680E-01  0.75004765942E-03 -0.85115982948E-01  0.85871932509E-01  0.51100000000E-03 0. -1.
         11    1    4    4    0    0 -0.22739515355E-02 -0.13370595317E-01 -0.39885019156E-01  0.42130980867E-01  0.51100000000E-03 0.  1.
</event>
<event>
 8    1  0.1092993E+005  0.1043930E+01  0.7957747E-01            NaN
         13   -1    0    0    0    0  0.00000000000E+00  0.00000000000E+00  0.74505805969E-08  0.10566000000E+00  0.10566000000E+00 0.  1.
     999900   -1    0    0    0    0 -0.00000000000E+00 -0.00000000000E+00 -0.74505805969E-08  0.93827000000E+00  0.93827000000E+00 0. -1.
     999902    2    1    2    0    0  0.18731839875E-01  0.13954439386E-01 -0.27733662280E-02  0.10204076752E+01  0.10201365222E+01 0.  0.
     999903    2    3    3    0    0 -0.70415264849E-01 -0.51804038446E-02 -0.10682937057E+00  0.12959849219E+00  0.19952660286E-01 0.  0.
         14    1    1    2    0    0 -0.18731839875E-01 -0.13954439386E-01  0.27733662280E-02  0.23522324798E-01  0.00000000000E+00 0.  1.
     999901    1    3    3    0    0  0.89147104724E-01  0.19134843231E-01  0.10405600434E+00  0.89080918302E+00  0.88000000000E+00 0.  1.
        -11    1    4    4    0    0 -0.11613683971E-01 -0.84072062917E-02 -0.24130019797E-01  0.28072722516E-01  0.51100000000E-03 0.  1.
         11    1    4    4    0    0 -0.58801580878E-01  0.32268024471E-02 -0.82699350773E-01  0.10152576967E+00  0.51100000000E-03 0. -1.
</event>
<event>
 8    1  0.1092993E+005  0.1043930E+01  0.7957747E-01            NaN
         13   -1    0    0    0    0  0.00000000000E+00  0.00000000000E+00  0.74505805969E-08  0.10566000000E+00  0.10566000000E+00 0.  1.
     999900   -1    0    0    0    0 -0.00000000000E+00 -0.00000000000E+00 -0.74505805969E-08  0.93827000000E+00  0.93827000000E+00 0.  1.
     999902    2    1    2    0    0  0.79987185323E-02 -0.11975282560E-01 -0.17820595065E-01  0.10210179835E+01  0.10207608741E+01 0.  0.
     999903    2    3    3    0    0 -0.54626614544E-03 -0.13053903688E+00  0.92269712997E-02  0.13261382356E+00  0.21460443682E-01 0.  0.
         14    1    1    2    0    0 -0.79987185323E-02  0.11975282560E-01  0.17820595065E-01  0.22912016477E-01  0.00000000000E+00 0.  1.
     999901    1    3    3    0    0  0.85449846778E-02  0.11856375432E+00 -0.27047566365E-01  0.88840415997E+00  0.88000000000E+00 0.  1.
        -11    1    4    4    0    0 -0.10072363574E-01 -0.91792170206E-01  0.48733393827E-02  0.92473053247E-01  0.51100000000E-03 0.  1.
         11    1    4    4    0    0  0.95260974289E-02 -0.38746866672E-01  0.43536319170E-02  0.40140770309E-01  0.51100000000E-03 0. -1.
</event>
<event>
 8    1  0.1092993E+005  0.1043930E+01  0.7957747E-01            NaN
         13   -1    0    0    0    0  0.00000000000E+00  0.00000000000E+00  0.74505805969E-08  0.10566000000E+00  0.10566000000E+00 0.  1.
     999900   -1    0    0    0    0 -0.00000000000E+00 -0.00000000000E+00 -0.74505805969E-08  0.93827000000E+00  0.93827000000E+00 0. -1.
     999902    2    1    2    0    0 -0.11952126276E-01 -0.17583115578E-01 -0.52719880576E-02  0.10220253627E+01  0.10217905994E+01 0.  0.
     999903    2    3    3    0    0 -0.10576730729E+00 -0.75581222148E-01  0.17090368750E-01  0.13485844294E+00  0.31551140963E-01 0.  0.
         14    1    1    2    0    0  0.11952126276E-01  0.17583115578E-01  0.52719880576E-02  0.21904637272E-01  0.00000000000E+00 0. -1.
     999901    1    3    3    0    0  0.93815181017E-01  0.57998106570E-01 -0.22362356807E-01  0.88716691978E+00  0.88000000000E+00 0. -1.
        -11    1    4    4    0    0 -0.51701953410E-01 -0.47916446394E-01  0.22207701811E-01  0.73908869307E-01  0.51100000000E-03 0. -1.
         11    1    4    4    0    0 -0.54065353883E-01 -0.27664775754E-01 -0.51173330610E-02  0.60949573638E-01  0.51100000000E-03 0.  1.
</event>
<event>
 8    1  0.1092993E+005  0.1043930E+01  0.7957747E-01            NaN
         13   -1    0    0    0    0  0.00000000000E+00  0.00000000000E+00  0.74505805969E-08  0.10566000000E+00  0.10566000000E+00 0.  1.
     999900   -1    0    0    0    0 -0.00000000000E+00 -0.00000000000E+00 -0.74505805969E-08  0.93827000000E+00  0.93827000000E+00 0. -1.
     999902    2    1    2    0    0 -0.19197879204E-01  0.94414717206E-02  0.10943851534E-01  0.10198994394E+01  0.10196162998E+01 0.  0.
     999903    2    3    3    0    0 -0.15272994209E-01 -0.11643862501E+00  0.52123817120E-01  0.12997978406E+00  0.19663016196E-01 0.  0.
         14    1    1    2    0    0  0.19197879204E-01 -0.94414717206E-02 -0.10943851534E-01  0.24030560555E-01  0.00000000000E+00 0. -1.
     999901    1    3    3    0    0 -0.39248849953E-02  0.12588009673E+00 -0.41179965585E-01  0.88991965539E+00  0.88000000000E+00 0.  1.
        -11    1    4    4    0    0 -0.10921287199E-01 -0.97732204765E-01  0.50886172045E-01  0.11072724140E+00  0.51100000000E-03 0. -1.
         11    1    4    4    0    0 -0.43517070093E-02 -0.18706420249E-01  0.12376450744E-02  0.19252542657E-01  0.51100000000E-03 0.  1.
</event>
<event>
 8    1  0.1092993E+005  0.1043930E+01  0.7957747E-01            NaN
         13   -1    0    0    0    0  0.00000000000E+00  0.00000000000E+00  0.74505805969E-08  0.10566000000E+00  0.10566000000E+00 0. -1.
     999900   -1    0    0    0    0 -0.00000000000E+00 -0.00000000000E+00 -0.74505805969E-08  0.93827000000E+00  0.93827000000E+00 0. -1.
     999902    2    1    2    0    0 -0.63139560290E-02  0.73805483141E-02 -0.21363525862E-01  0.10204621758E+01  0.10201922924E+01 0.  0.
     999903    2    3    3    0    0 -0.66047121106E-01 -0.10952144481E+00  0.82412177676E-02  0.13023154961E+00  0.23133736523E-01 0.  0.
         14    1    1    2    0    0  0.63139560290E-02 -0.73805483141E-02  0.21363525862E-01  0.23467824173E-01  0.00000000000E+00 0. -1.
     999901    1    3    3    0    0  0.59733165077E-01  0.11690199312E+00 -0.29604743629E-01  0.89023062621E+00  0.88000000000E+00 0. -1.
        -11    1    4    4    0    0 -0.57472327045E-01 -0.91052142890E-01  0.15122604986E-01  0.10873139107E+00  0.51100000000E-03 0. -1.
         11    1    4    4    0    0 -0.85747940611E-02 -0.18469301915E-01 -0.68813872183E-02  0.21500158546E-01  0.51100000000E-03 0.  1.
</event>
<event>
 8    1  0.1092993E+005  0.1043930E+01  0.7957747E-01            NaN
         13   -1    0    0    0    0  0.00000000000E+00  0.00000000000E+00  0.74505805969E-08  0.10566000000E+00  0.10566000000E+00 0.  1.
     999900   -1    0    0    0    0 -0.00000000000E+00 -0.00000000000E+00 -0.74505805969E-08  0.93827000000E+00  0.93827000000E+00 0. -1.
     999902    2    1    2    0    0  0.92567510116E-02  0.10535787387E-01 -0.19337445224E-01  0.10200421989E+01  0.10197624529E+01 0.  0.
     999903    2    3    3    0    0 -0.87848195865E-01  0.50485964344E-02 -0.95339510136E-01  0.13142766273E+00  0.20995582721E-01 0.  0.
         14    1    1    2    0    0 -0.92567510116E-02 -0.10535787387E-01  0.19337445224E-01  0.23887801133E-01  0.00000000000E+00 0.  1.
     999901    1    3    3    0    0  0.97104946876E-01  0.54871909523E-02  0.76002064912E-01  0.88861453614E+00  0.88000000000E+00 0.  1.
        -11    1    4    4    0    0 -0.35632330898E-01  0.45628523569E-04 -0.53719919943E-01  0.64465153431E-01  0.51100000000E-03 0.  1.
         11    1    4    4    0    0 -0.52215864967E-01  0.50029679109E-02 -0.41619590193E-01  0.66962509294E-01  0.51100000000E-03 0. -1.
</event>
<event>
 8    1  0.1092993E+005  0.1043930E+01  0.7957747E-01            NaN
         13   -1    0    0    0    0  0.00000000000E+00  0.00000000000E+00  0.74505805969E-08  0.10566000000E+00  0.10566000000E+00 0. -1.
     999900   -1    0    0    0    0 -0.00000000000E+00 -0.00000000000E+00 -0.74505805969E-08  0.93827000000E+00  0.93827000000E+00 0. -1.
     999902    2    1    2    0    0 -0.21521159954E-01  0.74455763143E-02  0.77576966647E-02  0.10198721782E+01  0.10195883881E+01 0.  0.
     999903    2    3    3    0    0 -0.72183365431E-01  0.93337723482E-01 -0.55653665646E-01  0.13197290413E+00  0.19928573862E-01 0.  0.
         14    1    1    2    0    0  0.21521159954E-01 -0.74455763143E-02 -0.77576966647E-02  0.24057821804E-01  0.00000000000E+00 0.  1.
     999901    1    3    3    0    0  0.50662205477E-01 -0.85892147168E-01  0.63411362310E-01  0.88789927406E+00  0.88000000000E+00 0. -1.
        -11    1    4    4    0    0 -0.25147879065E-01  0.47057412377E-01 -0.29676652909E-01  0.61055554456E-01  0.51100000000E-03 0.  1.
         11    1    4    4    0    0 -0.47035486366E-01  0.46280311105E-01 -0.25977012736E-01  0.70917349678E-01  0.51100000000E-03 0. -1.
</event>
<event>
 8    1  0.1092993E+005  0.1043930E+01  0.7957747E-01            NaN
         13   -1    0    0    0    0  0.00000000000E+00  0.00000000000E+00  0.74505805969E-08  0.10566000000E+00  0.10566000000E+00 0.  1.
     999900   -1    0    0    0    0 -0.00000000000E+00 -0.00000000000E+00 -0.74505805969E-08  0.93827000000E+00  0.93827000000E+00 0.  1.
     999902    2    1    2    0    0 -0.13640188735E-01 -0.14621493533E-01 -0.12931642188E-01  0.10201167644E+01  0.10198387827E+01 0.  0.
     999903    2    3    3    0    0 -0.36930582592E-01 -0.10227038363E+00  0.71319642740E-01  0.13145313318E+00  0.19244102519E-01 0.  0.
         14    1    1    2    0    0  0.13640188735E-01  0.14621493533E-01  0.12931642188E-01  0.23813235638E-01  0.00000000000E+00 0.  1.
     999901    1    3    3    0    0  0.23290393857E-01  0.87648890101E-01 -0.84251284928E-01  0.88866363119E+00  0.88000000000E+00 0.  1.
        -11    1    4    4    0    0 -0.71898975969E-02 -0.14176130110E-01  0.18949110111E-01  0.24738374792E-01  0.51100000000E-03 0. -1.
         11    1    4    4    0    0 -0.29740684995E-01 -0.88094253524E-01  0.52370532629E-01  0.10671475838E+00  0.51100000000E-03 0.  1.
</event>
<event>
 8    1  0.1092993E+005  0.1043930E+01  0.7957747E-01            NaN
         13   -1    0    0    0    0  0.00000000000E+00  0.00000000000E+00  0.74505805969E-08  0.10566000000E+00  0.10566000000E+00 0.  1.
     999900   -1    0    0    0    0 -0.00000000000E+00 -0.00000000000E+00 -0.74505805969E-08  0.93827000000E+00  0.93827000000E+00 0.  1.
     999902    2    1    2    0    0 -0.70534638413E-02 -0.12815911240E-01 -0.18522659541E-01  0.10203272915E+01  0.10200542603E+01 0.  0.
     999903    2    3    3    0    0 -0.97018191273E-01 -0.73004065453E-01  0.46040226323E-01  0.13134774598E+00  0.19758667033E-01 0.  0.
         14    1    1    2    0    0  0.70534638413E-02  0.12815911240E-01  0.18522659541E-01  0.23602708521E-01  0.00000000000E+00 0.  1.
     999901    1    3    3    0    0  0.89964727432E-01  0.60188154213E-01 -0.64562885864E-01  0.88897954550E+00  0.88000000000E+00 0. -1.
        -11    1    4    4    0    0 -0.39437406983E-01 -0.18728299242E-01  0.12616397606E-01  0.45447693799E-01  0.51100000000E-03 0.  1.
         11    1    4    4    0    0 -0.57580784289E-01 -0.54275766211E-01  0.33423828718E-01  0.85900052179E-01  0.51100000000E-03 0. -1.
</event>
<event>
 8    1  0.1092993E+005  0.1043930E+01  0.7957747E-01            NaN
         13   -1    0    0    0    0  0.00000000000E+00  0.00000000000E+00  0.74505805969E-08  0.10566000000E+00  0.10566000000E+00 0. -1.
     999900   -1    0    0    0    0 -0.00000000000E+00 -0.00000000000E+00 -0.74505805969E-08  0.93827000000E+00  0.93827000000E+00 0.  1.
     999902    2    1    2    0    0 -0.10374068941E-01  0.80626227196E-02  0.15569524897E-01  0.10235575358E+01  0.10233547732E+01 0.  0.
     999903    2    3    3    0    0 -0.73832969936E-01  0.10957540888E+00  0.17986942140E-01  0.13544846494E+00  0.23762972974E-01 0.  0.
         14    1    1    2    0    0  0.10374068941E-01 -0.80626227196E-02 -0.15569524897E-01  0.20372464187E-01  0.00000000000E+00 0.  1.
     999901    1    3    3    0    0  0.63458900995E-01 -0.10151278616E+00 -0.24174172430E-02  0.88810907088E+00  0.88000000000E+00 0.  1.
        -11    1    4    4    0    0 -0.34026981706E-01  0.69222781197E-01  0.50123822107E-02  0.77298214838E-01  0.51100000000E-03 0.  1.
         11    1    4    4    0    0 -0.39805988230E-01  0.40352627685E-01  0.12974559929E-01  0.58150250098E-01  0.51100000000E-03 0. -1.
</event>
<event>
 8    1  0.1092993E+005  0.1043930E+01  0.7957747E-01            NaN
         13   -1    0    0    0    0  0.00000000000E+00  0.00000000000E+00  0.74505805969E-08  0.10566000000E+00  0.10566000000E+00 0.  1.
     999900   -1    0    0    0    0 -0.00000000000E+00 -0.00000000000E+00 -0.74505805969E-08  0.93827000000E+00  0.93827000000E+00 0. -1.
     999902    2    1    2    0    0 -0.87043869022E-02  0.21142022077E-01  0.90406311331E-02  0.10193437343E+01  0.10190471845E+01 0.  0.
     999903    2    3    3    0    0  0.12317707396E+00  0.77710799657E-02 -0.29775207618E-01  0.12856981735E+00  0.20264592590E-01 0.  0.
         14    1    1    2    0    0  0.87043869022E-02 -0.21142022077E-01 -0.90406311331E-02  0.24586265681E-01  0.00000000000E+00 0. -1.
     999901    1    3    3    0    0 -0.13188146086E+00  0.13370942112E-01  0.38815838751E-01  0.89077391697E+00  0.88000000000E+00 0.  1.
        -11    1    4    4    0    0  0.51525913443E-01  0.12123789495E-01 -0.17427937827E-01  0.55730603494E-01  0.51100000000E-03 0.  1.
         11    1    4    4    0    0  0.71651160513E-01 -0.43527095293E-02 -0.12347269791E-01  0.72839213858E-01  0.51100000000E-03 0. -1.
</event>
<event>
 8    1  0.1092993E+005  0.1043930E+01  0.7957747E-01            NaN
         13   -1    0    0    0    0  0.00000000000E+00  0.00000000000E+00  0.74505805969E-08  0.10566000000E+00  0.10566000000E+00 0. -1.
     999900   -1    0    0    0    0 -0.00000000000E+00 -0.00000000000E+00 -0.74505805969E-08  0.93827000000E+00  0.93827000000E+00 0. -1.
     999902    2    1    2    0    0 -0.15348992158E-01 -0.12512661660E-01 -0.12819915206E-01  0.10203395679E+01  0.10200668239E+01 0.  0.
     999903    2    3    3    0    0  0.67832397939E-01 -0.87191177232E-01  0.65073824658E-01  0.12985461064E+00  0.20593242864E-01 0.  0.
         14    1    1    2    0    0  0.15348992158E-01  0.12512661660E-01  0.12819915206E-01  0.23590432128E-01  0.00000000000E+00 0. -1.
     999901    1    3    3    0    0 -0.83181390097E-01  0.74678515571E-01 -0.77893739864E-01  0.89048495723E+00  0.88000000000E+00 0. -1.
        -11    1    4    4    0    0  0.43500899654E-01 -0.70373033060E-01  0.46116598022E-01  0.94719025475E-01  0.51100000000E-03 0. -1.
         11    1    4    4    0    0  0.24331498285E-01 -0.16818144172E-01  0.18957226636E-01  0.35135585165E-01  0.51100000000E-03 0.  1.
</event>
<event>
 8    1  0.1092993E+005  0.1043930E+01  0.7957747E-01            NaN
         13   -1    0    0    0    0  0.00000000000E+00  0.00000000000E+00  0.74505805969E-08  0.10566000000E+00  0.10566000000E+00 0. -1.
     999900   -1    0    0    0    0 -0.00000000000E+00 -0.00000000000E+00 -0.74505805969E-08  0.93827000000E+00  0.93827000000E+00 0. -1.
     999902    2    1    2    0    0 -0.13387886718E-01  0.19708482487E-01 -0.27440927497E-02  0.10199468843E+01  0.10196648748E+01 0.  0.
     999903    2    3    3    0    0  0.11309122255E+00 -0.36514597722E-02  0.58267860593E-01  0.12850697584E+00  0.17774742873E-01 0.  0.
         14    1    1    2    0    0  0.13387886718E-01 -0.19708482487E-01  0.27440927497E-02  0.23983115681E-01  0.00000000000E+00 0. -1.
     999901    1    3    3    0    0 -0.12647910927E+00  0.23359942260E-01 -0.61011953343E-01  0.89143990848E+00  0.88000000000E+00 0. -1.
        -11    1    4    4    0    0  0.28283483422E-01  0.49629184015E-02  0.92500020356E-02  0.30172995413E-01  0.51100000000E-03 0.  1.
         11    1    4    4    0    0  0.84807739128E-01 -0.86143781738E-02  0.49017858558E-01  0.98333980424E-01  0.51100000000E-03 0. -1.
</event>
<event>
 8    1  0.1092993E+005  0.1043930E+01  0.7957747E-01            NaN
         13   -1    0    0    0    0  0.00000000000E+00  0.00000000000E+00  0.74505805969E-08  0.10566000000E+00  0.10566000000E+00 0. -1.
     999900   -1    0    0    0    0 -0.00000000000E+00 -0.00000000000E+00 -0.74505805969E-08  0.93827000000E+00  0.93827000000E+00 0. -1.
     999902    2    1    2    0    0 -0.17470649520E-01  0.14830456868E-01  0.56624150354E-02  0.10203243018E+01  0.10200512006E+01 0.  0.
     999903    2    3    3    0    0 -0.75127811643E-01 -0.81526598107E-01 -0.65134391260E-01  0.13036856231E+00  0.21510435448E-01 0.  0.
         14    1    1    2    0    0  0.17470649520E-01 -0.14830456868E-01 -0.56624150354E-02  0.23605698245E-01  0.00000000000E+00 0. -1.
     999901    1    3    3    0    0  0.57657162122E-01  0.96357054975E-01  0.70796806296E-01  0.88995573944E+00  0.88000000000E+00 0.  1.
        -11    1    4    4    0    0 -0.23950279469E-01 -0.19422259116E-01 -0.28326289742E-01  0.41874572802E-01  0.51100000000E-03 0. -1.
         11    1    4    4    0    0 -0.51177532173E-01 -0.62104338991E-01 -0.36808101519E-01  0.88493989509E-01  0.51100000000E-03 0.  1.
</event>
<event>
 8    1  0.1092993E+005  0.1043930E+01  0.7957747E-01            NaN
         13   -1    0    0    0    0  0.00000000000E+00  0.00000000000E+00  0.74505805969E-08  0.10566000000E+00  0.10566000000E+00 0.  1.
     999900   -1    0    0    0    0 -0.00000000000E+00 -0.00000000000E+00 -0.74505805969E-08  0.93827000000E+00  0.93827000000E+00 0.  1.
     999902    2    1    2    0    0  0.19733766561E-01 -0.13505184629E-01 -0.42533235614E-02  0.10196420953E+01  0.10193527849E+01 0.  0.
     999903    2    3    3    0    0 -0.46168299246E-01 -0.33135224099E-01  0.11418427696E+00  0.12904909848E+00  0.19651101321E-01 0.  0.
         14    1    1    2    0    0 -0.19733766561E-01  0.13505184629E-01  0.42533235614E-02  0.24287904723E-01  0.00000000000E+00 0. -1.
     999901    1    3    3    0    0  0.65902065807E-01  0.19630039470E-01 -0.11843760052E+00  0.89059299680E+00  0.88000000000E+00 0.  1.
        -11    1    4    4    0    0 -0.50226551858E-02 -0.98575834446E-02  0.36173069281E-01  0.37830557472E-01  0.51100000000E-03 0.  1.
         11    1    4    4    0    0 -0.41145644060E-01 -0.23277640654E-01  0.78011207675E-01  0.91218541007E-01  0.51100000000E-03 0. -1.
</event>
<event>
 8    1  0.1092993E+005  0.1043930E+01  0.7957747E-01            NaN
         13   -1    0    0    0    0  0.00000000000E+00  0.00000000000E+00  0.74505805969E-08  0.10566000000E+00  0.10566000000E+00 0.  1.
     999900   -1    0    0    0    0 -0.00000000000E+00 -0.00000000000E+00 -0.74505805969E-08  0.93827000000E+00  0.93827000000E+00 0. -1.
     999902    2    1    2    0    0  0.15891663996E-01 -0.62269499924E-02 -0.16743002823E-01  0.10200208379E+01  0.10197405855E+01 0.  0.
     999903    2    3    3    0    0 -0.68499447073E-01  0.53587322654E-01  0.91971649609E-01  0.12731792956E+00  0.13685593013E-01 0.  0.
         14    1    1    2    0    0 -0.15891663996E-01  0.62269499924E-02  0.16743002823E-01  0.23909162141E-01  0.00000000000E+00 0. -1.
     999901    1    3    3    0    0  0.84391111068E-01 -0.59814272647E-01 -0.10871465243E+00  0.89270290830E+00  0.88000000000E+00 0. -1.
        -11    1    4    4    0    0 -0.21353747359E-01  0.91062014130E-02  0.24010271534E-01  0.33401492340E-01  0.51100000000E-03 0. -1.
         11    1    4    4    0    0 -0.47145699714E-01  0.44481121241E-01  0.67961378075E-01  0.93916437215E-01  0.51100000000E-03 0.  1.
</event>
<event>
 8    1  0.1092993E+005  0.1043930E+01  0.7957747E-01            NaN
         13   -1    0    0    0    0  0.00000000000E+00  0.00000000000E+00  0.74505805969E-08  0.10566000000E+00  0.10566000000E+00 0.  1.
     999900   -1    0    0    0    0 -0.00000000000E+00 -0.00000000000E+00 -0.74505805969E-08  0.93827000000E+00  0.93827000000E+00 0.  1.
     999902    2    1    2    0    0  0.19550590288E-01  0.11808582472E-01 -0.76837213173E-02  0.10198321210E+01  0.10195473737E+01 0.  0.
     999903    2    3    3    0    0  0.29674610583E-01  0.66788664235E-01 -0.10855382740E+00  0.13230742639E+00  0.19493933712E-01 0.  0.
         14    1    1    2    0    0 -0.19550590288E-01 -0.11808582472E-01  0.76837213173E-02  0.24097879033E-01  0.00000000000E+00 0.  1.
     999901    1    3    3    0    0 -0.10124020296E-01 -0.54980081763E-01  0.10087010608E+00  0.88752469457E+00  0.88000000000E+00 0. -1.
        -11    1    4    4    0    0  0.43766567771E-02  0.49379404924E-02 -0.21903378551E-01  0.22881378756E-01  0.51100000000E-03 0. -1.
         11    1    4    4    0    0  0.25297953806E-01  0.61850723743E-01 -0.86650448851E-01  0.10942604764E+00  0.51100000000E-03 0.  1.
</event>
<event>
 8    1  0.1092993E+005  0.1043930E+01  0.7957747E-01            NaN
         13   -1    0    0    0    0  0.00000000000E+00  0.00000000000E+00  0.74505805969E-08  0.10566000000E+00  0.10566000000E+00 0.  1.
     999900   -1    0    0    0    0 -0.00000000000E+00 -0.00000000000E+00 -0.74505805969E-08  0.93827000000E+00  0.93827000000E+00 0.  1.
     999902    2    1    2    0    0  0.12037128840E-01  0.29231283397E-02 -0.20392806642E-01  0.10200699138E+01  0.10197908243E+01 0.  0.
     999903    2    3    3    0    0 -0.95410072311E-01 -0.83602244166E-01 -0.13772960258E-01  0.12929757282E+00  0.20874644285E-01 0.  0.
         14    1    1    2    0    0 -0.12037128840E-01 -0.29231283397E-02  0.20392806642E-01  0.23860086185E-01  0.00000000000E+00 0. -1.
     999901    1    3    3    0    0  0.10744720115E+00  0.86525372505E-01 -0.66198463842E-02  0.89077234100E+00  0.88000000000E+00 0. -1.
        -11    1    4    4    0    0 -0.37117664969E-01 -0.29807469865E-01 -0.15158432349E-01  0.49962440941E-01  0.51100000000E-03 0. -1.
         11    1    4    4    0    0 -0.58292407341E-01 -0.53794774301E-01  0.13854720908E-02  0.79335131875E-01  0.51100000000E-03 0.  1.
</event>
<event>
 8    1  0.1092993E+005  0.1043930E+01  0.7957747E-01            NaN
         13   -1    0    0    0    0  0.00000000000E+00  0.00000000000E+00  0.74505805969E-08  0.10566000000E+00  0.10566000000E+00 0. -1.
     999900   -1    0    0    0    0 -0.00000000000E+00 -0.00000000000E+00 -0.74505805969E-08  0.93827000000E+00  0.93827000000E+00 0. -1.
     999902    2    1    2    0    0 -0.22400808838E-01 -0.55526613211E-02 -0.12941561550E-02  0.10208150022E+01  0.10205532644E+01 0.  0.
     999903    2    3    3    0    0 -0.11016467571E+00 -0.70563689785E-01 -0.19738433826E-01  0.13387130524E+00  0.20406629011E-01 0.  0.
         14    1    1    2    0    0  0.22400808838E-01  0.55526613211E-02  0.12941561550E-02  0.23114997826E-01  0.00000000000E+00 0. -1.
     999901    1    3    3    0    0  0.87763866868E-01  0.65011028463E-01  0.18444277671E-01  0.88694369693E+00  0.88000000000E+00 0. -1.
        -11    1    4    4    0    0 -0.90264376855E-01 -0.51703962519E-01 -0.89717166535E-02  0.10441125557E+00  0.51100000000E-03 0. -1.
         11    1    4    4    0    0 -0.19900298851E-01 -0.18859727266E-01 -0.10766717172E-01  0.29460049670E-01  0.51100000000E-03 0.  1.
</event>
<event>
 8    1  0.1092993E+005  0.1043930E+01  0.7957747E-01            NaN
         13   -1    0    0    0    0  0.00000000000E+00  0.00000000000E+00  0.74505805969E-08  0.10566000000E+00  0.10566000000E+00 0.  1.
     999900   -1    0    0    0    0 -0.00000000000E+00 -0.00000000000E+00 -0.74505805969E-08  0.93827000000E+00  0.93827000000E+00 0. -1.
     999902    2    1    2    0    0 -0.15516312819E-01  0.24361025202E-03 -0.19924786417E-01  0.10186750515E+01  0.10183619436E+01 0.  0.
     999903    2    3    3    0    0  0.11404045021E+00 -0.29018504593E-01  0.42481868640E-01  0.12652270084E+00  0.18867611691E-01 0.  0.
         14    1    1    2    0    0  0.15516312819E-01 -0.24361025202E-03  0.19924786417E-01  0.25254948489E-01  0.00000000000E+00 0.  1.
     999901    1    3    3    0    0 -0.12955676303E+00  0.29262114845E-01 -0.62406655056E-01  0.89215235067E+00  0.88000000000E+00 0.  1.
        -11    1    4    4    0    0  0.11227314084E+00 -0.27313082846E-01  0.38457607457E-01  0.12178058688E+00  0.51100000000E-03 0. -1.
         11    1    4    4    0    0  0.17673093781E-02 -0.17054217471E-02  0.40242611832E-02  0.47421139636E-02  0.51100000000E-03 0.  1.
</event>
<event>
 8    1  0.1092993E+005  0.1043930E+01  0.7957747E-01            NaN
         13   -1    0    0    0    0  0.00000000000E+00  0.00000000000E+00  0.74505805969E-08  0.10566000000E+00  0.10566000000E+00 0.  1.
     999900   -1    0    0    0    0 -0.00000000000E+00 -0.00000000000E+00 -0.74505805969E-08  0.93827000000E+00  0.93827000000E+00 0. -1.
     999902    2    1    2    0    0  0.49599674401E-02 -0.17809315117E-01  0.16171223659E-01  0.10193682115E+01  0.10190722590E+01 0.  0.
     999903    2    3    3    0    0  0.31334481997E-02 -0.99737146115E-01  0.85590891956E-01  0.13283868797E+00  0.19052543736E-01 0.  0.
         14    1    1    2    0    0 -0.49599674401E-02  0.17809315117E-01 -0.16171223659E-01  0.24561788546E-01  0.00000000000E+00 0. -1.
     999901    1    3    3    0    0  0.18265192404E-02  0.81927830998E-01 -0.69419668297E-01  0.88652952349E+00  0.88000000000E+00 0. -1.
        -11    1    4    4    0    0  0.10136060454E-01 -0.79834696055E-01  0.68443682948E-01  0.10564618910E+00  0.51100000000E-03 0.  1.
         11    1    4    4    0    0 -0.70026122542E-02 -0.19902450059E-01  0.17147209008E-01  0.27192498865E-01  0.51100000000E-03 0. -1.
</event>
<event>
 8    1  0.1092993E+005  0.1043930E+01  0.7957747E-01            NaN
         13   -1    0    0    0    0  0.00000000000E+00  0.00000000000E+00  0.74505805969E-08  0.10566000000E+00  0.10566000000E+00 0. -1.
     999900   -1    0    0    0    0 -0.00000000000E+00 -0.00000000000E+00 -0.74505805969E-08  0.93827000000E+00  0.93827000000E+00 0.  1.
     999902    2    1    2    0    0  0.21469290819E-01 -0.67309924897E-02 -0.18256339626E-02  0.10213563506E+01  0.10211068628E+01 0.  0.
     999903    2    3    3    0    0 -0.86243258754E-02  0.48154273253E-01 -0.12012255438E+00  0.13123715659E+00  0.20013749512E-01 0.  0.
         14    1    1    2    0    0 -0.21469290819E-01  0.67309924897E-02  0.18256339626E-02  0.22573649407E-01  0.00000000000E+00 0.  1.
     999901    1    3    3    0    0  0.30093616694E-01 -0.54885265743E-01  0.11829692041E+00  0.89011919401E+00  0.88000000000E+00 0. -1.
        -11    1    4    4    0    0  0.17947700555E-02  0.21484055636E-01 -0.32083098894E-01  0.38657110624E-01  0.51100000000E-03 0.  1.
         11    1    4    4    0    0 -0.10419095931E-01  0.26670217617E-01 -0.88039455482E-01  0.92580045962E-01  0.51100000000E-03 0. -1.
</event>
<event>
 8    1  0.1092993E+005  0.1043930E+01  0.7957747E-01            NaN
         13   -1    0    0    0    0  0.00000000000E+00  0.00000000000E+00  0.74505805969E-08  0.10566000000E+00  0.10566000000E+00 0. -1.
     999900   -1    0    0    0    0 -0.00000000000E+00 -0.00000000000E+00 -0.74505805969E-08  0.93827000000E+00  0.93827000000E+00 0. -1.
     999902    2    1    2    0    0 -0.12213674164E-02 -0.23030546934E-01  0.55695785425E-02  0.10202041062E+01  0.10199281839E+01 0.  0.
     999903    2    3    3    0    0 -0.11615051567E+00 -0.53281765059E-01 -0.25057001200E-01  0.13168745882E+00  0.19591955576E-01 0.  0.
         14    1    1    2    0    0  0.12213674164E-02  0.23030546934E-01 -0.55695785425E-02  0.23725893779E-01  0.00000000000E+00 0. -1.
     999901    1    3    3    0    0  0.11492914826E+00  0.30251218125E-01  0.30626579743E-01  0.88851664740E+00  0.88000000000E+00 0. -1.
        -11    1    4    4    0    0 -0.96899394363E-01 -0.36083774106E-01 -0.21663118638E-01  0.10564602790E+00  0.51100000000E-03 0.  1.
         11    1    4    4    0    0 -0.19251121310E-01 -0.17197990953E-01 -0.33938825621E-02  0.26041430919E-01  0.51100000000E-03 0. -1.
</event>
<event>
 8    1  0.1092993E+005  0.1043930E+01  0.7957747E-01            NaN
         13   -1    0    0    0    0  0.00000000000E+00  0.00000000000E+00  0.74505805969E-08  0.10566000000E+00  0.10566000000E+00 0. -1.
     999900   -1    0    0    0    0 -0.00000000000E+00 -0.00000000000E+00 -0.74505805969E-08  0.93827000000E+00  0.93827000000E+00 0.  1.
     999902    2    1    2    0    0  0.14721751818E-01  0.18060787224E-01  0.10445148743E-01  0.10183952561E+01  0.10180750830E+01 0.  0.
     999903    2    3    3    0    0  0.20793003648E-01  0.18664469598E-01  0.12613211076E+00  0.13080261438E+00  0.20476892765E-01 0.  0.
         14    1    1    2    0    0 -0.14721751818E-01 -0.18060787224E-01 -0.10445148743E-01  0.25534743860E-01  0.00000000000E+00 0. -1.
     999901    1    3    3    0    0 -0.60712518302E-02 -0.60368237356E-03 -0.11568696202E+00  0.88759264176E+00  0.88000000000E+00 0.  1.
        -11    1    4    4    0    0  0.13937167830E-01  0.15978920774E-01  0.49983732836E-01  0.54297377703E-01  0.51100000000E-03 0.  1.
         11    1    4    4    0    0  0.68558358177E-02  0.26855488242E-02  0.76148377923E-01  0.76505236674E-01  0.51100000000E-03 0. -1.
</event>
<event>
 8    1  0.1092993E+005  0.1043930E+01  0.7957747E-01            NaN
         13   -1    0    0    0    0  0.00000000000E+00  0.00000000000E+00  0.74505805969E-08  0.10566000000E+00  0.10566000000E+00 0. -1.
     999900   -1    0    0    0    0 -0.00000000000E+00 -0.00000000000E+00 -0.74505805969E-08  0.93827000000E+00  0.93827000000E+00 0. -1.
     999902    2    1    2    0    0 -0.19213279916E-02  0.28380487066E-02  0.21812137787E-01  0.10218502496E+01  0.10216116764E+01 0.  0.
     999903    2    3    3    0    0 -0.10070981315E+00 -0.76739796813E-01 -0.28713048992E-01  0.13131973763E+00  0.19722358592E-01 0.  0.
         14    1    1    2    0    0  0.19213279916E-02 -0.28380487066E-02 -0.21812137787E-01  0.22079750373E-01  0.00000000000E+00 0.  1.
     999901    1    3    3    0    0  0.98788485162E-01  0.79577845520E-01  0.50525186779E-01  0.89053051200E+00  0.88000000000E+00 0.  1.
        -11    1    4    4    0    0 -0.32247668109E-01 -0.36071710077E-01 -0.80693773397E-02  0.49055645323E-01  0.51100000000E-03 0. -1.
         11    1    4    4    0    0 -0.68462145044E-01 -0.40668086736E-01 -0.20643671652E-01  0.82264092307E-01  0.51100000000E-03 0.  1.
</event>
<event>
 8    1  0.1092993E+005  0.1043930E+01  0.7957747E-01            NaN
         13   -1    0    0    0    0  0.00000000000E+00  0.00000000000E+00  0.74505805969E-08  0.10566000000E+00  0.10566000000E+00 0. -1.
     999900   -1    0    0    0    0 -0.00000000000E+00 -0.00000000000E+00 -0.74505805969E-08  0.93827000000E+00  0.93827000000E+00 0.  1.
     999902    2    1    2    0    0  0.16588381202E-01  0.20128866611E-01  0.65053209326E-03  0.10178384524E+01  0.10175039786E+01 0.  0.
     999903    2    3    3    0    0 -0.73500811896E-01  0.13741851482E-02 -0.10183439674E+00  0.12712471536E+00  0.19651747017E-01 0.  0.
         14    1    1    2    0    0 -0.16588381202E-01 -0.20128866611E-01 -0.65053209326E-03  0.26091547558E-01  0.00000000000E+00 0. -1.
     999901    1    3    3    0    0  0.90089193098E-01  0.18754681463E-01  0.10248492884E+00  0.89071373708E+00  0.88000000000E+00 0. -1.
        -11    1    4    4    0    0 -0.21462958005E-01 -0.67826062298E-02 -0.39945591923E-01  0.45853830251E-01  0.51100000000E-03 0. -1.
         11    1    4    4    0    0 -0.52037853891E-01  0.81567913780E-02 -0.61888804821E-01  0.81270885109E-01  0.51100000000E-03 0.  1.
</event>
<event>
 8    1  0.1092993E+005  0.1043930E+01  0.7957747E-01            NaN
         13   -1    0    0    0    0  0.00000000000E+00  0.00000000000E+00  0.74505805969E-08  0.10566000000E+00  0.10566000000E+00 0.  1.
     999900   -1    0    0    0    0 -0.00000000000E+00 -0.00000000000E+00 -0.74505805969E-08  0.93827000000E+00  0.93827000000E+00 0. -1.
     999902    2    1    2    0    0  0.96266918148E-02 -0.22363152734E-01 -0.14298488576E-02  0.10195408987E+01  0.10192491432E+01 0.  0.
     999903    2    3    3    0    0  0.12809973678E+00 -0.10545773442E-02 -0.19864436235E-01  0.13115486109E+00  0.19908467144E-01 0.  0.
         14    1    1    2    0    0 -0.96266918148E-02  0.22363152734E-01  0.14298488576E-02  0.24389101321E-01  0.00000000000E+00 0.  1.
     999901    1    3    3    0    0 -0.11847304497E+00 -0.21308575390E-01  0.18434587377E-01  0.88838603759E+00  0.88000000000E+00 0.  1.
        -11    1    4    4    0    0  0.96673454376E-01  0.36107382410E-02 -0.74070944486E-02  0.97025359473E-01  0.51100000000E-03 0. -1.
         11    1    4    4    0    0  0.31426282406E-01 -0.46653155852E-02 -0.12457341786E-01  0.34129501619E-01  0.51100000000E-03 0.  1.
</event>
<event>
 8    1  0.1092993E+005  0.1043930E+01  0.7957747E-01            NaN
         13   -1    0    0    0    0  0.00000000000E+00  0.00000000000E+00  0.74505805969E-08  0.10566000000E+00  0.10566000000E+00 0.  1.
     999900   -1    0    0    0    0 -0.00000000000E+00 -0.00000000000E+00 -0.74505805969E-08  0.93827000000E+00  0.93827000000E+00 0.  1.
     999902    2    1    2    0    0 -0.79690035535E-02  0.22396189781E-01 -0.33501082212E-02  0.10199233851E+01  0.10196408161E+01 0.  0.
     999903    2    3    3    0    0  0.10748111818E+00  0.50541525360E-01 -0.50331330434E-01  0.13069443495E+00  0.21003712827E-01 0.  0.
         14    1    1    2    0    0  0.79690035535E-02 -0.22396189781E-01  0.33501082212E-02  0.24006614910E-01  0.00000000000E+00 0. -1.
     999901    1    3    3    0    0 -0.11545012174E+00 -0.28145335580E-01  0.46981222213E-01  0.88922895014E+00  0.88000000000E+00 0.  1.
        -11    1    4    4    0    0  0.66231899243E-01  0.42028062377E-01 -0.30952946234E-01  0.84328930422E-01  0.51100000000E-03 0. -1.
         11    1    4    4    0    0  0.41249218940E-01  0.85134629831E-02 -0.19378384200E-01  0.46365504530E-01  0.51100000000E-03 0.  1.
</event>
<event>
 8    1  0.1092993E+005  0.1043930E+01  0.7957747E-01            NaN
         13   -1    0    0    0    0  0.00000000000E+00  0.00000000000E+00  0.74505805969E-08  0.10566000000E+00  0.10566000000E+00 0.  1.
     999900   -1    0    0    0    0 -0.00000000000E+00 -0.00000000000E+00 -0.74505805969E-08  0.93827000000E+00  0.93827000000E+00 0.  1.
     999902    2    1    2    0    0  0.34526401558E-02 -0.17099857212E-01  0.16949368224E-01  0.10196070289E+01  0.10193168724E+01 0.  0.
     999903    2    3    3    0    0  0.85143331162E-02  0.49288967906E-01  0.11960098518E+00  0.13114180655E+00  0.19795998185E-01 0.  0.
         14    1    1    2    0    0 -0.34526401558E-02  0.17099857212E-01 -0.16949368224E-01  0.24322971116E-01  0.00000000000E+00 0. -1.
     999901    1    3    3    0    0 -0.50616929605E-02 -0.66388825118E-01 -0.10265161695E+00  0.88846522234E+00  0.88000000000E+00 0. -1.
        -11    1    4    4    0    0  0.42020977487E-03  0.30123487285E-01  0.48862550932E-01  0.57405671035E-01  0.51100000000E-03 0. -1.
         11    1    4    4    0    0  0.80941233414E-02  0.19165480621E-01  0.70738434244E-01  0.73736135513E-01  0.51100000000E-03 0.  1.
</event>
<event>
 8    1  0.1092993E+005  0.1043930E+01  0.7957747E-01            NaN
         13   -1    0    0    0    0  0.00000000000E+00  0.00000000000E+00  0.74505805969E-08  0.10566000000E+00  0.10566000000E+00 0.  1.
     999900   -1    0    0    0    0 -0.00000000000E+00 -0.00000000000E+00 -0.74505805969E-08  0.93827000000E+00  0.93827000000E+00 0.  1.
     999902    2    1    2    0    0  0.10884882568E-03 -0.14205996231E-01  0.19133597696E-01  0.10200989963E+01  0.10198205948E+01 0.  0.
     999903    2    3    3    0    0  0.43242594126E-02 -0.60095365861E-01  0.11742714769E+00  0.13342812956E+00  0.19590266134E-01 0.  0.
         14    1    1    2    0    0 -0.10884882568E-03  0.14205996231E-01 -0.19133597696E-01  0.23831003709E-01  0.00000000000E+00 0. -1.
     999901    1    3    3    0    0 -0.42154105869E-02  0.45889369630E-01 -0.98293549992E-01  0.88667086673E+00  0.88000000000E+00 0. -1.
        -11    1    4    4    0    0 -0.18654569031E-02 -0.15382908789E-01  0.15361875441E-01  0.21825722218E-01  0.51100000000E-03 0.  1.
         11    1    4    4    0    0  0.61897163157E-02 -0.44712457073E-01  0.10206527225E+00  0.11160240735E+00  0.51100000000E-03 0. -1.
</event>
<event>
 8    1  0.1092993E+005  0.1043930E+01  0.7957747E-01            NaN
         13   -1    0    0    0    0  0.00000000000E+00  0.00000000000E+00  0.74505805969E-08  0.10566000000E+00  0.10566000000E+00 0.  1.
     999900   -1    0    0    0    0 -0.00000000000E+00 -0.00000000000E+00 -0.74505805969E-08  0.93827000000E+00  0.93827000000E+00 0.  1.
     999902    2    1    2    0    0 -0.15152409629E-01 -0.88936169036E-02 -0.17248976558E-01  0.10193084823E+01  0.10190110711E+01 0.  0.
     999903    2    3    3    0    0  0.36299758859E-01  0.68919354343E-01  0.98114393050E-01  0.12688991957E+00  0.20175918061E-01 0.  0.
         14    1    1    2    0    0  0.15152409629E-01  0.88936169036E-02  0.17248976558E-01  0.24621517652E-01  0.00000000000E+00 0. -1.
     999901    1    3    3    0    0 -0.51452168488E-01 -0.77812971247E-01 -0.11536336961E+00  0.89241856277E+00  0.88000000000E+00 0. -1.
        -11    1    4    4    0    0  0.25434162060E-01  0.62638188462E-01  0.86466832845E-01  0.10975979937E+00  0.51100000000E-03 0.  1.
         11    1    4    4    0    0  0.10865596799E-01  0.62811658818E-02  0.11647560205E-01  0.17130120209E-01  0.51100000000E-03 0. -1.
</event>
<event>
 8    1  0.1092993E+005  0.1043930E+01  0.7957747E-01            NaN
         13   -1    0    0    0    0  0.00000000000E+00  0.00000000000E+00  0.74505805969E-08  0.10566000000E+00  0.10566000000E+00 0.  1.
     999900   -1    0    0    0    0 -0.00000000000E+00 -0.00000000000E+00 -0.74505805969E-08  0.93827000000E+00  0.93827000000E+00 0. -1.
     999902    2    1    2    0    0  0.23182502054E-02  0.63497743422E-02  0.21070098833E-01  0.10218021220E+01  0.10215624962E+01 0.  0.
     999903    2    3    3    0    0  0.72087237830E-01  0.29457929563E-01 -0.10208436065E+00  0.13019193852E+00  0.21549586856E-01 0.  0.
         14    1    1    2    0    0 -0.23182502054E-02 -0.63497743422E-02 -0.21070098833E-01  0.22127877960E-01  0.00000000000E+00 0. -1.
     999901    1    3    3    0    0 -0.69768987624E-01 -0.23108155221E-01  0.12315445948E+00  0.89161018352E+00  0.88000000000E+00 0.  1.
        -11    1    4    4    0    0  0.11323741747E-01  0.12121714861E-01 -0.13577269384E-01  0.21442165544E-01  0.51100000000E-03 0.  1.
         11    1    4    4    0    0  0.60763496083E-01  0.17336214703E-01 -0.88507091265E-01  0.10874977297E+00  0.51100000000E-03 0. -1.
</event>
<event>
 8    1  0.1092993E+005  0.1043930E+01  0.7957747E-01            NaN
         13   -1    0    0    0    0  0.00000000000E+00  0.00000000000E+00  0.74505805969E-08  0.10566000000E+00  0.10566000000E+00 0. -1.
     999900   -1    0    0    0    0 -0.00000000000E+00 -0.00000000000E+00 -0.74505805969E-08  0.93827000000E+00  0.93827000000E+00 0.  1.
     999902    2    1    2    0    0 -0.74543264284E-02  0.51748719830E-03  0.23109841052E-01  0.10196421526E+01  0.10193528437E+01 0.  0.
     999903    2    3    3    0    0 -0.30046831990E-02  0.57584581180E-01  0.11745632783E+00  0.13274998778E+00  0.22395495006E-01 0.  0.
         14    1    1    2    0    0  0.74543264284E-02 -0.51748719830E-03 -0.23109841052E-01  0.24287847352E-01  0.00000000000E+00 0.  1.
     999901    1    3    3    0    0 -0.44496432294E-02 -0.57067093982E-01 -0.94346486779E-01  0.88689216487E+00  0.88000000000E+00 0.  1.
        -11    1    4    4    0    0 -0.62594584081E-02  0.26781738696E-01  0.34030389265E-01  0.43758094813E-01  0.51100000000E-03 0.  1.
         11    1    4    4    0    0  0.32547752091E-02  0.30802842484E-01  0.83425938567E-01  0.88991892965E-01  0.51100000000E-03 0. -1.
</event>
<event>
 8    1  0.1092993E+005  0.1043930E+01  0.7957747E-01            NaN
         13   -1    0    0    0    0  0.00000000000E+00  0.00000000000E+00  0.74505805969E-08  0.10566000000E+00  0.10566000000E+00 0. -1.
     999900   -1    0    0    0    0 -0.00000000000E+00 -0.00000000000E+00 -0.74505805969E-08  0.93827000000E+00  0.93827000000E+00 0.  1.
     999902    2    1    2    0    0  0.11986248285E-01  0.12954130794E-01 -0.16190261011E-01  0.10199799644E+01  0.10196987416E+01 0.  0.
     999903    2    3    3    0    0  0.12977720844E+00  0.12831683401E-01  0.24145002979E-02  0.13193668708E+00  0.19866646833E-01 0.  0.
         14    1    1    2    0    0 -0.11986248285E-01 -0.12954130794E-01  0.16190261011E-01  0.23950035578E-01  0.00000000000E+00 0. -1.
     999901    1    3    3    0    0 -0.11779096016E+00  0.12244739242E-03 -0.18604761309E-01  0.88804327734E+00  0.88000000000E+00 0.  1.
        -11    1    4    4    0    0  0.36491605165E-01 -0.52711374439E-03 -0.72219775816E-02  0.37206628141E-01  0.51100000000E-03 0.  1.
         11    1    4    4    0    0  0.93285603276E-01  0.13358797146E-01  0.96364778796E-02  0.94730058939E-01  0.51100000000E-03 0. -1.
</event>
<event>
 8    1  0.1092993E+005  0.1043930E+01  0.7957747E-01            NaN
         13   -1    0    0    0    0  0.00000000000E+00  0.00000000000E+00  0.74505805969E-08  0.10566000000E+00  0.10566000000E+00 0.  1.
     999900   -1    0    0    0    0 -0.00000000000E+00 -0.00000000000E+00 -0.74505805969E-08  0.93827000000E+00  0.93827000000E+00 0. -1.
     999902    2    1    2    0    0 -0.75734667685E-02  0.55141823971E-02  0.21919707998E-01  0.10200922735E+01  0.10198137130E+01 0.  0.
     999903    2    3    3    0    0 -0.12868851193E+00 -0.45341266064E-02 -0.14105172547E-01  0.13100981686E+00  0.19578682585E-01 0.  0.
         14    1    1    2    0    0  0.75734667685E-02 -0.55141823971E-02 -0.21919707998E-01  0.23837726509E-01  0.00000000000E+00 0. -1.
     999901    1    3    3    0    0  0.12111504517E+00  0.10048309004E-01  0.36024880545E-01  0.88908245664E+00  0.88000000000E+00 0. -1.
        -11    1    4    4    0    0 -0.44503127309E-01 -0.89546459923E-02  0.77059716511E-03  0.45404503809E-01  0.51100000000E-03 0. -1.
         11    1    4    4    0    0 -0.84185384625E-01  0.44205193858E-02 -0.14875769712E-01  0.85605313046E-01  0.51100000000E-03 0.  1.
</event>
<event>
 8    1  0.1092993E+005  0.1043930E+01  0.7957747E-01            NaN
         13   -1    0    0    0    0  0.00000000000E+00  0.00000000000E+00  0.74505805969E-08  0.10566000000E+00  0.10566000000E+00 0.  1.
     999900   -1    0    0    0    0 -0.00000000000E+00 -0.00000000000E+00 -0.74505805969E-08  0.93827000000E+00  0.93827000000E+00 0. -1.
     999902    2    1    2    0    0 -0.85555165258E-02 -0.39099883324E-02  0.21038987602E-01  0.10208838751E+01  0.10206237126E+01 0.  0.
     999903    2    3    3    0    0 -0.76283271371E-01  0.10480561923E+00  0.44600007006E-02  0.13145653414E+00  0.21390966547E-01 0.  0.
         14    1    1    2    0    0  0.85555165258E-02  0.39099883324E-02 -0.21038987602E-01  0.23046124861E-01  0.00000000000E+00 0. -1.
     999901    1    3    3    0    0  0.67727754845E-01 -0.10871560756E+00  0.16578986902E-01  0.88942734100E+00  0.88000000000E+00 0.  1.
        -11    1    4    4    0    0 -0.65028907270E-01  0.97646697670E-01 -0.19566555040E-03  0.11731980120E+00  0.51100000000E-03 0.  1.
         11    1    4    4    0    0 -0.11254364101E-01  0.71589215591E-02  0.46556662510E-02  0.14136732948E-01  0.51100000000E-03 0. -1.
</event>
<event>
 8    1  0.1092993E+005  0.1043930E+01  0.7957747E-01            NaN
         13   -1    0    0    0    0  0.00000000000E+00  0.00000000000E+00  0.74505805969E-08  0.10566000000E+00  0.10566000000E+00 0.  1.
     999900   -1    0    0    0    0 -0.00000000000E+00 -0.00000000000E+00 -0.74505805969E-08  0.93827000000E+00  0.93827000000E+00 0.  1.
     999902    2    1    2    0    0  0.39010470604E-02  0.46230034978E-02 -0.22562333900E-01  0.10205708639E+01  0.10203035034E+01 0.  0.
     999903    2    3    3    0    0 -0.10245054250E-01  0.83783039066E-01  0.95415007366E-01  0.12906367015E+00  0.20708658809E-01 0.  0.
         14    1    1    2    0    0 -0.39010470604E-02 -0.46230034978E-02  0.22562333900E-01  0.23359136125E-01  0.00000000000E+00 0.  1.
     999901    1    3    3    0    0  0.14146101311E-01 -0.79160035569E-01 -0.11797734127E+00  0.89150719373E+00  0.88000000000E+00 0.  1.
        -11    1    4    4    0    0 -0.82612010445E-02  0.51546226249E-01  0.43665633808E-01  0.68060337790E-01  0.51100000000E-03 0. -1.
         11    1    4    4    0    0 -0.19838532059E-02  0.32236812817E-01  0.51749373558E-01  0.61003332358E-01  0.51100000000E-03 0.  1.
</event>
<event>
 8    1  0.1092993E+005  0.1043930E+01  0.7957747E-01            NaN
         13   -1    0    0    0    0  0.00000000000E+00  0.00000000000E+00  0.74505805969E-08  0.10566000000E+00  0.10566000000E+00 0. -1.
     999900   -1    0    0    0    0 -0.00000000000E+00 -0.00000000000E+00 -0.74505805969E-08  0.93827000000E+00  0.93827000000E+00 0. -1.
     999902    2    1    2    0    0  0.79853976003E-02  0.20273903574E-01  0.69084098708E-03  0.10221291972E+01  0.10218966781E+01 0.  0.
     999903    2    3    3    0    0 -0.81178629360E-01 -0.98864281027E-01 -0.19321779020E-02  0.12963213225E+00  0.20895943929E-01 0.  0.
         14    1    1    2    0    0 -0.79853976003E-02 -0.20273903574E-01 -0.69084098708E-03  0.21800802789E-01  0.00000000000E+00 0. -1.
     999901    1    3    3    0    0  0.89164026961E-01  0.11913818460E+00  0.26230188891E-02  0.89249706496E+00  0.88000000000E+00 0. -1.
        -11    1    4    4    0    0 -0.20634936382E-01 -0.40209714234E-01 -0.33493339048E-02  0.45322189675E-01  0.51100000000E-03 0.  1.
         11    1    4    4    0    0 -0.60543692979E-01 -0.58654566793E-01  0.14171560028E-02  0.84309942577E-01  0.51100000000E-03 0. -1.
</event>
<event>
 8    1  0.1092993E+005  0.1043930E+01  0.7957747E-01            NaN
         13   -1    0    0    0    0  0.00000000000E+00  0.00000000000E+00  0.74505805969E-08  0.10566000000E+00  0.10566000000E+00 0. -1.
     999900   -1    0    0    0    0 -0.00000000000E+00 -0.00000000000E+00 -0.74505805969E-08  0.93827000000E+00  0.93827000000E+00 0. -1.
     999902    2    1    2    0    0 -0.82469982304E-03  0.22709379393E-01  0.42754955547E-02  0.10208069400E+01  0.10205450175E+01 0.  0.
     999903    2    3    3    0    0  0.87687013079E-01  0.76047787725E-01 -0.60235692624E-01  0.13241457029E+00  0.20808687603E-01 0.  0.
         14    1    1    2    0    0  0.82469982304E-03 -0.22709379393E-01 -0.42754955547E-02  0.23123060015E-01  0.00000000000E+00 0.  1.
     999901    1    3    3    0    0 -0.88511712902E-01 -0.53338408332E-01  0.64511188179E-01  0.88839236969E+00  0.88000000000E+00 0. -1.
        -11    1    4    4    0    0  0.26425069047E-01  0.25747854894E-01 -0.88389707663E-02  0.37942388314E-01  0.51100000000E-03 0.  1.
         11    1    4    4    0    0  0.61261944032E-01  0.50299932831E-01 -0.51396721858E-01  0.94472181981E-01  0.51100000000E-03 0. -1.
</event>
<event>
 8    1  0.1092993E+005  0.1043930E+01  0.7957747E-01            NaN
         13   -1    0    0    0    0  0.00000000000E+00  0.00000000000E+00  0.74505805969E-08  0.10566000000E+00  0.10566000000E+00 0. -1.
     999900   -1    0    0    0    0 -0.00000000000E+00 -0.00000000000E+00 -0.74505805969E-08  0.93827000000E+00  0.93827000000E+00 0.  1.
     999902    2    1    2    0    0 -0.21399694833E-01  0.81382798266E-02  0.53503186405E-02  0.10204182062E+01  0.10201472987E+01 0.  0.
     999903    2    3    3    0    0  0.12339120225E+00 -0.10754111622E-01 -0.24352697411E-01  0.12789168252E+00  0.20547235310E-01 0.  0.
         14    1    1    2    0    0  0.21399694833E-01 -0.81382798266E-02 -0.53503186405E-02  0.23511793786E-01  0.00000000000E+00 0.  1.
     999901    1    3    3    0    0 -0.14479089708E+00  0.18892391448E-01  0.29703016052E-01  0.89252652369E+00  0.88000000000E+00 0.  1.
        -11    1    4    4    0    0  0.10297046251E+00 -0.12815713836E-01 -0.26919057562E-01  0.10720100490E+00  0.51100000000E-03 0. -1.
         11    1    4    4    0    0  0.20420739736E-01  0.20616022141E-02  0.25663601507E-02  0.20690677623E-01  0.51100000000E-03 0.  1.
</event>
<event>
 8    1  0.1092993E+005  0.1043930E+01  0.7957747E-01            NaN
         13   -1    0    0    0    0  0.00000000000E+00  0.00000000000E+00  0.74505805969E-08  0.10566000000E+00  0.10566000000E+00 0. -1.
     999900   -1    0    0    0    0 -0.00000000000E+00 -0.00000000000E+00 -0.74505805969E-08  0.93827000000E+00  0.93827000000E+00 0.  1.
     999902    2    1    2    0    0  0.11718989787E-01 -0.17058212107E-01 -0.11353321190E-01  0.10203245933E+01  0.10200514990E+01 0.  0.
     999903    2    3    3    0    0 -0.45849316983E-02  0.12676296161E+00  0.24805773174E-02  0.12839313598E+00  0.19717354483E-01 0.  0.
         14    1    1    2    0    0 -0.11718989787E-01  0.17058212107E-01  0.11353321190E-01  0.23605406668E-01  0.00000000000E+00 0.  1.
     999901    1    3    3    0    0  0.16303921485E-01 -0.14382117372E+00 -0.13833898508E-01  0.89193145735E+00  0.88000000000E+00 0.  1.
        -11    1    4    4    0    0 -0.72554095941E-02  0.98087906868E-01  0.92916981747E-02  0.98795117380E-01  0.51100000000E-03 0. -1.
         11    1    4    4    0    0  0.26704778958E-02  0.28675054743E-01 -0.68111208574E-02  0.29598018600E-01  0.51100000000E-03 0.  1.
</event>
<event>
 8    1  0.1092993E+005  0.1043930E+01  0.7957747E-01            NaN
         13   -1    0    0    0    0  0.00000000000E+00  0.00000000000E+00  0.74505805969E-08  0.10566000000E+00  0.10566000000E+00 0.  1.
     999900   -1    0    0    0    0 -0.00000000000E+00 -0.00000000000E+00 -0.74505805969E-08  0.93827000000E+00  0.93827000000E+00 0. -1.
     999902    2    1    2    0    0 -0.62153096894E-02  0.16086307290E-01 -0.15486772048E-01  0.10207515733E+01  0.10204883806E+01 0.  0.
     999903    2    3    3    0    0  0.18883001411E-01 -0.12597728329E+00 -0.10311432590E-01  0.12898996100E+00  0.17471140505E-01 0.  0.
         14    1    1    2    0    0  0.62153096894E-02 -0.16086307290E-01  0.15486772048E-01  0.23178426720E-01  0.00000000000E+00 0.  1.
     999901    1    3    3    0    0 -0.25098311100E-01  0.14206359058E+00 -0.51753394585E-02  0.89176161227E+00  0.88000000000E+00 0.  1.
        -11    1    4    4    0    0 -0.70698868550E-03 -0.41539716565E-01 -0.77814373295E-02  0.42271264155E-01  0.51100000000E-03 0. -1.
         11    1    4    4    0    0  0.19589990096E-01 -0.84437566725E-01 -0.25299952603E-02  0.86718696850E-01  0.51100000000E-03 0.  1.
</event>
<event>
 8    1  0.1092993E+005  0.1043930E+01  0.7957747E-01            NaN
         13   -1    0    0    0    0  0.00000000000E+00  0.00000000000E+00  0.74505805969E-08  0.10566000000E+00  0.10566000000E+00 0. -1.
     999900   -1    0    0    0    0 -0.00000000000E+00 -0.00000000000E+00 -0.74505805969E-08  0.93827000000E+00  0.93827000000E+00 0. -1.
     999902    2    1    2    0    0 -0.12063183746E-01  0.77792960145E-05  0.19952108786E-01  0.10206146165E+01  0.10203482681E+01 0.  0.
     999903    2    3    3    0    0  0.10571341448E+00  0.36253074154E-01  0.65368509859E-01  0.13086875505E+00  0.19078196484E-01 0.  0.
         14    1    1    2    0    0  0.12063183746E-01 -0.77792960145E-05 -0.19952108786E-01  0.23315383497E-01  0.00000000000E+00 0.  1.
     999901    1    3    3    0    0 -0.11777659822E+00 -0.36245294858E-01 -0.45416401073E-01  0.88974586145E+00  0.88000000000E+00 0.  1.
        -11    1    4    4    0    0  0.52252732702E-01  0.27973005351E-01  0.33810171995E-01  0.68236544128E-01  0.51100000000E-03 0.  1.
         11    1    4    4    0    0  0.53460681774E-01  0.82800688029E-02  0.31558337864E-01  0.62632210921E-01  0.51100000000E-03 0. -1.
</event>
<event>
 8    1  0.1092993E+005  0.1043930E+01  0.7957747E-01            NaN
         13   -1    0    0    0    0  0.00000000000E+00  0.00000000000E+00  0.74505805969E-08  0.10566000000E+00  0.10566000000E+00 0.  1.
     999900   -1    0    0    0    0 -0.00000000000E+00 -0.00000000000E+00 -0.74505805969E-08  0.93827000000E+00  0.93827000000E+00 0.  1.
     999902    2    1    2    0    0  0.89217935300E-03  0.22501102607E-01  0.52833897599E-02  0.10207997209E+01  0.10205376330E+01 0.  0.
     999903    2    3    3    0    0 -0.11841150051E+00 -0.39561979882E-01 -0.30529352502E-01  0.12986327721E+00  0.18600959589E-01 0.  0.
         14    1    1    2    0    0 -0.89217935300E-03 -0.22501102607E-01 -0.52833897599E-02  0.23130279070E-01  0.00000000000E+00 0. -1.
     999901    1    3    3    0    0  0.11930367987E+00  0.62063082489E-01  0.35812742262E-01  0.89093644372E+00  0.88000000000E+00 0. -1.
        -11    1    4    4    0    0 -0.11313276278E+00 -0.33236369865E-01 -0.27579337142E-01  0.12109731316E+00  0.51100000000E-03 0. -1.
         11    1    4    4    0    0 -0.52787377363E-02 -0.63256100176E-02 -0.29500153605E-02  0.87659640548E-02  0.51100000000E-03 0.  1.
</event>
<event>
 8    1  0.1092993E+005  0.1043930E+01  0.7957747E-01            NaN
         13   -1    0    0    0    0  0.00000000000E+00  0.00000000000E+00  0.74505805969E-08  0.10566000000E+00  0.10566000000E+00 0.  1.
     999900   -1    0    0    0    0 -0.00000000000E+00 -0.00000000000E+00 -0.74505805969E-08  0.93827000000E+00  0.93827000000E+00 0.  1.
     999902    2    1    2    0    0 -0.25626626486E-02  0.18956154041E-01 -0.15264971244E-01  0.10194571096E+01  0.10191633216E+01 0.  0.
     999903    2    3    3    0    0 -0.11654787170E-01  0.25289058403E-01  0.12393681368E+00  0.12844649840E+00  0.19047273437E-01 0.  0.
         14    1    1    2    0    0  0.25626626486E-02 -0.18956154041E-01  0.15264971244E-01  0.24472890368E-01  0.00000000000E+00 0.  1.
     999901    1    3    3    0    0  0.90921245213E-02 -0.63329043621E-02 -0.13920178493E+00  0.89101061123E+00  0.88000000000E+00 0.  1.
        -11    1    4    4    0    0  0.22221138519E-02  0.17330791717E-01  0.56837495447E-01  0.59464747045E-01  0.51100000000E-03 0. -1.
         11    1    4    4    0    0 -0.13876901022E-01  0.79582666861E-02  0.67099318237E-01  0.68981751352E-01  0.51100000000E-03 0.  1.
</event>
<event>
 8    1  0.1092993E+005  0.1043930E+01  0.7957747E-01            NaN
         13   -1    0    0    0    0  0.00000000000E+00  0.00000000000E+00  0.74505805969E-08  0.10566000000E+00  0.10566000000E+00 0. -1.
     999900   -1    0    0    0    0 -0.00000000000E+00 -0.00000000000E+00 -0.74505805969E-08  0.93827000000E+00  0.93827000000E+00 0.  1.
     999902    2    1    2    0    0  0.11071727334E-02  0.12059791293E-02 -0.22904355795E-01  0.10209672098E+01  0.10207089467E+01 0.  0.
     999903    2    3    3    0    0 -0.12165888302E+00 -0.10995115088E-01 -0.45724752214E-01  0.13206837329E+00  0.20725006271E-01 0.  0.
         14    1    1    2    0    0 -0.11071727334E-02 -0.12059791293E-02  0.22904355795E-01  0.22962790151E-01  0.00000000000E+00 0. -1.
     999901    1    3    3    0    0  0.12276605575E+00  0.12201094217E-01  0.22820396419E-01  0.88889883656E+00  0.88000000000E+00 0.  1.
        -11    1    4    4    0    0 -0.10345101722E+00 -0.15628507619E-01 -0.34454666029E-01  0.11015329476E+00  0.51100000000E-03 0.  1.
         11    1    4    4    0    0 -0.18207865797E-01  0.46333925318E-02 -0.11270086185E-01  0.21915078527E-01  0.51100000000E-03 0. -1.
</event>
<event>
 8    1  0.1092993E+005  0.1043930E+01  0.7957747E-01            NaN
         13   -1    0    0    0    0  0.00000000000E+00  0.00000000000E+00  0.74505805969E-08  0.10566000000E+00  0.10566000000E+00 0. -1.
     999900   -1    0    0    0    0 -0.00000000000E+00 -0.00000000000E+00 -0.74505805969E-08  0.93827000000E+00  0.93827000000E+00 0.  1.
     999902    2    1    2    0    0  0.16118862698E-01 -0.17122381152E-01 -0.22916344941E-02  0.10203027856E+01  0.10200291805E+01 0.  0.
     999903    2    3    3    0    0  0.11700134995E+00  0.22322819884E-01  0.52970569461E-01  0.13194074719E+00  0.20367998514E-01 0.  0.
         14    1    1    2    0    0 -0.16118862698E-01  0.17122381152E-01  0.22916344941E-02  0.23627214386E-01  0.00000000000E+00 0.  1.
     999901    1    3    3    0    0 -0.10088248725E+00 -0.39445201036E-01 -0.55262203955E-01  0.88836203842E+00  0.88000000000E+00 0.  1.
        -11    1    4    4    0    0  0.64036995421E-01  0.72987403142E-02  0.18788471815E-01  0.67136250914E-01  0.51100000000E-03 0. -1.
         11    1    4    4    0    0  0.52964354530E-01  0.15024079570E-01  0.34182097646E-01  0.64804496280E-01  0.51100000000E-03 0.  1.
</event>
<event>
 8    1  0.1092993E+005  0.1043930E+01  0.7957747E-01            NaN
         13   -1    0    0    0    0  0.00000000000E+00  0.00000000000E+00  0.74505805969E-08  0.10566000000E+00  0.10566000000E+00 0. -1.
     999900   -1    0    0    0    0 -0.00000000000E+00 -0.00000000000E+00 -0.74505805969E-08  0.93827000000E+00  0.93827000000E+00 0.  1.
     999902    2    1    2    0    0 -0.21361639041E-01 -0.61849121277E-02 -0.46050955138E-02  0.10212192170E+01  0.10209666544E+01 0.  0.
     999903    2    3    3    0    0 -0.12195271232E+00  0.18295193305E-01  0.48238658641E-01  0.13357610067E+00  0.17562128067E-01 0.  0.
         14    1    1    2    0    0  0.21361639041E-01  0.61849121277E-02  0.46050955138E-02  0.22710783017E-01  0.00000000000E+00 0. -1.
     999901    1    3    3    0    0  0.10059107328E+00 -0.24480105433E-01 -0.52843754155E-01  0.88764311631E+00  0.88000000000E+00 0. -1.
        -11    1    4    4    0    0 -0.74531069593E-01  0.14898792892E-01  0.21328739728E-01  0.78943211385E-01  0.51100000000E-03 0. -1.
         11    1    4    4    0    0 -0.47421642726E-01  0.33964004131E-02  0.26909918913E-01  0.54632889284E-01  0.51100000000E-03 0.  1.
</event>
<event>
 8    1  0.1092993E+005  0.1043930E+01  0.7957747E-01            NaN
         13   -1    0    0    0    0  0.00000000000E+00  0.00000000000E+00  0.74505805969E-08  0.10566000000E+00  0.10566000000E+00 0. -1.
     999900   -1    0    0    0    0 -0.00000000000E+00 -0.00000000000E+00 -0.74505805969E-08  0.93827000000E+00  0.93827000000E+00 0.  1.
     999902    2    1    2    0    0 -0.11795948810E-01  0.45729755241E-02  0.19222470923E-01  0.10209178314E+01  0.10206584437E+01 0.  0.
     999903    2    3    3    0    0 -0.35326399985E-01  0.90041592191E-01  0.90004780278E-01  0.13363619527E+00  0.20058149290E-01 0.  0.
         14    1    1    2    0    0  0.11795948810E-01 -0.45729755241E-02 -0.19222470923E-01  0.23012168560E-01  0.00000000000E+00 0.  1.
     999901    1    3    3    0    0  0.23530451175E-01 -0.85468616667E-01 -0.70782309355E-01  0.88728163617E+00  0.88000000000E+00 0.  1.
        -11    1    4    4    0    0 -0.20131943558E-01  0.26974934092E-01  0.35282390584E-01  0.48765258402E-01  0.51100000000E-03 0. -1.
         11    1    4    4    0    0 -0.15194456427E-01  0.63066658100E-01  0.54722389693E-01  0.84870936867E-01  0.51100000000E-03 0.  1.
</event>
<event>
 8    1  0.1092993E+005  0.1043930E+01  0.7957747E-01            NaN
         13   -1    0    0    0    0  0.00000000000E+00  0.00000000000E+00  0.74505805969E-08  0.10566000000E+00  0.10566000000E+00 0. -1.
     999900   -1    0    0    0    0 -0.00000000000E+00 -0.00000000000E+00 -0.74505805969E-08  0.93827000000E+00  0.93827000000E+00 0. -1.
     999902    2    1    2    0    0  0.11418225144E-01 -0.20541279866E-01  0.53141386539E-03  0.10204225024E+01  0.10201516950E+01 0.  0.
     999903    2    3    3    0    0 -0.57459976363E-02 -0.11232755721E+00  0.67945294157E-01  0.13291815731E+00  0.20004423173E-01 0.  0.
         14    1    1    2    0    0 -0.11418225144E-01  0.20541279866E-01 -0.53141386539E-03  0.23507497627E-01  0.00000000000E+00 0.  1.
     999901    1    3    3    0    0  0.17164222780E-01  0.91786277345E-01 -0.67413880291E-01  0.88750434506E+00  0.88000000000E+00 0. -1.
        -11    1    4    4    0    0  0.13082518911E-02 -0.10011771479E+00  0.59780976173E-01  0.11661601335E+00  0.51100000000E-03 0. -1.
         11    1    4    4    0    0 -0.70542495274E-02 -0.12209842425E-01  0.81643179840E-02  0.16302143956E-01  0.51100000000E-03 0.  1.
</event>
<event>
 8    1  0.1092993E+005  0.1043930E+01  0.7957747E-01            NaN
         13   -1    0    0    0    0  0.00000000000E+00  0.00000000000E+00  0.74505805969E-08  0.10566000000E+00  0.10566000000E+00 0. -1.
     999900   -1    0    0    0    0 -0.00000000000E+00 -0.00000000000E+00 -0.74505805969E-08  0.93827000000E+00  0.93827000000E+00 0.  1.
     999902    2    1    2    0    0 -0.68589655567E-02  0.12614690225E-01 -0.20326576344E-01  0.10190433465E+01  0.10187394154E+01 0.  0.
     999903    2    3    3    0    0 -0.10928427837E+00 -0.15419751469E-01  0.63205618618E-01  0.12873188287E+00  0.19902894487E-01 0.  0.
         14    1    1    2    0    0  0.68589655567E-02 -0.12614690225E-01  0.20326576344E-01  0.24886653528E-01  0.00000000000E+00 0. -1.
     999901    1    3    3    0    0  0.10242531281E+00  0.28034441694E-01 -0.83532194962E-01  0.89031146360E+00  0.88000000000E+00 0. -1.
        -11    1    4    4    0    0 -0.39625597398E-02 -0.39385620140E-02  0.64217594803E-02  0.85272660480E-02  0.51100000000E-03 0. -1.
         11    1    4    4    0    0 -0.10532171863E+00 -0.11481189455E-01  0.56783859138E-01  0.12020461682E+00  0.51100000000E-03 0.  1.
</event>
<event>
 8    1  0.1092993E+005  0.1043930E+01  0.7957747E-01            NaN
         13   -1    0    0    0    0  0.00000000000E+00  0.00000000000E+00  0.74505805969E-08  0.10566000000E+00  0.10566000000E+00 0.  1.
     999900   -1    0    0    0    0 -0.00000000000E+00 -0.00000000000E+00 -0.74505805969E-08  0.93827000000E+00  0.93827000000E+00 0. -1.
     999902    2    1    2    0    0  0.21032436688E-01  0.44948099143E-02 -0.77391625706E-02  0.10210725866E+01  0.10208167151E+01 0.  0.
     999903    2    3    3    0    0 -0.12182026982E-01 -0.12571095399E+00 -0.26847633081E-01  0.13066713111E+00  0.20036417276E-01 0.  0.
         14    1    1    2    0    0 -0.21032436688E-01 -0.44948099143E-02  0.77391625706E-02  0.22857413381E-01  0.00000000000E+00 0.  1.
     999901    1    3    3    0    0  0.33214463670E-01  0.13020576390E+00  0.19108470510E-01  0.89040545551E+00  0.88000000000E+00 0. -1.
        -11    1    4    4    0    0 -0.14817094437E-01 -0.56575031555E-01 -0.86096020925E-02  0.59115707323E-01  0.51100000000E-03 0.  1.
         11    1    4    4    0    0  0.26350674553E-02 -0.69135922432E-01 -0.18238030988E-01  0.71551423790E-01  0.51100000000E-03 0. -1.
</event>
<event>
 8    1  0.1092993E+005  0.1043930E+01  0.7957747E-01            NaN
         13   -1    0    0    0    0  0.00000000000E+00  0.00000000000E+00  0.74505805969E-08  0.10566000000E+00  0.10566000000E+00 0.  1.
     999900   -1    0    0    0    0 -0.00000000000E+00 -0.00000000000E+00 -0.74505805969E-08  0.93827000000E+00  0.93827000000E+00 0. -1.
     999902    2    1    2    0    0  0.95947931896E-02 -0.16322412402E-01 -0.13353727482E-01  0.10207609853E+01  0.10204980088E+01 0.  0.
     999903    2    3    3    0    0  0.10960049035E+00  0.42656309252E-01 -0.56422861985E-01  0.13209086689E+00  0.20799748937E-01 0.  0.
         14    1    1    2    0    0 -0.95947931896E-02  0.16322412402E-01  0.13353727482E-01  0.23169014667E-01  0.00000000000E+00 0. -1.
     999901    1    3    3    0    0 -0.10000569716E+00 -0.58978721654E-01  0.43069134503E-01  0.88867011845E+00  0.88000000000E+00 0.  1.
        -11    1    4    4    0    0  0.84475051392E-01  0.29088698175E-01 -0.51456786880E-01  0.10310309746E+00  0.51100000000E-03 0. -1.
         11    1    4    4    0    0  0.25125438960E-01  0.13567611078E-01 -0.49660751053E-02  0.28987769425E-01  0.51100000000E-03 0.  1.
</event>
<event>
 8    1  0.1092993E+005  0.1043930E+01  0.7957747E-01            NaN
         13   -1    0    0    0    0  0.00000000000E+00  0.00000000000E+00  0.74505805969E-08  0.10566000000E+00  0.10566000000E+00 0.  1.
     999900   -1    0    0    0    0 -0.00000000000E+00 -0.00000000000E+00 -0.74505805969E-08  0.93827000000E+00  0.93827000000E+00 0. -1.
     999902    2    1    2    0    0 -0.39508581495E-02 -0.37031081967E-02 -0.23267774908E-01  0.10200404282E+01  0.10197606403E+01 0.  0.
     999903    2    3    3    0    0 -0.67542068147E-01  0.80987275921E-01  0.70772154113E-01  0.12871567742E+00  0.20932223601E-01 0.  0.
         14    1    1    2    0    0  0.39508581495E-02  0.37031081967E-02  0.23267774908E-01  0.23889571775E-01  0.00000000000E+00 0.  1.
     999901    1    3    3    0    0  0.63591209997E-01 -0.84690384117E-01 -0.94039929020E-01  0.89132475081E+00  0.88000000000E+00 0. -1.
        -11    1    4    4    0    0 -0.26855644854E-01  0.38097863745E-01  0.42916511701E-01  0.63362141536E-01  0.51100000000E-03 0.  1.
         11    1    4    4    0    0 -0.40686423293E-01  0.42889412176E-01  0.27855642412E-01  0.65353535882E-01  0.51100000000E-03 0. -1.
</event>
<event>
 8    1  0.1092993E+005  0.1043930E+01  0.7957747E-01            NaN
         13   -1    0    0    0    0  0.00000000000E+00  0.00000000000E+00  0.74505805969E-08  0.10566000000E+00  0.10566000000E+00 0.  1.
     999900   -1    0    0    0    0 -0.00000000000E+00 -0.00000000000E+00 -0.74505805969E-08  0.93827000000E+00  0.93827000000E+00 0.  1.
     999902    2    1    2    0    0 -0.21653907083E-01  0.11417761212E-03  0.96978913326E-02  0.10202033520E+01  0.10199274119E+01 0.  0.
     999903    2    3    3    0    0 -0.13260607721E-01 -0.10308101919E+00 -0.75668424078E-01  0.13003083844E+00  0.19513285380E-01 0.  0.
         14    1    1    2    0    0  0.21653907083E-01 -0.11417761212E-03 -0.96978913326E-02  0.23726647989E-01  0.00000000000E+00 0. -1.
     999901    1    3    3    0    0 -0.83932993623E-02  0.10319519681E+00  0.85366315411E-01  0.89017251358E+00  0.88000000000E+00 0. -1.
        -11    1    4    4    0    0 -0.11163218190E-01 -0.35011566031E-01 -0.34755197433E-01  0.50582724976E-01  0.51100000000E-03 0.  1.
         11    1    4    4    0    0 -0.20973895314E-02 -0.68069453163E-01 -0.40913226645E-01  0.79448113460E-01  0.51100000000E-03 0. -1.
</event>
<event>
 8    1  0.1092993E+005  0.1043930E+01  0.7957747E-01            NaN
         13   -1    0    0    0    0  0.00000000000E+00  0.00000000000E+00  0.74505805969E-08  0.10566000000E+00  0.10566000000E+00 0.  1.
     999900   -1    0    0    0    0 -0.00000000000E+00 -0.00000000000E+00 -0.74505805969E-08  0.93827000000E+00  0.93827000000E+00 0.  1.
     999902    2    1    2    0    0 -0.38520721619E-02  0.21701740757E-01 -0.96350976414E-02  0.10198750812E+01  0.10195913604E+01 0.  0.
     999903    2    3    3    0    0  0.94679695750E-01  0.57280232310E-01  0.66013735419E-01  0.13043869545E+00  0.20277332349E-01 0.  0.
         14    1    1    2    0    0  0.38520721619E-02 -0.21701740757E-01  0.96350976414E-02  0.24054918798E-01  0.00000000000E+00 0.  1.
     999901    1    3    3    0    0 -0.98531767912E-01 -0.35578491553E-01 -0.75648833060E-01  0.88943638575E+00  0.88000000000E+00 0.  1.
        -11    1    4    4    0    0  0.68626382026E-01  0.39520242194E-01  0.36325540353E-01  0.87127698558E-01  0.51100000000E-03 0. -1.
         11    1    4    4    0    0  0.26053313723E-01  0.17759990116E-01  0.29688195066E-01  0.43310996897E-01  0.51100000000E-03 0.  1.
</event>
<event>
 8    1  0.1092993E+005  0.1043930E+01  0.7957747E-01            NaN
         13   -1    0    0    0    0  0.00000000000E+00  0.00000000000E+00  0.74505805969E-08  0.10566000000E+00  0.10566000000E+00 0.  1.
     999900   -1    0    0    0    0 -0.00000000000E+00 -0.00000000000E+00 -0.74505805969E-08  0.93827000000E+00  0.93827000000E+00 0. -1.
     999902    2    1    2    0    0 -0.18470709867E-01  0.26051441311E-02 -0.14136681080E-01  0.10205248798E+01  0.10202564534E+01 0.  0.
     999903    2    3    3    0    0 -0.91862726838E-02  0.12032959278E+00 -0.49575237518E-01  0.13192984389E+00  0.19600536483E-01 0.  0.
         14    1    1    2    0    0  0.18470709867E-01 -0.26051441311E-02  0.14136681080E-01  0.23405120185E-01  0.00000000000E+00 0. -1.
     999901    1    3    3    0    0 -0.92844371828E-02 -0.11772444865E+00  0.35438556438E-01  0.88859503592E+00  0.88000000000E+00 0.  1.
        -11    1    4    4    0    0 -0.13136414938E-02  0.82915380366E-01 -0.41973020253E-01  0.92944507666E-01  0.51100000000E-03 0.  1.
         11    1    4    4    0    0 -0.78726311900E-02  0.37414212413E-01 -0.76022172655E-02  0.38985336226E-01  0.51100000000E-03 0. -1.
</event>
<event>
 8    1  0.1092993E+005  0.1043930E+01  0.7957747E-01            NaN
         13   -1    0    0    0    0  0.00000000000E+00  0.00000000000E+00  0.74505805969E-08  0.10566000000E+00  0.10566000000E+00 0. -1.
     999900   -1    0    0    0    0 -0.00000000000E+00 -0.00000000000E+00 -0.74505805969E-08  0.93827000000E+00  0.93827000000E+00 0. -1.
     999902    2    1    2    0    0 -0.16762238884E-01  0.15223032832E-01 -0.60860688996E-02  0.10204831747E+01  0.10202137797E+01 0.  0.
     999903    2    3    3    0    0  0.11612288370E+00 -0.38544677041E-01  0.32649172559E-01  0.12804278940E+00  0.18941256601E-01 0.  0.
         14    1    1    2    0    0  0.16762238884E-01 -0.15223032832E-01  0.60860688996E-02  0.23446825279E-01  0.00000000000E+00 0.  1.
     999901    1    3    3    0    0 -0.13288512258E+00  0.53767709872E-01 -0.38735241459E-01  0.89244038532E+00  0.88000000000E+00 0.  1.
        -11    1    4    4    0    0  0.69380493034E-01 -0.24495080396E-01  0.10079784088E-01  0.74266580274E-01  0.51100000000E-03 0.  1.
         11    1    4    4    0    0  0.46742390661E-01 -0.14049596645E-01  0.22569388472E-01  0.53776209122E-01  0.51100000000E-03 0. -1.
</event>
<event>
 8    1  0.1092993E+005  0.1043930E+01  0.7957747E-01            NaN
         13   -1    0    0    0    0  0.00000000000E+00  0.00000000000E+00  0.74505805969E-08  0.10566000000E+00  0.10566000000E+00 0. -1.
     999900   -1    0    0    0    0 -0.00000000000E+00 -0.00000000000E+00 -0.74505805969E-08  0.93827000000E+00  0.93827000000E+00 0.  1.
     999902    2    1    2    0    0 -0.13890815222E-01  0.13756089154E-01 -0.15565359926E-01  0.10189406990E+01  0.10186342243E+01 0.  0.
     999903    2    3    3    0    0 -0.92882031385E-01 -0.61999553561E-01 -0.65104155799E-01  0.13077820149E+00  0.19833569687E-01 0.  0.
         14    1    1    2    0    0  0.13890815222E-01 -0.13756089154E-01  0.15565359926E-01  0.24989301030E-01  0.00000000000E+00 0. -1.
     999901    1    3    3    0    0  0.78991216163E-01  0.75755642715E-01  0.49538795873E-01  0.88816249748E+00  0.88000000000E+00 0.  1.
        -11    1    4    4    0    0 -0.51027763002E-01 -0.45699452764E-01 -0.39289124303E-01  0.78969418065E-01  0.51100000000E-03 0.  1.
         11    1    4    4    0    0 -0.41854268383E-01 -0.16300100798E-01 -0.25815031495E-01  0.51808783425E-01  0.51100000000E-03 0. -1.
</event>
<event>
 8    1  0.1092993E+005  0.1043930E+01  0.7957747E-01            NaN
         13   -1    0    0    0    0  0.00000000000E+00  0.00000000000E+00  0.74505805969E-08  0.10566000000E+00  0.10566000000E+00 0.  1.
     999900   -1    0    0    0    0 -0.00000000000E+00 -0.00000000000E+00 -0.74505805969E-08  0.93827000000E+00  0.93827000000E+00 0.  1.
     999902    2    1    2    0    0 -0.12993758585E-01  0.15828736437E-01  0.10710820326E-01  0.10208192161E+01  0.10205575749E+01 0.  0.
     999903    2    3    3    0    0 -0.24026518630E-01 -0.12568113558E+00 -0.30293918567E-03  0.12937764845E+00  0.19117078959E-01 0.  0.
         14    1    1    2    0    0  0.12993758585E-01 -0.15828736437E-01 -0.10710820326E-01  0.23110783877E-01  0.00000000000E+00 0. -1.
     999901    1    3    3    0    0  0.11032760045E-01  0.14150987202E+00  0.11013759512E-01  0.89144156767E+00  0.88000000000E+00 0. -1.
        -11    1    4    4    0    0 -0.42368984531E-02 -0.71083282981E-01  0.22341222993E-02  0.71246311142E-01  0.51100000000E-03 0.  1.
         11    1    4    4    0    0 -0.19789620177E-01 -0.54597852601E-01 -0.25370614849E-02  0.58131337310E-01  0.51100000000E-03 0. -1.
</event>
<event>
 8    1  0.1092993E+005  0.1043930E+01  0.7957747E-01            NaN
         13   -1    0    0    0    0  0.00000000000E+00  0.00000000000E+00  0.74505805969E-08  0.10566000000E+00  0.10566000000E+00 0. -1.
     999900   -1    0    0    0    0 -0.00000000000E+00 -0.00000000000E+00 -0.74505805969E-08  0.93827000000E+00  0.93827000000E+00 0. -1.
     999902    2    1    2    0    0 -0.18124556207E-01  0.15615845263E-01 -0.35978943276E-02  0.10197370464E+01  0.10194500207E+01 0.  0.
     999903    2    3    3    0    0 -0.77277466289E-01  0.99098079488E-01 -0.39061757469E-01  0.13309955801E+00  0.19935779195E-01 0.  0.
         14    1    1    2    0    0  0.18124556207E-01 -0.15615845263E-01  0.35978943276E-02  0.24192953614E-01  0.00000000000E+00 0. -1.
     999901    1    3    3    0    0  0.59152910083E-01 -0.83482234225E-01  0.35463863141E-01  0.88663748837E+00  0.88000000000E+00 0.  1.
        -11    1    4    4    0    0 -0.12383094348E-01  0.60418326777E-02 -0.43221065955E-02  0.14449446154E-01  0.51100000000E-03 0. -1.
         11    1    4    4    0    0 -0.64894371941E-01  0.93056246810E-01 -0.34739650873E-01  0.11865011186E+00  0.51100000000E-03 0.  1.
</event>
<event>
 8    1  0.1092993E+005  0.1043930E+01  0.7957747E-01            NaN
         13   -1    0    0    0    0  0.00000000000E+00  0.00000000000E+00  0.74505805969E-08  0.10566000000E+00  0.10566000000E+00 0. -1.
     999900   -1    0    0    0    0 -0.00000000000E+00 -0.00000000000E+00 -0.74505805969E-08  0.93827000000E+00  0.93827000000E+00 0.  1.
     999902    2    1    2    0    0  0.74336462354E-02  0.31099761339E-02 -0.22353912509E-01  0.10201680882E+01  0.10198913176E+01 0.  0.
     999903    2    3    3    0    0  0.67148578045E-02  0.79264628211E-01  0.99039371234E-01  0.12857604190E+00  0.19875384154E-01 0.  0.
         14    1    1    2    0    0 -0.74336462354E-02 -0.31099761339E-02  0.22353912509E-01  0.23761911799E-01  0.00000000000E+00 0. -1.
     999901    1    3    3    0    0  0.71878843089E-03 -0.76154652077E-01 -0.12139328374E+00  0.89159204630E+00  0.88000000000E+00 0. -1.
        -11    1    4    4    0    0 -0.17244507493E-02  0.66143744384E-01  0.83651271735E-01  0.10665723152E+00  0.51100000000E-03 0. -1.
         11    1    4    4    0    0  0.84393085539E-02  0.13120883827E-01  0.15388099499E-01  0.21918810380E-01  0.51100000000E-03 0.  1.
</event>
<event>
 8    1  0.1092993E+005  0.1043930E+01  0.7957747E-01            NaN
         13   -1    0    0    0    0  0.00000000000E+00  0.00000000000E+00  0.74505805969E-08  0.10566000000E+00  0.10566000000E+00 0. -1.
     999900   -1    0    0    0    0 -0.00000000000E+00 -0.00000000000E+00 -0.74505805969E-08  0.93827000000E+00  0.93827000000E+00 0.  1.
     999902    2    1    2    0    0 -0.13411536642E-01 -0.12330800521E-01 -0.15129175489E-01  0.10202485746E+01  0.10199736978E+01 0.  0.
     999903    2    3    3    0    0  0.10535470034E+00 -0.51695030847E-01  0.49886598987E-01  0.12902356791E+00  0.19657548630E-01 0.  0.
         14    1    1    2    0    0  0.13411536642E-01  0.12330800521E-01  0.15129175489E-01  0.23681425371E-01  0.00000000000E+00 0. -1.
     999901    1    3    3    0    0 -0.11876623699E+00  0.39364230326E-01 -0.65015774477E-01  0.89122500672E+00  0.88000000000E+00 0.  1.
        -11    1    4    4    0    0  0.12337074220E-01 -0.13873496140E-01  0.74895158174E-02  0.20025764995E-01  0.51100000000E-03 0. -1.
         11    1    4    4    0    0  0.93017626124E-01 -0.37821534707E-01  0.42397083170E-01  0.10899780291E+00  0.51100000000E-03 0.  1.
</event>
<event>
 8    1  0.1092993E+005  0.1043930E+01  0.7957747E-01            NaN
         13   -1    0    0    0    0  0.00000000000E+00  0.00000000000E+00  0.74505805969E-08  0.10566000000E+00  0.10566000000E+00 0.  1.
     999900   -1    0    0    0    0 -0.00000000000E+00 -0.00000000000E+00 -0.74505805969E-08  0.93827000000E+00  0.93827000000E+00 0. -1.
     999902    2    1    2    0    0  0.64817079351E-02 -0.28597573803E-02 -0.22271196171E-01  0.10205591436E+01  0.10202915116E+01 0.  0.
     999903    2    3    3    0    0  0.77364380763E-01 -0.35307374195E-01 -0.10108426440E+00  0.13360440920E+00  0.20006288164E-01 0.  0.
         14    1    1    2    0    0 -0.64817079351E-02  0.28597573803E-02  0.22271196171E-01  0.23370856401E-01  0.00000000000E+00 0.  1.
     999901    1    3    3    0    0 -0.70882672828E-01  0.32447616815E-01  0.78813068228E-01  0.88695473440E+00  0.88000000000E+00 0. -1.
        -11    1    4    4    0    0  0.42708834574E-01 -0.23325589974E-01 -0.43159950643E-01  0.65047445444E-01  0.51100000000E-03 0.  1.
         11    1    4    4    0    0  0.34655546189E-01 -0.11981784221E-01 -0.57924313756E-01  0.68556963759E-01  0.51100000000E-03 0. -1.
</event>
<event>
 8    1  0.1092993E+005  0.1043930E+01  0.7957747E-01            NaN
         13   -1    0    0    0    0  0.00000000000E+00  0.00000000000E+00  0.74505805969E-08  0.10566000000E+00  0.10566000000E+00 0.  1.
     999900   -1    0    0    0    0 -0.00000000000E+00 -0.00000000000E+00 -0.74505805969E-08  0.93827000000E+00  0.93827000000E+00 0. -1.
     999902    2    1    2    0    0 -0.34623563820E-02 -0.22053858278E-01  0.67357796082E-02  0.10206119533E+01  0.10203455434E+01 0.  0.
     999903    2    3    3    0    0  0.57580837220E-01  0.60235587995E-01 -0.95268151800E-01  0.12881453990E+00  0.23943392978E-01 0.  0.
         14    1    1    2    0    0  0.34623563820E-02  0.22053858278E-01 -0.67357796082E-02  0.23318046736E-01  0.00000000000E+00 0.  1.
     999901    1    3    3    0    0 -0.61043193602E-01 -0.82289446272E-01  0.10200393141E+00  0.89179741336E+00  0.88000000000E+00 0. -1.
        -11    1    4    4    0    0  0.28529692612E-01  0.14405132397E-01 -0.28959020399E-01  0.43131626254E-01  0.51100000000E-03 0.  1.
         11    1    4    4    0    0  0.29051144609E-01  0.45830455597E-01 -0.66309131401E-01  0.85682913650E-01  0.51100000000E-03 0. -1.
</event>
<event>
 8    1  0.1092993E+005  0.1043930E+01  0.7957747E-01            NaN
         13   -1    0    0    0    0  0.00000000000E+00  0.00000000000E+00  0.74505805969E-08  0.10566000000E+00  0.10566000000E+00 0. -1.
     999900   -1    0    0    0    0 -0.00000000000E+00 -0.00000000000E+00 -0.74505805969E-08  0.93827000000E+00  0.93827000000E+00 0.  1.
     999902    2    1    2    0    0  0.16151503869E-01 -0.11419808689E-01 -0.13718606469E-01  0.10198575412E+01  0.10195734015E+01 0.  0.
     999903    2    3    3    0    0 -0.10403321069E+00 -0.91603713560E-02 -0.73826337553E-01  0.12965396339E+00  0.21283814892E-01 0.  0.
         14    1    1    2    0    0 -0.16151503869E-01  0.11419808689E-01  0.13718606469E-01  0.24072458770E-01  0.00000000000E+00 0. -1.
     999901    1    3    3    0    0  0.12018471456E+00 -0.22594373333E-02  0.60107731084E-01  0.89020357784E+00  0.88000000000E+00 0. -1.
        -11    1    4    4    0    0 -0.16331986463E-01 -0.82059300413E-02 -0.18170243157E-01  0.25777702129E-01  0.51100000000E-03 0.  1.
         11    1    4    4    0    0 -0.87701224223E-01 -0.95444131471E-03 -0.55656094396E-01  0.10387626126E+00  0.51100000000E-03 0. -1.
</event>
<event>
 8    1  0.1092993E+005  0.1043930E+01  0.7957747E-01            NaN
         13   -1    0    0    0    0  0.00000000000E+00  0.00000000000E+00  0.74505805969E-08  0.10566000000E+00  0.10566000000E+00 0.  1.
     999900   -1    0    0    0    0 -0.00000000000E+00 -0.00000000000E+00 -0.74505805969E-08  0.93827000000E+00  0.93827000000E+00 0. -1.
     999902    2    1    2    0    0 -0.65955510182E-02 -0.21909754990E-01 -0.61568227128E-02  0.10202351667E+01  0.10199599749E+01 0.  0.
     999903    2    3    3    0    0  0.55100102201E-01  0.23691042844E-01  0.11244252650E+00  0.12897112505E+00  0.19822778733E-01 0.  0.
         14    1    1    2    0    0  0.65955510182E-02  0.21909754990E-01  0.61568227128E-02  0.23694833253E-01  0.00000000000E+00 0.  1.
     999901    1    3    3    0    0 -0.61695653220E-01 -0.45600797834E-01 -0.11859934921E+00  0.89126404170E+00  0.88000000000E+00 0. -1.
        -11    1    4    4    0    0  0.48599205693E-02  0.94710815813E-02  0.24089190727E-01  0.26341420712E-01  0.51100000000E-03 0. -1.
         11    1    4    4    0    0  0.50240181632E-01  0.14219961262E-01  0.88353335775E-01  0.10262970434E+00  0.51100000000E-03 0.  1.
</event>
<event>
 8    1  0.1092993E+005  0.1043930E+01  0.7957747E-01            NaN
         13   -1    0    0    0    0  0.00000000000E+00  0.00000000000E+00  0.74505805969E-08  0.10566000000E+00  0.10566000000E+00 0. -1.
     999900   -1    0    0    0    0 -0.00000000000E+00 -0.00000000000E+00 -0.74505805969E-08  0.93827000000E+00  0.93827000000E+00 0. -1.
     999902    2    1    2    0    0  0.18044846893E-01  0.10089567460E-01  0.98023777397E-02  0.10210498234E+01  0.10207934362E+01 0.  0.
     999903    2    3    3    0    0  0.72291931810E-01  0.10882873934E+00 -0.17989957383E-01  0.13343245981E+00  0.20267334674E-01 0.  0.
         14    1    1    2    0    0 -0.18044846893E-01 -0.10089567460E-01 -0.98023777397E-02  0.22880176578E-01  0.00000000000E+00 0.  1.
     999901    1    3    3    0    0 -0.54247084917E-01 -0.98739171879E-01  0.27792335123E-01  0.88761736361E+00  0.88000000000E+00 0.  1.
        -11    1    4    4    0    0  0.66110214749E-01  0.86432383267E-01 -0.12335707057E-01  0.10951505906E+00  0.51100000000E-03 0.  1.
         11    1    4    4    0    0  0.61817170607E-02  0.22396356071E-01 -0.56542503259E-02  0.23917400754E-01  0.51100000000E-03 0. -1.
</event>
<event>
 8    1  0.1092993E+005  0.1043930E+01  0.7957747E-01            NaN
         13   -1    0    0    0    0  0.00000000000E+00  0.00000000000E+00  0.74505805969E-08  0.10566000000E+00  0.10566000000E+00 0.  1.
     999900   -1    0    0    0    0 -0.00000000000E+00 -0.00000000000E+00 -0.74505805969E-08  0.93827000000E+00  0.93827000000E+00 0.  1.
     999902    2    1    2    0    0 -0.16683141786E-01  0.17368618659E-01  0.25219360102E-02  0.10197152050E+01  0.10194276547E+01 0.  0.
     999903    2    3    3    0    0  0.10819311734E+00 -0.22890360615E-01 -0.62757741752E-01  0.12759620970E+00  0.10608455672E-01 0.  0.
         14    1    1    2    0    0  0.16683141786E-01 -0.17368618659E-01 -0.25219360102E-02  0.24214794965E-01  0.00000000000E+00 0. -1.
     999901    1    3    3    0    0 -0.12487625912E+00  0.40258979275E-01  0.65279677763E-01  0.89211899533E+00  0.88000000000E+00 0. -1.
        -11    1    4    4    0    0  0.51230283485E-01 -0.16230977366E-01 -0.30225691672E-01  0.61659063650E-01  0.51100000000E-03 0. -1.
         11    1    4    4    0    0  0.56962833854E-01 -0.66593832496E-02 -0.32532050080E-01  0.65937146051E-01  0.51100000000E-03 0.  1.
</event>
<event>
 8    1  0.1092993E+005  0.1043930E+01  0.7957747E-01            NaN
         13   -1    0    0    0    0  0.00000000000E+00  0.00000000000E+00  0.74505805969E-08  0.10566000000E+00  0.10566000000E+00 0. -1.
     999900   -1    0    0    0    0 -0.00000000000E+00 -0.00000000000E+00 -0.74505805969E-08  0.93827000000E+00  0.93827000000E+00 0.  1.
     999902    2    1    2    0    0 -0.86847808580E-02 -0.16423060690E-01 -0.76193925721E-02  0.10238502220E+01  0.10236533005E+01 0.  0.
     999903    2    3    3    0    0  0.26134479838E-01  0.29081745688E-01  0.12460375509E+00  0.13212939737E+00  0.20082900670E-01 0.  0.
         14    1    1    2    0    0  0.86847808580E-02  0.16423060690E-01  0.76193925721E-02  0.20079777990E-01  0.00000000000E+00 0. -1.
     999901    1    3    3    0    0 -0.34819260696E-01 -0.45504806378E-01 -0.13222314766E+00  0.89172082464E+00  0.88000000000E+00 0.  1.
        -11    1    4    4    0    0  0.21626442366E-01  0.15030121345E-01  0.55077229774E-01  0.61052190114E-01  0.51100000000E-03 0. -1.
         11    1    4    4    0    0  0.45080374717E-02  0.14051624343E-01  0.69526525312E-01  0.71077207257E-01  0.51100000000E-03 0.  1.
</event>
<event>
 8    1  0.1092993E+005  0.1043930E+01  0.7957747E-01            NaN
         13   -1    0    0    0    0  0.00000000000E+00  0.00000000000E+00  0.74505805969E-08  0.10566000000E+00  0.10566000000E+00 0. -1.
     999900   -1    0    0    0    0 -0.00000000000E+00 -0.00000000000E+00 -0.74505805969E-08  0.93827000000E+00  0.93827000000E+00 0. -1.
     999902    2    1    2    0    0 -0.22426851615E-01  0.63509650865E-02  0.37869281585E-02  0.10203156134E+01  0.10200423087E+01 0.  0.
     999903    2    3    3    0    0 -0.47359967617E-01  0.10576516624E+00  0.61111292046E-01  0.13251443836E+00  0.19906015068E-01 0.  0.
         14    1    1    2    0    0  0.22426851615E-01 -0.63509650865E-02 -0.37869281585E-02  0.23614386627E-01  0.00000000000E+00 0.  1.
     999901    1    3    3    0    0  0.24933116002E-01 -0.99414201150E-01 -0.57324363888E-01  0.88780117502E+00  0.88000000000E+00 0. -1.
        -11    1    4    4    0    0 -0.16684424921E-01  0.28364761175E-01  0.26876842341E-01  0.42491828469E-01  0.51100000000E-03 0.  1.
         11    1    4    4    0    0 -0.30675542696E-01  0.77400405062E-01  0.34234449706E-01  0.90022609888E-01  0.51100000000E-03 0. -1.
</event>
<event>
 8    1  0.1092993E+005  0.1043930E+01  0.7957747E-01            NaN
         13   -1    0    0    0    0  0.00000000000E+00  0.00000000000E+00  0.74505805969E-08  0.10566000000E+00  0.10566000000E+00 0. -1.
     999900   -1    0    0    0    0 -0.00000000000E+00 -0.00000000000E+00 -0.74505805969E-08  0.93827000000E+00  0.93827000000E+00 0. -1.
     999902    2    1    2    0    0  0.20646108943E-01  0.39288942815E-03 -0.20530081232E-01  0.10148112704E+01  0.10143934218E+01 0.  0.
     999903    2    3    3    0    0 -0.31892904416E-01 -0.83220726696E-01 -0.88193470075E-01  0.12670659252E+00  0.18265424190E-01 0.  0.
         14    1    1    2    0    0 -0.20646108943E-01 -0.39288942815E-03  0.20530081232E-01  0.29118729574E-01  0.00000000000E+00 0. -1.
     999901    1    3    3    0    0  0.52539013359E-01  0.83613616124E-01  0.67663388843E-01  0.88810467790E+00  0.88000000000E+00 0.  1.
        -11    1    4    4    0    0 -0.23927341656E-01 -0.50131579129E-01 -0.65067728567E-01  0.85555615401E-01  0.51100000000E-03 0. -1.
         11    1    4    4    0    0 -0.79655627600E-02 -0.33089147566E-01 -0.23125741508E-01  0.41150977121E-01  0.51100000000E-03 0.  1.
</event>
<event>
 8    1  0.1092993E+005  0.1043930E+01  0.7957747E-01            NaN
         13   -1    0    0    0    0  0.00000000000E+00  0.00000000000E+00  0.74505805969E-08  0.10566000000E+00  0.10566000000E+00 0.  1.
     999900   -1    0    0    0    0 -0.00000000000E+00 -0.00000000000E+00 -0.74505805969E-08  0.93827000000E+00  0.93827000000E+00 0. -1.
     999902    2    1    2    0    0 -0.11639983215E-01 -0.12779381322E-01  0.16522612872E-01  0.10200176908E+01  0.10197373637E+01 0.  0.
     999903    2    3    3    0    0 -0.78540733463E-01  0.45784248205E-01  0.93512550840E-01  0.13219289971E+00  0.21575944302E-01 0.  0.
         14    1    1    2    0    0  0.11639983215E-01  0.12779381322E-01 -0.16522612872E-01  0.23912309222E-01  0.00000000000E+00 0. -1.
     999901    1    3    3    0    0  0.66900750248E-01 -0.58563629526E-01 -0.76989937969E-01  0.88782479107E+00  0.88000000000E+00 0. -1.
        -11    1    4    4    0    0 -0.28137151606E-01  0.27325992381E-01  0.46516813214E-01  0.60848041815E-01  0.51100000000E-03 0.  1.
         11    1    4    4    0    0 -0.50403581857E-01  0.18458255824E-01  0.46995737627E-01  0.71344857895E-01  0.51100000000E-03 0. -1.
</event>
<event>
 8    1  0.1092993E+005  0.1043930E+01  0.7957747E-01            NaN
         13   -1    0    0    0    0  0.00000000000E+00  0.00000000000E+00  0.74505805969E-08  0.10566000000E+00  0.10566000000E+00 0. -1.
     999900   -1    0    0    0    0 -0.00000000000E+00 -0.00000000000E+00 -0.74505805969E-08  0.93827000000E+00  0.93827000000E+00 0. -1.
     999902    2    1    2    0    0 -0.20383976909E-01 -0.69215491196E-02  0.48587640554E-02  0.10218614263E+01  0.10216230971E+01 0.  0.
     999903    2    3    3    0    0  0.66373157670E-03  0.12819133215E+00  0.18716011439E-01  0.13119284595E+00  0.20683702971E-01 0.  0.
         14    1    1    2    0    0  0.20383976909E-01  0.69215491196E-02 -0.48587640554E-02  0.22068573696E-01  0.00000000000E+00 0.  1.
     999901    1    3    3    0    0 -0.21047708486E-01 -0.13511288126E+00 -0.13857247384E-01  0.89066858035E+00  0.88000000000E+00 0. -1.
        -11    1    4    4    0    0 -0.87731089193E-02  0.75562374148E-01  0.15433111035E-01  0.77621400813E-01  0.51100000000E-03 0.  1.
         11    1    4    4    0    0  0.94368404960E-02  0.52628957997E-01  0.32829004036E-02  0.53571445141E-01  0.51100000000E-03 0. -1.
</event>
<event>
 8    1  0.1092993E+005  0.1043930E+01  0.7957747E-01            NaN
         13   -1    0    0    0    0  0.00000000000E+00  0.00000000000E+00  0.74505805969E-08  0.10566000000E+00  0.10566000000E+00 0.  1.
     999900   -1    0    0    0    0 -0.00000000000E+00 -0.00000000000E+00 -0.74505805969E-08  0.93827000000E+00  0.93827000000E+00 0. -1.
     999902    2    1    2    0    0 -0.28598848969E-01  0.66980826472E-02 -0.38645974623E-02  0.10143041061E+01  0.10138713558E+01 0.  0.
     999903    2    3    3    0    0 -0.26919830507E-01  0.87667019219E-01 -0.85238568135E-01  0.12684677708E+00  0.20354552939E-01 0.  0.
         14    1    1    2    0    0  0.28598848969E-01 -0.66980826472E-02  0.38645974623E-02  0.29625893861E-01  0.00000000000E+00 0.  1.
     999901    1    3    3    0    0 -0.16790184626E-02 -0.80968936572E-01  0.81373970672E-01  0.88745732906E+00  0.88000000000E+00 0.  1.
        -11    1    4    4    0    0 -0.16275771080E-01  0.22072057410E-01 -0.22948618676E-01  0.35762783207E-01  0.51100000000E-03 0. -1.
         11    1    4    4    0    0 -0.10644059426E-01  0.65594961810E-01 -0.62289949458E-01  0.91083993876E-01  0.51100000000E-03 0.  1.
</event>
<event>
 8    1  0.1092993E+005  0.1043930E+01  0.7957747E-01            NaN
         13   -1    0    0    0    0  0.00000000000E+00  0.00000000000E+00  0.74505805969E-08  0.10566000000E+00  0.10566000000E+00 0.  1.
     999900   -1    0    0    0    0 -0.00000000000E+00 -0.00000000000E+00 -0.74505805969E-08  0.93827000000E+00  0.93827000000E+00 0.  1.
     999902    2    1    2    0    0 -0.22224584560E-01  0.23221092978E-02 -0.10995337116E-01  0.10190257476E+01  0.10187213812E+01 0.  0.
     999903    2    3    3    0    0 -0.10418390834E+00 -0.71368317627E-01 -0.32449377567E-01  0.13189109848E+00  0.19863943114E-01 0.  0.
         14    1    1    2    0    0  0.22224584560E-01 -0.23221092978E-02  0.10995337116E-01  0.24904252423E-01  0.00000000000E+00 0. -1.
     999901    1    3    3    0    0  0.81959323781E-01  0.73690426925E-01  0.21454040451E-01  0.88713464910E+00  0.88000000000E+00 0. -1.
        -11    1    4    4    0    0 -0.92443032419E-01 -0.66288764174E-01 -0.23199613226E-01  0.11609650155E+00  0.51100000000E-03 0.  1.
         11    1    4    4    0    0 -0.11740875922E-01 -0.50795534535E-02 -0.92497643409E-02  0.15794596926E-01  0.51100000000E-03 0. -1.
</event>
<event>
 8    1  0.1092993E+005  0.1043930E+01  0.7957747E-01            NaN
         13   -1    0    0    0    0  0.00000000000E+00  0.00000000000E+00  0.74505805969E-08  0.10566000000E+00  0.10566000000E+00 0.  1.
     999900   -1    0    0    0    0 -0.00000000000E+00 -0.00000000000E+00 -0.74505805969E-08  0.93827000000E+00  0.93827000000E+00 0.  1.
     999902    2    1    2    0    0 -0.83025405905E-02 -0.18604712178E-01 -0.12941437009E-01  0.10197939629E+01  0.10195083023E+01 0.  0.
     999903    2    3    3    0    0  0.72695016868E-01 -0.12454085944E-02 -0.10707068226E+00  0.13090574464E+00  0.19648573981E-01 0.  0.
         14    1    1    2    0    0  0.83025405905E-02  0.18604712178E-01  0.12941437009E-01  0.24136037109E-01  0.00000000000E+00 0. -1.
     999901    1    3    3    0    0 -0.80997557459E-01 -0.17359303583E-01  0.94129245254E-01  0.88888821825E+00  0.88000000000E+00 0. -1.
        -11    1    4    4    0    0  0.61274153402E-01 -0.72953736157E-02 -0.94536879586E-01  0.11289476106E+00  0.51100000000E-03 0. -1.
         11    1    4    4    0    0  0.11420863466E-01  0.60499650213E-02 -0.12533802676E-01  0.18010983582E-01  0.51100000000E-03 0.  1.
</event>
<event>
 8    1  0.1092993E+005  0.1043930E+01  0.7957747E-01            NaN
         13   -1    0    0    0    0  0.00000000000E+00  0.00000000000E+00  0.74505805969E-08  0.10566000000E+00  0.10566000000E+00 0.  1.
     999900   -1    0    0    0    0 -0.00000000000E+00 -0.00000000000E+00 -0.74505805969E-08  0.93827000000E+00  0.93827000000E+00 0. -1.
     999902    2    1    2    0    0 -0.21600410014E-01 -0.28147238252E-02 -0.94786651577E-02  0.10201740434E+01  0.10198974131E+01 0.  0.
     999903    2    3    3    0    0  0.74592000314E-01  0.74862063000E-01 -0.71758822022E-01  0.12935111990E+00  0.20349169359E-01 0.  0.
         14    1    1    2    0    0  0.21600410014E-01  0.28147238252E-02  0.94786651577E-02  0.23755956646E-01  0.00000000000E+00 0.  1.
     999901    1    3    3    0    0 -0.96192410327E-01 -0.77676786825E-01  0.62280156864E-01  0.89082292346E+00  0.88000000000E+00 0.  1.
        -11    1    4    4    0    0  0.93005696248E-02  0.17526222919E-01 -0.20164104813E-01  0.28293485629E-01  0.51100000000E-03 0.  1.
         11    1    4    4    0    0  0.65291430689E-01  0.57335840081E-01 -0.51594717209E-01  0.10105763427E+00  0.51100000000E-03 0. -1.
</event>
<event>
 8    1  0.1092993E+005  0.1043930E+01  0.7957747E-01            NaN
         13   -1    0    0    0    0  0.00000000000E+00  0.00000000000E+00  0.74505805969E-08  0.10566000000E+00  0.10566000000E+00 0.  1.
     999900   -1    0    0    0    0 -0.00000000000E+00 -0.00000000000E+00 -0.74505805969E-08  0.93827000000E+00  0.93827000000E+00 0. -1.
     999902    2    1    2    0    0  0.14178647317E-01 -0.28731256091E-02 -0.19838087049E-01  0.10193772285E+01  0.10190814960E+01 0.  0.
     999903    2    3    3    0    0 -0.43798455760E-01  0.10255099100E+00  0.58819183092E-01  0.12771442509E+00  0.20402636930E-01 0.  0.
         14    1    1    2    0    0 -0.14178647317E-01  0.28731256091E-02  0.19838087049E-01  0.24552771498E-01  0.00000000000E+00 0.  1.
     999901    1    3    3    0    0  0.57977103077E-01 -0.10542411661E+00 -0.78657270141E-01  0.89166280341E+00  0.88000000000E+00 0. -1.
        -11    1    4    4    0    0 -0.33034818967E-01  0.69050397269E-01  0.29953931201E-01  0.82199487484E-01  0.51100000000E-03 0.  1.
         11    1    4    4    0    0 -0.10763636793E-01  0.33500593733E-01  0.28865251891E-01  0.45514937605E-01  0.51100000000E-03 0. -1.
</event>
<event>
 8    1  0.1092993E+005  0.1043930E+01  0.7957747E-01            NaN
         13   -1    0    0    0    0  0.00000000000E+00  0.00000000000E+00  0.74505805969E-08  0.10566000000E+00  0.10566000000E+00 0.  1.
     999900   -1    0    0    0    0 -0.00000000000E+00 -0.00000000000E+00 -0.74505805969E-08  0.93827000000E+00  0.93827000000E+00 0.  1.
     999902    2    1    2    0    0 -0.27016306935E-02  0.22123954994E-01 -0.58079939312E-02  0.10208973930E+01  0.10206375390E+01 0.  0.
     999903    2    3    3    0    0  0.20860057947E-01  0.68333886322E-01  0.10910326909E+00  0.13191195479E+00  0.19813592678E-01 0.  0.
         14    1    1    2    0    0  0.27016306935E-02 -0.22123954994E-01  0.58079939312E-02  0.23032607027E-01  0.00000000000E+00 0.  1.
     999901    1    3    3    0    0 -0.23561688640E-01 -0.46209931328E-01 -0.11491126302E+00  0.88898543818E+00  0.88000000000E+00 0.  1.
        -11    1    4    4    0    0  0.17413852888E-01  0.56490861948E-01  0.74077926326E-01  0.94774785918E-01  0.51100000000E-03 0.  1.
         11    1    4    4    0    0  0.34462050586E-02  0.11843024373E-01  0.35025342761E-01  0.37137168876E-01  0.51100000000E-03 0. -1.
</event>
<event>
 8    1  0.1092993E+005  0.1043930E+01  0.7957747E-01            NaN
         13   -1    0    0    0    0  0.00000000000E+00  0.00000000000E+00  0.74505805969E-08  0.10566000000E+00  0.10566000000E+00 0.  1.
     999900   -1    0    0    0    0 -0.00000000000E+00 -0.00000000000E+00 -0.74505805969E-08  0.93827000000E+00  0.93827000000E+00 0.  1.
     999902    2    1    2    0    0  0.31614712160E-02  0.11990389817E-03 -0.85360941390E-02  0.10348264743E+01  0.10347864310E+01 0.  0.
     999903    2    3    3    0    0 -0.37581763458E-01 -0.68905749034E-01 -0.11938863176E+00  0.14425764650E+00  0.19905576761E-01 0.  0.
         14    1    1    2    0    0 -0.31614712160E-02 -0.11990389817E-03  0.85360941390E-02  0.91035257095E-02  0.00000000000E+00 0.  1.
     999901    1    3    3    0    0  0.40743234674E-01  0.69025652932E-01  0.11085253762E+00  0.89056882779E+00  0.88000000000E+00 0. -1.
        -11    1    4    4    0    0 -0.24255419848E-01 -0.55500187974E-01 -0.78021233471E-01  0.98773327627E-01  0.51100000000E-03 0. -1.
         11    1    4    4    0    0 -0.13326343610E-01 -0.13405561060E-01 -0.41367398287E-01  0.45484318874E-01  0.51100000000E-03 0.  1.
</event>
<event>
 8    1  0.1092993E+005  0.1043930E+01  0.7957747E-01            NaN
         13   -1    0    0    0    0  0.00000000000E+00  0.00000000000E+00  0.74505805969E-08  0.10566000000E+00  0.10566000000E+00 0. -1.
     999900   -1    0    0    0    0 -0.00000000000E+00 -0.00000000000E+00 -0.74505805969E-08  0.93827000000E+00  0.93827000000E+00 0.  1.
     999902    2    1    2    0    0  0.21951156317E-02  0.22101632758E-01  0.88471082006E-02  0.10200224274E+01  0.10197422127E+01 0.  0.
     999903    2    3    3    0    0  0.95434576974E-01 -0.75692960781E-01 -0.36270869874E-01  0.12856686957E+00  0.19408275433E-01 0.  0.
         14    1    1    2    0    0 -0.21951156317E-02 -0.22101632758E-01 -0.88471082006E-02  0.23907572581E-01  0.00000000000E+00 0.  1.
     999901    1    3    3    0    0 -0.93239461342E-01  0.97794593539E-01  0.45117978075E-01  0.89145555785E+00  0.88000000000E+00 0. -1.
        -11    1    4    4    0    0  0.59896393113E-01 -0.53188068797E-01 -0.32083913461E-01  0.86291292691E-01  0.51100000000E-03 0. -1.
         11    1    4    4    0    0  0.35538183861E-01 -0.22504891984E-01 -0.41869564131E-02  0.42275576878E-01  0.51100000000E-03 0.  1.
</event>
<event>
 8    1  0.1092993E+005  0.1043930E+01  0.7957747E-01            NaN
         13   -1    0    0    0    0  0.00000000000E+00  0.00000000000E+00  0.74505805969E-08  0.10566000000E+00  0.10566000000E+00 0. -1.
     999900   -1    0    0    0    0 -0.00000000000E+00 -0.00000000000E+00 -0.74505805969E-08  0.93827000000E+00  0.93827000000E+00 0. -1.
     999902    2    1    2    0    0 -0.74662144973E-02  0.32562239498E-01  0.10209788731E-01  0.10089974423E+01  0.10083925600E+01 0.  0.
     999903    2    3    3    0    0 -0.11554971204E+00  0.28415309953E-01 -0.17662403974E-01  0.12193707313E+00  0.19937991293E-01 0.  0.
         14    1    1    2    0    0  0.74662144973E-02 -0.32562239498E-01 -0.10209788731E-01  0.34932557678E-01  0.00000000000E+00 0.  1.
     999901    1    3    3    0    0  0.10808349754E+00  0.41469295450E-02  0.27872192705E-01  0.88706036919E+00  0.88000000000E+00 0.  1.
        -11    1    4    4    0    0 -0.67498272115E-01  0.15650732298E-01 -0.20128868582E-01  0.72155350677E-01  0.51100000000E-03 0.  1.
         11    1    4    4    0    0 -0.48051439926E-01  0.12764577654E-01  0.24664646075E-02  0.49781722452E-01  0.51100000000E-03 0. -1.
</event>
<event>
 8    1  0.1092993E+005  0.1043930E+01  0.7957747E-01            NaN
         13   -1    0    0    0    0  0.00000000000E+00  0.00000000000E+00  0.74505805969E-08  0.10566000000E+00  0.10566000000E+00 0.  1.
     999900   -1    0    0    0    0 -0.00000000000E+00 -0.00000000000E+00 -0.74505805969E-08  0.93827000000E+00  0.93827000000E+00 0.  1.
     999902    2    1    2    0    0  0.20960697770E-01  0.99340222597E-02 -0.31917351642E-02  0.10205158414E+01  0.10202472052E+01 0.  0.
     999903    2    3    3    0    0  0.33662947325E-01 -0.24827938647E-02  0.12500015034E+00  0.13105044918E+00  0.20244119061E-01 0.  0.
         14    1    1    2    0    0 -0.20960697770E-01 -0.99340222597E-02  0.31917351642E-02  0.23414158593E-01  0.00000000000E+00 0.  1.
     999901    1    3    3    0    0 -0.12702249555E-01  0.12416816124E-01 -0.12819188550E+00  0.88946539223E+00  0.88000000000E+00 0.  1.
        -11    1    4    4    0    0  0.36191107634E-01 -0.84043635663E-03  0.11251992571E+00  0.11820108886E+00  0.51100000000E-03 0. -1.
         11    1    4    4    0    0 -0.25281603089E-02 -0.16423575081E-02  0.12480224634E-01  0.12849360321E-01  0.51100000000E-03 0.  1.
</event>
<event>
 8    1  0.1092993E+005  0.1043930E+01  0.7957747E-01            NaN
         13   -1    0    0    0    0  0.00000000000E+00  0.00000000000E+00  0.74505805969E-08  0.10566000000E+00  0.10566000000E+00 0. -1.
     999900   -1    0    0    0    0 -0.00000000000E+00 -0.00000000000E+00 -0.74505805969E-08  0.93827000000E+00  0.93827000000E+00 0. -1.
     999902    2    1    2    0    0 -0.14889315476E-01  0.19608557948E-02  0.17370308142E-01  0.10209677641E+01  0.10207095136E+01 0.  0.
     999903    2    3    3    0    0 -0.78643533189E-02 -0.11649608548E+00 -0.53920166189E-01  0.13014582415E+00  0.19934022089E-01 0.  0.
         14    1    1    2    0    0  0.14889315476E-01 -0.19608557948E-02 -0.17370308142E-01  0.22962235861E-01  0.00000000000E+00 0.  1.
     999901    1    3    3    0    0 -0.70249621571E-02  0.11845694128E+00  0.71290474331E-01  0.89082193999E+00  0.88000000000E+00 0. -1.
        -11    1    4    4    0    0 -0.10675747446E-01 -0.60762434324E-01 -0.36497981693E-01  0.71682695242E-01  0.51100000000E-03 0. -1.
         11    1    4    4    0    0  0.28113941267E-02 -0.55733651158E-01 -0.17422184495E-01  0.58463128910E-01  0.51100000000E-03 0.  1.
</event>
<event>
 8    1  0.1092993E+005  0.1043930E+01  0.7957747E-01            NaN
         13   -1    0    0    0    0  0.00000000000E+00  0.00000000000E+00  0.74505805969E-08  0.10566000000E+00  0.10566000000E+00 0.  1.
     999900   -1    0    0    0    0 -0.00000000000E+00 -0.00000000000E+00 -0.74505805969E-08  0.93827000000E+00  0.93827000000E+00 0.  1.
     999902    2    1    2    0    0 -0.40434020039E-02  0.13267836058E-01 -0.19350950968E-01  0.10201215167E+01  0.10198436473E+01 0.  0.
     999903    2    3    3    0    0  0.77016263053E-01 -0.44400561829E-01 -0.94584727598E-01  0.13132658279E+00  0.19937050587E-01 0.  0.
         14    1    1    2    0    0  0.40434020039E-02 -0.13267836058E-01  0.19350950968E-01  0.23808483295E-01  0.00000000000E+00 0. -1.
     999901    1    3    3    0    0 -0.81059665057E-01  0.57668397888E-01  0.75233776630E-01  0.88879493392E+00  0.88000000000E+00 0.  1.
        -11    1    4    4    0    0  0.29735392222E-01 -0.26691120268E-01 -0.49668940829E-01  0.63748523558E-01  0.51100000000E-03 0. -1.
         11    1    4    4    0    0  0.47280870832E-01 -0.17709441562E-01 -0.44915786768E-01  0.67578059228E-01  0.51100000000E-03 0.  1.
</event>
<event>
 8    1  0.1092993E+005  0.1043930E+01  0.7957747E-01            NaN
         13   -1    0    0    0    0  0.00000000000E+00  0.00000000000E+00  0.74505805969E-08  0.10566000000E+00  0.10566000000E+00 0.  1.
     999900   -1    0    0    0    0 -0.00000000000E+00 -0.00000000000E+00 -0.74505805969E-08  0.93827000000E+00  0.93827000000E+00 0. -1.
     999902    2    1    2    0    0 -0.12265341353E-01 -0.19503338963E-01  0.33221847496E-02  0.10206522050E+01  0.10203867246E+01 0.  0.
     999903    2    3    3    0    0  0.71606164152E-01 -0.69636326060E-02  0.10731105083E+00  0.13048067211E+00  0.18264973049E-01 0.  0.
         14    1    1    2    0    0  0.12265341353E-01  0.19503338963E-01 -0.33221847496E-02  0.23277795014E-01  0.00000000000E+00 0.  1.
     999901    1    3    3    0    0 -0.83871505505E-01 -0.12539706357E-01 -0.10398886608E+00  0.89017153287E+00  0.88000000000E+00 0. -1.
        -11    1    4    4    0    0  0.45479213755E-01  0.51358320530E-03  0.79505901969E-01  0.91597337409E-01  0.51100000000E-03 0. -1.
         11    1    4    4    0    0  0.26126950396E-01 -0.74772158113E-02  0.27805148862E-01  0.38883334702E-01  0.51100000000E-03 0.  1.
</event>
<event>
 8    1  0.1092993E+005  0.1043930E+01  0.7957747E-01            NaN
         13   -1    0    0    0    0  0.00000000000E+00  0.00000000000E+00  0.74505805969E-08  0.10566000000E+00  0.10566000000E+00 0. -1.
     999900   -1    0    0    0    0 -0.00000000000E+00 -0.00000000000E+00 -0.74505805969E-08  0.93827000000E+00  0.93827000000E+00 0.  1.
     999902    2    1    2    0    0 -0.93680023234E-02 -0.14875204774E-01  0.15450557205E-01  0.10205259212E+01  0.10202575190E+01 0.  0.
     999903    2    3    3    0    0 -0.29632361318E-01 -0.12396188958E+00  0.33562655902E-01  0.13337396291E+00  0.20433678258E-01 0.  0.
         14    1    1    2    0    0  0.93680023234E-02  0.14875204774E-01 -0.15450557205E-01  0.23404078758E-01  0.00000000000E+00 0.  1.
     999901    1    3    3    0    0  0.20264358994E-01  0.10908668480E+00 -0.18112098697E-01  0.88715195833E+00  0.88000000000E+00 0.  1.
        -11    1    4    4    0    0 -0.63003534637E-02 -0.57921026346E-01  0.79980027927E-02  0.58811299224E-01  0.51100000000E-03 0. -1.
         11    1    4    4    0    0 -0.23332007854E-01 -0.66040863231E-01  0.25564653109E-01  0.74562663689E-01  0.51100000000E-03 0.  1.
</event>
<event>
 8    1  0.1092993E+005  0.1043930E+01  0.7957747E-01            NaN
         13   -1    0    0    0    0  0.00000000000E+00  0.00000000000E+00  0.74505805969E-08  0.10566000000E+00  0.10566000000E+00 0. -1.
     999900   -1    0    0    0    0 -0.00000000000E+00 -0.00000000000E+00 -0.74505805969E-08  0.93827000000E+00  0.93827000000E+00 0. -1.
     999902    2    1    2    0    0  0.13444812905E-01  0.13263981060E-01 -0.14739414042E-01  0.10199728192E+01  0.10196914265E+01 0.  0.
     999903    2    3    3    0    0  0.38736787141E-01 -0.54784607110E-01 -0.11138542982E+00  0.13171005022E+00  0.20950692105E-01 0.  0.
         14    1    1    2    0    0 -0.13444812905E-01 -0.13263981060E-01  0.14739414042E-01  0.23957180842E-01  0.00000000000E+00 0. -1.
     999901    1    3    3    0    0 -0.25291974236E-01  0.68048588170E-01  0.96646015775E-01  0.88826276894E+00  0.88000000000E+00 0.  1.
        -11    1    4    4    0    0  0.35443244898E-02  0.14938065759E-02 -0.52744284419E-02  0.65478554171E-02  0.51100000000E-03 0. -1.
         11    1    4    4    0    0  0.35192462651E-01 -0.56278413686E-01 -0.10611100138E+00  0.12516219480E+00  0.51100000000E-03 0.  1.
</event>
<event>
 8    1  0.1092993E+005  0.1043930E+01  0.7957747E-01            NaN
         13   -1    0    0    0    0  0.00000000000E+00  0.00000000000E+00  0.74505805969E-08  0.10566000000E+00  0.10566000000E+00 0. -1.
     999900   -1    0    0    0    0 -0.00000000000E+00 -0.00000000000E+00 -0.74505805969E-08  0.93827000000E+00  0.93827000000E+00 0. -1.
     999902    2    1    2    0    0  0.17489115081E-01  0.54988228915E-02  0.12823016135E-01  0.10215573394E+01  0.10213123233E+01 0.  0.
     999903    2    3    3    0    0 -0.55425655770E-01 -0.39886990838E-01 -0.10774605480E+00  0.12919343562E+00  0.20463531630E-01 0.  0.
         14    1    1    2    0    0 -0.17489115081E-01 -0.54988228915E-02 -0.12823016135E-01  0.22372660600E-01  0.00000000000E+00 0.  1.
     999901    1    3    3    0    0  0.72914770851E-01  0.45385813730E-01  0.12056907094E+00  0.89236390378E+00  0.88000000000E+00 0.  1.
        -11    1    4    4    0    0 -0.51691037919E-01 -0.31224887974E-01 -0.82533636206E-01  0.10226934661E+00  0.51100000000E-03 0.  1.
         11    1    4    4    0    0 -0.37346178504E-02 -0.86621028636E-02 -0.25212418598E-01  0.26924089011E-01  0.51100000000E-03 0. -1.
</event>
<event>
 8    1  0.1092993E+005  0.1043930E+01  0.7957747E-01            NaN
         13   -1    0    0    0    0  0.00000000000E+00  0.00000000000E+00  0.74505805969E-08  0.10566000000E+00  0.10566000000E+00 0. -1.
     999900   -1    0    0    0    0 -0.00000000000E+00 -0.00000000000E+00 -0.74505805969E-08  0.93827000000E+00  0.93827000000E+00 0. -1.
     999902    2    1    2    0    0  0.23541605911E-02  0.26519884161E-02 -0.17657820521E-01  0.10259196213E+01  0.10257615199E+01 0.  0.
     999903    2    3    3    0    0 -0.10470785989E+00  0.38000035981E-01 -0.76830779052E-01  0.13675529471E+00  0.19781389337E-01 0.  0.
         14    1    1    2    0    0 -0.23541605911E-02 -0.26519884161E-02  0.17657820521E-01  0.18010378680E-01  0.00000000000E+00 0. -1.
     999901    1    3    3    0    0  0.10706202048E+00 -0.35348047565E-01  0.59172958531E-01  0.88916432661E+00  0.88000000000E+00 0.  1.
        -11    1    4    4    0    0 -0.35660276558E-01  0.19228301133E-01 -0.18994680281E-01  0.44748652367E-01  0.51100000000E-03 0. -1.
         11    1    4    4    0    0 -0.69047583331E-01  0.18771734848E-01 -0.57836098772E-01  0.92006642342E-01  0.51100000000E-03 0.  1.
</event>
<event>
 8    1  0.1092993E+005  0.1043930E+01  0.7957747E-01            NaN
         13   -1    0    0    0    0  0.00000000000E+00  0.00000000000E+00  0.74505805969E-08  0.10566000000E+00  0.10566000000E+00 0.  1.
     999900   -1    0    0    0    0 -0.00000000000E+00 -0.00000000000E+00 -0.74505805969E-08  0.93827000000E+00  0.93827000000E+00 0.  1.
     999902    2    1    2    0    0  0.88077198942E-02  0.95444793973E-02  0.18429172753E-01  0.10213843258E+01  0.10211354629E+01 0.  0.
     999903    2    3    3    0    0 -0.12049678144E+00  0.35334879688E-01  0.33629413720E-01  0.13143160451E+00  0.19372690476E-01 0.  0.
         14    1    1    2    0    0 -0.88077198942E-02 -0.95444793973E-02 -0.18429172753E-01  0.22545674199E-01  0.00000000000E+00 0. -1.
     999901    1    3    3    0    0  0.12930450133E+00 -0.25790400291E-01 -0.15200240967E-01  0.88995272129E+00  0.88000000000E+00 0.  1.
        -11    1    4    4    0    0 -0.31580127538E-01  0.17504975206E-01  0.13382586062E-01  0.38510821116E-01  0.51100000000E-03 0.  1.
         11    1    4    4    0    0 -0.88916653902E-01  0.17829904482E-01  0.20246827658E-01  0.92920783392E-01  0.51100000000E-03 0. -1.
</event>
<event>
 8    1  0.1092993E+005  0.1043930E+01  0.7957747E-01            NaN
         13   -1    0    0    0    0  0.00000000000E+00  0.00000000000E+00  0.74505805969E-08  0.10566000000E+00  0.10566000000E+00 0. -1.
     999900   -1    0    0    0    0 -0.00000000000E+00 -0.00000000000E+00 -0.74505805969E-08  0.93827000000E+00  0.93827000000E+00 0. -1.
     999902    2    1    2    0    0 -0.36343374762E-02  0.16235903487E-01  0.17999985606E-01  0.10194185241E+01  0.10191237976E+01 0.  0.
     999903    2    3    3    0    0 -0.11521886492E+00  0.20961080679E-01 -0.51364175916E-01  0.12965180128E+00  0.21367200839E-01 0.  0.
         14    1    1    2    0    0  0.36343374762E-02 -0.16235903487E-01 -0.17999985606E-01  0.24511475940E-01  0.00000000000E+00 0.  1.
     999901    1    3    3    0    0  0.11158452744E+00 -0.47251771920E-02  0.69364161522E-01  0.88976672278E+00  0.88000000000E+00 0.  1.
        -11    1    4    4    0    0 -0.97338126610E-01  0.24108989217E-01 -0.38603600582E-01  0.10745442453E+00  0.51100000000E-03 0.  1.
         11    1    4    4    0    0 -0.17880738307E-01 -0.31479085382E-02 -0.12760575334E-01  0.22197376746E-01  0.51100000000E-03 0. -1.
</event>
<event>
 8    1  0.1092993E+005  0.1043930E+01  0.7957747E-01            NaN
         13   -1    0    0    0    0  0.00000000000E+00  0.00000000000E+00  0.74505805969E-08  0.10566000000E+00  0.10566000000E+00 0.  1.
     999900   -1    0    0    0    0 -0.00000000000E+00 -0.00000000000E+00 -0.74505805969E-08  0.93827000000E+00  0.93827000000E+00 0. -1.
     999902    2    1    2    0    0  0.19389994337E-03 -0.93293362162E-02  0.21426832681E-01  0.10205594358E+01  0.10202918106E+01 0.  0.
     999903    2    3    3    0    0  0.56624594535E-01  0.31667935526E-02 -0.11360459511E+00  0.12838565059E+00  0.18986783815E-01 0.  0.
         14    1    1    2    0    0 -0.19389994337E-03  0.93293362162E-02 -0.21426832681E-01  0.23370564182E-01  0.00000000000E+00 0. -1.
     999901    1    3    3    0    0 -0.56430694592E-01 -0.12496129769E-01  0.13503142779E+00  0.89217378523E+00  0.88000000000E+00 0.  1.
        -11    1    4    4    0    0  0.38044619125E-01 -0.56677257452E-03 -0.55704908438E-01  0.67461190477E-01  0.51100000000E-03 0. -1.
         11    1    4    4    0    0  0.18579975410E-01  0.37335661271E-02 -0.57899686675E-01  0.60924460115E-01  0.51100000000E-03 0.  1.
</event>
<event>
 8    1  0.1092993E+005  0.1043930E+01  0.7957747E-01            NaN
         13   -1    0    0    0    0  0.00000000000E+00  0.00000000000E+00  0.74505805969E-08  0.10566000000E+00  0.10566000000E+00 0.  1.
     999900   -1    0    0    0    0 -0.00000000000E+00 -0.00000000000E+00 -0.74505805969E-08  0.93827000000E+00  0.93827000000E+00 0. -1.
     999902    2    1    2    0    0 -0.10042430628E-01 -0.10567676242E-01  0.15802880288E-01  0.10224298321E+01  0.10222037489E+01 0.  0.
     999903    2    3    3    0    0 -0.81634094582E-01 -0.92264922108E-01 -0.47365439008E-01  0.13350348932E+00  0.20068771745E-01 0.  0.
         14    1    1    2    0    0  0.10042430628E-01  0.10567676242E-01 -0.15802880288E-01  0.21500167894E-01  0.00000000000E+00 0. -1.
     999901    1    3    3    0    0  0.71591663954E-01  0.81697245865E-01  0.63168319296E-01  0.88892634278E+00  0.88000000000E+00 0. -1.
        -11    1    4    4    0    0 -0.32417393433E-01 -0.25626167929E-01 -0.94413577741E-02  0.42390898048E-01  0.51100000000E-03 0. -1.
         11    1    4    4    0    0 -0.49216701149E-01 -0.66638754178E-01 -0.37924081234E-01  0.91112591276E-01  0.51100000000E-03 0.  1.
</event>
<event>
 8    1  0.1092993E+005  0.1043930E+01  0.7957747E-01            NaN
         13   -1    0    0    0    0  0.00000000000E+00  0.00000000000E+00  0.74505805969E-08  0.10566000000E+00  0.10566000000E+00 0.  1.
     999900   -1    0    0    0    0 -0.00000000000E+00 -0.00000000000E+00 -0.74505805969E-08  0.93827000000E+00  0.93827000000E+00 0. -1.
     999902    2    1    2    0    0 -0.40431468609E-02 -0.17744018051E-01 -0.15409514734E-01  0.10200836091E+01  0.10198048437E+01 0.  0.
     999903    2    3    3    0    0 -0.12378866610E-01 -0.90434342379E-01  0.91365210186E-01  0.13061511089E+00  0.19521755596E-01 0.  0.
         14    1    1    2    0    0  0.40431468609E-02  0.17744018051E-01  0.15409514734E-01  0.23846390868E-01  0.00000000000E+00 0.  1.
     999901    1    3    3    0    0  0.83357197492E-02  0.72690324329E-01 -0.10677472492E+00  0.88946849824E+00  0.88000000000E+00 0. -1.
        -11    1    4    4    0    0 -0.70439907331E-02 -0.44977573957E-01  0.59150535946E-01  0.74643465811E-01  0.51100000000E-03 0. -1.
         11    1    4    4    0    0 -0.53348758770E-02 -0.45456768422E-01  0.32214674240E-01  0.55971645084E-01  0.51100000000E-03 0.  1.
</event>
<event>
 8    1  0.1092993E+005  0.1043930E+01  0.7957747E-01            NaN
         13   -1    0    0    0    0  0.00000000000E+00  0.00000000000E+00  0.74505805969E-08  0.10566000000E+00  0.10566000000E+00 0. -1.
     999900   -1    0    0    0    0 -0.00000000000E+00 -0.00000000000E+00 -0.74505805969E-08  0.93827000000E+00  0.93827000000E+00 0. -1.
     999902    2    1    2    0    0  0.50774960876E-02 -0.35192386807E-02  0.23504835601E-01  0.10196268458E+01  0.10193371677E+01 0.  0.
     999903    2    3    3    0    0  0.28516908165E-01  0.10539031288E+00 -0.64334798512E-01  0.12826468720E+00  0.19812409854E-01 0.  0.
         14    1    1    2    0    0 -0.50774960876E-02  0.35192386807E-02 -0.23504835601E-01  0.24303154200E-01  0.00000000000E+00 0.  1.
     999901    1    3    3    0    0 -0.23439412077E-01 -0.10890955156E+00  0.87839634114E-01  0.89136215860E+00  0.88000000000E+00 0.  1.
        -11    1    4    4    0    0 -0.13086916926E-02  0.14043293493E-01 -0.13599110947E-01  0.19599074101E-01  0.51100000000E-03 0. -1.
         11    1    4    4    0    0  0.29825599857E-01  0.91347019383E-01 -0.50735687565E-01  0.10866561310E+00  0.51100000000E-03 0.  1.
</event>
<event>
 8    1  0.1092993E+005  0.1043930E+01  0.7957747E-01            NaN
         13   -1    0    0    0    0  0.00000000000E+00  0.00000000000E+00  0.74505805969E-08  0.10566000000E+00  0.10566000000E+00 0.  1.
     999900   -1    0    0    0    0 -0.00000000000E+00 -0.00000000000E+00 -0.74505805969E-08  0.93827000000E+00  0.93827000000E+00 0. -1.
     999902    2    1    2    0    0  0.15409349955E-02  0.11463847902E-01  0.20558271703E-01  0.10203410868E+01  0.10200683784E+01 0.  0.
     999903    2    3    3    0    0 -0.32461120787E-01  0.66430663407E-01  0.10934822441E+00  0.13351464027E+00  0.20059102219E-01 0.  0.
         14    1    1    2    0    0 -0.15409349955E-02 -0.11463847902E-01 -0.20558271703E-01  0.23588913176E-01  0.00000000000E+00 0. -1.
     999901    1    3    3    0    0  0.34002055782E-01 -0.54966815505E-01 -0.88789952706E-01  0.88682644655E+00  0.88000000000E+00 0. -1.
        -11    1    4    4    0    0 -0.68987091532E-02  0.28587146093E-01  0.30341571563E-01  0.42257415866E-01  0.51100000000E-03 0.  1.
         11    1    4    4    0    0 -0.25562411633E-01  0.37843517314E-01  0.79006652846E-01  0.91257224405E-01  0.51100000000E-03 0. -1.
</event>
<event>
 8    1  0.1092993E+005  0.1043930E+01  0.7957747E-01            NaN
         13   -1    0    0    0    0  0.00000000000E+00  0.00000000000E+00  0.74505805969E-08  0.10566000000E+00  0.10566000000E+00 0. -1.
     999900   -1    0    0    0    0 -0.00000000000E+00 -0.00000000000E+00 -0.74505805969E-08  0.93827000000E+00  0.93827000000E+00 0. -1.
     999902    2    1    2    0    0  0.12377361498E-01  0.60132715268E-02 -0.19467700260E-01  0.10200899105E+01  0.10198112942E+01 0.  0.
     999903    2    3    3    0    0  0.24781510665E-01 -0.10973760918E-01  0.12373296894E+00  0.12826657946E+00  0.20197056825E-01 0.  0.
         14    1    1    2    0    0 -0.12377361498E-01 -0.60132715268E-02  0.19467700260E-01  0.23840089461E-01  0.00000000000E+00 0. -1.
     999901    1    3    3    0    0 -0.12404149167E-01  0.16987032445E-01 -0.14320066920E+00  0.89182333107E+00  0.88000000000E+00 0. -1.
        -11    1    4    4    0    0  0.12445389604E-01  0.42875444920E-02  0.65573016464E-01  0.66883124698E-01  0.51100000000E-03 0.  1.
         11    1    4    4    0    0  0.12336121061E-01 -0.15261305410E-01  0.58159952480E-01  0.61383454767E-01  0.51100000000E-03 0. -1.
</event>
<event>
 8    1  0.1092993E+005  0.1043930E+01  0.7957747E-01            NaN
         13   -1    0    0    0    0  0.00000000000E+00  0.00000000000E+00  0.74505805969E-08  0.10566000000E+00  0.10566000000E+00 0. -1.
     999900   -1    0    0    0    0 -0.00000000000E+00 -0.00000000000E+00 -0.74505805969E-08  0.93827000000E+00  0.93827000000E+00 0.  1.
     999902    2    1    2    0    0  0.20168697605E-01  0.63954790146E-02  0.96067581095E-02  0.10206927817E+01  0.10204282367E+01 0.  0.
     999903    2    3    3    0    0  0.64443539279E-01  0.58663750766E-01  0.99112631265E-01  0.13350422494E+00  0.20140977946E-01 0.  0.
         14    1    1    2    0    0 -0.20168697605E-01 -0.63954790146E-02 -0.96067581095E-02  0.23237218342E-01  0.00000000000E+00 0.  1.
     999901    1    3    3    0    0 -0.44274841674E-01 -0.52268271752E-01 -0.89505873155E-01  0.88718855672E+00  0.88000000000E+00 0.  1.
        -11    1    4    4    0    0  0.90594168761E-02  0.18322175872E-01  0.17260587984E-01  0.26757507010E-01  0.51100000000E-03 0. -1.
         11    1    4    4    0    0  0.55384122403E-01  0.40341574894E-01  0.81852043281E-01  0.10674671793E+00  0.51100000000E-03 0.  1.
</event>
<event>
 8    1  0.1092993E+005  0.1043930E+01  0.7957747E-01            NaN
         13   -1    0    0    0    0  0.00000000000E+00  0.00000000000E+00  0.74505805969E-08  0.10566000000E+00  0.10566000000E+00 0.  1.
     999900   -1    0    0    0    0 -0.00000000000E+00 -0.00000000000E+00 -0.74505805969E-08  0.93827000000E+00  0.93827000000E+00 0.  1.
     999902    2    1    2    0    0 -0.21351012006E-02  0.22148937776E-01  0.14903634187E-01  0.10171484315E+01  0.10167957903E+01 0.  0.
     999903    2    3    3    0    0  0.56954251852E-02 -0.50608502137E-01 -0.11234833664E+00  0.12498923810E+00  0.20161908106E-01 0.  0.
         14    1    1    2    0    0  0.21351012006E-02 -0.22148937776E-01 -0.14903634187E-01  0.26781568545E-01  0.00000000000E+00 0. -1.
     999901    1    3    3    0    0 -0.78305263857E-02  0.72757439914E-01  0.12725197083E+00  0.89215919335E+00  0.88000000000E+00 0. -1.
        -11    1    4    4    0    0 -0.29462112981E-02 -0.15788930331E-01 -0.55374086635E-01  0.57658660005E-01  0.51100000000E-03 0. -1.
         11    1    4    4    0    0  0.86416364833E-02 -0.34819571807E-01 -0.56974250006E-01  0.67330578096E-01  0.51100000000E-03 0.  1.
</event>
<event>
 8    1  0.1092993E+005  0.1043930E+01  0.7957747E-01            NaN
         13   -1    0    0    0    0  0.00000000000E+00  0.00000000000E+00  0.74505805969E-08  0.10566000000E+00  0.10566000000E+00 0.  1.
     999900   -1    0    0    0    0 -0.00000000000E+00 -0.00000000000E+00 -0.74505805969E-08  0.93827000000E+00  0.93827000000E+00 0.  1.
     999902    2    1    2    0    0 -0.16581357106E-01 -0.15669756506E-01 -0.16625605424E-01  0.10157006991E+01  0.10153083358E+01 0.  0.
     999903    2    3    3    0    0 -0.75064637008E-01 -0.57449857045E-01 -0.86962746443E-01  0.12997321042E+00  0.19882916158E-01 0.  0.
         14    1    1    2    0    0  0.16581357106E-01  0.15669756506E-01  0.16625605424E-01  0.28229300880E-01  0.00000000000E+00 0. -1.
     999901    1    3    3    0    0  0.58483279901E-01  0.41780100539E-01  0.70337141018E-01  0.88572748870E+00  0.88000000000E+00 0.  1.
        -11    1    4    4    0    0 -0.58263517400E-01 -0.51807164228E-01 -0.77250849786E-01  0.10975688880E+00  0.51100000000E-03 0.  1.
         11    1    4    4    0    0 -0.16801119607E-01 -0.56426928165E-02 -0.97118966568E-02  0.20216321623E-01  0.51100000000E-03 0. -1.
</event>
<event>
 8    1  0.1092993E+005  0.1043930E+01  0.7957747E-01            NaN
         13   -1    0    0    0    0  0.00000000000E+00  0.00000000000E+00  0.74505805969E-08  0.10566000000E+00  0.10566000000E+00 0. -1.
     999900   -1    0    0    0    0 -0.00000000000E+00 -0.00000000000E+00 -0.74505805969E-08  0.93827000000E+00  0.93827000000E+00 0.  1.
     999902    2    1    2    0    0 -0.23102514798E-01  0.31402623097E-02  0.18923442311E-02  0.10205383689E+01  0.10202702554E+01 0.  0.
     999903    2    3    3    0    0 -0.83889035711E-02 -0.10166838476E+00 -0.78993877849E-01  0.13051369299E+00  0.19671226636E-01 0.  0.
         14    1    1    2    0    0  0.23102514798E-01 -0.31402623097E-02 -0.18923442311E-02  0.23391631069E-01  0.00000000000E+00 0.  1.
     999901    1    3    3    0    0 -0.14713611227E-01  0.10480864707E+00  0.80886222080E-01  0.89002467594E+00  0.88000000000E+00 0.  1.
        -11    1    4    4    0    0 -0.72554977299E-02 -0.40051797828E-01 -0.42687500887E-01  0.58985359281E-01  0.51100000000E-03 0. -1.
         11    1    4    4    0    0 -0.11334058412E-02 -0.61616586936E-01 -0.36306376962E-01  0.71528333712E-01  0.51100000000E-03 0.  1.
</event>
<event>
 8    1  0.1092993E+005  0.1043930E+01  0.7957747E-01            NaN
         13   -1    0    0    0    0  0.00000000000E+00  0.00000000000E+00  0.74505805969E-08  0.10566000000E+00  0.10566000000E+00 0.  1.
     999900   -1    0    0    0    0 -0.00000000000E+00 -0.00000000000E+00 -0.74505805969E-08  0.93827000000E+00  0.93827000000E+00 0. -1.
     999902    2    1    2    0    0 -0.78580514154E-02  0.61344943642E-02  0.20878887388E-01  0.10207932558E+01  0.10205310197E+01 0.  0.
     999903    2    3    3    0    0  0.10631676427E+00 -0.51638415803E-01  0.53114153486E-01  0.13095466929E+00  0.18927011310E-01 0.  0.
         14    1    1    2    0    0  0.78580514154E-02 -0.61344943642E-02 -0.20878887388E-01  0.23136744190E-01  0.00000000000E+00 0. -1.
     999901    1    3    3    0    0 -0.11417481568E+00  0.57772910167E-01 -0.32235266099E-01  0.88983858652E+00  0.88000000000E+00 0. -1.
        -11    1    4    4    0    0  0.32983973200E-01 -0.14557801997E-01  0.25878117694E-01  0.44382543679E-01  0.51100000000E-03 0. -1.
         11    1    4    4    0    0  0.73332791065E-01 -0.37080613806E-01  0.27236035792E-01  0.86572125608E-01  0.51100000000E-03 0.  1.
</event>
<event>
 8    1  0.1092993E+005  0.1043930E+01  0.7957747E-01            NaN
         13   -1    0    0    0    0  0.00000000000E+00  0.00000000000E+00  0.74505805969E-08  0.10566000000E+00  0.10566000000E+00 0. -1.
     999900   -1    0    0    0    0 -0.00000000000E+00 -0.00000000000E+00 -0.74505805969E-08  0.93827000000E+00  0.93827000000E+00 0.  1.
     999902    2    1    2    0    0  0.14567059996E-01 -0.10964462404E-01 -0.14340249455E-01  0.10207338489E+01  0.10204702489E+01 0.  0.
     999903    2    3    3    0    0  0.10052976371E+00 -0.82181810133E-01  0.20413581888E-01  0.13300116059E+00  0.20310368929E-01 0.  0.
         14    1    1    2    0    0 -0.14567059996E-01  0.10964462404E-01  0.14340249455E-01  0.23196151129E-01  0.00000000000E+00 0. -1.
     999901    1    3    3    0    0 -0.85962703709E-01  0.71217347729E-01 -0.34753831344E-01  0.88773268828E+00  0.88000000000E+00 0.  1.
        -11    1    4    4    0    0  0.91893758968E-01 -0.69217743738E-01  0.22651595446E-01  0.11725576695E+00  0.51100000000E-03 0.  1.
         11    1    4    4    0    0  0.86360047373E-02 -0.12964066395E-01 -0.22380135579E-02  0.15745393644E-01  0.51100000000E-03 0. -1.
</event>
<event>
 8    1  0.1092993E+005  0.1043930E+01  0.7957747E-01            NaN
         13   -1    0    0    0    0  0.00000000000E+00  0.00000000000E+00  0.74505805969E-08  0.10566000000E+00  0.10566000000E+00 0.  1.
     999900   -1    0    0    0    0 -0.00000000000E+00 -0.00000000000E+00 -0.74505805969E-08  0.93827000000E+00  0.93827000000E+00 0.  1.
     999902    2    1    2    0    0  0.22869008735E-01 -0.52702980552E-03 -0.49164476007E-02  0.10205325476E+01  0.10202642991E+01 0.  0.
     999903    2    3    3    0    0  0.84470008373E-01  0.96714499655E-01  0.25987044391E-01  0.13249785008E+00  0.19785778798E-01 0.  0.
         14    1    1    2    0    0 -0.22869008735E-01  0.52702980552E-03  0.49164476007E-02  0.23397452381E-01  0.00000000000E+00 0. -1.
     999901    1    3    3    0    0 -0.61600999638E-01 -0.97241529461E-01 -0.30903491991E-01  0.88803469753E+00  0.88000000000E+00 0.  1.
        -11    1    4    4    0    0  0.41926810323E-01  0.37387397054E-01  0.43161177927E-02  0.56343277115E-01  0.51100000000E-03 0.  1.
         11    1    4    4    0    0  0.42543198050E-01  0.59327102601E-01  0.21670926598E-01  0.76154572969E-01  0.51100000000E-03 0. -1.
</event>
<event>
 8    1  0.1092993E+005  0.1043930E+01  0.7957747E-01            NaN
         13   -1    0    0    0    0  0.00000000000E+00  0.00000000000E+00  0.74505805969E-08  0.10566000000E+00  0.10566000000E+00 0. -1.
     999900   -1    0    0    0    0 -0.00000000000E+00 -0.00000000000E+00 -0.74505805969E-08  0.93827000000E+00  0.93827000000E+00 0. -1.
     999902    2    1    2    0    0  0.20173245324E-01 -0.28484830535E-02 -0.97833963892E-02  0.10213293689E+01  0.10210792776E+01 0.  0.
     999903    2    3    3    0    0 -0.44012376079E-01 -0.48279818499E-01 -0.11270009230E+00  0.13184882016E+00  0.20365913923E-01 0.  0.
         14    1    1    2    0    0 -0.20173245324E-01  0.28484830535E-02  0.97833963892E-02  0.22600631130E-01  0.00000000000E+00 0.  1.
     999901    1    3    3    0    0  0.64185621403E-01  0.45431335445E-01  0.10291669591E+00  0.88948054871E+00  0.88000000000E+00 0. -1.
        -11    1    4    4    0    0 -0.25598785850E-02 -0.74687504491E-02 -0.27994885705E-01  0.29091406949E-01  0.51100000000E-03 0.  1.
         11    1    4    4    0    0 -0.41452497494E-01 -0.40811068050E-01 -0.84705206598E-01  0.10275741321E+00  0.51100000000E-03 0. -1.
</event>
<event>
 8    1  0.1092993E+005  0.1043930E+01  0.7957747E-01            NaN
         13   -1    0    0    0    0  0.00000000000E+00  0.00000000000E+00  0.74505805969E-08  0.10566000000E+00  0.10566000000E+00 0. -1.
     999900   -1    0    0    0    0 -0.00000000000E+00 -0.00000000000E+00 -0.74505805969E-08  0.93827000000E+00  0.93827000000E+00 0. -1.
     999902    2    1    2    0    0  0.31164668870E-02 -0.18431921111E-01 -0.80844248281E-02  0.10235632132E+01  0.10233605647E+01 0.  0.
     999903    2    3    3    0    0  0.78488780948E-01 -0.77735567672E-01  0.74179726795E-01  0.13453829850E+00  0.19864910794E-01 0.  0.
         14    1    1    2    0    0 -0.31164668870E-02  0.18431921111E-01  0.80844248281E-02  0.20366786848E-01  0.00000000000E+00 0. -1.
     999901    1    3    3    0    0 -0.75372314061E-01  0.59303646561E-01 -0.82264151623E-01  0.88902491465E+00  0.88000000000E+00 0. -1.
        -11    1    4    4    0    0  0.38081698929E-01 -0.24386005659E-01  0.27274157702E-01  0.52811304327E-01  0.51100000000E-03 0.  1.
         11    1    4    4    0    0  0.40407082019E-01 -0.53349562013E-01  0.46905569093E-01  0.81726994177E-01  0.51100000000E-03 0. -1.
</event>
<event>
 8    1  0.1092993E+005  0.1043930E+01  0.7957747E-01            NaN
         13   -1    0    0    0    0  0.00000000000E+00  0.00000000000E+00  0.74505805969E-08  0.10566000000E+00  0.10566000000E+00 0.  1.
     999900   -1    0    0    0    0 -0.00000000000E+00 -0.00000000000E+00 -0.74505805969E-08  0.93827000000E+00  0.93827000000E+00 0.  1.
     999902    2    1    2    0    0  0.11825213596E-01 -0.20001275889E-01  0.77911969735E-02  0.10194230731E+01  0.10191284574E+01 0.  0.
     999903    2    3    3    0    0 -0.51536317936E-01  0.22585364743E-01  0.11514342912E+00  0.12961814655E+00  0.19410406452E-01 0.  0.
         14    1    1    2    0    0 -0.11825213596E-01  0.20001275889E-01 -0.77911969735E-02  0.24506926859E-01  0.00000000000E+00 0. -1.
     999901    1    3    3    0    0  0.63361531533E-01 -0.42586640632E-01 -0.10735223215E+00  0.88980492659E+00  0.88000000000E+00 0.  1.
        -11    1    4    4    0    0 -0.25438008310E-01  0.10617226685E-01  0.35448158675E-01  0.44907135777E-01  0.51100000000E-03 0. -1.
         11    1    4    4    0    0 -0.26098309626E-01  0.11968138058E-01  0.79695270445E-01  0.84711010773E-01  0.51100000000E-03 0.  1.
</event>
<event>
 8    1  0.1092993E+005  0.1043930E+01  0.7957747E-01            NaN
         13   -1    0    0    0    0  0.00000000000E+00  0.00000000000E+00  0.74505805969E-08  0.10566000000E+00  0.10566000000E+00 0.  1.
     999900   -1    0    0    0    0 -0.00000000000E+00 -0.00000000000E+00 -0.74505805969E-08  0.93827000000E+00  0.93827000000E+00 0.  1.
     999902    2    1    2    0    0  0.48442895467E-02 -0.10406227483E-01  0.21663246720E-01  0.10194136183E+01  0.10191187724E+01 0.  0.
     999903    2    3    3    0    0  0.64616618965E-01  0.97193112325E-01 -0.50341032063E-01  0.12793452971E+00  0.14533267087E-01 0.  0.
         14    1    1    2    0    0 -0.48442895467E-02  0.10406227483E-01 -0.21663246720E-01  0.24516381669E-01  0.00000000000E+00 0. -1.
     999901    1    3    3    0    0 -0.59772329418E-01 -0.10759933981E+00  0.72004278784E-01  0.89147908862E+00  0.88000000000E+00 0. -1.
        -11    1    4    4    0    0  0.31732941992E-01  0.41850418872E-01 -0.29648361476E-01  0.60313544304E-01  0.51100000000E-03 0.  1.
         11    1    4    4    0    0  0.32883676973E-01  0.55342693453E-01 -0.20692670587E-01  0.67620985403E-01  0.51100000000E-03 0. -1.
</event>
<event>
 8    1  0.1092993E+005  0.1043930E+01  0.7957747E-01            NaN
         13   -1    0    0    0    0  0.00000000000E+00  0.00000000000E+00  0.74505805969E-08  0.10566000000E+00  0.10566000000E+00 0. -1.
     999900   -1    0    0    0    0 -0.00000000000E+00 -0.00000000000E+00 -0.74505805969E-08  0.93827000000E+00  0.93827000000E+00 0. -1.
     999902    2    1    2    0    0 -0.10693495954E-01 -0.17523923267E-01 -0.12347737433E-01  0.10199736780E+01  0.10196923058E+01 0.  0.
     999903    2    3    3    0    0  0.81207507749E-01  0.31244948682E-01  0.91666667697E-01  0.12776115076E+00  0.18687630770E-01 0.  0.
         14    1    1    2    0    0  0.10693495954E-01  0.17523923267E-01  0.12347737433E-01  0.23956321965E-01  0.00000000000E+00 0.  1.
     999901    1    3    3    0    0 -0.91901003704E-01 -0.48768871948E-01 -0.10401440513E+00  0.89221252728E+00  0.88000000000E+00 0. -1.
        -11    1    4    4    0    0  0.42046388707E-01  0.13504444942E-01  0.33518373132E-01  0.55443766962E-01  0.51100000000E-03 0. -1.
         11    1    4    4    0    0  0.39161119043E-01  0.17740503739E-01  0.58148294565E-01  0.72317383798E-01  0.51100000000E-03 0.  1.
</event>
<event>
 8    1  0.1092993E+005  0.1043930E+01  0.7957747E-01            NaN
         13   -1    0    0    0    0  0.00000000000E+00  0.00000000000E+00  0.74505805969E-08  0.10566000000E+00  0.10566000000E+00 0. -1.
     999900   -1    0    0    0    0 -0.00000000000E+00 -0.00000000000E+00 -0.74505805969E-08  0.93827000000E+00  0.93827000000E+00 0. -1.
     999902    2    1    2    0    0  0.17378058399E-01  0.11319404313E-01  0.59816884116E-02  0.10223451344E+01  0.10221172474E+01 0.  0.
     999903    2    3    3    0    0 -0.11492920275E+00  0.48479088993E-01 -0.33201690061E-01  0.13081757414E+00  0.21258922060E-01 0.  0.
         14    1    1    2    0    0 -0.17378058399E-01 -0.11319404313E-01 -0.59816884116E-02  0.21584865623E-01  0.00000000000E+00 0. -1.
     999901    1    3    3    0    0  0.13230726114E+00 -0.37159684680E-01  0.39183378472E-01  0.89152756024E+00  0.88000000000E+00 0.  1.
        -11    1    4    4    0    0 -0.68729881995E-01  0.39868919609E-01 -0.18631134035E-01  0.81613158903E-01  0.51100000000E-03 0.  1.
         11    1    4    4    0    0 -0.46199320751E-01  0.86101693838E-02 -0.14570556026E-01  0.49204415235E-01  0.51100000000E-03 0. -1.
</event>
<event>
 8    1  0.1092993E+005  0.1043930E+01  0.7957747E-01            NaN
         13   -1    0    0    0    0  0.00000000000E+00  0.00000000000E+00  0.74505805969E-08  0.10566000000E+00  0.10566000000E+00 0. -1.
     999900   -1    0    0    0    0 -0.00000000000E+00 -0.00000000000E+00 -0.74505805969E-08  0.93827000000E+00  0.93827000000E+00 0.  1.
     999902    2    1    2    0    0 -0.26227558822E-02  0.19287837677E-01  0.13425637615E-01  0.10202837048E+01  0.10200096524E+01 0.  0.
     999903    2    3    3    0    0  0.12810781904E+00 -0.22648859584E-02 -0.11150329410E-01  0.13002588751E+00  0.19122200912E-01 0.  0.
         14    1    1    2    0    0  0.26227558822E-02 -0.19287837677E-01 -0.13425637615E-01  0.23646295186E-01  0.00000000000E+00 0.  1.
     999901    1    3    3    0    0 -0.13073057493E+00  0.21552723635E-01  0.24575967026E-01  0.89025781730E+00  0.88000000000E+00 0.  1.
        -11    1    4    4    0    0  0.68934718793E-01 -0.99039039991E-02 -0.20916270296E-02  0.69675812117E-01  0.51100000000E-03 0.  1.
         11    1    4    4    0    0  0.59173100252E-01  0.76390180408E-02 -0.90587023806E-02  0.60350075392E-01  0.51100000000E-03 0. -1.
</event>
<event>
 8    1  0.1092993E+005  0.1043930E+01  0.7957747E-01            NaN
         13   -1    0    0    0    0  0.00000000000E+00  0.00000000000E+00  0.74505805969E-08  0.10566000000E+00  0.10566000000E+00 0.  1.
     999900   -1    0    0    0    0 -0.00000000000E+00 -0.00000000000E+00 -0.74505805969E-08  0.93827000000E+00  0.93827000000E+00 0. -1.
     999902    2    1    2    0    0  0.46878177117E-03 -0.62637458789E-02 -0.22490451596E-01  0.10205788826E+01  0.10203117078E+01 0.  0.
     999903    2    3    3    0    0  0.12280796484E-01 -0.11124957635E+00  0.63886944084E-01  0.13006071732E+00  0.17520341424E-01 0.  0.
         14    1    1    2    0    0 -0.46878177117E-03  0.62637458789E-02  0.22490451596E-01  0.23351117356E-01  0.00000000000E+00 0.  1.
     999901    1    3    3    0    0 -0.11812014713E-01  0.10498583047E+00 -0.86377395680E-01  0.89051816533E+00  0.88000000000E+00 0.  1.
        -11    1    4    4    0    0  0.15924566223E-01 -0.66355222092E-01  0.38881594837E-01  0.78540733675E-01  0.51100000000E-03 0.  1.
         11    1    4    4    0    0 -0.36437697386E-02 -0.44894354262E-01  0.25005349248E-01  0.51519983642E-01  0.51100000000E-03 0. -1.
</event>
<event>
 8    1  0.1092993E+005  0.1043930E+01  0.7957747E-01            NaN
         13   -1    0    0    0    0  0.00000000000E+00  0.00000000000E+00  0.74505805969E-08  0.10566000000E+00  0.10566000000E+00 0.  1.
     999900   -1    0    0    0    0 -0.00000000000E+00 -0.00000000000E+00 -0.74505805969E-08  0.93827000000E+00  0.93827000000E+00 0.  1.
     999902    2    1    2    0    0 -0.21004398966E-01  0.10442788089E-01 -0.74752667016E-02  0.10193105725E+01  0.10190132124E+01 0.  0.
     999903    2    3    3    0    0  0.72496859181E-02 -0.89020211262E-01  0.89356488184E-01  0.12798146923E+00  0.20433270089E-01 0.  0.
         14    1    1    2    0    0  0.21004398966E-01 -0.10442788089E-01  0.74752667016E-02  0.24619427517E-01  0.00000000000E+00 0.  1.
     999901    1    3    3    0    0 -0.28254084884E-01  0.99462999351E-01 -0.96831754886E-01  0.89132910325E+00  0.88000000000E+00 0. -1.
        -11    1    4    4    0    0 -0.49216354856E-02 -0.88463899895E-02  0.13966696365E-01  0.17257196761E-01  0.51100000000E-03 0. -1.
         11    1    4    4    0    0  0.12171321404E-01 -0.80173821272E-01  0.75389791819E-01  0.11072427247E+00  0.51100000000E-03 0.  1.
</event>
<event>
 8    1  0.1092993E+005  0.1043930E+01  0.7957747E-01            NaN
         13   -1    0    0    0    0  0.00000000000E+00  0.00000000000E+00  0.74505805969E-08  0.10566000000E+00  0.10566000000E+00 0. -1.
     999900   -1    0    0    0    0 -0.00000000000E+00 -0.00000000000E+00 -0.74505805969E-08  0.93827000000E+00  0.93827000000E+00 0.  1.
     999902    2    1    2    0    0 -0.19535212856E-01  0.10681410940E-01  0.69468930421E-02  0.10206066983E+01  0.10203401669E+01 0.  0.
     999903    2    3    3    0    0 -0.12535058389E+00  0.40245281964E-01 -0.87311755696E-02  0.13363617054E+00  0.21211813858E-01 0.  0.
         14    1    1    2    0    0  0.19535212856E-01 -0.10681410940E-01 -0.69468930421E-02  0.23323301737E-01  0.00000000000E+00 0.  1.
     999901    1    3    3    0    0  0.10581537103E+00 -0.29563871024E-01  0.15678068612E-01  0.88697052772E+00  0.88000000000E+00 0. -1.
        -11    1    4    4    0    0 -0.26769136855E-02 -0.64697940070E-03  0.26106650540E-02  0.38289871048E-02  0.51100000000E-03 0. -1.
         11    1    4    4    0    0 -0.12267367021E+00  0.40892261364E-01 -0.11341840624E-01  0.12980718343E+00  0.51100000000E-03 0.  1.
</event>
<event>
 8    1  0.1092993E+005  0.1043930E+01  0.7957747E-01            NaN
         13   -1    0    0    0    0  0.00000000000E+00  0.00000000000E+00  0.74505805969E-08  0.10566000000E+00  0.10566000000E+00 0. -1.
     999900   -1    0    0    0    0 -0.00000000000E+00 -0.00000000000E+00 -0.74505805969E-08  0.93827000000E+00  0.93827000000E+00 0. -1.
     999902    2    1    2    0    0  0.86615358512E-02 -0.12569323710E-01 -0.20040460112E-01  0.10187381334E+01  0.10184266072E+01 0.  0.
     999903    2    3    3    0    0 -0.10059618485E+00  0.66349494891E-02 -0.79171236683E-01  0.12980478247E+00  0.20434820102E-01 0.  0.
         14    1    1    2    0    0 -0.86615358512E-02  0.12569323710E-01  0.20040460112E-01  0.25191866611E-01  0.00000000000E+00 0. -1.
     999901    1    3    3    0    0  0.10925772070E+00 -0.19204273199E-01  0.59130776570E-01  0.88893335092E+00  0.88000000000E+00 0.  1.
        -11    1    4    4    0    0 -0.57080886138E-01  0.12963707719E-01 -0.50481624421E-01  0.77297741269E-01  0.51100000000E-03 0. -1.
         11    1    4    4    0    0 -0.43515298713E-01 -0.63287582302E-02 -0.28689612262E-01  0.52507041199E-01  0.51100000000E-03 0.  1.
</event>
<event>
 8    1  0.1092993E+005  0.1043930E+01  0.7957747E-01            NaN
         13   -1    0    0    0    0  0.00000000000E+00  0.00000000000E+00  0.74505805969E-08  0.10566000000E+00  0.10566000000E+00 0.  1.
     999900   -1    0    0    0    0 -0.00000000000E+00 -0.00000000000E+00 -0.74505805969E-08  0.93827000000E+00  0.93827000000E+00 0.  1.
     999902    2    1    2    0    0 -0.16877712754E-01  0.15044645604E-01 -0.41361574494E-02  0.10209450843E+01  0.10206863176E+01 0.  0.
     999903    2    3    3    0    0 -0.78462294463E-01  0.62573064017E-02 -0.10523100706E+00  0.13297546400E+00  0.20332821850E-01 0.  0.
         14    1    1    2    0    0  0.16877712754E-01 -0.15044645604E-01  0.41361574494E-02  0.22984915653E-01  0.00000000000E+00 0.  1.
     999901    1    3    3    0    0  0.61584581709E-01  0.87873392020E-02  0.10109484961E+00  0.88796962034E+00  0.88000000000E+00 0. -1.
        -11    1    4    4    0    0 -0.33568210636E-01  0.97285557490E-02 -0.57998619131E-01  0.67716840626E-01  0.51100000000E-03 0.  1.
         11    1    4    4    0    0 -0.44894083827E-01 -0.34712493473E-02 -0.47232387928E-01  0.65258623377E-01  0.51100000000E-03 0. -1.
</event>
<event>
 8    1  0.1092993E+005  0.1043930E+01  0.7957747E-01            NaN
         13   -1    0    0    0    0  0.00000000000E+00  0.00000000000E+00  0.74505805969E-08  0.10566000000E+00  0.10566000000E+00 0. -1.
     999900   -1    0    0    0    0 -0.00000000000E+00 -0.00000000000E+00 -0.74505805969E-08  0.93827000000E+00  0.93827000000E+00 0.  1.
     999902    2    1    2    0    0 -0.44660951876E-02 -0.19772911372E-01  0.12079600132E-01  0.10203327381E+01  0.10200598343E+01 0.  0.
     999903    2    3    3    0    0 -0.12476567333E+00 -0.16427307917E-01  0.33947570379E-01  0.13187261536E+00  0.20040445571E-01 0.  0.
         14    1    1    2    0    0  0.44660951876E-02  0.19772911372E-01 -0.12079600132E-01  0.23597261911E-01  0.00000000000E+00 0. -1.
     999901    1    3    3    0    0  0.12029957814E+00 -0.33456034557E-02 -0.21867970248E-01  0.88846012273E+00  0.88000000000E+00 0. -1.
        -11    1    4    4    0    0 -0.50905558335E-01 -0.86161622284E-02  0.23993770432E-01  0.56934842245E-01  0.51100000000E-03 0. -1.
         11    1    4    4    0    0 -0.73860114997E-01 -0.78111456882E-02  0.99537999468E-02  0.74937773110E-01  0.51100000000E-03 0.  1.
</event>
<event>
 8    1  0.1092993E+005  0.1043930E+01  0.7957747E-01            NaN
         13   -1    0    0    0    0  0.00000000000E+00  0.00000000000E+00  0.74505805969E-08  0.10566000000E+00  0.10566000000E+00 0.  1.
     999900   -1    0    0    0    0 -0.00000000000E+00 -0.00000000000E+00 -0.74505805969E-08  0.93827000000E+00  0.93827000000E+00 0.  1.
     999902    2    1    2    0    0  0.14318907237E-01  0.16497475498E-01 -0.86400859852E-02  0.10204385358E+01  0.10201681021E+01 0.  0.
     999903    2    3    3    0    0  0.70677690687E-01  0.10691576379E+00  0.29607434645E-01  0.13318735824E+00  0.20879552220E-01 0.  0.
         14    1    1    2    0    0 -0.14318907237E-01 -0.16497475498E-01  0.86400859852E-02  0.23491464154E-01  0.00000000000E+00 0.  1.
     999901    1    3    3    0    0 -0.56358783450E-01 -0.90418288293E-01 -0.38247520630E-01  0.88725117761E+00  0.88000000000E+00 0.  1.
        -11    1    4    4    0    0  0.59260050086E-01  0.83639136914E-01  0.15513212897E-01  0.10367342791E+00  0.51100000000E-03 0.  1.
         11    1    4    4    0    0  0.11417640600E-01  0.23276626877E-01  0.14094221747E-01  0.29513930326E-01  0.51100000000E-03 0. -1.
</event>
<event>
 8    1  0.1092993E+005  0.1043930E+01  0.7957747E-01            NaN
         13   -1    0    0    0    0  0.00000000000E+00  0.00000000000E+00  0.74505805969E-08  0.10566000000E+00  0.10566000000E+00 0.  1.
     999900   -1    0    0    0    0 -0.00000000000E+00 -0.00000000000E+00 -0.74505805969E-08  0.93827000000E+00  0.93827000000E+00 0.  1.
     999902    2    1    2    0    0 -0.31100192434E-01 -0.74045221958E-02  0.17938026688E-01  0.10072718260E+01  0.10066045449E+01 0.  0.
     999903    2    3    3    0    0  0.69168280520E-01 -0.56085637284E-01 -0.71228345009E-01  0.11577069900E+00  0.19988193362E-01 0.  0.
         14    1    1    2    0    0  0.31100192434E-01  0.74045221958E-02 -0.17938026688E-01  0.36658173984E-01  0.00000000000E+00 0. -1.
     999901    1    3    3    0    0 -0.10026847295E+00  0.48681115089E-01  0.89166371697E-01  0.89150112702E+00  0.88000000000E+00 0.  1.
        -11    1    4    4    0    0  0.40606528948E-01 -0.30897029555E-01 -0.52917304058E-01  0.73512031793E-01  0.51100000000E-03 0. -1.
         11    1    4    4    0    0  0.28561751571E-01 -0.25188607729E-01 -0.18311040951E-01  0.42258667204E-01  0.51100000000E-03 0.  1.
</event>
<event>
 8    1  0.1092993E+005  0.1043930E+01  0.7957747E-01            NaN
         13   -1    0    0    0    0  0.00000000000E+00  0.00000000000E+00  0.74505805969E-08  0.10566000000E+00  0.10566000000E+00 0. -1.
     999900   -1    0    0    0    0 -0.00000000000E+00 -0.00000000000E+00 -0.74505805969E-08  0.93827000000E+00  0.93827000000E+00 0. -1.
     999902    2    1    2    0    0 -0.16848406864E-01 -0.78865080480E-02  0.15057096533E-01  0.10199971360E+01  0.10197163211E+01 0.  0.
     999903    2    3    3    0    0  0.11402594225E+00  0.28267682342E-02  0.57362471557E-01  0.12924879090E+00  0.20121895576E-01 0.  0.
         14    1    1    2    0    0  0.16848406864E-01  0.78865080480E-02 -0.15057096533E-01  0.23932863996E-01  0.00000000000E+00 0. -1.
     999901    1    3    3    0    0 -0.13087434912E+00 -0.10713276282E-01 -0.42305375024E-01  0.89074834510E+00  0.88000000000E+00 0.  1.
        -11    1    4    4    0    0  0.60886627106E-01  0.10495965060E-01  0.25720937454E-01  0.66926634365E-01  0.51100000000E-03 0. -1.
         11    1    4    4    0    0  0.53139315145E-01 -0.76691968258E-02  0.31641534103E-01  0.62322156537E-01  0.51100000000E-03 0.  1.
</event>
<event>
 8    1  0.1092993E+005  0.1043930E+01  0.7957747E-01            NaN
         13   -1    0    0    0    0  0.00000000000E+00  0.00000000000E+00  0.74505805969E-08  0.10566000000E+00  0.10566000000E+00 0.  1.
     999900   -1    0    0    0    0 -0.00000000000E+00 -0.00000000000E+00 -0.74505805969E-08  0.93827000000E+00  0.93827000000E+00 0.  1.
     999902    2    1    2    0    0 -0.20564798461E-01 -0.14968350126E-02 -0.10312017776E-01  0.10208759513E+01  0.10206156078E+01 0.  0.
     999903    2    3    3    0    0 -0.75908870979E-01 -0.87088321844E-01  0.61716297641E-01  0.13206947788E+00  0.16938509290E-01 0.  0.
         14    1    1    2    0    0  0.20564798461E-01  0.14968350126E-02  0.10312017776E-01  0.23054048699E-01  0.00000000000E+00 0.  1.
     999901    1    3    3    0    0  0.55344072518E-01  0.85591486831E-01 -0.72028315417E-01  0.88880647343E+00  0.88000000000E+00 0.  1.
        -11    1    4    4    0    0 -0.45551640123E-01 -0.39689969132E-01  0.33958846235E-01  0.69308801217E-01  0.51100000000E-03 0. -1.
         11    1    4    4    0    0 -0.30357230856E-01 -0.47398352712E-01  0.27757451406E-01  0.62760676658E-01  0.51100000000E-03 0.  1.
</event>
<event>
 8    1  0.1092993E+005  0.1043930E+01  0.7957747E-01            NaN
         13   -1    0    0    0    0  0.00000000000E+00  0.00000000000E+00  0.74505805969E-08  0.10566000000E+00  0.10566000000E+00 0.  1.
     999900   -1    0    0    0    0 -0.00000000000E+00 -0.00000000000E+00 -0.74505805969E-08  0.93827000000E+00  0.93827000000E+00 0.  1.
     999902    2    1    2    0    0 -0.95849907082E-02 -0.14227428543E-01  0.17195203746E-01  0.10196407678E+01  0.10193514254E+01 0.  0.
     999903    2    3    3    0    0 -0.91584341769E-01 -0.56676218139E-01 -0.70777435028E-01  0.13044732511E+00  0.20178551994E-01 0.  0.
         14    1    1    2    0    0  0.95849907082E-02  0.14227428543E-01 -0.17195203746E-01  0.24289232217E-01  0.00000000000E+00 0. -1.
     999901    1    3    3    0    0  0.81999351061E-01  0.42448789596E-01  0.87972638773E-01  0.88919344267E+00  0.88000000000E+00 0. -1.
        -11    1    4    4    0    0 -0.53408755158E-01 -0.22716454808E-01 -0.43439529404E-01  0.72496801877E-01  0.51100000000E-03 0.  1.
         11    1    4    4    0    0 -0.38175586612E-01 -0.33959763331E-01 -0.27337905624E-01  0.57950523238E-01  0.51100000000E-03 0. -1.
</event>
<event>
 8    1  0.1092993E+005  0.1043930E+01  0.7957747E-01            NaN
         13   -1    0    0    0    0  0.00000000000E+00  0.00000000000E+00  0.74505805969E-08  0.10566000000E+00  0.10566000000E+00 0. -1.
     999900   -1    0    0    0    0 -0.00000000000E+00 -0.00000000000E+00 -0.74505805969E-08  0.93827000000E+00  0.93827000000E+00 0. -1.
     999902    2    1    2    0    0  0.72641464242E-03  0.79620526548E-02  0.24256269595E-01  0.10183900592E+01  0.10180697541E+01 0.  0.
     999903    2    3    3    0    0 -0.31724604913E-01  0.98214689927E-01  0.79334717100E-01  0.13146715243E+00  0.18358620740E-01 0.  0.
         14    1    1    2    0    0 -0.72641464242E-03 -0.79620526548E-02 -0.24256269595E-01  0.25539940786E-01  0.00000000000E+00 0.  1.
     999901    1    3    3    0    0  0.32451019556E-01 -0.90252637272E-01 -0.55078447505E-01  0.88692290679E+00  0.88000000000E+00 0. -1.
        -11    1    4    4    0    0 -0.20868012929E-01  0.38202555302E-01  0.38058411256E-01  0.57823982771E-01  0.51100000000E-03 0. -1.
         11    1    4    4    0    0 -0.10856591985E-01  0.60012134625E-01  0.41276305843E-01  0.73643169655E-01  0.51100000000E-03 0.  1.
</event>
<event>
 8    1  0.1092993E+005  0.1043930E+01  0.7957747E-01            NaN
         13   -1    0    0    0    0  0.00000000000E+00  0.00000000000E+00  0.74505805969E-08  0.10566000000E+00  0.10566000000E+00 0.  1.
     999900   -1    0    0    0    0 -0.00000000000E+00 -0.00000000000E+00 -0.74505805969E-08  0.93827000000E+00  0.93827000000E+00 0.  1.
     999902    2    1    2    0    0  0.16431412670E-02 -0.24017478837E-01 -0.58242330853E-02  0.10191618573E+01  0.10188608494E+01 0.  0.
     999903    2    3    3    0    0 -0.78978300667E-01 -0.28642262047E-01  0.96355183185E-01  0.12957665134E+00  0.21162138204E-01 0.  0.
         14    1    1    2    0    0 -0.16431412670E-02  0.24017478837E-01  0.58242330853E-02  0.24768142723E-01  0.00000000000E+00 0.  1.
     999901    1    3    3    0    0  0.80621441934E-01  0.46247832101E-02 -0.10217941627E+00  0.88958520594E+00  0.88000000000E+00 0.  1.
        -11    1    4    4    0    0 -0.32863170031E-01 -0.31639347387E-02  0.46572565581E-01  0.57089958953E-01  0.51100000000E-03 0. -1.
         11    1    4    4    0    0 -0.46115130636E-01 -0.25478327309E-01  0.49782617604E-01  0.72486692383E-01  0.51100000000E-03 0.  1.
</event>
<event>
 8    1  0.1488707E+005  0.1043930E+01  0.7957747E-01            NaN
         13   -1    0    0    0    0  0.00000000000E+00  0.00000000000E+00  0.74505805969E-08  0.10566000000E+00  0.10566000000E+00 0. -1.
     999900   -1    0    0    0    0 -0.00000000000E+00 -0.00000000000E+00 -0.74505805969E-08  0.93827000000E+00  0.93827000000E+00 0. -1.
     999902    2    1    2    0    0  0.70755284194E-02  0.22959428651E-01  0.16185719631E-02  0.10198505847E+01  0.10195662788E+01 0.  0.
     999903    2    3    3    0    0  0.40519425102E-03 -0.14557235453E-01 -0.12716706281E+00  0.12966086718E+00  0.20697858037E-01 0.  0.
         14    1    1    2    0    0 -0.70755284194E-02 -0.22959428651E-01 -0.16185719631E-02  0.24079415309E-01  0.00000000000E+00 0. -1.
     999901    1    3    3    0    0  0.66703341684E-02  0.37516664104E-01  0.12878563477E+00  0.89018971751E+00  0.88000000000E+00 0.  1.
        -11    1    4    4    0    0 -0.72097836121E-02 -0.12250118690E-01 -0.47179431489E-01  0.49276832937E-01  0.51100000000E-03 0.  1.
         11    1    4    4    0    0  0.76149778631E-02 -0.23071167626E-02 -0.79987631320E-01  0.80384034241E-01  0.51100000000E-03 0. -1.
</event>
<event>
 8    1  0.1092993E+005  0.1043930E+01  0.7957747E-01            NaN
         13   -1    0    0    0    0  0.00000000000E+00  0.00000000000E+00  0.74505805969E-08  0.10566000000E+00  0.10566000000E+00 0.  1.
     999900   -1    0    0    0    0 -0.00000000000E+00 -0.00000000000E+00 -0.74505805969E-08  0.93827000000E+00  0.93827000000E+00 0. -1.
     999902    2    1    2    0    0 -0.33506400450E-02  0.17974151550E-01  0.32286876127E-02  0.10253633273E+01  0.10251952163E+01 0.  0.
     999903    2    3    3    0    0  0.68819472147E-01  0.94477716695E-01  0.67663344885E-01  0.13676153477E+00  0.21522789154E-01 0.  0.
         14    1    1    2    0    0  0.33506400450E-02 -0.17974151550E-01 -0.32286876127E-02  0.18566672732E-01  0.00000000000E+00 0.  1.
     999901    1    3    3    0    0 -0.72170112192E-01 -0.76503565145E-01 -0.64434657272E-01  0.88860179250E+00  0.88000000000E+00 0. -1.
        -11    1    4    4    0    0  0.56449172351E-01  0.66151003353E-01  0.57352792073E-01  0.10417326040E+00  0.51100000000E-03 0. -1.
         11    1    4    4    0    0  0.12370299796E-01  0.28326713342E-01  0.10310552812E-01  0.32588274365E-01  0.51100000000E-03 0.  1.
</event>
<event>
 8    1  0.1092993E+005  0.1043930E+01  0.7957747E-01            NaN
         13   -1    0    0    0    0  0.00000000000E+00  0.00000000000E+00  0.74505805969E-08  0.10566000000E+00  0.10566000000E+00 0. -1.
     999900   -1    0    0    0    0 -0.00000000000E+00 -0.00000000000E+00 -0.74505805969E-08  0.93827000000E+00  0.93827000000E+00 0.  1.
     999902    2    1    2    0    0  0.57370705921E-02 -0.21795245322E-01 -0.31613563392E-02  0.10211716857E+01  0.10209180529E+01 0.  0.
     999903    2    3    3    0    0 -0.47261984599E-01  0.49290194926E-01  0.10850452069E+00  0.12969464851E+00  0.19602355437E-01 0.  0.
         14    1    1    2    0    0 -0.57370705921E-02  0.21795245322E-01  0.31613563392E-02  0.22758314339E-01  0.00000000000E+00 0.  1.
     999901    1    3    3    0    0  0.52999055192E-01 -0.71085440249E-01 -0.11166587703E+00  0.89147703715E+00  0.88000000000E+00 0.  1.
        -11    1    4    4    0    0 -0.16009206623E-01  0.49151524674E-02  0.26642032918E-01  0.31472407907E-01  0.51100000000E-03 0. -1.
         11    1    4    4    0    0 -0.31252777977E-01  0.44375042459E-01  0.81862487774E-01  0.98222240608E-01  0.51100000000E-03 0.  1.
</event>
<event>
 8    1  0.1092993E+005  0.1043930E+01  0.7957747E-01            NaN
         13   -1    0    0    0    0  0.00000000000E+00  0.00000000000E+00  0.74505805969E-08  0.10566000000E+00  0.10566000000E+00 0.  1.
     999900   -1    0    0    0    0 -0.00000000000E+00 -0.00000000000E+00 -0.74505805969E-08  0.93827000000E+00  0.93827000000E+00 0.  1.
     999902    2    1    2    0    0  0.20440640875E-01  0.26622523344E-02 -0.75581130319E-02  0.10219747624E+01  0.10217389013E+01 0.  0.
     999903    2    3    3    0    0 -0.22799050283E-01  0.17748585852E-01  0.12584534947E+00  0.13074316948E+00  0.20540579094E-01 0.  0.
         14    1    1    2    0    0 -0.20440640875E-01 -0.26622523344E-02  0.75581130319E-02  0.21955237632E-01  0.00000000000E+00 0. -1.
     999901    1    3    3    0    0  0.43239691158E-01 -0.15086333517E-01 -0.13340346250E+00  0.89123159289E+00  0.88000000000E+00 0.  1.
        -11    1    4    4    0    0 -0.11779881118E-01 -0.18535878432E-02  0.59598657446E-01  0.60782090104E-01  0.51100000000E-03 0. -1.
         11    1    4    4    0    0 -0.11019169165E-01  0.19602173695E-01  0.66246692024E-01  0.69961079378E-01  0.51100000000E-03 0.  1.
</event>
<event>
 8    1  0.1092993E+005  0.1043930E+01  0.7957747E-01            NaN
         13   -1    0    0    0    0  0.00000000000E+00  0.00000000000E+00  0.74505805969E-08  0.10566000000E+00  0.10566000000E+00 0. -1.
     999900   -1    0    0    0    0 -0.00000000000E+00 -0.00000000000E+00 -0.74505805969E-08  0.93827000000E+00  0.93827000000E+00 0. -1.
     999902    2    1    2    0    0  0.19453210483E-01  0.13876325834E-01  0.22954154891E-02  0.10199248183E+01  0.10196422835E+01 0.  0.
     999903    2    3    3    0    0  0.84629861406E-01  0.89110983747E-01 -0.46474162553E-01  0.13297119982E+00  0.20457549464E-01 0.  0.
         14    1    1    2    0    0 -0.19453210483E-01 -0.13876325834E-01 -0.22954154891E-02  0.24005181712E-01  0.00000000000E+00 0.  1.
     999901    1    3    3    0    0 -0.65176650923E-01 -0.75234657913E-01  0.48769578042E-01  0.88695361847E+00  0.88000000000E+00 0.  1.
        -11    1    4    4    0    0  0.55122440952E-01  0.49699739041E-01 -0.19110646603E-01  0.76642191329E-01  0.51100000000E-03 0. -1.
         11    1    4    4    0    0  0.29507420454E-01  0.39411244706E-01 -0.27363515949E-01  0.56329008488E-01  0.51100000000E-03 0.  1.
</event>
<event>
 8    1  0.1092993E+005  0.1043930E+01  0.7957747E-01            NaN
         13   -1    0    0    0    0  0.00000000000E+00  0.00000000000E+00  0.74505805969E-08  0.10566000000E+00  0.10566000000E+00 0.  1.
     999900   -1    0    0    0    0 -0.00000000000E+00 -0.00000000000E+00 -0.74505805969E-08  0.93827000000E+00  0.93827000000E+00 0.  1.
     999902    2    1    2    0    0  0.18976466687E-01  0.13660078162E-01 -0.47514558256E-02  0.10200704033E+01  0.10197913254E+01 0.  0.
     999903    2    3    3    0    0 -0.48472667357E-01  0.97612291092E-01  0.68787799575E-01  0.13046072380E+00  0.20260311704E-01 0.  0.
         14    1    1    2    0    0 -0.18976466687E-01 -0.13660078162E-01  0.47514558256E-02  0.23859596723E-01  0.00000000000E+00 0.  1.
     999901    1    3    3    0    0  0.67449134044E-01 -0.83952212930E-01 -0.73539255401E-01  0.88960967948E+00  0.88000000000E+00 0. -1.
        -11    1    4    4    0    0 -0.44876948103E-01  0.76670536344E-01  0.49184796480E-01  0.10154662446E+00  0.51100000000E-03 0.  1.
         11    1    4    4    0    0 -0.35957192545E-02  0.20941754748E-01  0.19603003095E-01  0.28914099333E-01  0.51100000000E-03 0. -1.
</event>
<event>
 8    1  0.1092993E+005  0.1043930E+01  0.7957747E-01            NaN
         13   -1    0    0    0    0  0.00000000000E+00  0.00000000000E+00  0.74505805969E-08  0.10566000000E+00  0.10566000000E+00 0. -1.
     999900   -1    0    0    0    0 -0.00000000000E+00 -0.00000000000E+00 -0.74505805969E-08  0.93827000000E+00  0.93827000000E+00 0.  1.
     999902    2    1    2    0    0  0.15144107826E-01  0.14328997362E-01  0.11755277195E-01  0.10199957002E+01  0.10197148511E+01 0.  0.
     999903    2    3    3    0    0  0.14014698112E-01  0.15102736716E-01  0.12907637535E+00  0.13220849912E+00  0.19846212453E-01 0.  0.
         14    1    1    2    0    0 -0.15144107826E-01 -0.14328997362E-01 -0.11755277195E-01  0.23934299847E-01  0.00000000000E+00 0. -1.
     999901    1    3    3    0    0  0.11294097137E-02 -0.77373935414E-03 -0.11732109815E+00  0.88778720103E+00  0.88000000000E+00 0.  1.
        -11    1    4    4    0    0 -0.23312819654E-02  0.70908013717E-02  0.69746116687E-01  0.70146249035E-01  0.51100000000E-03 0.  1.
         11    1    4    4    0    0  0.16345980077E-01  0.80119353448E-02  0.59330258659E-01  0.62062250090E-01  0.51100000000E-03 0. -1.
</event>
<event>
 8    1  0.1092993E+005  0.1043930E+01  0.7957747E-01            NaN
         13   -1    0    0    0    0  0.00000000000E+00  0.00000000000E+00  0.74505805969E-08  0.10566000000E+00  0.10566000000E+00 0. -1.
     999900   -1    0    0    0    0 -0.00000000000E+00 -0.00000000000E+00 -0.74505805969E-08  0.93827000000E+00  0.93827000000E+00 0.  1.
     999902    2    1    2    0    0  0.76981839825E-04  0.73324017464E-02 -0.22631580180E-01  0.10201401185E+01  0.10198626882E+01 0.  0.
     999903    2    3    3    0    0 -0.30844962807E-01 -0.12429112718E+00 -0.58552438214E-02  0.12965577527E+00  0.19407219132E-01 0.  0.
         14    1    1    2    0    0 -0.76981839825E-04 -0.73324017464E-02  0.22631580180E-01  0.23789881526E-01  0.00000000000E+00 0. -1.
     999901    1    3    3    0    0  0.30921944647E-01  0.13162352893E+00 -0.16776336359E-01  0.89048434320E+00  0.88000000000E+00 0. -1.
        -11    1    4    4    0    0 -0.19843698440E-01 -0.56947128990E-01 -0.10683500159E-01  0.61246601250E-01  0.51100000000E-03 0.  1.
         11    1    4    4    0    0 -0.11001264366E-01 -0.67343998191E-01  0.48282563379E-02  0.68409174021E-01  0.51100000000E-03 0. -1.
</event>
<event>
 8    1  0.1092993E+005  0.1043930E+01  0.7957747E-01            NaN
         13   -1    0    0    0    0  0.00000000000E+00  0.00000000000E+00  0.74505805969E-08  0.10566000000E+00  0.10566000000E+00 0. -1.
     999900   -1    0    0    0    0 -0.00000000000E+00 -0.00000000000E+00 -0.74505805969E-08  0.93827000000E+00  0.93827000000E+00 0. -1.
     999902    2    1    2    0    0 -0.23831459549E-01  0.43704237500E-02  0.41787075194E-02  0.10193434048E+01  0.10190468469E+01 0.  0.
     999903    2    3    3    0    0  0.49541273121E-01 -0.11442425696E+00  0.27588875642E-01  0.12802765263E+00  0.90931542958E-02 0.  0.
         14    1    1    2    0    0  0.23831459549E-01 -0.43704237500E-02 -0.41787075194E-02  0.24586595220E-01  0.00000000000E+00 0. -1.
     999901    1    3    3    0    0 -0.73372732670E-01  0.11879468071E+00 -0.23410168123E-01  0.89131575215E+00  0.88000000000E+00 0.  1.
        -11    1    4    4    0    0  0.58525098112E-02 -0.21612718728E-01  0.62132661986E-02  0.23242789845E-01  0.51100000000E-03 0.  1.
         11    1    4    4    0    0  0.43688763310E-01 -0.92811538230E-01  0.21375609444E-01  0.10478486278E+00  0.51100000000E-03 0. -1.
</event>
<event>
 8    1  0.1092993E+005  0.1043930E+01  0.7957747E-01            NaN
         13   -1    0    0    0    0  0.00000000000E+00  0.00000000000E+00  0.74505805969E-08  0.10566000000E+00  0.10566000000E+00 0.  1.
     999900   -1    0    0    0    0 -0.00000000000E+00 -0.00000000000E+00 -0.74505805969E-08  0.93827000000E+00  0.93827000000E+00 0. -1.
     999902    2    1    2    0    0 -0.73891037909E-02 -0.15074984160E-03 -0.21624586071E-01  0.10210773349E+01  0.10208215708E+01 0.  0.
     999903    2    3    3    0    0  0.74186012969E-01  0.84154587021E-01  0.61461255629E-01  0.12941307823E+00  0.19613766506E-01 0.  0.
         14    1    1    2    0    0  0.73891037909E-02  0.15074984160E-03  0.21624586071E-01  0.22852665120E-01  0.00000000000E+00 0.  1.
     999901    1    3    3    0    0 -0.81575116759E-01 -0.84305336862E-01 -0.83085841699E-01  0.89166425665E+00  0.88000000000E+00 0. -1.
        -11    1    4    4    0    0  0.22053855337E-01  0.39469364853E-01  0.23704411569E-01  0.51052556704E-01  0.51100000000E-03 0.  1.
         11    1    4    4    0    0  0.52132157631E-01  0.44685222168E-01  0.37756844059E-01  0.78360521526E-01  0.51100000000E-03 0. -1.
</event>
<event>
 8    1  0.1092993E+005  0.1043930E+01  0.7957747E-01            NaN
         13   -1    0    0    0    0  0.00000000000E+00  0.00000000000E+00  0.74505805969E-08  0.10566000000E+00  0.10566000000E+00 0. -1.
     999900   -1    0    0    0    0 -0.00000000000E+00 -0.00000000000E+00 -0.74505805969E-08  0.93827000000E+00  0.93827000000E+00 0. -1.
     999902    2    1    2    0    0 -0.17902166197E-01 -0.11594495172E-01  0.96494446722E-02  0.10205199241E+01  0.10202513826E+01 0.  0.
     999903    2    3    3    0    0 -0.24925826886E-01 -0.38171383352E-02  0.12855034448E+00  0.13246179361E+00  0.19623157459E-01 0.  0.
         14    1    1    2    0    0  0.17902166197E-01  0.11594495172E-01 -0.96494446722E-02  0.23410075936E-01  0.00000000000E+00 0. -1.
     999901    1    3    3    0    0  0.70236606895E-02 -0.77773568373E-02 -0.11890089981E+00  0.88805813045E+00  0.88000000000E+00 0. -1.
        -11    1    4    4    0    0 -0.12163758154E-02  0.61041463325E-02  0.25371687235E-01  0.26128984035E-01  0.51100000000E-03 0.  1.
         11    1    4    4    0    0 -0.23709451071E-01 -0.99212846677E-02  0.10317865725E+00  0.10633280958E+00  0.51100000000E-03 0. -1.
</event>
<event>
 8    1  0.1092993E+005  0.1043930E+01  0.7957747E-01            NaN
         13   -1    0    0    0    0  0.00000000000E+00  0.00000000000E+00  0.74505805969E-08  0.10566000000E+00  0.10566000000E+00 0.  1.
     999900   -1    0    0    0    0 -0.00000000000E+00 -0.00000000000E+00 -0.74505805969E-08  0.93827000000E+00  0.93827000000E+00 0.  1.
     999902    2    1    2    0    0 -0.55930784657E-02 -0.18451526483E-01  0.13360409818E-01  0.10204727643E+01  0.10202031272E+01 0.  0.
     999903    2    3    3    0    0 -0.97458720986E-01 -0.64607916390E-01  0.60762939797E-01  0.13322042789E+00  0.19574534456E-01 0.  0.
         14    1    1    2    0    0  0.55930784657E-02  0.18451526483E-01 -0.13360409818E-01  0.23457235702E-01  0.00000000000E+00 0. -1.
     999901    1    3    3    0    0  0.91865642521E-01  0.46156389907E-01 -0.47402529978E-01  0.88725233640E+00  0.88000000000E+00 0.  1.
        -11    1    4    4    0    0 -0.24933113918E-01 -0.26307866461E-01  0.14403547851E-01  0.39006247180E-01  0.51100000000E-03 0.  1.
         11    1    4    4    0    0 -0.72525607068E-01 -0.38300049929E-01  0.46359391945E-01  0.94214180714E-01  0.51100000000E-03 0. -1.
</event>
<event>
 8    1  0.1092993E+005  0.1043930E+01  0.7957747E-01            NaN
         13   -1    0    0    0    0  0.00000000000E+00  0.00000000000E+00  0.74505805969E-08  0.10566000000E+00  0.10566000000E+00 0.  1.
     999900   -1    0    0    0    0 -0.00000000000E+00 -0.00000000000E+00 -0.74505805969E-08  0.93827000000E+00  0.93827000000E+00 0. -1.
     999902    2    1    2    0    0 -0.22347779500E-01 -0.31508826633E-03 -0.39266667688E-04  0.10215799649E+01  0.10213354496E+01 0.  0.
     999903    2    3    3    0    0 -0.90515456796E-01 -0.92532444752E-01 -0.27388768578E-01  0.13371800018E+00  0.19366405864E-01 0.  0.
         14    1    1    2    0    0  0.22347779500E-01  0.31508826633E-03  0.39266667688E-04  0.22350035147E-01  0.00000000000E+00 0. -1.
     999901    1    3    3    0    0  0.68167677295E-01  0.92217356486E-01  0.27349501910E-01  0.88786196468E+00  0.88000000000E+00 0.  1.
        -11    1    4    4    0    0 -0.47447136123E-01 -0.54433765224E-01 -0.63644920042E-02  0.72491609185E-01  0.51100000000E-03 0. -1.
         11    1    4    4    0    0 -0.43068320672E-01 -0.38098679528E-01 -0.21024276574E-01  0.61226390991E-01  0.51100000000E-03 0.  1.
</event>
<event>
 8    1  0.1092993E+005  0.1043930E+01  0.7957747E-01            NaN
         13   -1    0    0    0    0  0.00000000000E+00  0.00000000000E+00  0.74505805969E-08  0.10566000000E+00  0.10566000000E+00 0.  1.
     999900   -1    0    0    0    0 -0.00000000000E+00 -0.00000000000E+00 -0.74505805969E-08  0.93827000000E+00  0.93827000000E+00 0.  1.
     999902    2    1    2    0    0 -0.20450725702E-02  0.22360968009E-01 -0.67151694001E-02  0.10204930908E+01  0.10202239262E+01 0.  0.
     999903    2    3    3    0    0 -0.95252779886E-01  0.60970409150E-01  0.64112239336E-01  0.13190157191E+00  0.22297142650E-01 0.  0.
         14    1    1    2    0    0  0.20450725702E-02 -0.22360968009E-01  0.67151694001E-02  0.23436909186E-01  0.00000000000E+00 0.  1.
     999901    1    3    3    0    0  0.93207707316E-01 -0.38609441141E-01 -0.70827408736E-01  0.88859151891E+00  0.88000000000E+00 0.  1.
        -11    1    4    4    0    0 -0.60789646747E-01  0.43256897917E-01  0.30503824214E-01  0.80605736655E-01  0.51100000000E-03 0. -1.
         11    1    4    4    0    0 -0.34463133139E-01  0.17713511233E-01  0.33608415122E-01  0.51295835250E-01  0.51100000000E-03 0.  1.
</event>
<event>
 8    1  0.1092993E+005  0.1043930E+01  0.7957747E-01            NaN
         13   -1    0    0    0    0  0.00000000000E+00  0.00000000000E+00  0.74505805969E-08  0.10566000000E+00  0.10566000000E+00 0.  1.
     999900   -1    0    0    0    0 -0.00000000000E+00 -0.00000000000E+00 -0.74505805969E-08  0.93827000000E+00  0.93827000000E+00 0. -1.
     999902    2    1    2    0    0 -0.17360063126E-01 -0.34774402307E-02  0.16171987452E-01  0.10199508933E+01  0.10196689792E+01 0.  0.
     999903    2    3    3    0    0  0.10179163959E+00 -0.51050972885E-02  0.77821128344E-01  0.12978214852E+00  0.19991952122E-01 0.  0.
         14    1    1    2    0    0  0.17360063126E-01  0.34774402307E-02 -0.16171987452E-01  0.23979106748E-01  0.00000000000E+00 0. -1.
     999901    1    3    3    0    0 -0.11915170271E+00  0.16276570579E-02 -0.61649140892E-01  0.89016874473E+00  0.88000000000E+00 0. -1.
        -11    1    4    4    0    0  0.71974971717E-01 -0.52966036708E-03  0.43571147626E-01  0.84139070118E-01  0.51100000000E-03 0.  1.
         11    1    4    4    0    0  0.29816667869E-01 -0.45754369215E-02  0.34249980717E-01  0.45643078401E-01  0.51100000000E-03 0. -1.
</event>
<event>
 8    1  0.1092993E+005  0.1043930E+01  0.7957747E-01            NaN
         13   -1    0    0    0    0  0.00000000000E+00  0.00000000000E+00  0.74505805969E-08  0.10566000000E+00  0.10566000000E+00 0. -1.
     999900   -1    0    0    0    0 -0.00000000000E+00 -0.00000000000E+00 -0.74505805969E-08  0.93827000000E+00  0.93827000000E+00 0.  1.
     999902    2    1    2    0    0 -0.10668000949E-01 -0.20693018943E-01  0.51056727326E-02  0.10200956724E+01  0.10198171923E+01 0.  0.
     999903    2    3    3    0    0  0.50411027805E-01 -0.12267182876E-01 -0.11698912499E+00  0.12952912123E+00  0.19989556779E-01 0.  0.
         14    1    1    2    0    0  0.10668000949E-01  0.20693018943E-01 -0.51056727326E-02  0.23834327582E-01  0.00000000000E+00 0.  1.
     999901    1    3    3    0    0 -0.61079028754E-01 -0.84258360673E-02  0.12209479772E+00  0.89056655119E+00  0.88000000000E+00 0. -1.
        -11    1    4    4    0    0  0.19940777800E-01 -0.10973434173E-01 -0.69074523978E-01  0.72729649116E-01  0.51100000000E-03 0.  1.
         11    1    4    4    0    0  0.30470250005E-01 -0.12937487032E-02 -0.47914601013E-01  0.56799472112E-01  0.51100000000E-03 0. -1.
</event>
<event>
 8    1  0.1092993E+005  0.1043930E+01  0.7957747E-01            NaN
         13   -1    0    0    0    0  0.00000000000E+00  0.00000000000E+00  0.74505805969E-08  0.10566000000E+00  0.10566000000E+00 0.  1.
     999900   -1    0    0    0    0 -0.00000000000E+00 -0.00000000000E+00 -0.74505805969E-08  0.93827000000E+00  0.93827000000E+00 0. -1.
     999902    2    1    2    0    0 -0.22292610489E-02  0.94335278589E-02  0.21341530382E-01  0.10204902480E+01  0.10202210174E+01 0.  0.
     999903    2    3    3    0    0  0.12759363682E+00  0.60944706333E-02  0.20906180280E-01  0.13095929094E+00  0.19899466837E-01 0.  0.
         14    1    1    2    0    0  0.22292610489E-02 -0.94335278589E-02 -0.21341530382E-01  0.23439751956E-01  0.00000000000E+00 0. -1.
     999901    1    3    3    0    0 -0.12982289787E+00  0.33390572256E-02  0.43535010196E-03  0.88953095710E+00  0.88000000000E+00 0.  1.
        -11    1    4    4    0    0  0.16629060473E-01  0.73801511327E-02  0.11096347988E-02  0.18234162809E-01  0.51100000000E-03 0. -1.
         11    1    4    4    0    0  0.11096457635E+00 -0.12856804994E-02  0.19796545482E-01  0.11272512813E+00  0.51100000000E-03 0.  1.
</event>
<event>
 8    1  0.1092993E+005  0.1043930E+01  0.7957747E-01            NaN
         13   -1    0    0    0    0  0.00000000000E+00  0.00000000000E+00  0.74505805969E-08  0.10566000000E+00  0.10566000000E+00 0.  1.
     999900   -1    0    0    0    0 -0.00000000000E+00 -0.00000000000E+00 -0.74505805969E-08  0.93827000000E+00  0.93827000000E+00 0. -1.
     999902    2    1    2    0    0  0.11117695142E-01  0.77643722452E-02 -0.20086879100E-01  0.10196942550E+01  0.10194062009E+01 0.  0.
     999903    2    3    3    0    0 -0.28209320427E-01 -0.11795673512E+00  0.39407084092E-01  0.12790283176E+00  0.98315297132E-02 0.  0.
         14    1    1    2    0    0 -0.11117695142E-01 -0.77643722452E-02  0.20086879100E-01  0.24235744957E-01  0.00000000000E+00 0.  1.
     999901    1    3    3    0    0  0.39327015570E-01  0.12572110736E+00 -0.59493963193E-01  0.89179142329E+00  0.88000000000E+00 0. -1.
        -11    1    4    4    0    0 -0.20584598340E-01 -0.74422152715E-01  0.29078997067E-01  0.82512009398E-01  0.51100000000E-03 0. -1.
         11    1    4    4    0    0 -0.76247220874E-02 -0.43534582402E-01  0.10328087025E-01  0.45390822359E-01  0.51100000000E-03 0.  1.
</event>
<event>
 8    1  0.1281168E+005  0.1043930E+01  0.7957747E-01            NaN
         13   -1    0    0    0    0  0.00000000000E+00  0.00000000000E+00  0.74505805969E-08  0.10566000000E+00  0.10566000000E+00 0. -1.
     999900   -1    0    0    0    0 -0.00000000000E+00 -0.00000000000E+00 -0.74505805969E-08  0.93827000000E+00  0.93827000000E+00 0. -1.
     999902    2    1    2    0    0  0.10036629823E-01 -0.14609261242E-01  0.15606161568E-01  0.10203139730E+01  0.10200406300E+01 0.  0.
     999903    2    3    3    0    0  0.58100714699E-02 -0.71073616835E-01  0.11087902658E+00  0.13336244893E+00  0.20153617753E-01 0.  0.
         14    1    1    2    0    0 -0.10036629823E-01  0.14609261242E-01 -0.15606161568E-01  0.23616026997E-01  0.00000000000E+00 0.  1.
     999901    1    3    3    0    0  0.42265583536E-02  0.56464355594E-01 -0.95272865012E-01  0.88695152407E+00  0.88000000000E+00 0. -1.
        -11    1    4    4    0    0 -0.55795688013E-02 -0.45988419339E-01  0.64466377465E-01  0.79386656598E-01  0.51100000000E-03 0. -1.
         11    1    4    4    0    0  0.11389640271E-01 -0.25085197497E-01  0.46412649116E-01  0.53975792332E-01  0.51100000000E-03 0.  1.
</event>
<event>
 8    1  0.1092993E+005  0.1043930E+01  0.7957747E-01            NaN
         13   -1    0    0    0    0  0.00000000000E+00  0.00000000000E+00  0.74505805969E-08  0.10566000000E+00  0.10566000000E+00 0. -1.
     999900   -1    0    0    0    0 -0.00000000000E+00 -0.00000000000E+00 -0.74505805969E-08  0.93827000000E+00  0.93827000000E+00 0.  1.
     999902    2    1    2    0    0  0.10998356445E-01 -0.58444890986E-03 -0.20941117410E-01  0.10202691500E+01  0.10199947562E+01 0.  0.
     999903    2    3    3    0    0 -0.89987450180E-01  0.85926611231E-01 -0.31968995716E-01  0.13021077507E+00  0.21253365579E-01 0.  0.
         14    1    1    2    0    0 -0.10998356445E-01  0.58444890986E-03  0.20941117410E-01  0.23660850014E-01  0.00000000000E+00 0. -1.
     999901    1    3    3    0    0  0.10098580663E+00 -0.86511060141E-01  0.11027878306E-01  0.89005837492E+00  0.88000000000E+00 0.  1.
        -11    1    4    4    0    0 -0.35469136180E-01  0.30634816678E-01 -0.17992525593E-02  0.46904691077E-01  0.51100000000E-03 0.  1.
         11    1    4    4    0    0 -0.54518314000E-01  0.55291794553E-01 -0.30169743157E-01  0.83306083988E-01  0.51100000000E-03 0. -1.
</event>
<event>
 8    1  0.1092993E+005  0.1043930E+01  0.7957747E-01            NaN
         13   -1    0    0    0    0  0.00000000000E+00  0.00000000000E+00  0.74505805969E-08  0.10566000000E+00  0.10566000000E+00 0. -1.
     999900   -1    0    0    0    0 -0.00000000000E+00 -0.00000000000E+00 -0.74505805969E-08  0.93827000000E+00  0.93827000000E+00 0. -1.
     999902    2    1    2    0    0 -0.16497312519E-01  0.11907592272E-01 -0.10165955127E-01  0.10211857982E+01  0.10209324834E+01 0.  0.
     999903    2    3    3    0    0 -0.22092385907E-01  0.87990316743E-01 -0.95666030406E-01  0.13375684399E+00  0.22550711414E-01 0.  0.
         14    1    1    2    0    0  0.16497312519E-01 -0.11907592272E-01  0.10165955127E-01  0.22744201848E-01  0.00000000000E+00 0.  1.
     999901    1    3    3    0    0  0.55950733881E-02 -0.76082724471E-01  0.85500075279E-01  0.88742895416E+00  0.88000000000E+00 0.  1.
        -11    1    4    4    0    0 -0.28308939240E-02  0.56244752811E-01 -0.59256384287E-01  0.81750023724E-01  0.51100000000E-03 0. -1.
         11    1    4    4    0    0 -0.19261491983E-01  0.31745563933E-01 -0.36409646119E-01  0.52006820267E-01  0.51100000000E-03 0.  1.
</event>
<event>
 8    1  0.1092993E+005  0.1043930E+01  0.7957747E-01            NaN
         13   -1    0    0    0    0  0.00000000000E+00  0.00000000000E+00  0.74505805969E-08  0.10566000000E+00  0.10566000000E+00 0.  1.
     999900   -1    0    0    0    0 -0.00000000000E+00 -0.00000000000E+00 -0.74505805969E-08  0.93827000000E+00  0.93827000000E+00 0.  1.
     999902    2    1    2    0    0 -0.22844639582E-01  0.63054344802E-02  0.79918494153E-02  0.10189198877E+01  0.10186128959E+01 0.  0.
     999903    2    3    3    0    0 -0.98495472481E-01 -0.46734498905E-01 -0.69399141807E-01  0.13070502145E+00  0.19547129252E-01 0.  0.
         14    1    1    2    0    0  0.22844639582E-01 -0.63054344802E-02 -0.79918494153E-02  0.25010112328E-01  0.00000000000E+00 0.  1.
     999901    1    3    3    0    0  0.75650832899E-01  0.53039933385E-01  0.77390991222E-01  0.88821486622E+00  0.88000000000E+00 0. -1.
        -11    1    4    4    0    0 -0.17541461341E-01 -0.16751224268E-01 -0.12295095241E-01  0.27198104133E-01  0.51100000000E-03 0.  1.
         11    1    4    4    0    0 -0.80954011140E-01 -0.29983274637E-01 -0.57104046565E-01  0.10350691732E+00  0.51100000000E-03 0. -1.
</event>
<event>
 8    1  0.1092993E+005  0.1043930E+01  0.7957747E-01            NaN
         13   -1    0    0    0    0  0.00000000000E+00  0.00000000000E+00  0.74505805969E-08  0.10566000000E+00  0.10566000000E+00 0. -1.
     999900   -1    0    0    0    0 -0.00000000000E+00 -0.00000000000E+00 -0.74505805969E-08  0.93827000000E+00  0.93827000000E+00 0.  1.
     999902    2    1    2    0    0 -0.13323059907E-01  0.98345736558E-02  0.15162676233E-01  0.10214771713E+01  0.10212303766E+01 0.  0.
     999903    2    3    3    0    0  0.83510258778E-01  0.79567127140E-01 -0.57579085475E-01  0.13044929045E+00  0.19919218185E-01 0.  0.
         14    1    1    2    0    0  0.13323059907E-01 -0.98345736558E-02 -0.15162676233E-01  0.22452828660E-01  0.00000000000E+00 0.  1.
     999901    1    3    3    0    0 -0.96833318685E-01 -0.69732553484E-01  0.72741761708E-01  0.89102788089E+00  0.88000000000E+00 0. -1.
        -11    1    4    4    0    0  0.10161835624E-01  0.20144809760E-01 -0.91605111774E-02  0.24356772149E-01  0.51100000000E-03 0.  1.
         11    1    4    4    0    0  0.73348423154E-01  0.59422317380E-01 -0.48418574298E-01  0.10609251830E+00  0.51100000000E-03 0. -1.
</event>
<event>
 8    1  0.1092993E+005  0.1043930E+01  0.7957747E-01            NaN
         13   -1    0    0    0    0  0.00000000000E+00  0.00000000000E+00  0.74505805969E-08  0.10566000000E+00  0.10566000000E+00 0. -1.
     999900   -1    0    0    0    0 -0.00000000000E+00 -0.00000000000E+00 -0.74505805969E-08  0.93827000000E+00  0.93827000000E+00 0. -1.
     999902    2    1    2    0    0 -0.11658955178E-01  0.16664254401E-01 -0.10884076460E-01  0.10208628864E+01  0.10206022443E+01 0.  0.
     999903    2    3    3    0    0  0.87715620958E-01  0.79629717490E-01  0.51827965370E-01  0.13082201309E+00  0.19832777094E-01 0.  0.
         14    1    1    2    0    0  0.11658955178E-01 -0.16664254401E-01  0.10884076460E-01  0.23067113625E-01  0.00000000000E+00 0.  1.
     999901    1    3    3    0    0 -0.99374576136E-01 -0.62965463089E-01 -0.62712041830E-01  0.89004087328E+00  0.88000000000E+00 0.  1.
        -11    1    4    4    0    0  0.38769004990E-01  0.44881997085E-01  0.33197064636E-01  0.67968637118E-01  0.51100000000E-03 0.  1.
         11    1    4    4    0    0  0.48946615968E-01  0.34747720406E-01  0.18630900734E-01  0.62853375974E-01  0.51100000000E-03 0. -1.
</event>
<event>
 8    1  0.1092993E+005  0.1043930E+01  0.7957747E-01            NaN
         13   -1    0    0    0    0  0.00000000000E+00  0.00000000000E+00  0.74505805969E-08  0.10566000000E+00  0.10566000000E+00 0. -1.
     999900   -1    0    0    0    0 -0.00000000000E+00 -0.00000000000E+00 -0.74505805969E-08  0.93827000000E+00  0.93827000000E+00 0. -1.
     999902    2    1    2    0    0  0.80710884246E-03  0.10276067996E-02 -0.23330463887E-01  0.10205629731E+01  0.10202954298E+01 0.  0.
     999903    2    3    3    0    0  0.78089634398E-01  0.10228006161E+00 -0.17109655104E-01  0.13137044794E+00  0.20155701163E-01 0.  0.
         14    1    1    2    0    0 -0.80710884246E-03 -0.10276067996E-02  0.23330463887E-01  0.23367026888E-01  0.00000000000E+00 0. -1.
     999901    1    3    3    0    0 -0.77282525556E-01 -0.10125245481E+00 -0.62208087826E-02  0.88919252517E+00  0.88000000000E+00 0. -1.
        -11    1    4    4    0    0  0.52684209127E-01  0.52654375434E-01 -0.10631666860E-01  0.75242292661E-01  0.51100000000E-03 0.  1.
         11    1    4    4    0    0  0.25405425271E-01  0.49625686181E-01 -0.64779882444E-02  0.56128155277E-01  0.51100000000E-03 0. -1.
</event>
<event>
 8    1  0.1092993E+005  0.1043930E+01  0.7957747E-01            NaN
         13   -1    0    0    0    0  0.00000000000E+00  0.00000000000E+00  0.74505805969E-08  0.10566000000E+00  0.10566000000E+00 0. -1.
     999900   -1    0    0    0    0 -0.00000000000E+00 -0.00000000000E+00 -0.74505805969E-08  0.93827000000E+00  0.93827000000E+00 0.  1.
     999902    2    1    2    0    0 -0.16738897332E-01 -0.14988793150E-01 -0.70950162833E-02  0.10203674479E+01  0.10200953558E+01 0.  0.
     999903    2    3    3    0    0  0.46039161871E-01 -0.33560892263E-01  0.11459113977E+00  0.12958491097E+00  0.20376013374E-01 0.  0.
         14    1    1    2    0    0  0.16738897332E-01  0.14988793150E-01  0.70950162833E-02  0.23562552070E-01  0.00000000000E+00 0. -1.
     999901    1    3    3    0    0 -0.62778059202E-01  0.18572099113E-01 -0.12168615605E+00  0.89078253696E+00  0.88000000000E+00 0.  1.
        -11    1    4    4    0    0  0.15381455015E-01 -0.23617482137E-01  0.56875254791E-01  0.63477794144E-01  0.51100000000E-03 0.  1.
         11    1    4    4    0    0  0.30657706856E-01 -0.99434101262E-02  0.57715884981E-01  0.66107116823E-01  0.51100000000E-03 0. -1.
</event>
<event>
 8    1  0.1092993E+005  0.1043930E+01  0.7957747E-01            NaN
         13   -1    0    0    0    0  0.00000000000E+00  0.00000000000E+00  0.74505805969E-08  0.10566000000E+00  0.10566000000E+00 0. -1.
     999900   -1    0    0    0    0 -0.00000000000E+00 -0.00000000000E+00 -0.74505805969E-08  0.93827000000E+00  0.93827000000E+00 0.  1.
     999902    2    1    2    0    0  0.88412454038E-03  0.32177425912E-02  0.23569219211E-01  0.10201257223E+01  0.10198479522E+01 0.  0.
     999903    2    3    3    0    0  0.96502649294E-01 -0.46265250700E-01  0.75075567461E-01  0.13206920786E+00  0.18780311260E-01 0.  0.
         14    1    1    2    0    0 -0.88412454038E-03 -0.32177425912E-02 -0.23569219211E-01  0.23804277720E-01  0.00000000000E+00 0.  1.
     999901    1    3    3    0    0 -0.95618524753E-01  0.49482993291E-01 -0.51506348250E-01  0.88805651442E+00  0.88000000000E+00 0.  1.
        -11    1    4    4    0    0  0.25908805088E-01 -0.20155606389E-01  0.16807239805E-01  0.36881690320E-01  0.51100000000E-03 0.  1.
         11    1    4    4    0    0  0.70593844206E-01 -0.26109644311E-01  0.58268327656E-01  0.95187517536E-01  0.51100000000E-03 0. -1.
</event>
<event>
 8    1  0.1092993E+005  0.1043930E+01  0.7957747E-01            NaN
         13   -1    0    0    0    0  0.00000000000E+00  0.00000000000E+00  0.74505805969E-08  0.10566000000E+00  0.10566000000E+00 0. -1.
     999900   -1    0    0    0    0 -0.00000000000E+00 -0.00000000000E+00 -0.74505805969E-08  0.93827000000E+00  0.93827000000E+00 0.  1.
     999902    2    1    2    0    0 -0.51477326935E-02 -0.19644734320E-01  0.12840549514E-01  0.10199030474E+01  0.10196199938E+01 0.  0.
     999903    2    3    3    0    0  0.87303706121E-02 -0.12685989139E-01 -0.12619041636E+00  0.12885274842E+00  0.21020368725E-01 0.  0.
         14    1    1    2    0    0  0.51477326935E-02  0.19644734320E-01 -0.12840549514E-01  0.24026952579E-01  0.00000000000E+00 0.  1.
     999901    1    3    3    0    0 -0.13878103306E-01 -0.69587451814E-02  0.13903096588E+00  0.89105029901E+00  0.88000000000E+00 0. -1.
        -11    1    4    4    0    0  0.19269781474E-02  0.40281701877E-02 -0.62267225133E-01  0.62429222697E-01  0.51100000000E-03 0.  1.
         11    1    4    4    0    0  0.68033924647E-02 -0.16714159327E-01 -0.63923191229E-01  0.66423525719E-01  0.51100000000E-03 0. -1.
</event>
<event>
 8    1  0.1092993E+005  0.1043930E+01  0.7957747E-01            NaN
         13   -1    0    0    0    0  0.00000000000E+00  0.00000000000E+00  0.74505805969E-08  0.10566000000E+00  0.10566000000E+00 0.  1.
     999900   -1    0    0    0    0 -0.00000000000E+00 -0.00000000000E+00 -0.74505805969E-08  0.93827000000E+00  0.93827000000E+00 0.  1.
     999902    2    1    2    0    0  0.28809607516E-02  0.16330568097E-01  0.15588449941E-01  0.10211706687E+01  0.10209170130E+01 0.  0.
     999903    2    3    3    0    0 -0.87011178532E-01  0.15391655626E-01 -0.93192055229E-01  0.12992733686E+00  0.19710541680E-01 0.  0.
         14    1    1    2    0    0 -0.28809607516E-02 -0.16330568097E-01 -0.15588449941E-01  0.22759331290E-01  0.00000000000E+00 0. -1.
     999901    1    3    3    0    0  0.89892139283E-01  0.93891247156E-03  0.10878050517E+00  0.89124333185E+00  0.88000000000E+00 0. -1.
        -11    1    4    4    0    0 -0.67072525975E-01  0.13371298357E-01 -0.59164666001E-01  0.90433589912E-01  0.51100000000E-03 0.  1.
         11    1    4    4    0    0 -0.19938652556E-01  0.20203572689E-02 -0.34027389228E-01  0.39493746948E-01  0.51100000000E-03 0. -1.
</event>
<event>
 8    1  0.1092993E+005  0.1043930E+01  0.7957747E-01            NaN
         13   -1    0    0    0    0  0.00000000000E+00  0.00000000000E+00  0.74505805969E-08  0.10566000000E+00  0.10566000000E+00 0. -1.
     999900   -1    0    0    0    0 -0.00000000000E+00 -0.00000000000E+00 -0.74505805969E-08  0.93827000000E+00  0.93827000000E+00 0. -1.
     999902    2    1    2    0    0 -0.13906063169E-01 -0.13349366729E-01  0.16234455818E-01  0.10187279814E+01  0.10184162010E+01 0.  0.
     999903    2    3    3    0    0 -0.95874104220E-01 -0.60198680981E-01  0.65283168260E-01  0.13231983942E+00  0.20758680000E-01 0.  0.
         14    1    1    2    0    0  0.13906063169E-01  0.13349366729E-01 -0.16234455818E-01  0.25202018582E-01  0.00000000000E+00 0.  1.
     999901    1    3    3    0    0  0.81968041052E-01  0.46849314252E-01 -0.49048712442E-01  0.88640814199E+00  0.88000000000E+00 0. -1.
        -11    1    4    4    0    0 -0.13072588348E-01 -0.16949062986E-01  0.87635780625E-02  0.23134924329E-01  0.51100000000E-03 0.  1.
         11    1    4    4    0    0 -0.82801515872E-01 -0.43249617995E-01  0.56519590198E-01  0.10918491510E+00  0.51100000000E-03 0. -1.
</event>
<event>
 8    1  0.1092993E+005  0.1043930E+01  0.7957747E-01            NaN
         13   -1    0    0    0    0  0.00000000000E+00  0.00000000000E+00  0.74505805969E-08  0.10566000000E+00  0.10566000000E+00 0. -1.
     999900   -1    0    0    0    0 -0.00000000000E+00 -0.00000000000E+00 -0.74505805969E-08  0.93827000000E+00  0.93827000000E+00 0.  1.
     999902    2    1    2    0    0  0.22825060861E-01  0.12927435587E-01  0.48449497221E-02  0.10172546269E+01  0.10169048138E+01 0.  0.
     999903    2    3    3    0    0 -0.19438346544E-01 -0.86792109150E-01  0.87912715040E-01  0.12673206295E+00  0.20534137091E-01 0.  0.
         14    1    1    2    0    0 -0.22825060861E-01 -0.12927435587E-01 -0.48449497221E-02  0.26675373137E-01  0.00000000000E+00 0.  1.
     999901    1    3    3    0    0  0.42263407405E-01  0.99719544737E-01 -0.83067765318E-01  0.89052256392E+00  0.88000000000E+00 0.  1.
        -11    1    4    4    0    0 -0.19265614291E-01 -0.46972150305E-01  0.41490450648E-01  0.65568783840E-01  0.51100000000E-03 0. -1.
         11    1    4    4    0    0 -0.17273225262E-03 -0.39819958845E-01  0.46422264393E-01  0.61163279108E-01  0.51100000000E-03 0.  1.
</event>
<event>
 8    1  0.1092993E+005  0.1043930E+01  0.7957747E-01            NaN
         13   -1    0    0    0    0  0.00000000000E+00  0.00000000000E+00  0.74505805969E-08  0.10566000000E+00  0.10566000000E+00 0.  1.
     999900   -1    0    0    0    0 -0.00000000000E+00 -0.00000000000E+00 -0.74505805969E-08  0.93827000000E+00  0.93827000000E+00 0. -1.
     999902    2    1    2    0    0  0.38816946842E-02  0.15806031812E-01  0.16296867751E-01  0.10208977163E+01  0.10206378697E+01 0.  0.
     999903    2    3    3    0    0  0.53897333127E-01  0.79768418331E-01 -0.86754112206E-01  0.13117177226E+00  0.20293712612E-01 0.  0.
         14    1    1    2    0    0 -0.38816946842E-02 -0.15806031812E-01 -0.16296867751E-01  0.23032283729E-01  0.00000000000E+00 0. -1.
     999901    1    3    3    0    0 -0.50015638443E-01 -0.63962386518E-01  0.10305097996E+00  0.88972594401E+00  0.88000000000E+00 0. -1.
        -11    1    4    4    0    0  0.90656210061E-02  0.80187696943E-02 -0.38319058316E-02  0.12705541112E-01  0.51100000000E-03 0.  1.
         11    1    4    4    0    0  0.44831712121E-01  0.71749648636E-01 -0.82922206375E-01  0.11846623115E+00  0.51100000000E-03 0. -1.
</event>
<event>
 8    1  0.1092993E+005  0.1043930E+01  0.7957747E-01            NaN
         13   -1    0    0    0    0  0.00000000000E+00  0.00000000000E+00  0.74505805969E-08  0.10566000000E+00  0.10566000000E+00 0.  1.
     999900   -1    0    0    0    0 -0.00000000000E+00 -0.00000000000E+00 -0.74505805969E-08  0.93827000000E+00  0.93827000000E+00 0. -1.
     999902    2    1    2    0    0  0.31140471740E-02  0.23317475821E-01  0.19819386047E-02  0.10203221613E+01  0.10200490100E+01 0.  0.
     999903    2    3    3    0    0 -0.96258281512E-01  0.55153610559E-01 -0.67640053404E-01  0.13142643007E+00  0.19752270253E-01 0.  0.
         14    1    1    2    0    0 -0.31140471740E-02 -0.23317475821E-01 -0.19819386047E-02  0.23607838721E-01  0.00000000000E+00 0. -1.
     999901    1    3    3    0    0  0.99372328686E-01 -0.31836134738E-01  0.69621992009E-01  0.88889573121E+00  0.88000000000E+00 0.  1.
        -11    1    4    4    0    0 -0.36690924801E-01  0.20354817496E-01 -0.36979223881E-01  0.55930909861E-01  0.51100000000E-03 0.  1.
         11    1    4    4    0    0 -0.59567356711E-01  0.34798793063E-01 -0.30660829523E-01  0.75495520213E-01  0.51100000000E-03 0. -1.
</event>
<event>
 8    1  0.1092993E+005  0.1043930E+01  0.7957747E-01            NaN
         13   -1    0    0    0    0  0.00000000000E+00  0.00000000000E+00  0.74505805969E-08  0.10566000000E+00  0.10566000000E+00 0.  1.
     999900   -1    0    0    0    0 -0.00000000000E+00 -0.00000000000E+00 -0.74505805969E-08  0.93827000000E+00  0.93827000000E+00 0. -1.
     999902    2    1    2    0    0  0.45473151056E-02 -0.22292303902E-01  0.67703600103E-02  0.10201926315E+01  0.10199164391E+01 0.  0.
     999903    2    3    3    0    0 -0.39172948734E-01 -0.11800494126E+00  0.43247437420E-01  0.13317349553E+00  0.20128412604E-01 0.  0.
         14    1    1    2    0    0 -0.45473151056E-02  0.22292303902E-01 -0.67703600103E-02  0.23737368485E-01  0.00000000000E+00 0. -1.
     999901    1    3    3    0    0  0.43720263840E-01  0.95712637362E-01 -0.36477077410E-01  0.88701913598E+00  0.88000000000E+00 0. -1.
        -11    1    4    4    0    0 -0.21950982396E-01 -0.41486588902E-01  0.22436703383E-01  0.52025469402E-01  0.51100000000E-03 0. -1.
         11    1    4    4    0    0 -0.17221966338E-01 -0.76518352362E-01  0.20810734037E-01  0.81148026131E-01  0.51100000000E-03 0.  1.
</event>
<event>
 8    1  0.1092993E+005  0.1043930E+01  0.7957747E-01            NaN
         13   -1    0    0    0    0  0.00000000000E+00  0.00000000000E+00  0.74505805969E-08  0.10566000000E+00  0.10566000000E+00 0.  1.
     999900   -1    0    0    0    0 -0.00000000000E+00 -0.00000000000E+00 -0.74505805969E-08  0.93827000000E+00  0.93827000000E+00 0.  1.
     999902    2    1    2    0    0 -0.98369752543E-02 -0.19113203663E-01  0.10750694968E-01  0.10198954815E+01  0.10196122474E+01 0.  0.
     999903    2    3    3    0    0 -0.57752528694E-02 -0.75261519233E-01  0.10749394974E+00  0.13280563924E+00  0.19614758699E-01 0.  0.
         14    1    1    2    0    0  0.98369752543E-02  0.19113203663E-01 -0.10750694968E-01  0.24034518484E-01  0.00000000000E+00 0. -1.
     999901    1    3    3    0    0 -0.40617223849E-02  0.56148315570E-01 -0.96743254775E-01  0.88708984228E+00  0.88000000000E+00 0. -1.
        -11    1    4    4    0    0 -0.25148535783E-02 -0.51299257762E-01  0.56449068734E-01  0.76319701371E-01  0.51100000000E-03 0. -1.
         11    1    4    4    0    0 -0.32603992911E-02 -0.23962261471E-01  0.51044881010E-01  0.56485937867E-01  0.51100000000E-03 0.  1.
</event>
<event>
 8    1  0.1092993E+005  0.1043930E+01  0.7957747E-01            NaN
         13   -1    0    0    0    0  0.00000000000E+00  0.00000000000E+00  0.74505805969E-08  0.10566000000E+00  0.10566000000E+00 0.  1.
     999900   -1    0    0    0    0 -0.00000000000E+00 -0.00000000000E+00 -0.74505805969E-08  0.93827000000E+00  0.93827000000E+00 0.  1.
     999902    2    1    2    0    0 -0.80021531083E-02 -0.78716887456E-02  0.21012551626E-01  0.10201072112E+01  0.10198290039E+01 0.  0.
     999903    2    3    3    0    0 -0.11474617676E+00 -0.81017691879E-02  0.63094507313E-01  0.13265849131E+00  0.19622301585E-01 0.  0.
         14    1    1    2    0    0  0.80021531083E-02  0.78716887456E-02 -0.21012551626E-01  0.23822788752E-01  0.00000000000E+00 0. -1.
     999901    1    3    3    0    0  0.10674402365E+00  0.23008044232E-03 -0.42081955686E-01  0.88744871994E+00  0.88000000000E+00 0.  1.
        -11    1    4    4    0    0 -0.10550770915E+00 -0.18732293064E-02  0.56449166250E-01  0.11967520699E+00  0.51100000000E-03 0. -1.
         11    1    4    4    0    0 -0.92384676097E-02 -0.62285398815E-02  0.66453410632E-02  0.12983284318E-01  0.51100000000E-03 0.  1.
</event>
<event>
 8    1  0.1092993E+005  0.1043930E+01  0.7957747E-01            NaN
         13   -1    0    0    0    0  0.00000000000E+00  0.00000000000E+00  0.74505805969E-08  0.10566000000E+00  0.10566000000E+00 0.  1.
     999900   -1    0    0    0    0 -0.00000000000E+00 -0.00000000000E+00 -0.74505805969E-08  0.93827000000E+00  0.93827000000E+00 0.  1.
     999902    2    1    2    0    0 -0.17032345979E-01  0.42166076005E-02  0.15752620857E-01  0.10203498038E+01  0.10200772993E+01 0.  0.
     999903    2    3    3    0    0 -0.11476118348E+00 -0.60986914791E-01 -0.12471420630E-01  0.13209363493E+00  0.20091267927E-01 0.  0.
         14    1    1    2    0    0  0.17032345979E-01 -0.42166076005E-02 -0.15752620857E-01  0.23580196205E-01  0.00000000000E+00 0. -1.
     999901    1    3    3    0    0  0.97728837500E-01  0.65203522391E-01  0.28224041487E-01  0.88825616887E+00  0.88000000000E+00 0. -1.
        -11    1    4    4    0    0 -0.96399907442E-02 -0.68157615731E-02 -0.69417456593E-02  0.13705217297E-01  0.51100000000E-03 0.  1.
         11    1    4    4    0    0 -0.10512119274E+00 -0.54171153218E-01 -0.55296749708E-02  0.11838841763E+00  0.51100000000E-03 0. -1.
</event>
<event>
 8    1  0.1092993E+005  0.1043930E+01  0.7957747E-01            NaN
         13   -1    0    0    0    0  0.00000000000E+00  0.00000000000E+00  0.74505805969E-08  0.10566000000E+00  0.10566000000E+00 0. -1.
     999900   -1    0    0    0    0 -0.00000000000E+00 -0.00000000000E+00 -0.74505805969E-08  0.93827000000E+00  0.93827000000E+00 0. -1.
     999902    2    1    2    0    0 -0.16489434222E-01  0.40338144551E-02  0.16272381783E-01  0.10204148239E+01  0.10201438375E+01 0.  0.
     999903    2    3    3    0    0  0.51838609441E-01 -0.28046664088E-01 -0.11179794837E+00  0.12794639970E+00  0.19940991490E-01 0.  0.
         14    1    1    2    0    0  0.16489434222E-01 -0.40338144551E-02 -0.16272381783E-01  0.23515176140E-01  0.00000000000E+00 0.  1.
     999901    1    3    3    0    0 -0.68328043663E-01  0.32080478543E-01  0.12807033015E+00  0.89246842416E+00  0.88000000000E+00 0.  1.
        -11    1    4    4    0    0  0.35005460956E-01 -0.88274592772E-02 -0.73752047195E-01  0.82115357397E-01  0.51100000000E-03 0.  1.
         11    1    4    4    0    0  0.16833148485E-01 -0.19219204811E-01 -0.38045901176E-01  0.45831042305E-01  0.51100000000E-03 0. -1.
</event>
<event>
 7    1  0.1092993E+005  0.1043930E+01  0.7957747E-01            NaN
         13   -1    0    0    0    0  0.00000000000E+00  0.00000000000E+00  0.74505805969E-08  0.10566000000E+00  0.10566000000E+00 0.  1.
     999900   -1    0    0    0    0 -0.00000000000E+00 -0.00000000000E+00 -0.74505805969E-08  0.93827000000E+00  0.93827000000E+00 0.  1.
     999903    2    1    2    0    0  0.93262120737E-01 -0.55501630841E-01  0.90835627556E-03  0.11037222471E+00  0.20073581773E-01 0.  0.
         14    1    1    2    0    0  0.14943034320E-01  0.30810804331E-01 -0.30837094145E-01  0.46081735140E-01  0.00000000000E+00 0. -1.
     999901    1    1    2    0    0 -0.10820515506E+00  0.24690826510E-01  0.29928737870E-01  0.88747604015E+00  0.88000000000E+00 0.  1.
        -11    1    3    3    0    0  0.47930644564E-02 -0.87295003501E-03 -0.39328708692E-02  0.62820460776E-02  0.51100000000E-03 0. -1.
         11    1    3    3    0    0  0.88469056281E-01 -0.54628680806E-01  0.48412271448E-02  0.10409017863E+00  0.51100000000E-03 0.  1.
</event>
<event>
 8    1  0.1092993E+005  0.1043930E+01  0.7957747E-01            NaN
         13   -1    0    0    0    0  0.00000000000E+00  0.00000000000E+00  0.74505805969E-08  0.10566000000E+00  0.10566000000E+00 0. -1.
     999900   -1    0    0    0    0 -0.00000000000E+00 -0.00000000000E+00 -0.74505805969E-08  0.93827000000E+00  0.93827000000E+00 0.  1.
     999902    2    1    2    0    0  0.21485499445E-01  0.10464932913E-01  0.11564404977E-01  0.10173804808E+01  0.10170340042E+01 0.  0.
     999903    2    3    3    0    0 -0.75931768167E-01  0.14048113302E-01 -0.96821920566E-01  0.12538801515E+00  0.19613442759E-01 0.  0.
         14    1    1    2    0    0 -0.21485499445E-01 -0.10464932913E-01 -0.11564404977E-01  0.26549519200E-01  0.00000000000E+00 0. -1.
     999901    1    3    3    0    0  0.97417267612E-01 -0.35831803897E-02  0.10838632554E+00  0.89199246565E+00  0.88000000000E+00 0.  1.
        -11    1    4    4    0    0 -0.47445135303E-01 -0.76556052690E-03 -0.54548404179E-01  0.72300874589E-01  0.51100000000E-03 0. -1.
         11    1    4    4    0    0 -0.28486632864E-01  0.14813673829E-01 -0.42273516387E-01  0.53087140561E-01  0.51100000000E-03 0.  1.
</event>
<event>
 8    1  0.1092993E+005  0.1043930E+01  0.7957747E-01            NaN
         13   -1    0    0    0    0  0.00000000000E+00  0.00000000000E+00  0.74505805969E-08  0.10566000000E+00  0.10566000000E+00 0.  1.
     999900   -1    0    0    0    0 -0.00000000000E+00 -0.00000000000E+00 -0.74505805969E-08  0.93827000000E+00  0.93827000000E+00 0. -1.
     999902    2    1    2    0    0  0.43870016184E-02 -0.19217310639E-01 -0.12293683157E-01  0.10206988688E+01  0.10204344640E+01 0.  0.
     999903    2    3    3    0    0  0.49906438023E-01 -0.12078859023E+00 -0.14324119524E-01  0.13368541535E+00  0.24208960962E-01 0.  0.
         14    1    1    2    0    0 -0.43870016184E-02  0.19217310639E-01  0.12293683157E-01  0.23231131203E-01  0.00000000000E+00 0.  1.
     999901    1    3    3    0    0 -0.45519436405E-01  0.10157127959E+00  0.20304363666E-02  0.88701345345E+00  0.88000000000E+00 0.  1.
        -11    1    4    4    0    0  0.18961604200E-01 -0.43179098229E-01  0.64177699139E-02  0.47596489885E-01  0.51100000000E-03 0. -1.
         11    1    4    4    0    0  0.30944833823E-01 -0.77609492000E-01 -0.20741889438E-01  0.86088925462E-01  0.51100000000E-03 0.  1.
</event>
<event>
 8    1  0.1092993E+005  0.1043930E+01  0.7957747E-01            NaN
         13   -1    0    0    0    0  0.00000000000E+00  0.00000000000E+00  0.74505805969E-08  0.10566000000E+00  0.10566000000E+00 0. -1.
     999900   -1    0    0    0    0 -0.00000000000E+00 -0.00000000000E+00 -0.74505805969E-08  0.93827000000E+00  0.93827000000E+00 0.  1.
     999902    2    1    2    0    0 -0.83130411740E-02 -0.13521573098E-01 -0.17569177429E-01  0.10202526778E+01  0.10199778973E+01 0.  0.
     999903    2    3    3    0    0  0.57472180593E-01 -0.11520148142E+00 -0.22148237462E-01  0.13194672431E+00  0.18573119563E-01 0.  0.
         14    1    1    2    0    0  0.83130411740E-02  0.13521573098E-01  0.17569177429E-01  0.23677322233E-01  0.00000000000E+00 0. -1.
     999901    1    3    3    0    0 -0.65785221767E-01  0.10167990832E+00  0.45790600330E-02  0.88830595346E+00  0.88000000000E+00 0.  1.
        -11    1    4    4    0    0  0.51111062333E-01 -0.10198958956E+00 -0.13402649608E-01  0.11486561369E+00  0.51100000000E-03 0. -1.
         11    1    4    4    0    0  0.63611182599E-02 -0.13211891855E-01 -0.87455878541E-02  0.17081110614E-01  0.51100000000E-03 0.  1.
</event>
<event>
 8    1  0.1092993E+005  0.1043930E+01  0.7957747E-01            NaN
         13   -1    0    0    0    0  0.00000000000E+00  0.00000000000E+00  0.74505805969E-08  0.10566000000E+00  0.10566000000E+00 0. -1.
     999900   -1    0    0    0    0 -0.00000000000E+00 -0.00000000000E+00 -0.74505805969E-08  0.93827000000E+00  0.93827000000E+00 0. -1.
     999902    2    1    2    0    0 -0.18071545428E-01  0.97482432652E-02 -0.15035064003E-01  0.10184807927E+01  0.10181627881E+01 0.  0.
     999903    2    3    3    0    0  0.89349553841E-01  0.86286605914E-02 -0.90099462663E-01  0.12877566744E+00  0.20185707726E-01 0.  0.
         14    1    1    2    0    0  0.18071545428E-01 -0.97482432652E-02  0.15035064003E-01  0.25449207266E-01  0.00000000000E+00 0. -1.
     999901    1    3    3    0    0 -0.10742109927E+00  0.11195826738E-02  0.75064398660E-01  0.88970512530E+00  0.88000000000E+00 0. -1.
        -11    1    4    4    0    0  0.22028029278E-01 -0.17958918605E-02 -0.33847927251E-01  0.40427745443E-01  0.51100000000E-03 0.  1.
         11    1    4    4    0    0  0.67321524564E-01  0.10424552452E-01 -0.56251535412E-01  0.88347921994E-01  0.51100000000E-03 0. -1.
</event>
<event>
 8    1  0.1092993E+005  0.1043930E+01  0.7957747E-01            NaN
         13   -1    0    0    0    0  0.00000000000E+00  0.00000000000E+00  0.74505805969E-08  0.10566000000E+00  0.10566000000E+00 0.  1.
     999900   -1    0    0    0    0 -0.00000000000E+00 -0.00000000000E+00 -0.74505805969E-08  0.93827000000E+00  0.93827000000E+00 0.  1.
     999902    2    1    2    0    0  0.26840114957E-02 -0.10681981212E-01  0.21748180384E-01  0.10195518953E+01  0.10192604060E+01 0.  0.
     999903    2    3    3    0    0 -0.43724444448E-01  0.11657660701E+00 -0.17331025878E-01  0.12833044275E+00  0.25814835571E-01 0.  0.
         14    1    1    2    0    0 -0.26840114957E-02  0.10681981212E-01 -0.21748180384E-01  0.24378104732E-01  0.00000000000E+00 0. -1.
     999901    1    3    3    0    0  0.46408455943E-01 -0.12725858822E+00  0.39079206262E-01  0.89122145251E+00  0.88000000000E+00 0. -1.
        -11    1    4    4    0    0 -0.30186489203E-01  0.49269904036E-01 -0.14694205860E-01  0.59623220149E-01  0.51100000000E-03 0.  1.
         11    1    4    4    0    0 -0.13537955245E-01  0.67306702973E-01 -0.26368200180E-02  0.68707222605E-01  0.51100000000E-03 0. -1.
</event>
<event>
 8    1  0.1092993E+005  0.1043930E+01  0.7957747E-01            NaN
         13   -1    0    0    0    0  0.00000000000E+00  0.00000000000E+00  0.74505805969E-08  0.10566000000E+00  0.10566000000E+00 0. -1.
     999900   -1    0    0    0    0 -0.00000000000E+00 -0.00000000000E+00 -0.74505805969E-08  0.93827000000E+00  0.93827000000E+00 0. -1.
     999902    2    1    2    0    0 -0.13466814069E-01 -0.19256820262E-01  0.18955041648E-02  0.10203551587E+01  0.10200827793E+01 0.  0.
     999903    2    3    3    0    0 -0.81437833507E-01 -0.16081306004E-01 -0.10041258875E+00  0.13181867138E+00  0.20068508027E-01 0.  0.
         14    1    1    2    0    0  0.13466814069E-01  0.19256820262E-01 -0.18955041648E-02  0.23574841331E-01  0.00000000000E+00 0.  1.
     999901    1    3    3    0    0  0.67971019438E-01 -0.31755142581E-02  0.10230809292E+00  0.88853648729E+00  0.88000000000E+00 0.  1.
        -11    1    4    4    0    0 -0.40702239140E-01 -0.14537365759E-01 -0.63549567048E-01  0.76855812189E-01  0.51100000000E-03 0. -1.
         11    1    4    4    0    0 -0.40735594367E-01 -0.15439402448E-02 -0.36863021704E-01  0.54962859187E-01  0.51100000000E-03 0.  1.
</event>
<event>
 8    1  0.1092993E+005  0.1043930E+01  0.7957747E-01            NaN
         13   -1    0    0    0    0  0.00000000000E+00  0.00000000000E+00  0.74505805969E-08  0.10566000000E+00  0.10566000000E+00 0.  1.
     999900   -1    0    0    0    0 -0.00000000000E+00 -0.00000000000E+00 -0.74505805969E-08  0.93827000000E+00  0.93827000000E+00 0.  1.
     999902    2    1    2    0    0  0.10788481094E-01  0.27372312363E-02 -0.21005117533E-01  0.10201581948E+01  0.10198811910E+01 0.  0.
     999903    2    3    3    0    0 -0.25294940052E-01 -0.10938143318E+00  0.59620052199E-01  0.12865775949E+00  0.19852872254E-01 0.  0.
         14    1    1    2    0    0 -0.10788481094E-01 -0.27372312363E-02  0.21005117533E-01  0.23771805185E-01  0.00000000000E+00 0. -1.
     999901    1    3    3    0    0  0.36083421145E-01  0.11211866441E+00 -0.80625169732E-01  0.89150043533E+00  0.88000000000E+00 0.  1.
        -11    1    4    4    0    0  0.11672289732E-02 -0.32714415001E-01  0.14060354834E-01  0.35630746153E-01  0.51100000000E-03 0. -1.
         11    1    4    4    0    0 -0.26462169025E-01 -0.76667018175E-01  0.45559697365E-01  0.93027013337E-01  0.51100000000E-03 0.  1.
</event>
<event>
 8    1  0.1092993E+005  0.1043930E+01  0.7957747E-01            NaN
         13   -1    0    0    0    0  0.00000000000E+00  0.00000000000E+00  0.74505805969E-08  0.10566000000E+00  0.10566000000E+00 0.  1.
     999900   -1    0    0    0    0 -0.00000000000E+00 -0.00000000000E+00 -0.74505805969E-08  0.93827000000E+00  0.93827000000E+00 0.  1.
     999902    2    1    2    0    0 -0.15960005587E-01  0.17737835818E-01 -0.89859872513E-03  0.10200519750E+01  0.10197724607E+01 0.  0.
     999903    2    3    3    0    0 -0.11290221790E+00 -0.96494506521E-02  0.64446028156E-01  0.13189783509E+00  0.20092925406E-01 0.  0.
         14    1    1    2    0    0  0.15960005587E-01 -0.17737835818E-01  0.89859872513E-03  0.23878024991E-01  0.00000000000E+00 0.  1.
     999901    1    3    3    0    0  0.96942212317E-01  0.27387286470E-01 -0.65344626881E-01  0.88815413992E+00  0.88000000000E+00 0.  1.
        -11    1    4    4    0    0 -0.24997414275E-01  0.54108682623E-02  0.18512665298E-01  0.31577335436E-01  0.51100000000E-03 0. -1.
         11    1    4    4    0    0 -0.87904803628E-01 -0.15060318914E-01  0.45933362857E-01  0.10032049966E+00  0.51100000000E-03 0.  1.
</event>
<event>
 8    1  0.1092993E+005  0.1043930E+01  0.7957747E-01            NaN
         13   -1    0    0    0    0  0.00000000000E+00  0.00000000000E+00  0.74505805969E-08  0.10566000000E+00  0.10566000000E+00 0. -1.
     999900   -1    0    0    0    0 -0.00000000000E+00 -0.00000000000E+00 -0.74505805969E-08  0.93827000000E+00  0.93827000000E+00 0.  1.
     999902    2    1    2    0    0 -0.14649408878E-01  0.17590468690E-01 -0.56408092773E-02  0.10203535605E+01  0.10200811438E+01 0.  0.
     999903    2    3    3    0    0  0.67670877743E-01  0.87103964346E-01  0.66766500748E-01  0.13083033192E+00  0.22189227796E-01 0.  0.
         14    1    1    2    0    0  0.14649408878E-01 -0.17590468690E-01  0.56408092773E-02  0.23576439479E-01  0.00000000000E+00 0.  1.
     999901    1    3    3    0    0 -0.82320286621E-01 -0.69513495656E-01 -0.72407310025E-01  0.88952322860E+00  0.88000000000E+00 0.  1.
        -11    1    4    4    0    0 -0.15375459648E-02  0.35780389417E-02  0.34593232177E-02  0.52339706139E-02  0.51100000000E-03 0.  1.
         11    1    4    4    0    0  0.69208423708E-01  0.83525925404E-01  0.63307177530E-01  0.12559636131E+00  0.51100000000E-03 0. -1.
</event>
<event>
 8    1  0.1092993E+005  0.1043930E+01  0.7957747E-01            NaN
         13   -1    0    0    0    0  0.00000000000E+00  0.00000000000E+00  0.74505805969E-08  0.10566000000E+00  0.10566000000E+00 0.  1.
     999900   -1    0    0    0    0 -0.00000000000E+00 -0.00000000000E+00 -0.74505805969E-08  0.93827000000E+00  0.93827000000E+00 0.  1.
     999902    2    1    2    0    0  0.15398809749E-01  0.18105604989E-01  0.62605937447E-02  0.10193509173E+01  0.10190545428E+01 0.  0.
     999903    2    3    3    0    0 -0.92815454455E-01 -0.26275979384E-01  0.82289848049E-01  0.12836242154E+00  0.20003911982E-01 0.  0.
         14    1    1    2    0    0 -0.15398809749E-01 -0.18105604989E-01 -0.62605937447E-02  0.24579082728E-01  0.00000000000E+00 0.  1.
     999901    1    3    3    0    0  0.10821426420E+00  0.44381584373E-01 -0.76029254305E-01  0.89098849573E+00  0.88000000000E+00 0. -1.
        -11    1    4    4    0    0 -0.54794629583E-01 -0.19794757860E-01  0.60792549022E-01  0.84203794496E-01  0.51100000000E-03 0. -1.
         11    1    4    4    0    0 -0.38020824872E-01 -0.64812215243E-02  0.21497299027E-01  0.44158627049E-01  0.51100000000E-03 0.  1.
</event>
<event>
 8    1  0.1092993E+005  0.1043930E+01  0.7957747E-01            NaN
         13   -1    0    0    0    0  0.00000000000E+00  0.00000000000E+00  0.74505805969E-08  0.10566000000E+00  0.10566000000E+00 0. -1.
     999900   -1    0    0    0    0 -0.00000000000E+00 -0.00000000000E+00 -0.74505805969E-08  0.93827000000E+00  0.93827000000E+00 0.  1.
     999902    2    1    2    0    0 -0.29509114839E-02  0.32370388051E-01 -0.17061837603E-02  0.10113806380E+01  0.10108567327E+01 0.  0.
     999903    2    3    3    0    0  0.11024626657E+00 -0.43304959301E-01 -0.93982235474E-02  0.12087542930E+00  0.22203243195E-01 0.  0.
         14    1    1    2    0    0  0.29509114839E-02 -0.32370388051E-01  0.17061837603E-02  0.32549361963E-01  0.00000000000E+00 0. -1.
     999901    1    3    3    0    0 -0.11319717806E+00  0.75675347353E-01  0.76920397871E-02  0.89050520874E+00  0.88000000000E+00 0. -1.
        -11    1    4    4    0    0  0.42000761616E-01 -0.73479173361E-02  0.29915083289E-02  0.42746533293E-01  0.51100000000E-03 0. -1.
         11    1    4    4    0    0  0.68245504957E-01 -0.35957041965E-01 -0.12389731876E-01  0.78128896004E-01  0.51100000000E-03 0.  1.
</event>
<event>
 8    1  0.1092993E+005  0.1043930E+01  0.7957747E-01            NaN
         13   -1    0    0    0    0  0.00000000000E+00  0.00000000000E+00  0.74505805969E-08  0.10566000000E+00  0.10566000000E+00 0. -1.
     999900   -1    0    0    0    0 -0.00000000000E+00 -0.00000000000E+00 -0.74505805969E-08  0.93827000000E+00  0.93827000000E+00 0. -1.
     999902    2    1    2    0    0 -0.22532563786E-01 -0.58039385004E-02  0.83930897761E-02  0.10191944772E+01  0.10188942714E+01 0.  0.
     999903    2    3    3    0    0  0.31720666706E-01 -0.66582731248E-01  0.10531631099E+00  0.13013228281E+00  0.20085439280E-01 0.  0.
         14    1    1    2    0    0  0.22532563786E-01  0.58039385004E-02 -0.83930897761E-02  0.24735522814E-01  0.00000000000E+00 0. -1.
     999901    1    3    3    0    0 -0.54253230492E-01  0.60778792748E-01 -0.96923221213E-01  0.88906219438E+00  0.88000000000E+00 0. -1.
        -11    1    4    4    0    0  0.33349527355E-02 -0.79247125329E-02  0.26497336608E-01  0.27862034147E-01  0.51100000000E-03 0. -1.
         11    1    4    4    0    0  0.28385713970E-01 -0.58658018715E-01  0.78818974381E-01  0.10227024866E+00  0.51100000000E-03 0.  1.
</event>
<event>
 8    1  0.1092993E+005  0.1043930E+01  0.7957747E-01            NaN
         13   -1    0    0    0    0  0.00000000000E+00  0.00000000000E+00  0.74505805969E-08  0.10566000000E+00  0.10566000000E+00 0.  1.
     999900   -1    0    0    0    0 -0.00000000000E+00 -0.00000000000E+00 -0.74505805969E-08  0.93827000000E+00  0.93827000000E+00 0.  1.
     999902    2    1    2    0    0 -0.23340283287E-01 -0.40442035531E-02 -0.50423763487E-02  0.10197112064E+01  0.10194235599E+01 0.  0.
     999903    2    3    3    0    0 -0.12210551683E+00 -0.18245025145E-01 -0.45859340705E-01  0.13313224243E+00  0.19454476668E-01 0.  0.
         14    1    1    2    0    0  0.23340283287E-01  0.40442035531E-02  0.50423763487E-02  0.24218793643E-01  0.00000000000E+00 0. -1.
     999901    1    3    3    0    0  0.98765233545E-01  0.14200821592E-01  0.40816964356E-01  0.88657896392E+00  0.88000000000E+00 0. -1.
        -11    1    4    4    0    0 -0.85127570748E-01 -0.44603903935E-02 -0.27229112968E-01  0.89489016633E-01  0.51100000000E-03 0. -1.
         11    1    4    4    0    0 -0.36977946083E-01 -0.13784634752E-01 -0.18630227737E-01  0.43643225801E-01  0.51100000000E-03 0.  1.
</event>
<event>
 8    1  0.1092993E+005  0.1043930E+01  0.7957747E-01            NaN
         13   -1    0    0    0    0  0.00000000000E+00  0.00000000000E+00  0.74505805969E-08  0.10566000000E+00  0.10566000000E+00 0. -1.
     999900   -1    0    0    0    0 -0.00000000000E+00 -0.00000000000E+00 -0.74505805969E-08  0.93827000000E+00  0.93827000000E+00 0. -1.
     999902    2    1    2    0    0  0.10590433070E-01  0.13568664937E-01  0.15391037249E-01  0.10208399595E+01  0.10205787932E+01 0.  0.
     999903    2    3    3    0    0 -0.12299978921E+00 -0.34911974029E-01  0.29766405305E-02  0.12935196911E+00  0.19372079025E-01 0.  0.
         14    1    1    2    0    0 -0.10590433070E-01 -0.13568664937E-01 -0.15391037249E-01  0.23090040459E-01  0.00000000000E+00 0.  1.
     999901    1    3    3    0    0  0.13359022228E+00  0.48480638966E-01  0.12414396719E-01  0.89148799044E+00  0.88000000000E+00 0.  1.
        -11    1    4    4    0    0 -0.19031980943E-01 -0.46932425105E-02  0.74793897006E-02  0.20986786680E-01  0.51100000000E-03 0.  1.
         11    1    4    4    0    0 -0.10396780827E+00 -0.30218731519E-01 -0.45027491701E-02  0.10836518243E+00  0.51100000000E-03 0. -1.
</event>
<event>
 8    1  0.1092993E+005  0.1043930E+01  0.7957747E-01            NaN
         13   -1    0    0    0    0  0.00000000000E+00  0.00000000000E+00  0.74505805969E-08  0.10566000000E+00  0.10566000000E+00 0. -1.
     999900   -1    0    0    0    0 -0.00000000000E+00 -0.00000000000E+00 -0.74505805969E-08  0.93827000000E+00  0.93827000000E+00 0.  1.
     999902    2    1    2    0    0 -0.21484446935E-01 -0.10824186553E-01 -0.12861227326E-01  0.10166507837E+01  0.10162847339E+01 0.  0.
     999903    2    3    3    0    0  0.53233459924E-01  0.10735494865E+00  0.27829226187E-01  0.12468397566E+00  0.20316045402E-01 0.  0.
         14    1    1    2    0    0  0.21484446935E-01  0.10824186553E-01  0.12861227326E-01  0.27279216319E-01  0.00000000000E+00 0. -1.
     999901    1    3    3    0    0 -0.74717906859E-01 -0.11817913521E+00 -0.40690453513E-01  0.89196680802E+00  0.88000000000E+00 0. -1.
        -11    1    4    4    0    0  0.35773862853E-01  0.88032510137E-01  0.17288942623E-01  0.96584992429E-01  0.51100000000E-03 0.  1.
         11    1    4    4    0    0  0.17459597071E-01  0.19322438514E-01  0.10540283563E-01  0.28098983231E-01  0.51100000000E-03 0. -1.
</event>
<event>
 8    1  0.1092993E+005  0.1043930E+01  0.7957747E-01            NaN
         13   -1    0    0    0    0  0.00000000000E+00  0.00000000000E+00  0.74505805969E-08  0.10566000000E+00  0.10566000000E+00 0.  1.
     999900   -1    0    0    0    0 -0.00000000000E+00 -0.00000000000E+00 -0.74505805969E-08  0.93827000000E+00  0.93827000000E+00 0. -1.
     999902    2    1    2    0    0  0.11931350299E-01  0.73553953392E-02  0.18584983853E-01  0.10206521009E+01  0.10203866182E+01 0.  0.
     999903    2    3    3    0    0  0.23680059799E-01 -0.12229389505E+00 -0.30039990724E-01  0.12974730308E+00  0.20381845258E-01 0.  0.
         14    1    1    2    0    0 -0.11931350299E-01 -0.73553953392E-02 -0.18584983853E-01  0.23277899075E-01  0.00000000000E+00 0. -1.
     999901    1    3    3    0    0 -0.11748709500E-01  0.12964929038E+00  0.48624974576E-01  0.89090479785E+00  0.88000000000E+00 0.  1.
        -11    1    4    4    0    0  0.25023307203E-01 -0.11234073087E+00 -0.22738167581E-01  0.11731961090E+00  0.51100000000E-03 0.  1.
         11    1    4    4    0    0 -0.13432474044E-02 -0.99531641772E-02 -0.73018231428E-02  0.12427692181E-01  0.51100000000E-03 0. -1.
</event>
<event>
 8    1  0.1092993E+005  0.1043930E+01  0.7957747E-01            NaN
         13   -1    0    0    0    0  0.00000000000E+00  0.00000000000E+00  0.74505805969E-08  0.10566000000E+00  0.10566000000E+00 0. -1.
     999900   -1    0    0    0    0 -0.00000000000E+00 -0.00000000000E+00 -0.74505805969E-08  0.93827000000E+00  0.93827000000E+00 0.  1.
     999902    2    1    2    0    0 -0.11603360859E-01  0.78848870176E-02  0.25884475972E-01  0.10144882690E+01  0.10140609609E+01 0.  0.
     999903    2    3    3    0    0  0.22051644169E-01  0.26632085309E-01 -0.11556425191E+00  0.12236055427E+00  0.20529635785E-01 0.  0.
         14    1    1    2    0    0  0.11603360859E-01 -0.78848870176E-02 -0.25884475972E-01  0.29441730975E-01  0.00000000000E+00 0.  1.
     999901    1    3    3    0    0 -0.33655005028E-01 -0.18747198292E-01  0.14144872788E+00  0.89212771475E+00  0.88000000000E+00 0. -1.
        -11    1    4    4    0    0  0.12101274838E-01  0.26007907500E-01 -0.68794216100E-01  0.74536953218E-01  0.51100000000E-03 0. -1.
         11    1    4    4    0    0  0.99503693312E-02  0.62417780922E-03 -0.46770035805E-01  0.47823601056E-01  0.51100000000E-03 0.  1.
</event>
<event>
 8    1  0.1092993E+005  0.1043930E+01  0.7957747E-01            NaN
         13   -1    0    0    0    0  0.00000000000E+00  0.00000000000E+00  0.74505805969E-08  0.10566000000E+00  0.10566000000E+00 0. -1.
     999900   -1    0    0    0    0 -0.00000000000E+00 -0.00000000000E+00 -0.74505805969E-08  0.93827000000E+00  0.93827000000E+00 0.  1.
     999902    2    1    2    0    0 -0.78002864600E-02  0.16667230278E-01  0.14363487436E-01  0.10205858186E+01  0.10203188043E+01 0.  0.
     999903    2    3    3    0    0 -0.90930652084E-02 -0.25084826397E-01 -0.12437421996E+00  0.12873770543E+00  0.19812063435E-01 0.  0.
         14    1    1    2    0    0  0.78002864600E-02 -0.16667230278E-01 -0.14363487436E-01  0.23344181402E-01  0.00000000000E+00 0. -1.
     999901    1    3    3    0    0  0.12927787484E-02  0.41752056674E-01  0.13873770740E+00  0.89184811317E+00  0.88000000000E+00 0. -1.
        -11    1    4    4    0    0  0.86660244646E-03 -0.77071595722E-02 -0.10226946999E-01  0.12845344464E-01  0.51100000000E-03 0. -1.
         11    1    4    4    0    0 -0.99596676549E-02 -0.17377666825E-01 -0.11414727296E+00  0.11589236096E+00  0.51100000000E-03 0.  1.
</event>
<event>
 8    1  0.1092993E+005  0.1043930E+01  0.7957747E-01            NaN
         13   -1    0    0    0    0  0.00000000000E+00  0.00000000000E+00  0.74505805969E-08  0.10566000000E+00  0.10566000000E+00 0.  1.
     999900   -1    0    0    0    0 -0.00000000000E+00 -0.00000000000E+00 -0.74505805969E-08  0.93827000000E+00  0.93827000000E+00 0.  1.
     999902    2    1    2    0    0  0.17685924289E-01 -0.15701453621E-01  0.35865701318E-02  0.10200094848E+01  0.10197289630E+01 0.  0.
     999903    2    3    3    0    0 -0.17322614900E-01  0.10110200075E+00 -0.74259343899E-01  0.12819749163E+00  0.19961441861E-01 0.  0.
         14    1    1    2    0    0 -0.17685924289E-01  0.15701453621E-01 -0.35865701318E-02  0.23920515234E-01  0.00000000000E+00 0.  1.
     999901    1    3    3    0    0  0.35008539189E-01 -0.11680345437E+00  0.77845914031E-01  0.89181199314E+00  0.88000000000E+00 0.  1.
        -11    1    4    4    0    0 -0.34296602178E-02  0.27204193042E-01 -0.96939340948E-02  0.29087182186E-01  0.51100000000E-03 0. -1.
         11    1    4    4    0    0 -0.13892954683E-01  0.73897807709E-01 -0.64565409804E-01  0.99110309445E-01  0.51100000000E-03 0.  1.
</event>
<event>
 8    1  0.1092993E+005  0.1043930E+01  0.7957747E-01            NaN
         13   -1    0    0    0    0  0.00000000000E+00  0.00000000000E+00  0.74505805969E-08  0.10566000000E+00  0.10566000000E+00 0. -1.
     999900   -1    0    0    0    0 -0.00000000000E+00 -0.00000000000E+00 -0.74505805969E-08  0.93827000000E+00  0.93827000000E+00 0. -1.
     999902    2    1    2    0    0  0.14495843377E-01  0.12955190404E-01  0.18897905622E-01  0.10168173227E+01  0.10164557887E+01 0.  0.
     999903    2    3    3    0    0  0.68539505110E-01 -0.49580615585E-03  0.10923345984E+00  0.13044146617E+00  0.19624417508E-01 0.  0.
         14    1    1    2    0    0 -0.14495843377E-01 -0.12955190404E-01 -0.18897905622E-01  0.27112677302E-01  0.00000000000E+00 0.  1.
     999901    1    3    3    0    0 -0.54043661733E-01  0.13450996559E-01 -0.90335554221E-01  0.88637585653E+00  0.88000000000E+00 0. -1.
        -11    1    4    4    0    0  0.59406556686E-01 -0.28052905988E-02  0.10358632442E+00  0.11944620697E+00  0.51100000000E-03 0. -1.
         11    1    4    4    0    0  0.91329484244E-02  0.23094844430E-02  0.56471354275E-02  0.10995259199E-01  0.51100000000E-03 0.  1.
</event>
<event>
 8    1  0.1092993E+005  0.1043930E+01  0.7957747E-01            NaN
         13   -1    0    0    0    0  0.00000000000E+00  0.00000000000E+00  0.74505805969E-08  0.10566000000E+00  0.10566000000E+00 0. -1.
     999900   -1    0    0    0    0 -0.00000000000E+00 -0.00000000000E+00 -0.74505805969E-08  0.93827000000E+00  0.93827000000E+00 0.  1.
     999902    2    1    2    0    0  0.34355005160E-02 -0.20597507463E-01  0.95052255539E-02  0.10209863889E+01  0.10207285619E+01 0.  0.
     999903    2    3    3    0    0 -0.35186356377E-02 -0.12620848853E-01 -0.12796707514E+00  0.13025038954E+00  0.20443214879E-01 0.  0.
         14    1    1    2    0    0 -0.34355005160E-02  0.20597507463E-01 -0.95052255539E-02  0.22943611100E-01  0.00000000000E+00 0.  1.
     999901    1    3    3    0    0  0.69541361537E-02 -0.79766586100E-02  0.13747230069E+00  0.89073599936E+00  0.88000000000E+00 0. -1.
        -11    1    4    4    0    0 -0.46533981840E-02 -0.15503669203E-01 -0.58159529922E-01  0.60372261140E-01  0.51100000000E-03 0.  1.
         11    1    4    4    0    0  0.11347625463E-02  0.28828203503E-02 -0.69807545215E-01  0.69878128403E-01  0.51100000000E-03 0. -1.
</event>
<event>
 8    1  0.1092993E+005  0.1043930E+01  0.7957747E-01            NaN
         13   -1    0    0    0    0  0.00000000000E+00  0.00000000000E+00  0.74505805969E-08  0.10566000000E+00  0.10566000000E+00 0.  1.
     999900   -1    0    0    0    0 -0.00000000000E+00 -0.00000000000E+00 -0.74505805969E-08  0.93827000000E+00  0.93827000000E+00 0.  1.
     999902    2    1    2    0    0  0.22254641244E-01  0.77440123043E-02 -0.27147398698E-02  0.10202106283E+01  0.10199348594E+01 0.  0.
     999903    2    3    3    0    0 -0.45125426246E-01 -0.24765993917E-01  0.11649499538E+00  0.12902718194E+00  0.20670538990E-01 0.  0.
         14    1    1    2    0    0 -0.22254641244E-01 -0.77440123043E-02  0.27147398698E-02  0.23719371746E-01  0.00000000000E+00 0.  1.
     999901    1    3    3    0    0  0.67380067489E-01  0.32510006222E-01 -0.11920973525E+00  0.89118344631E+00  0.88000000000E+00 0.  1.
        -11    1    4    4    0    0 -0.85377110048E-03 -0.41516951031E-02  0.24529108039E-01  0.24897866565E-01  0.51100000000E-03 0. -1.
         11    1    4    4    0    0 -0.44271655145E-01 -0.20614298814E-01  0.91965887345E-01  0.10412931538E+00  0.51100000000E-03 0.  1.
</event>
<event>
 8    1  0.1092993E+005  0.1043930E+01  0.7957747E-01            NaN
         13   -1    0    0    0    0  0.00000000000E+00  0.00000000000E+00  0.74505805969E-08  0.10566000000E+00  0.10566000000E+00 0.  1.
     999900   -1    0    0    0    0 -0.00000000000E+00 -0.00000000000E+00 -0.74505805969E-08  0.93827000000E+00  0.93827000000E+00 0.  1.
     999902    2    1    2    0    0  0.12766803556E-02 -0.23176998699E-01 -0.30477185943E-02  0.10205186401E+01  0.10202500689E+01 0.  0.
     999903    2    3    3    0    0 -0.20852513361E-01  0.79863017997E-01 -0.97399521991E-01  0.12922227582E+00  0.19969995694E-01 0.  0.
         14    1    1    2    0    0 -0.12766803556E-02  0.23176998699E-01  0.30477185943E-02  0.23411359851E-01  0.00000000000E+00 0.  1.
     999901    1    3    3    0    0  0.22129193717E-01 -0.10304001670E+00  0.94351803397E-01  0.89129636433E+00  0.88000000000E+00 0. -1.
        -11    1    4    4    0    0 -0.21302539846E-01  0.63458232263E-01 -0.67221900137E-01  0.94867225241E-01  0.51100000000E-03 0.  1.
         11    1    4    4    0    0  0.45002648499E-03  0.16404785734E-01 -0.30177621854E-01  0.34355050583E-01  0.51100000000E-03 0. -1.
</event>
<event>
 8    1  0.1092993E+005  0.1043930E+01  0.7957747E-01            NaN
         13   -1    0    0    0    0  0.00000000000E+00  0.00000000000E+00  0.74505805969E-08  0.10566000000E+00  0.10566000000E+00 0. -1.
     999900   -1    0    0    0    0 -0.00000000000E+00 -0.00000000000E+00 -0.74505805969E-08  0.93827000000E+00  0.93827000000E+00 0.  1.
     999902    2    1    2    0    0  0.92224747106E-02  0.64492920013E-03  0.22900044802E-01  0.10192342104E+01  0.10189349800E+01 0.  0.
     999903    2    3    3    0    0  0.12544870388E+00 -0.91856291827E-04  0.34156940622E-01  0.13152040688E+00  0.19837718880E-01 0.  0.
         14    1    1    2    0    0 -0.92224747106E-02 -0.64492920013E-03 -0.22900044802E-01  0.24695789629E-01  0.00000000000E+00 0.  1.
     999901    1    3    3    0    0 -0.11622622917E+00  0.73678549195E-03 -0.11256895820E-01  0.88771380349E+00  0.88000000000E+00 0. -1.
        -11    1    4    4    0    0  0.11635475313E-01 -0.21495573793E-02 -0.21513261492E-02  0.12037200999E-01  0.51100000000E-03 0.  1.
         11    1    4    4    0    0  0.11381322857E+00  0.20577010875E-02  0.36308266771E-01  0.11948320588E+00  0.51100000000E-03 0. -1.
</event>
<event>
 8    1  0.1092993E+005  0.1043930E+01  0.7957747E-01            NaN
         13   -1    0    0    0    0  0.00000000000E+00  0.00000000000E+00  0.74505805969E-08  0.10566000000E+00  0.10566000000E+00 0. -1.
     999900   -1    0    0    0    0 -0.00000000000E+00 -0.00000000000E+00 -0.74505805969E-08  0.93827000000E+00  0.93827000000E+00 0. -1.
     999902    2    1    2    0    0 -0.17510186733E-01 -0.17132123138E-01  0.10092902953E-02  0.10194119465E+01  0.10191170598E+01 0.  0.
     999903    2    3    3    0    0  0.13127636910E-01  0.11978429436E-01 -0.12661166272E+00  0.12920230364E+00  0.18625372711E-01 0.  0.
         14    1    1    2    0    0  0.17510186733E-01  0.17132123138E-01 -0.10092902953E-02  0.24518053543E-01  0.00000000000E+00 0. -1.
     999901    1    3    3    0    0 -0.30637823642E-01 -0.29110552574E-01  0.12762095301E+00  0.89020964281E+00  0.88000000000E+00 0.  1.
        -11    1    4    4    0    0  0.52974571267E-02 -0.97220477109E-03 -0.80213376553E-01  0.80395616381E-01  0.51100000000E-03 0. -1.
         11    1    4    4    0    0  0.78301797829E-02  0.12950634207E-01 -0.46398286163E-01  0.48806687264E-01  0.51100000000E-03 0.  1.
</event>
<event>
 8    1  0.1092993E+005  0.1043930E+01  0.7957747E-01            NaN
         13   -1    0    0    0    0  0.00000000000E+00  0.00000000000E+00  0.74505805969E-08  0.10566000000E+00  0.10566000000E+00 0.  1.
     999900   -1    0    0    0    0 -0.00000000000E+00 -0.00000000000E+00 -0.74505805969E-08  0.93827000000E+00  0.93827000000E+00 0. -1.
     999902    2    1    2    0    0  0.14765743843E-01  0.15668316562E-01 -0.89926049862E-02  0.10205978274E+01  0.10203310909E+01 0.  0.
     999903    2    3    3    0    0  0.87037689041E-01  0.39378934491E-01 -0.91211153380E-01  0.13349844333E+00  0.19393299762E-01 0.  0.
         14    1    1    2    0    0 -0.14765743843E-01 -0.15668316562E-01  0.89926049862E-02  0.23332172628E-01  0.00000000000E+00 0.  1.
     999901    1    3    3    0    0 -0.72271945198E-01 -0.23710617928E-01  0.82218548394E-01  0.88709938404E+00  0.88000000000E+00 0.  1.
        -11    1    4    4    0    0  0.28606206688E-01  0.22644809758E-01 -0.38500085694E-01  0.53043568786E-01  0.51100000000E-03 0.  1.
         11    1    4    4    0    0  0.58431482352E-01  0.16734124733E-01 -0.52711067686E-01  0.80454874545E-01  0.51100000000E-03 0. -1.
</event>
<event>
 8    1  0.1092993E+005  0.1043930E+01  0.7957747E-01            NaN
         13   -1    0    0    0    0  0.00000000000E+00  0.00000000000E+00  0.74505805969E-08  0.10566000000E+00  0.10566000000E+00 0.  1.
     999900   -1    0    0    0    0 -0.00000000000E+00 -0.00000000000E+00 -0.74505805969E-08  0.93827000000E+00  0.93827000000E+00 0.  1.
     999902    2    1    2    0    0 -0.21892839304E-01  0.15999340929E-02  0.10373259396E-01  0.10196511880E+01  0.10193620968E+01 0.  0.
     999903    2    3    3    0    0 -0.43579839703E-01  0.10469016460E+00 -0.61213896295E-01  0.13048155150E+00  0.20470984058E-01 0.  0.
         14    1    1    2    0    0  0.21892839304E-01 -0.15999340929E-02 -0.10373259396E-01  0.24278812005E-01  0.00000000000E+00 0. -1.
     999901    1    3    3    0    0  0.21687000399E-01 -0.10309023051E+00  0.71587155691E-01  0.88916963650E+00  0.88000000000E+00 0.  1.
        -11    1    4    4    0    0 -0.21366640399E-01  0.27566042693E-01 -0.20927099687E-01  0.40677077746E-01  0.51100000000E-03 0.  1.
         11    1    4    4    0    0 -0.22213199304E-01  0.77124121908E-01 -0.40286796609E-01  0.89804473749E-01  0.51100000000E-03 0. -1.
</event>
<event>
 8    1  0.1092993E+005  0.1043930E+01  0.7957747E-01            NaN
         13   -1    0    0    0    0  0.00000000000E+00  0.00000000000E+00  0.74505805969E-08  0.10566000000E+00  0.10566000000E+00 0. -1.
     999900   -1    0    0    0    0 -0.00000000000E+00 -0.00000000000E+00 -0.74505805969E-08  0.93827000000E+00  0.93827000000E+00 0. -1.
     999902    2    1    2    0    0 -0.19883574438E-02  0.39057708415E-02  0.23104370752E-01  0.10204136108E+01  0.10201425962E+01 0.  0.
     999903    2    3    3    0    0 -0.51154164130E-01  0.69888779589E-01 -0.93401678745E-01  0.12892906607E+00  0.19940924399E-01 0.  0.
         14    1    1    2    0    0  0.19883574438E-02 -0.39057708415E-02 -0.23104370752E-01  0.23516389159E-01  0.00000000000E+00 0.  1.
     999901    1    3    3    0    0  0.49165806686E-01 -0.65983008748E-01  0.11650604950E+00  0.89148454477E+00  0.88000000000E+00 0.  1.
        -11    1    4    4    0    0 -0.15127637209E-01  0.23587941263E-01 -0.44317082969E-01  0.52435687699E-01  0.51100000000E-03 0. -1.
         11    1    4    4    0    0 -0.36026526920E-01  0.46300838326E-01 -0.49084595776E-01  0.76493378375E-01  0.51100000000E-03 0.  1.
</event>
<event>
 8    1  0.1092993E+005  0.1043930E+01  0.7957747E-01            NaN
         13   -1    0    0    0    0  0.00000000000E+00  0.00000000000E+00  0.74505805969E-08  0.10566000000E+00  0.10566000000E+00 0. -1.
     999900   -1    0    0    0    0 -0.00000000000E+00 -0.00000000000E+00 -0.74505805969E-08  0.93827000000E+00  0.93827000000E+00 0. -1.
     999902    2    1    2    0    0 -0.99682158860E-02 -0.62308728065E-02 -0.21120292966E-01  0.10197586145E+01  0.10194721065E+01 0.  0.
     999903    2    3    3    0    0  0.12096696453E+00 -0.26311103015E-01 -0.34891274033E-01  0.12973789727E+00  0.17007067193E-01 0.  0.
         14    1    1    2    0    0  0.99682158860E-02  0.62308728065E-02  0.21120292966E-01  0.24171385539E-01  0.00000000000E+00 0. -1.
     999901    1    3    3    0    0 -0.13093518041E+00  0.20080230208E-01  0.13770981067E-01  0.89002071719E+00  0.88000000000E+00 0.  1.
        -11    1    4    4    0    0  0.56256621537E-01 -0.36608546516E-02 -0.16850637710E-01  0.58842284420E-01  0.51100000000E-03 0.  1.
         11    1    4    4    0    0  0.64710342992E-01 -0.22650248363E-01 -0.18040636323E-01  0.70895612847E-01  0.51100000000E-03 0. -1.
</event>
<event>
 8    1  0.1092993E+005  0.1043930E+01  0.7957747E-01            NaN
         13   -1    0    0    0    0  0.00000000000E+00  0.00000000000E+00  0.74505805969E-08  0.10566000000E+00  0.10566000000E+00 0. -1.
     999900   -1    0    0    0    0 -0.00000000000E+00 -0.00000000000E+00 -0.74505805969E-08  0.93827000000E+00  0.93827000000E+00 0. -1.
     999902    2    1    2    0    0 -0.15376345820E-01  0.47476114755E-02  0.18835508270E-01  0.10191560581E+01  0.10188549075E+01 0.  0.
     999903    2    3    3    0    0 -0.12766567769E-01 -0.24804818223E-01 -0.12237519082E+00  0.12740462492E+00  0.21862910691E-01 0.  0.
         14    1    1    2    0    0  0.15376345820E-01 -0.47476114755E-02 -0.18835508270E-01  0.24773941900E-01  0.00000000000E+00 0.  1.
     999901    1    3    3    0    0 -0.26097780504E-02  0.29552429699E-01  0.14121069909E+00  0.89175143318E+00  0.88000000000E+00 0.  1.
        -11    1    4    4    0    0 -0.12712979949E-01 -0.56659699143E-02 -0.30128352309E-01  0.33191893711E-01  0.51100000000E-03 0. -1.
         11    1    4    4    0    0 -0.53587820377E-04 -0.19138848309E-01 -0.92246838507E-01  0.94212731208E-01  0.51100000000E-03 0.  1.
</event>
<event>
 7    1  0.1419787E+005  0.1043930E+01  0.7957747E-01            NaN
         13   -1    0    0    0    0  0.00000000000E+00  0.00000000000E+00  0.74505805969E-08  0.10566000000E+00  0.10566000000E+00 0. -1.
     999900   -1    0    0    0    0 -0.00000000000E+00 -0.00000000000E+00 -0.74505805969E-08  0.93827000000E+00  0.93827000000E+00 0. -1.
     999902    2    1    2    0    0 -0.13694502157E-01  0.35226980896E-02  0.21840380759E-01  0.10179117175E+01  0.10175791437E+01 0.  0.
         14    1    1    2    0    0  0.13694502157E-01 -0.35226980896E-02 -0.21840380759E-01  0.26018282473E-01  0.00000000000E+00 0.  1.
     999901    1    3    3    0    0 -0.53781962362E-01 -0.86588244524E-01  0.91759096158E-01  0.89062323981E+00  0.88000000000E+00 0.  1.
        -11    1    3    3    0    0  0.31639299878E-01  0.23999986770E-01 -0.26224429285E-01  0.47592294272E-01  0.51100000000E-03 0.  1.
         11    1    3    3    0    0  0.84481603280E-02  0.66110955843E-01 -0.43694286114E-01  0.79696183443E-01  0.51100000000E-03 0. -1.
</event>
<event>
 8    1  0.1092993E+005  0.1043930E+01  0.7957747E-01            NaN
         13   -1    0    0    0    0  0.00000000000E+00  0.00000000000E+00  0.74505805969E-08  0.10566000000E+00  0.10566000000E+00 0.  1.
     999900   -1    0    0    0    0 -0.00000000000E+00 -0.00000000000E+00 -0.74505805969E-08  0.93827000000E+00  0.93827000000E+00 0.  1.
     999902    2    1    2    0    0 -0.16857043947E-01 -0.59986244250E-02  0.16148953289E-01  0.10198274666E+01  0.10195426080E+01 0.  0.
     999903    2    3    3    0    0  0.90382719424E-01  0.42008446598E-01 -0.76286955826E-01  0.12721924175E+00  0.20767529609E-01 0.  0.
         14    1    1    2    0    0  0.16857043947E-01  0.59986244250E-02 -0.16148953289E-01  0.24102533434E-01  0.00000000000E+00 0. -1.
     999901    1    3    3    0    0 -0.10723976337E+00 -0.48007071023E-01  0.92435909115E-01  0.89260822482E+00  0.88000000000E+00 0. -1.
        -11    1    4    4    0    0  0.19044494563E-01  0.54429886969E-02 -0.62690896306E-02  0.20781758947E-01  0.51100000000E-03 0. -1.
         11    1    4    4    0    0  0.71338224860E-01  0.36565457901E-01 -0.70017866196E-01  0.10643748280E+00  0.51100000000E-03 0.  1.
</event>
<event>
 8    1  0.1092993E+005  0.1043930E+01  0.7957747E-01            NaN
         13   -1    0    0    0    0  0.00000000000E+00  0.00000000000E+00  0.74505805969E-08  0.10566000000E+00  0.10566000000E+00 0. -1.
     999900   -1    0    0    0    0 -0.00000000000E+00 -0.00000000000E+00 -0.74505805969E-08  0.93827000000E+00  0.93827000000E+00 0. -1.
     999902    2    1    2    0    0  0.15511288855E-01 -0.69037181954E-02 -0.16957985886E-01  0.10199334442E+01  0.10196511148E+01 0.  0.
     999903    2    3    3    0    0 -0.12255969489E+00 -0.33264375982E-01 -0.39896703479E-02  0.12868339056E+00  0.20398529738E-01 0.  0.
         14    1    1    2    0    0 -0.15511288855E-01  0.69037181954E-02  0.16957985886E-01  0.23996555840E-01  0.00000000000E+00 0. -1.
     999901    1    3    3    0    0  0.13807098375E+00  0.26360657786E-01 -0.12968315538E-01  0.89125005360E+00  0.88000000000E+00 0.  1.
        -11    1    4    4    0    0 -0.63963202753E-01 -0.16443697653E-01 -0.12217469022E-01  0.67165572798E-01  0.51100000000E-03 0. -1.
         11    1    4    4    0    0 -0.58596492138E-01 -0.16820678329E-01  0.82277986740E-02  0.61517817763E-01  0.51100000000E-03 0.  1.
</event>
<event>
 8    1  0.1092993E+005  0.1043930E+01  0.7957747E-01            NaN
         13   -1    0    0    0    0  0.00000000000E+00  0.00000000000E+00  0.74505805969E-08  0.10566000000E+00  0.10566000000E+00 0. -1.
     999900   -1    0    0    0    0 -0.00000000000E+00 -0.00000000000E+00 -0.74505805969E-08  0.93827000000E+00  0.93827000000E+00 0. -1.
     999902    2    1    2    0    0  0.12981584119E-01 -0.15558094401E-01  0.13482453461E-01  0.10195917096E+01  0.10193011831E+01 0.  0.
     999903    2    3    3    0    0 -0.10574805397E+00  0.34834257290E-01 -0.58443551910E-01  0.12728600734E+00  0.19748481064E-01 0.  0.
         14    1    1    2    0    0 -0.12981584119E-01  0.15558094401E-01 -0.13482453461E-01  0.24338290387E-01  0.00000000000E+00 0. -1.
     999901    1    3    3    0    0  0.11872963809E+00 -0.50392351691E-01  0.71926005370E-01  0.89230570228E+00  0.88000000000E+00 0.  1.
        -11    1    4    4    0    0 -0.20968796127E-01 -0.97601144636E-03 -0.94845341093E-02  0.23040410535E-01  0.51100000000E-03 0.  1.
         11    1    4    4    0    0 -0.84779257842E-01  0.35810268736E-01 -0.48959017800E-01  0.10424559680E+00  0.51100000000E-03 0. -1.
</event>
<event>
 8    1  0.1092993E+005  0.1043930E+01  0.7957747E-01            NaN
         13   -1    0    0    0    0  0.00000000000E+00  0.00000000000E+00  0.74505805969E-08  0.10566000000E+00  0.10566000000E+00 0.  1.
     999900   -1    0    0    0    0 -0.00000000000E+00 -0.00000000000E+00 -0.74505805969E-08  0.93827000000E+00  0.93827000000E+00 0.  1.
     999902    2    1    2    0    0 -0.14743189550E-02 -0.42476854465E-02  0.22214062274E-01  0.10212654680E+01  0.10210139446E+01 0.  0.
     999903    2    3    3    0    0  0.34113350197E-01 -0.12589035827E+00 -0.38509606162E-02  0.13180337917E+00  0.18579502081E-01 0.  0.
         14    1    1    2    0    0  0.14743189550E-02  0.42476854465E-02 -0.22214062274E-01  0.22664531999E-01  0.00000000000E+00 0. -1.
     999901    1    3    3    0    0 -0.35587669152E-01  0.12164267282E+00  0.26065022890E-01  0.88946208883E+00  0.88000000000E+00 0.  1.
        -11    1    4    4    0    0  0.10134036209E-01 -0.68171207298E-01  0.25711422242E-02  0.68970168100E-01  0.51100000000E-03 0.  1.
         11    1    4    4    0    0  0.23979313989E-01 -0.57719150967E-01 -0.64221028403E-02  0.62833211072E-01  0.51100000000E-03 0. -1.
</event>
<event>
 8    1  0.1092993E+005  0.1043930E+01  0.7957747E-01            NaN
         13   -1    0    0    0    0  0.00000000000E+00  0.00000000000E+00  0.74505805969E-08  0.10566000000E+00  0.10566000000E+00 0. -1.
     999900   -1    0    0    0    0 -0.00000000000E+00 -0.00000000000E+00 -0.74505805969E-08  0.93827000000E+00  0.93827000000E+00 0. -1.
     999902    2    1    2    0    0  0.21910717429E-01  0.98617064538E-02  0.83064821868E-03  0.10198878959E+01  0.10196044809E+01 0.  0.
     999903    2    3    3    0    0  0.73657354330E-02  0.64913765613E-01 -0.11154241967E+00  0.13091658473E+00  0.20721721618E-01 0.  0.
         14    1    1    2    0    0 -0.21910717429E-01 -0.98617064538E-02 -0.83064821868E-03  0.24042104086E-01  0.00000000000E+00 0.  1.
     999901    1    3    3    0    0  0.14544981996E-01 -0.55052059159E-01  0.11237306789E+00  0.88897131118E+00  0.88000000000E+00 0.  1.
        -11    1    4    4    0    0  0.12362244619E-03  0.20333459418E-01 -0.54402268366E-01  0.58080399265E-01  0.51100000000E-03 0.  1.
         11    1    4    4    0    0  0.72421129868E-02  0.44580306195E-01 -0.57140151306E-01  0.72836185466E-01  0.51100000000E-03 0. -1.
</event>
<event>
 8    1  0.1092993E+005  0.1043930E+01  0.7957747E-01            NaN
         13   -1    0    0    0    0  0.00000000000E+00  0.00000000000E+00  0.74505805969E-08  0.10566000000E+00  0.10566000000E+00 0. -1.
     999900   -1    0    0    0    0 -0.00000000000E+00 -0.00000000000E+00 -0.74505805969E-08  0.93827000000E+00  0.93827000000E+00 0.  1.
     999902    2    1    2    0    0  0.54023688112E-02  0.23577338910E-01  0.58434893048E-03  0.10197345880E+01  0.10194475033E+01 0.  0.
     999903    2    3    3    0    0 -0.12421688797E+00  0.28070382681E-01 -0.16304453188E-01  0.13006803764E+00  0.20834528540E-01 0.  0.
         14    1    1    2    0    0 -0.54023688112E-02 -0.23577338910E-01 -0.58434893048E-03  0.24195412013E-01  0.00000000000E+00 0. -1.
     999901    1    3    3    0    0  0.12961925679E+00 -0.44930437717E-02  0.16888802118E-01  0.88966655035E+00  0.88000000000E+00 0. -1.
        -11    1    4    4    0    0 -0.34724036072E-01  0.16374813802E-01 -0.24725316173E-03  0.38395513583E-01  0.51100000000E-03 0.  1.
         11    1    4    4    0    0 -0.89492851902E-01  0.11695568879E-01 -0.16057200026E-01  0.91672524055E-01  0.51100000000E-03 0. -1.
</event>
<event>
 8    1  0.1092993E+005  0.1043930E+01  0.7957747E-01            NaN
         13   -1    0    0    0    0  0.00000000000E+00  0.00000000000E+00  0.74505805969E-08  0.10566000000E+00  0.10566000000E+00 0. -1.
     999900   -1    0    0    0    0 -0.00000000000E+00 -0.00000000000E+00 -0.74505805969E-08  0.93827000000E+00  0.93827000000E+00 0. -1.
     999902    2    1    2    0    0  0.10588413976E-01  0.10676852151E-01  0.14770164243E-01  0.10228523475E+01  0.10226351536E+01 0.  0.
     999903    2    3    3    0    0 -0.11249320117E-01  0.53673048555E-01 -0.11801352320E+00  0.13158523425E+00  0.19497150361E-01 0.  0.
         14    1    1    2    0    0 -0.10588413976E-01 -0.10676852151E-01 -0.14770164243E-01  0.21077652482E-01  0.00000000000E+00 0.  1.
     999901    1    3    3    0    0  0.21837734093E-01 -0.42996196405E-01  0.13278368744E+00  0.89126711326E+00  0.88000000000E+00 0.  1.
        -11    1    4    4    0    0 -0.57295022583E-02  0.17076217311E-01 -0.61037707180E-01  0.63641866821E-01  0.51100000000E-03 0.  1.
         11    1    4    4    0    0 -0.55198178589E-02  0.36596831244E-01 -0.56975816017E-01  0.67943367433E-01  0.51100000000E-03 0. -1.
</event>
<event>
 8    1  0.1092993E+005  0.1043930E+01  0.7957747E-01            NaN
         13   -1    0    0    0    0  0.00000000000E+00  0.00000000000E+00  0.74505805969E-08  0.10566000000E+00  0.10566000000E+00 0. -1.
     999900   -1    0    0    0    0 -0.00000000000E+00 -0.00000000000E+00 -0.74505805969E-08  0.93827000000E+00  0.93827000000E+00 0. -1.
     999902    2    1    2    0    0 -0.19753111944E-01  0.47026505834E-02  0.12999980787E-01  0.10198198392E+01  0.10195347981E+01 0.  0.
     999903    2    3    3    0    0  0.96438906095E-01  0.81818687625E-01  0.14242810821E-01  0.12883778951E+00  0.20038914429E-01 0.  0.
         14    1    1    2    0    0  0.19753111944E-01 -0.47026505834E-02 -0.12999980787E-01  0.24110160813E-01  0.00000000000E+00 0. -1.
     999901    1    3    3    0    0 -0.11619201804E+00 -0.77116037042E-01 -0.12428300336E-02  0.89098204968E+00  0.88000000000E+00 0. -1.
        -11    1    4    4    0    0  0.87658461319E-01  0.80355807297E-01  0.15137514689E-01  0.11987688301E+00  0.51100000000E-03 0. -1.
         11    1    4    4    0    0  0.87804447762E-02  0.14628803283E-02 -0.89470386832E-03  0.89609065019E-02  0.51100000000E-03 0.  1.
</event>
<event>
 8    1  0.1092993E+005  0.1043930E+01  0.7957747E-01            NaN
         13   -1    0    0    0    0  0.00000000000E+00  0.00000000000E+00  0.74505805969E-08  0.10566000000E+00  0.10566000000E+00 0.  1.
     999900   -1    0    0    0    0 -0.00000000000E+00 -0.00000000000E+00 -0.74505805969E-08  0.93827000000E+00  0.93827000000E+00 0. -1.
     999902    2    1    2    0    0 -0.22283910768E-01  0.60753801573E-02  0.69551210149E-02  0.10198082954E+01  0.10195229781E+01 0.  0.
     999903    2    3    3    0    0  0.10758043633E+00 -0.30330555071E-01  0.58185396755E-01  0.12806019091E+00  0.22811822541E-01 0.  0.
         14    1    1    2    0    0  0.22283910768E-01 -0.60753801573E-02 -0.69551210149E-02  0.24121704573E-01  0.00000000000E+00 0. -1.
     999901    1    3    3    0    0 -0.12986434710E+00  0.36405935228E-01 -0.51230275740E-01  0.89174810452E+00  0.88000000000E+00 0.  1.
        -11    1    4    4    0    0  0.58163576148E-01 -0.23287894367E-01  0.42599522857E-01  0.75764820881E-01  0.51100000000E-03 0.  1.
         11    1    4    4    0    0  0.49416860180E-01 -0.70426607038E-02  0.15585873897E-01  0.52295370024E-01  0.51100000000E-03 0. -1.
</event>
<event>
 8    1  0.1092993E+005  0.1043930E+01  0.7957747E-01            NaN
         13   -1    0    0    0    0  0.00000000000E+00  0.00000000000E+00  0.74505805969E-08  0.10566000000E+00  0.10566000000E+00 0.  1.
     999900   -1    0    0    0    0 -0.00000000000E+00 -0.00000000000E+00 -0.74505805969E-08  0.93827000000E+00  0.93827000000E+00 0.  1.
     999902    2    1    2    0    0 -0.27665994539E-03  0.15095505832E-01  0.17395857278E-01  0.10208959668E+01  0.10206360802E+01 0.  0.
     999903    2    3    3    0    0 -0.12931288546E+00 -0.96049290873E-02  0.58868320217E-02  0.13106850222E+00  0.18171969445E-01 0.  0.
         14    1    1    2    0    0  0.27665994539E-03 -0.15095505832E-01 -0.17395857278E-01  0.23034033244E-01  0.00000000000E+00 0. -1.
     999901    1    3    3    0    0  0.12903622552E+00  0.24700434919E-01  0.11509025257E-01  0.88982746454E+00  0.88000000000E+00 0. -1.
        -11    1    4    4    0    0 -0.75429436153E-01 -0.77270372687E-02 -0.52659861680E-02  0.76008543431E-01  0.51100000000E-03 0. -1.
         11    1    4    4    0    0 -0.53883449310E-01 -0.18778918186E-02  0.11152818190E-01  0.55059958788E-01  0.51100000000E-03 0.  1.
</event>
<event>
 8    1  0.1092993E+005  0.1043930E+01  0.7957747E-01            NaN
         13   -1    0    0    0    0  0.00000000000E+00  0.00000000000E+00  0.74505805969E-08  0.10566000000E+00  0.10566000000E+00 0. -1.
     999900   -1    0    0    0    0 -0.00000000000E+00 -0.00000000000E+00 -0.74505805969E-08  0.93827000000E+00  0.93827000000E+00 0. -1.
     999902    2    1    2    0    0  0.13700052069E-01 -0.14988185795E-01 -0.12081968001E-01  0.10203013925E+01  0.10200277548E+01 0.  0.
     999903    2    3    3    0    0  0.89494022848E-01 -0.43760125016E-01 -0.86479390929E-01  0.13344879653E+00  0.20143673282E-01 0.  0.
         14    1    1    2    0    0 -0.13700052069E-01  0.14988185795E-01  0.12081968001E-01  0.23628607469E-01  0.00000000000E+00 0.  1.
     999901    1    3    3    0    0 -0.75793970780E-01  0.28771939221E-01  0.74397422928E-01  0.88685259600E+00  0.88000000000E+00 0.  1.
        -11    1    4    4    0    0  0.31573965038E-01 -0.82858079668E-02 -0.19346874439E-01  0.37949078427E-01  0.51100000000E-03 0. -1.
         11    1    4    4    0    0  0.57920057811E-01 -0.35474317049E-01 -0.67132516490E-01  0.95499718105E-01  0.51100000000E-03 0.  1.
</event>
<event>
 8    1  0.1092993E+005  0.1043930E+01  0.7957747E-01            NaN
         13   -1    0    0    0    0  0.00000000000E+00  0.00000000000E+00  0.74505805969E-08  0.10566000000E+00  0.10566000000E+00 0. -1.
     999900   -1    0    0    0    0 -0.00000000000E+00 -0.00000000000E+00 -0.74505805969E-08  0.93827000000E+00  0.93827000000E+00 0.  1.
     999902    2    1    2    0    0  0.20446906430E-03 -0.19204858000E-01  0.13539527068E-01  0.10204313368E+01  0.10201607354E+01 0.  0.
     999903    2    3    3    0    0  0.21205858276E-01  0.91430640618E-01  0.87971371183E-01  0.13013847976E+00  0.19692925049E-01 0.  0.
         14    1    1    2    0    0 -0.20446906430E-03  0.19204858000E-01 -0.13539527068E-01  0.23498663187E-01  0.00000000000E+00 0.  1.
     999901    1    3    3    0    0 -0.21001389212E-01 -0.11063549862E+00 -0.74431844115E-01  0.89029285705E+00  0.88000000000E+00 0. -1.
        -11    1    4    4    0    0  0.24101695213E-01  0.72620489419E-01  0.65836513988E-01  0.10094223542E+00  0.51100000000E-03 0.  1.
         11    1    4    4    0    0 -0.28958369367E-02  0.18810151199E-01  0.22134857195E-01  0.29196244343E-01  0.51100000000E-03 0. -1.
</event>
<event>
 8    1  0.1092993E+005  0.1043930E+01  0.7957747E-01            NaN
         13   -1    0    0    0    0  0.00000000000E+00  0.00000000000E+00  0.74505805969E-08  0.10566000000E+00  0.10566000000E+00 0.  1.
     999900   -1    0    0    0    0 -0.00000000000E+00 -0.00000000000E+00 -0.74505805969E-08  0.93827000000E+00  0.93827000000E+00 0.  1.
     999902    2    1    2    0    0 -0.80386400470E-02 -0.15798095046E-01 -0.14765435926E-01  0.10208601574E+01  0.10205994529E+01 0.  0.
     999903    2    3    3    0    0  0.41739222908E-01 -0.39896421679E-01 -0.11771395940E+00  0.13313443201E+00  0.23115223459E-01 0.  0.
         14    1    1    2    0    0  0.80386400470E-02  0.15798095046E-01  0.14765435926E-01  0.23069842630E-01  0.00000000000E+00 0.  1.
     999901    1    3    3    0    0 -0.49777862955E-01  0.24098326633E-01  0.10294852348E+00  0.88772572536E+00  0.88000000000E+00 0. -1.
        -11    1    4    4    0    0  0.10890268395E-01 -0.12990117529E-01 -0.60171673376E-01  0.62515857964E-01  0.51100000000E-03 0. -1.
         11    1    4    4    0    0  0.30848954513E-01 -0.26906304150E-01 -0.57542286027E-01  0.70618574042E-01  0.51100000000E-03 0.  1.
</event>
<event>
 8    1  0.1092993E+005  0.1043930E+01  0.7957747E-01            NaN
         13   -1    0    0    0    0  0.00000000000E+00  0.00000000000E+00  0.74505805969E-08  0.10566000000E+00  0.10566000000E+00 0.  1.
     999900   -1    0    0    0    0 -0.00000000000E+00 -0.00000000000E+00 -0.74505805969E-08  0.93827000000E+00  0.93827000000E+00 0. -1.
     999902    2    1    2    0    0 -0.17650137380E-02  0.20557032994E-02 -0.26202726685E-01  0.10175875613E+01  0.10172465389E+01 0.  0.
     999903    2    3    3    0    0 -0.85147456729E-01  0.90340063404E-01  0.23073435928E-01  0.12788261010E+00  0.20252458534E-01 0.  0.
         14    1    1    2    0    0  0.17650137380E-02 -0.20557032994E-02  0.26202726685E-01  0.26342438673E-01  0.00000000000E+00 0.  1.
     999901    1    3    3    0    0  0.83382442991E-01 -0.88284360105E-01 -0.49276162613E-01  0.88970495123E+00  0.88000000000E+00 0. -1.
        -11    1    4    4    0    0 -0.22050121153E-01  0.37373028840E-01  0.74548275457E-02  0.44031655684E-01  0.51100000000E-03 0.  1.
         11    1    4    4    0    0 -0.63097335577E-01  0.52967034564E-01  0.15618608383E-01  0.83850954414E-01  0.51100000000E-03 0. -1.
</event>
<event>
 8    1  0.1092993E+005  0.1043930E+01  0.7957747E-01            NaN
         13   -1    0    0    0    0  0.00000000000E+00  0.00000000000E+00  0.74505805969E-08  0.10566000000E+00  0.10566000000E+00 0.  1.
     999900   -1    0    0    0    0 -0.00000000000E+00 -0.00000000000E+00 -0.74505805969E-08  0.93827000000E+00  0.93827000000E+00 0. -1.
     999902    2    1    2    0    0 -0.21000985298E-01 -0.11336515335E-01  0.30257227690E-02  0.10198735464E+01  0.10195897889E+01 0.  0.
     999903    2    3    3    0    0 -0.16280907466E-01 -0.89833132850E-01  0.93061548282E-01  0.13179109075E+00  0.19323046487E-01 0.  0.
         14    1    1    2    0    0  0.21000985298E-01  0.11336515335E-01 -0.30257227690E-02  0.24056453639E-01  0.00000000000E+00 0.  1.
     999901    1    3    3    0    0 -0.47200778322E-02  0.78496617515E-01 -0.90035825513E-01  0.88808245562E+00  0.88000000000E+00 0. -1.
        -11    1    4    4    0    0 -0.15045940332E-01 -0.66899849214E-01  0.57679008521E-01  0.89605241422E-01  0.51100000000E-03 0.  1.
         11    1    4    4    0    0 -0.12349671331E-02 -0.22933283637E-01  0.35382539762E-01  0.42185849324E-01  0.51100000000E-03 0. -1.
</event>
<event>
 8    1  0.1092993E+005  0.1043930E+01  0.7957747E-01            NaN
         13   -1    0    0    0    0  0.00000000000E+00  0.00000000000E+00  0.74505805969E-08  0.10566000000E+00  0.10566000000E+00 0. -1.
     999900   -1    0    0    0    0 -0.00000000000E+00 -0.00000000000E+00 -0.74505805969E-08  0.93827000000E+00  0.93827000000E+00 0. -1.
     999902    2    1    2    0    0 -0.13655480254E-01  0.17525513210E-01 -0.70653131035E-02  0.10206161757E+01  0.10203498634E+01 0.  0.
     999903    2    3    3    0    0 -0.20220565950E-01  0.60326757229E-01  0.11198508954E+00  0.13154472457E+00  0.26742575749E-01 0.  0.
         14    1    1    2    0    0  0.13655480254E-01 -0.17525513210E-01  0.70653131035E-02  0.23313824300E-01  0.00000000000E+00 0. -1.
     999901    1    3    3    0    0  0.65650856960E-02 -0.42801244019E-01 -0.11905040265E+00  0.88907145113E+00  0.88000000000E+00 0. -1.
        -11    1    4    4    0    0  0.44056644670E-02  0.21681199611E-01  0.26281958158E-01  0.34358212142E-01  0.51100000000E-03 0.  1.
         11    1    4    4    0    0 -0.24626230417E-01  0.38645557618E-01  0.85703131385E-01  0.97186512430E-01  0.51100000000E-03 0. -1.
</event>
<event>
 8    1  0.1092993E+005  0.1043930E+01  0.7957747E-01            NaN
         13   -1    0    0    0    0  0.00000000000E+00  0.00000000000E+00  0.74505805969E-08  0.10566000000E+00  0.10566000000E+00 0.  1.
     999900   -1    0    0    0    0 -0.00000000000E+00 -0.00000000000E+00 -0.74505805969E-08  0.93827000000E+00  0.93827000000E+00 0. -1.
     999902    2    1    2    0    0 -0.72169383326E-02 -0.23248417208E-01 -0.27798555724E-02  0.10194289654E+01  0.10191344929E+01 0.  0.
     999903    2    3    3    0    0 -0.83666893357E-01 -0.69671056470E-01  0.70885195796E-01  0.13183322582E+00  0.22384889818E-01 0.  0.
         14    1    1    2    0    0  0.72169383326E-02  0.23248417208E-01  0.27798555724E-02  0.24501034643E-01  0.00000000000E+00 0.  1.
     999901    1    3    3    0    0  0.76449955025E-01  0.46422639261E-01 -0.73665051369E-01  0.88759573954E+00  0.88000000000E+00 0. -1.
        -11    1    4    4    0    0 -0.13010536109E-01 -0.21565717790E-01  0.21462592773E-01  0.33094686026E-01  0.51100000000E-03 0.  1.
         11    1    4    4    0    0 -0.70656357248E-01 -0.48105338680E-01  0.49422603023E-01  0.98738539789E-01  0.51100000000E-03 0. -1.
</event>
<event>
 8    1  0.1092993E+005  0.1043930E+01  0.7957747E-01            NaN
         13   -1    0    0    0    0  0.00000000000E+00  0.00000000000E+00  0.74505805969E-08  0.10566000000E+00  0.10566000000E+00 0. -1.
     999900   -1    0    0    0    0 -0.00000000000E+00 -0.00000000000E+00 -0.74505805969E-08  0.93827000000E+00  0.93827000000E+00 0.  1.
     999902    2    1    2    0    0  0.36614381284E-02  0.15163481468E-01  0.20646226434E-01  0.10180532930E+01  0.10177243750E+01 0.  0.
     999903    2    3    3    0    0 -0.47970470067E-01 -0.10213720278E+00 -0.52638957350E-01  0.12575512387E+00  0.17615821197E-01 0.  0.
         14    1    1    2    0    0 -0.36614381284E-02 -0.15163481468E-01 -0.20646226434E-01  0.25876707004E-01  0.00000000000E+00 0.  1.
     999901    1    3    3    0    0  0.51631908195E-01  0.11730068425E+00  0.73285183785E-01  0.89229816913E+00  0.88000000000E+00 0. -1.
        -11    1    4    4    0    0 -0.28062249939E-01 -0.50437872549E-01 -0.18205480112E-01  0.60524123175E-01  0.51100000000E-03 0.  1.
         11    1    4    4    0    0 -0.19908220127E-01 -0.51699330235E-01 -0.34433477238E-01  0.65231000691E-01  0.51100000000E-03 0. -1.
</event>
<event>
 8    1  0.1092993E+005  0.1043930E+01  0.7957747E-01            NaN
         13   -1    0    0    0    0  0.00000000000E+00  0.00000000000E+00  0.74505805969E-08  0.10566000000E+00  0.10566000000E+00 0.  1.
     999900   -1    0    0    0    0 -0.00000000000E+00 -0.00000000000E+00 -0.74505805969E-08  0.93827000000E+00  0.93827000000E+00 0.  1.
     999902    2    1    2    0    0 -0.15394351137E-01 -0.15688372510E-01 -0.88040806679E-02  0.10202525230E+01  0.10199777389E+01 0.  0.
     999903    2    3    3    0    0  0.90191183162E-01  0.58640281601E-01 -0.68105089928E-01  0.12885493297E+00  0.19802987917E-01 0.  0.
         14    1    1    2    0    0  0.15394351137E-01  0.15688372510E-01  0.88040806679E-02  0.23677476963E-01  0.00000000000E+00 0. -1.
     999901    1    3    3    0    0 -0.10558553430E+00 -0.74328654111E-01  0.59301009261E-01  0.89139759007E+00  0.88000000000E+00 0.  1.
        -11    1    4    4    0    0  0.25894985495E-01  0.16883495558E-01 -0.30622009790E-01  0.43515184714E-01  0.51100000000E-03 0.  1.
         11    1    4    4    0    0  0.64296197667E-01  0.41756786043E-01 -0.37483080138E-01  0.85339748258E-01  0.51100000000E-03 0. -1.
</event>
<event>
 8    1  0.1092993E+005  0.1043930E+01  0.7957747E-01            NaN
         13   -1    0    0    0    0  0.00000000000E+00  0.00000000000E+00  0.74505805969E-08  0.10566000000E+00  0.10566000000E+00 0. -1.
     999900   -1    0    0    0    0 -0.00000000000E+00 -0.00000000000E+00 -0.74505805969E-08  0.93827000000E+00  0.93827000000E+00 0.  1.
     999902    2    1    2    0    0 -0.93389910940E-02  0.78899623201E-02 -0.22134081359E-01  0.10186439205E+01  0.10183300304E+01 0.  0.
     999903    2    3    3    0    0 -0.13510132799E-01  0.12805646701E+00 -0.28195086903E-02  0.13025749555E+00  0.19444358744E-01 0.  0.
         14    1    1    2    0    0  0.93389910940E-02 -0.78899623201E-02  0.22134081359E-01  0.25286079524E-01  0.00000000000E+00 0. -1.
     999901    1    3    3    0    0  0.41711417051E-02 -0.12016650469E+00 -0.19314572669E-01  0.88838642492E+00  0.88000000000E+00 0. -1.
        -11    1    4    4    0    0 -0.92787171946E-02  0.11137564625E+00  0.37612959883E-02  0.11182592562E+00  0.51100000000E-03 0. -1.
         11    1    4    4    0    0 -0.42314156045E-02  0.16680820755E-01 -0.65808046786E-02  0.18431569936E-01  0.51100000000E-03 0.  1.
</event>
<event>
 8    1  0.1092993E+005  0.1043930E+01  0.7957747E-01            NaN
         13   -1    0    0    0    0  0.00000000000E+00  0.00000000000E+00  0.74505805969E-08  0.10566000000E+00  0.10566000000E+00 0. -1.
     999900   -1    0    0    0    0 -0.00000000000E+00 -0.00000000000E+00 -0.74505805969E-08  0.93827000000E+00  0.93827000000E+00 0.  1.
     999902    2    1    2    0    0 -0.19884872121E-01  0.21470695200E-02  0.11238416391E-01  0.10209883338E+01  0.10207305509E+01 0.  0.
     999903    2    3    3    0    0 -0.21356088241E-01  0.12576477350E+00  0.28451872637E-01  0.13218025308E+00  0.19729406693E-01 0.  0.
         14    1    1    2    0    0  0.19884872121E-01 -0.21470695200E-02 -0.11238416391E-01  0.22941666238E-01  0.00000000000E+00 0.  1.
     999901    1    3    3    0    0  0.14712161204E-02 -0.12361770398E+00 -0.17213456246E-01  0.88880808068E+00  0.88000000000E+00 0. -1.
        -11    1    4    4    0    0 -0.11377747504E-01  0.27819524817E-01  0.14707976219E-02  0.30096569006E-01  0.51100000000E-03 0. -1.
         11    1    4    4    0    0 -0.99783407372E-02  0.97945248683E-01  0.26981075016E-01  0.10208368407E+00  0.51100000000E-03 0.  1.
</event>
<event>
 8    1  0.1092993E+005  0.1043930E+01  0.7957747E-01            NaN
         13   -1    0    0    0    0  0.00000000000E+00  0.00000000000E+00  0.74505805969E-08  0.10566000000E+00  0.10566000000E+00 0. -1.
     999900   -1    0    0    0    0 -0.00000000000E+00 -0.00000000000E+00 -0.74505805969E-08  0.93827000000E+00  0.93827000000E+00 0.  1.
     999902    2    1    2    0    0 -0.32690224369E-02  0.10003052984E-02  0.23226179018E-01  0.10204535754E+01  0.10201834919E+01 0.  0.
     999903    2    3    3    0    0  0.17678139062E-01 -0.33971556537E-01  0.12636968383E+00  0.13349224749E+00  0.19603568435E-01 0.  0.
         14    1    1    2    0    0  0.32690224369E-02 -0.10003052984E-02 -0.23226179018E-01  0.23476424561E-01  0.00000000000E+00 0.  1.
     999901    1    3    3    0    0 -0.20947161499E-01  0.34971861835E-01 -0.10314350481E+00  0.88696132795E+00  0.88000000000E+00 0.  1.
        -11    1    4    4    0    0  0.11159671323E-01 -0.34396297046E-01  0.10061590157E+00  0.10691802600E+00  0.51100000000E-03 0.  1.
         11    1    4    4    0    0  0.65184677390E-02  0.42474050956E-03  0.25753782256E-01  0.26574221487E-01  0.51100000000E-03 0. -1.
</event>
<event>
 8    1  0.1092993E+005  0.1043930E+01  0.7957747E-01            NaN
         13   -1    0    0    0    0  0.00000000000E+00  0.00000000000E+00  0.74505805969E-08  0.10566000000E+00  0.10566000000E+00 0.  1.
     999900   -1    0    0    0    0 -0.00000000000E+00 -0.00000000000E+00 -0.74505805969E-08  0.93827000000E+00  0.93827000000E+00 0. -1.
     999902    2    1    2    0    0 -0.66979706002E-02 -0.61778445108E-02  0.21474513414E-01  0.10206022633E+01  0.10203356294E+01 0.  0.
     999903    2    3    3    0    0 -0.10256163544E+00  0.72411735279E-01  0.34576256884E-01  0.13181780126E+00  0.20446679875E-01 0.  0.
         14    1    1    2    0    0  0.66979706002E-02  0.61778445108E-02 -0.21474513414E-01  0.23327736696E-01  0.00000000000E+00 0. -1.
     999901    1    3    3    0    0  0.95863664844E-01 -0.78589579789E-01 -0.13101743470E-01  0.88878446204E+00  0.88000000000E+00 0.  1.
        -11    1    4    4    0    0 -0.57170607836E-01  0.37453398269E-01  0.29020798144E-01  0.74254314946E-01  0.51100000000E-03 0. -1.
         11    1    4    4    0    0 -0.45391027608E-01  0.34958337010E-01  0.55554587406E-02  0.57563486314E-01  0.51100000000E-03 0.  1.
</event>
<event>
 8    1  0.1092993E+005  0.1043930E+01  0.7957747E-01            NaN
         13   -1    0    0    0    0  0.00000000000E+00  0.00000000000E+00  0.74505805969E-08  0.10566000000E+00  0.10566000000E+00 0.  1.
     999900   -1    0    0    0    0 -0.00000000000E+00 -0.00000000000E+00 -0.74505805969E-08  0.93827000000E+00  0.93827000000E+00 0.  1.
     999902    2    1    2    0    0  0.14234383681E-01  0.17741861113E-01  0.59206542777E-02  0.10204258416E+01  0.10201551121E+01 0.  0.
     999903    2    3    3    0    0  0.70980503592E-01  0.32504007468E-01 -0.10408884905E+00  0.13164007782E+00  0.19996979823E-01 0.  0.
         14    1    1    2    0    0 -0.14234383681E-01 -0.17741861113E-01 -0.59206542777E-02  0.23504158390E-01  0.00000000000E+00 0.  1.
     999901    1    3    3    0    0 -0.56746119911E-01 -0.14762146356E-01  0.11000950332E+00  0.88878576379E+00  0.88000000000E+00 0. -1.
        -11    1    4    4    0    0  0.51373145258E-01  0.27492905510E-01 -0.89055184136E-01  0.10642437150E+00  0.51100000000E-03 0.  1.
         11    1    4    4    0    0  0.19607358334E-01  0.50111019581E-02 -0.15033664909E-01  0.25215706321E-01  0.51100000000E-03 0. -1.
</event>
<event>
 8    1  0.1092993E+005  0.1043930E+01  0.7957747E-01            NaN
         13   -1    0    0    0    0  0.00000000000E+00  0.00000000000E+00  0.74505805969E-08  0.10566000000E+00  0.10566000000E+00 0. -1.
     999900   -1    0    0    0    0 -0.00000000000E+00 -0.00000000000E+00 -0.74505805969E-08  0.93827000000E+00  0.93827000000E+00 0. -1.
     999902    2    1    2    0    0 -0.19833628226E-01  0.11657803585E-01 -0.44759959557E-02  0.10204925997E+01  0.10202234237E+01 0.  0.
     999903    2    3    3    0    0 -0.17857783260E-01 -0.22150742149E-03 -0.12896378953E+00  0.13164940051E+00  0.19518098195E-01 0.  0.
         14    1    1    2    0    0  0.19833628226E-01 -0.11657803585E-01  0.44759959557E-02  0.23437400300E-01  0.00000000000E+00 0.  1.
     999901    1    3    3    0    0 -0.19758449661E-02  0.11879311006E-01  0.12448779357E+00  0.88884319919E+00  0.88000000000E+00 0.  1.
        -11    1    4    4    0    0 -0.60315572719E-02 -0.91272725919E-02 -0.40536906593E-01  0.41990340618E-01  0.51100000000E-03 0.  1.
         11    1    4    4    0    0 -0.11826225988E-01  0.89057651704E-02 -0.88426882936E-01  0.89659059894E-01  0.51100000000E-03 0. -1.
</event>
<event>
 8    1  0.1092993E+005  0.1043930E+01  0.7957747E-01            NaN
         13   -1    0    0    0    0  0.00000000000E+00  0.00000000000E+00  0.74505805969E-08  0.10566000000E+00  0.10566000000E+00 0. -1.
     999900   -1    0    0    0    0 -0.00000000000E+00 -0.00000000000E+00 -0.74505805969E-08  0.93827000000E+00  0.93827000000E+00 0. -1.
     999902    2    1    2    0    0 -0.11885428015E-01 -0.19688666213E-01 -0.71978072124E-02  0.10198319626E+01  0.10195472116E+01 0.  0.
     999903    2    3    3    0    0  0.52331035708E-01 -0.34428772949E-01  0.11126063193E+00  0.12945371337E+00  0.21341461563E-01 0.  0.
         14    1    1    2    0    0  0.11885428015E-01  0.19688666213E-01  0.71978072124E-02  0.24098037368E-01  0.00000000000E+00 0.  1.
     999901    1    3    3    0    0 -0.64216463723E-01  0.14740106736E-01 -0.11845843914E+00  0.89037824926E+00  0.88000000000E+00 0. -1.
        -11    1    4    4    0    0  0.12194177110E-01  0.10932537792E-02  0.26021350178E-01  0.28762213845E-01  0.51100000000E-03 0. -1.
         11    1    4    4    0    0  0.40136858598E-01 -0.35522026728E-01  0.85239281754E-01  0.10069149952E+00  0.51100000000E-03 0.  1.
</event>
<event>
 8    1  0.1092993E+005  0.1043930E+01  0.7957747E-01            NaN
         13   -1    0    0    0    0  0.00000000000E+00  0.00000000000E+00  0.74505805969E-08  0.10566000000E+00  0.10566000000E+00 0. -1.
     999900   -1    0    0    0    0 -0.00000000000E+00 -0.00000000000E+00 -0.74505805969E-08  0.93827000000E+00  0.93827000000E+00 0. -1.
     999902    2    1    2    0    0 -0.15866046741E-01  0.16394925959E-01  0.76434412504E-02  0.10198686777E+01  0.10195848040E+01 0.  0.
     999903    2    3    3    0    0 -0.91240618539E-01  0.48562929323E-01 -0.79261389521E-01  0.13179854752E+00  0.20131584238E-01 0.  0.
         14    1    1    2    0    0  0.15866046741E-01 -0.16394925959E-01 -0.76434412504E-02  0.24061322294E-01  0.00000000000E+00 0. -1.
     999901    1    3    3    0    0  0.75374571798E-01 -0.32168003364E-01  0.86904830772E-01  0.88807013018E+00  0.88000000000E+00 0.  1.
        -11    1    4    4    0    0 -0.16773873559E-02 -0.18122664108E-02 -0.23144770484E-02  0.34228442695E-02  0.51100000000E-03 0. -1.
         11    1    4    4    0    0 -0.89563231183E-01  0.50375195734E-01 -0.76946912473E-01  0.12837570325E+00  0.51100000000E-03 0.  1.
</event>
<event>
 8    1  0.1092993E+005  0.1043930E+01  0.7957747E-01            NaN
         13   -1    0    0    0    0  0.00000000000E+00  0.00000000000E+00  0.74505805969E-08  0.10566000000E+00  0.10566000000E+00 0.  1.
     999900   -1    0    0    0    0 -0.00000000000E+00 -0.00000000000E+00 -0.74505805969E-08  0.93827000000E+00  0.93827000000E+00 0. -1.
     999902    2    1    2    0    0 -0.12293188327E-01 -0.95473181846E-02  0.16888007446E-01  0.10209630986E+01  0.10207047419E+01 0.  0.
     999903    2    3    3    0    0 -0.19165414605E-01  0.59681485009E-01 -0.11094890776E+00  0.12900899017E+00  0.20111355993E-01 0.  0.
         14    1    1    2    0    0  0.12293188327E-01  0.95473181846E-02 -0.16888007446E-01  0.22966901386E-01  0.00000000000E+00 0. -1.
     999901    1    3    3    0    0  0.68722262778E-02 -0.69228803193E-01  0.12783691521E+00  0.89195410845E+00  0.88000000000E+00 0.  1.
        -11    1    4    4    0    0  0.16860148108E-02  0.26367099159E-01 -0.48115047962E-01  0.54894312323E-01  0.51100000000E-03 0. -1.
         11    1    4    4    0    0 -0.20851429416E-01  0.33314385850E-01 -0.62833859803E-01  0.74114677844E-01  0.51100000000E-03 0.  1.
</event>
<event>
 8    1  0.1092993E+005  0.1043930E+01  0.7957747E-01            NaN
         13   -1    0    0    0    0  0.00000000000E+00  0.00000000000E+00  0.74505805969E-08  0.10566000000E+00  0.10566000000E+00 0. -1.
     999900   -1    0    0    0    0 -0.00000000000E+00 -0.00000000000E+00 -0.74505805969E-08  0.93827000000E+00  0.93827000000E+00 0. -1.
     999902    2    1    2    0    0 -0.96182224573E-02 -0.20792260966E-01 -0.20060102110E-02  0.10209332090E+01  0.10206741717E+01 0.  0.
     999903    2    3    3    0    0 -0.36025758976E-01 -0.88509881345E-01  0.90394474233E-01  0.13311516254E+00  0.20411543812E-01 0.  0.
         14    1    1    2    0    0  0.96182224573E-02  0.20792260966E-01  0.20060102110E-02  0.22996790999E-01  0.00000000000E+00 0. -1.
     999901    1    3    3    0    0  0.26407536519E-01  0.67717620379E-01 -0.92400484444E-01  0.88781804646E+00  0.88000000000E+00 0. -1.
        -11    1    4    4    0    0 -0.20318806373E-01 -0.29835369620E-01  0.25311442277E-01  0.44090060149E-01  0.51100000000E-03 0.  1.
         11    1    4    4    0    0 -0.15706952603E-01 -0.58674511725E-01  0.65083031956E-01  0.89025102392E-01  0.51100000000E-03 0. -1.
</event>
<event>
 8    1  0.1092993E+005  0.1043930E+01  0.7957747E-01            NaN
         13   -1    0    0    0    0  0.00000000000E+00  0.00000000000E+00  0.74505805969E-08  0.10566000000E+00  0.10566000000E+00 0.  1.
     999900   -1    0    0    0    0 -0.00000000000E+00 -0.00000000000E+00 -0.74505805969E-08  0.93827000000E+00  0.93827000000E+00 0. -1.
     999902    2    1    2    0    0 -0.30190454417E-01 -0.53450209962E-02 -0.59462724357E-02  0.10126987505E+01  0.10122170560E+01 0.  0.
     999903    2    3    3    0    0 -0.62597642292E-01  0.83924138817E-01  0.64782569253E-01  0.12476757203E+00  0.20209894937E-01 0.  0.
         14    1    1    2    0    0  0.30190454417E-01  0.53450209962E-02  0.59462724357E-02  0.31231249467E-01  0.00000000000E+00 0. -1.
     999901    1    3    3    0    0  0.32407187875E-01 -0.89269159814E-01 -0.70728841689E-01  0.88793117851E+00  0.88000000000E+00 0.  1.
        -11    1    4    4    0    0 -0.36161919547E-01  0.39690918513E-01  0.22962026300E-01  0.58400078857E-01  0.51100000000E-03 0.  1.
         11    1    4    4    0    0 -0.26435722745E-01  0.44233220304E-01  0.41820542953E-01  0.66367493168E-01  0.51100000000E-03 0. -1.
</event>
<event>
 8    1  0.1092993E+005  0.1043930E+01  0.7957747E-01            NaN
         13   -1    0    0    0    0  0.00000000000E+00  0.00000000000E+00  0.74505805969E-08  0.10566000000E+00  0.10566000000E+00 0.  1.
     999900   -1    0    0    0    0 -0.00000000000E+00 -0.00000000000E+00 -0.74505805969E-08  0.93827000000E+00  0.93827000000E+00 0. -1.
     999902    2    1    2    0    0  0.15170761845E-01  0.13896057364E-01  0.11542614717E-01  0.10203400789E+01  0.10200673469E+01 0.  0.
     999903    2    3    3    0    0 -0.67989863309E-01 -0.14868665046E-02 -0.10705103978E+00  0.12836654852E+00  0.19829608569E-01 0.  0.
         14    1    1    2    0    0 -0.15170761845E-01 -0.13896057364E-01 -0.11542614717E-01  0.23589921147E-01  0.00000000000E+00 0. -1.
     999901    1    3    3    0    0  0.83160625154E-01  0.15382923869E-01  0.11859365450E+00  0.89197353033E+00  0.88000000000E+00 0.  1.
        -11    1    4    4    0    0 -0.30125186976E-01  0.39952594192E-02 -0.32052752546E-01  0.44171586511E-01  0.51100000000E-03 0.  1.
         11    1    4    4    0    0 -0.37864676333E-01 -0.54821259238E-02 -0.74998287238E-01  0.84194962011E-01  0.51100000000E-03 0. -1.
</event>
<event>
 8    1  0.1092993E+005  0.1043930E+01  0.7957747E-01            NaN
         13   -1    0    0    0    0  0.00000000000E+00  0.00000000000E+00  0.74505805969E-08  0.10566000000E+00  0.10566000000E+00 0. -1.
     999900   -1    0    0    0    0 -0.00000000000E+00 -0.00000000000E+00 -0.74505805969E-08  0.93827000000E+00  0.93827000000E+00 0.  1.
     999902    2    1    2    0    0  0.22510575794E-02 -0.73151460870E-02 -0.24674404655E-01  0.10180958198E+01  0.10177679959E+01 0.  0.
     999903    2    3    3    0    0 -0.84586027150E-01  0.31712392410E-01  0.85638059274E-01  0.12611338288E+00  0.20254291481E-01 0.  0.
         14    1    1    2    0    0 -0.22510575794E-02  0.73151460870E-02  0.24674404655E-01  0.25834180218E-01  0.00000000000E+00 0. -1.
     999901    1    3    3    0    0  0.86837084729E-01 -0.39027538497E-01 -0.11031246393E+00  0.89198243690E+00  0.88000000000E+00 0.  1.
        -11    1    4    4    0    0 -0.53663669130E-01  0.29491710512E-01  0.61824747060E-01  0.87017876574E-01  0.51100000000E-03 0. -1.
         11    1    4    4    0    0 -0.30922358019E-01  0.22206818987E-02  0.23813312215E-01  0.39095506305E-01  0.51100000000E-03 0.  1.
</event>
<event>
 8    1  0.1092993E+005  0.1043930E+01  0.7957747E-01            NaN
         13   -1    0    0    0    0  0.00000000000E+00  0.00000000000E+00  0.74505805969E-08  0.10566000000E+00  0.10566000000E+00 0.  1.
     999900   -1    0    0    0    0 -0.00000000000E+00 -0.00000000000E+00 -0.74505805969E-08  0.93827000000E+00  0.93827000000E+00 0. -1.
     999902    2    1    2    0    0  0.22334029313E-01  0.10990436468E-02  0.59538272823E-02  0.10207898872E+01  0.10205275738E+01 0.  0.
     999903    2    3    3    0    0 -0.30672476198E-01 -0.11385395272E+00 -0.50717167403E-01  0.12992767412E+00  0.20135691904E-01 0.  0.
         14    1    1    2    0    0 -0.22334029313E-01 -0.10990436468E-02 -0.59538272823E-02  0.23140112826E-01  0.00000000000E+00 0. -1.
     999901    1    3    3    0    0  0.53006505511E-01  0.11495299636E+00  0.56670994686E-01  0.89086221305E+00  0.88000000000E+00 0. -1.
        -11    1    4    4    0    0 -0.24930237911E-01 -0.68526696434E-01 -0.22898896539E-01  0.76433274627E-01  0.51100000000E-03 0. -1.
         11    1    4    4    0    0 -0.57422382865E-02 -0.45327256283E-01 -0.27818270864E-01  0.53494399498E-01  0.51100000000E-03 0.  1.
</event>
<event>
 8    1  0.1092993E+005  0.1043930E+01  0.7957747E-01            NaN
         13   -1    0    0    0    0  0.00000000000E+00  0.00000000000E+00  0.74505805969E-08  0.10566000000E+00  0.10566000000E+00 0.  1.
     999900   -1    0    0    0    0 -0.00000000000E+00 -0.00000000000E+00 -0.74505805969E-08  0.93827000000E+00  0.93827000000E+00 0. -1.
     999902    2    1    2    0    0 -0.21936228822E-01 -0.42677776459E-02 -0.83203076794E-02  0.10200838351E+01  0.10198050750E+01 0.  0.
     999903    2    3    3    0    0  0.50930689332E-01  0.10122626442E+00  0.56295071344E-01  0.12844841191E+00  0.22117136755E-01 0.  0.
         14    1    1    2    0    0  0.21936228822E-01  0.42677776459E-02  0.83203076794E-02  0.23846164908E-01  0.00000000000E+00 0.  1.
     999901    1    3    3    0    0 -0.72866918154E-01 -0.10549404207E+00 -0.64615379024E-01  0.89163542319E+00  0.88000000000E+00 0. -1.
        -11    1    4    4    0    0  0.40185511744E-01  0.55860669587E-01  0.32504444125E-01  0.76105780134E-01  0.51100000000E-03 0. -1.
         11    1    4    4    0    0  0.10745177588E-01  0.45365594837E-01  0.23790627219E-01  0.52342631772E-01  0.51100000000E-03 0.  1.
</event>
<event>
 8    1  0.1092993E+005  0.1043930E+01  0.7957747E-01            NaN
         13   -1    0    0    0    0  0.00000000000E+00  0.00000000000E+00  0.74505805969E-08  0.10566000000E+00  0.10566000000E+00 0. -1.
     999900   -1    0    0    0    0 -0.00000000000E+00 -0.00000000000E+00 -0.74505805969E-08  0.93827000000E+00  0.93827000000E+00 0.  1.
     999902    2    1    2    0    0 -0.58056745170E-02 -0.40470656340E-02 -0.22598444884E-01  0.10202493263E+01  0.10199744671E+01 0.  0.
     999903    2    3    3    0    0  0.86777557433E-01 -0.55793204345E-01  0.73569809643E-01  0.12867899765E+00  0.22417435621E-01 0.  0.
         14    1    1    2    0    0  0.58056745170E-02  0.40470656340E-02  0.22598444884E-01  0.23680673724E-01  0.00000000000E+00 0. -1.
     999901    1    3    3    0    0 -0.92583231950E-01  0.51746138711E-01 -0.96168254527E-01  0.89157032863E+00  0.88000000000E+00 0.  1.
        -11    1    4    4    0    0  0.64455954382E-01 -0.29059798811E-01  0.47680894235E-01  0.85280541498E-01  0.51100000000E-03 0. -1.
         11    1    4    4    0    0  0.22321603051E-01 -0.26733405534E-01  0.25888915408E-01  0.43398456150E-01  0.51100000000E-03 0.  1.
</event>
<event>
 8    1  0.1092993E+005  0.1043930E+01  0.7957747E-01            NaN
         13   -1    0    0    0    0  0.00000000000E+00  0.00000000000E+00  0.74505805969E-08  0.10566000000E+00  0.10566000000E+00 0. -1.
     999900   -1    0    0    0    0 -0.00000000000E+00 -0.00000000000E+00 -0.74505805969E-08  0.93827000000E+00  0.93827000000E+00 0. -1.
     999902    2    1    2    0    0  0.14975193537E-01  0.82777201009E-02  0.16079067032E-01  0.10204499347E+01  0.10201797664E+01 0.  0.
     999903    2    3    3    0    0 -0.67108536139E-01  0.10681552442E+00 -0.29007045842E-01  0.13001173067E+00  0.12187268925E-01 0.  0.
         14    1    1    2    0    0 -0.14975193537E-01 -0.82777201009E-02 -0.16079067032E-01  0.23480065335E-01  0.00000000000E+00 0.  1.
     999901    1    3    3    0    0  0.82083729675E-01 -0.98537804319E-01  0.45086112874E-01  0.89043820399E+00  0.88000000000E+00 0. -1.
        -11    1    4    4    0    0 -0.45566107780E-01  0.81458838242E-01 -0.23860361876E-01  0.96339973509E-01  0.51100000000E-03 0.  1.
         11    1    4    4    0    0 -0.21542428359E-01  0.25356686178E-01 -0.51466839665E-02  0.33671757162E-01  0.51100000000E-03 0. -1.
</event>
<event>
 8    1  0.1092993E+005  0.1043930E+01  0.7957747E-01            NaN
         13   -1    0    0    0    0  0.00000000000E+00  0.00000000000E+00  0.74505805969E-08  0.10566000000E+00  0.10566000000E+00 0.  1.
     999900   -1    0    0    0    0 -0.00000000000E+00 -0.00000000000E+00 -0.74505805969E-08  0.93827000000E+00  0.93827000000E+00 0.  1.
     999902    2    1    2    0    0  0.16308562777E-01  0.13179486370E-01 -0.82876546604E-02  0.10213833084E+01  0.10211344228E+01 0.  0.
     999903    2    3    3    0    0  0.72162883592E-02 -0.53703693487E-01 -0.11866486103E+00  0.13192327173E+00  0.19652960802E-01 0.  0.
         14    1    1    2    0    0 -0.16308562777E-01 -0.13179486370E-01  0.82876546604E-02  0.22546691567E-01  0.00000000000E+00 0.  1.
     999901    1    3    3    0    0  0.90922744180E-02  0.66883179857E-01  0.11037720637E+00  0.88946003670E+00  0.88000000000E+00 0. -1.
        -11    1    4    4    0    0  0.49934814725E-02 -0.17286330314E-01 -0.20967260615E-01  0.27634022719E-01  0.51100000000E-03 0. -1.
         11    1    4    4    0    0  0.22228068867E-02 -0.36417363173E-01 -0.97697600420E-01  0.10428924901E+00  0.51100000000E-03 0.  1.
</event>
<event>
 8    1  0.1092993E+005  0.1043930E+01  0.7957747E-01            NaN
         13   -1    0    0    0    0  0.00000000000E+00  0.00000000000E+00  0.74505805969E-08  0.10566000000E+00  0.10566000000E+00 0.  1.
     999900   -1    0    0    0    0 -0.00000000000E+00 -0.00000000000E+00 -0.74505805969E-08  0.93827000000E+00  0.93827000000E+00 0. -1.
     999902    2    1    2    0    0  0.80702704241E-02 -0.42666917714E-02  0.21275207888E-01  0.10207790088E+01  0.10205164459E+01 0.  0.
     999903    2    3    3    0    0 -0.10109815468E+00 -0.76988634356E-01 -0.19039357779E-01  0.13014356700E+00  0.20658271608E-01 0.  0.
         14    1    1    2    0    0 -0.80702704241E-02  0.42666917714E-02 -0.21275207888E-01  0.23150991211E-01  0.00000000000E+00 0. -1.
     999901    1    3    3    0    0  0.10916842510E+00  0.72721942585E-01  0.40314565667E-01  0.89063544179E+00  0.88000000000E+00 0.  1.
        -11    1    4    4    0    0 -0.32856378126E-01 -0.34347657238E-01 -0.37113215873E-03  0.47536322968E-01  0.51100000000E-03 0.  1.
         11    1    4    4    0    0 -0.68241776555E-01 -0.42640977118E-01 -0.18668225620E-01  0.82607244027E-01  0.51100000000E-03 0. -1.
</event>
<event>
 8    1  0.1092993E+005  0.1043930E+01  0.7957747E-01            NaN
         13   -1    0    0    0    0  0.00000000000E+00  0.00000000000E+00  0.74505805969E-08  0.10566000000E+00  0.10566000000E+00 0.  1.
     999900   -1    0    0    0    0 -0.00000000000E+00 -0.00000000000E+00 -0.74505805969E-08  0.93827000000E+00  0.93827000000E+00 0.  1.
     999902    2    1    2    0    0  0.99988143213E-02 -0.11516295103E-01  0.18673811506E-01  0.10198195753E+01  0.10195345280E+01 0.  0.
     999903    2    3    3    0    0  0.25475687618E-01  0.59807762699E-01 -0.10837437241E+00  0.12770529126E+00  0.18375464139E-01 0.  0.
         14    1    1    2    0    0 -0.99988143213E-02  0.11516295103E-01 -0.18673811506E-01  0.24110424652E-01  0.00000000000E+00 0.  1.
     999901    1    3    3    0    0 -0.15476873296E-01 -0.71324057802E-01  0.12704818392E+00  0.89211428408E+00  0.88000000000E+00 0. -1.
        -11    1    4    4    0    0  0.13309590479E-01  0.48406922619E-01 -0.73037188457E-01  0.88628817971E-01  0.51100000000E-03 0. -1.
         11    1    4    4    0    0  0.12166097139E-01  0.11400840080E-01 -0.35337183956E-01  0.39076473294E-01  0.51100000000E-03 0.  1.
</event>
<event>
 8    1  0.1092993E+005  0.1043930E+01  0.7957747E-01            NaN
         13   -1    0    0    0    0  0.00000000000E+00  0.00000000000E+00  0.74505805969E-08  0.10566000000E+00  0.10566000000E+00 0.  1.
     999900   -1    0    0    0    0 -0.00000000000E+00 -0.00000000000E+00 -0.74505805969E-08  0.93827000000E+00  0.93827000000E+00 0.  1.
     999902    2    1    2    0    0  0.20605097778E-01  0.81355404778E-02 -0.92810469245E-02  0.10199113634E+01  0.10196285080E+01 0.  0.
     999903    2    3    3    0    0  0.10563203963E+00  0.30724961933E-01 -0.72507655351E-01  0.13326742875E+00  0.20017402383E-01 0.  0.
         14    1    1    2    0    0 -0.20605097778E-01 -0.81355404778E-02  0.92810469245E-02  0.24018636625E-01  0.00000000000E+00 0.  1.
     999901    1    3    3    0    0 -0.85026941851E-01 -0.22589421455E-01  0.63226608426E-01  0.88664393463E+00  0.88000000000E+00 0. -1.
        -11    1    4    4    0    0  0.93922330086E-02  0.49653488095E-02 -0.14496370862E-01  0.17979839234E-01  0.51100000000E-03 0. -1.
         11    1    4    4    0    0  0.96239806620E-01  0.25759613123E-01 -0.58011284488E-01  0.11528758951E+00  0.51100000000E-03 0.  1.
</event>
<event>
 8    1  0.1092993E+005  0.1043930E+01  0.7957747E-01            NaN
         13   -1    0    0    0    0  0.00000000000E+00  0.00000000000E+00  0.74505805969E-08  0.10566000000E+00  0.10566000000E+00 0.  1.
     999900   -1    0    0    0    0 -0.00000000000E+00 -0.00000000000E+00 -0.74505805969E-08  0.93827000000E+00  0.93827000000E+00 0. -1.
     999902    2    1    2    0    0  0.12562352887E-01  0.19538189147E-01  0.35187619908E-02  0.10204366982E+01  0.10201662216E+01 0.  0.
     999903    2    3    3    0    0 -0.10811947518E-01  0.84769158196E-01 -0.98394565545E-01  0.13184918780E+00  0.20000235118E-01 0.  0.
         14    1    1    2    0    0 -0.12562352887E-01 -0.19538189147E-01 -0.35187619908E-02  0.23493301836E-01  0.00000000000E+00 0.  1.
     999901    1    3    3    0    0  0.23374300405E-01 -0.65230969049E-01  0.10191332754E+00  0.88858751036E+00  0.88000000000E+00 0.  1.
        -11    1    4    4    0    0  0.23627709009E-02  0.20648029878E-01 -0.14094364101E-01  0.25116449681E-01  0.51100000000E-03 0. -1.
         11    1    4    4    0    0 -0.13174718419E-01  0.64121128318E-01 -0.84300201444E-01  0.10673273812E+00  0.51100000000E-03 0.  1.
</event>
<event>
 8    1  0.1092993E+005  0.1043930E+01  0.7957747E-01            NaN
         13   -1    0    0    0    0  0.00000000000E+00  0.00000000000E+00  0.74505805969E-08  0.10566000000E+00  0.10566000000E+00 0.  1.
     999900   -1    0    0    0    0 -0.00000000000E+00 -0.00000000000E+00 -0.74505805969E-08  0.93827000000E+00  0.93827000000E+00 0.  1.
     999902    2    1    2    0    0 -0.19483949133E-01 -0.25274105415E-02  0.15168506091E-01  0.10191087258E+01  0.10188064091E+01 0.  0.
     999903    2    3    3    0    0 -0.94747120321E-02  0.82473086217E-01 -0.95706910469E-01  0.12803149719E+00  0.18457286994E-01 0.  0.
         14    1    1    2    0    0  0.19483949133E-01  0.25274105415E-02 -0.15168506091E-01  0.24821274240E-01  0.00000000000E+00 0. -1.
     999901    1    3    3    0    0 -0.10009237101E-01 -0.85000496759E-01  0.11087541656E+00  0.89107722857E+00  0.88000000000E+00 0. -1.
        -11    1    4    4    0    0 -0.77372875708E-02  0.14044960456E-01 -0.12842649389E-01  0.20550457355E-01  0.51100000000E-03 0.  1.
         11    1    4    4    0    0 -0.17374244613E-02  0.68428125761E-01 -0.82864261080E-01  0.10748103984E+00  0.51100000000E-03 0. -1.
</event>
<event>
 8    1  0.1092993E+005  0.1043930E+01  0.7957747E-01            NaN
         13   -1    0    0    0    0  0.00000000000E+00  0.00000000000E+00  0.74505805969E-08  0.10566000000E+00  0.10566000000E+00 0.  1.
     999900   -1    0    0    0    0 -0.00000000000E+00 -0.00000000000E+00 -0.74505805969E-08  0.93827000000E+00  0.93827000000E+00 0.  1.
     999902    2    1    2    0    0  0.13423071910E-01  0.20495951386E-01  0.80036225509E-02  0.10181555775E+01  0.10178292878E+01 0.  0.
     999903    2    3    3    0    0  0.40601967252E-01  0.89171143202E-01  0.85438493738E-01  0.13167312779E+00  0.20929974782E-01 0.  0.
         14    1    1    2    0    0 -0.13423071910E-01 -0.20495951386E-01 -0.80036225509E-02  0.25774422528E-01  0.00000000000E+00 0. -1.
     999901    1    3    3    0    0 -0.27178895341E-01 -0.68675191816E-01 -0.77434871188E-01  0.88648244968E+00  0.88000000000E+00 0.  1.
        -11    1    4    4    0    0  0.22112101138E-01  0.69235758415E-01  0.57423982857E-01  0.92629963771E-01  0.51100000000E-03 0. -1.
         11    1    4    4    0    0  0.18489866113E-01  0.19935384787E-01  0.28014510881E-01  0.39043164016E-01  0.51100000000E-03 0.  1.
</event>
<event>
 8    1  0.1092993E+005  0.1043930E+01  0.7957747E-01            NaN
         13   -1    0    0    0    0  0.00000000000E+00  0.00000000000E+00  0.74505805969E-08  0.10566000000E+00  0.10566000000E+00 0.  1.
     999900   -1    0    0    0    0 -0.00000000000E+00 -0.00000000000E+00 -0.74505805969E-08  0.93827000000E+00  0.93827000000E+00 0.  1.
     999902    2    1    2    0    0  0.76554229539E-02  0.83578582311E-02  0.19664872280E-01  0.10212327205E+01  0.10209804616E+01 0.  0.
     999903    2    3    3    0    0  0.12540745588E+00 -0.10736778423E-01  0.37885890425E-01  0.13299730581E+00  0.20264112593E-01 0.  0.
         14    1    1    2    0    0 -0.76554229539E-02 -0.83578582311E-02 -0.19664872280E-01  0.22697279498E-01  0.00000000000E+00 0. -1.
     999901    1    3    3    0    0 -0.11775203292E+00  0.19094636654E-01 -0.18221018145E-01  0.88823541469E+00  0.88000000000E+00 0. -1.
        -11    1    4    4    0    0  0.72315970260E-01  0.33550763387E-02  0.18242974226E-01  0.74658712295E-01  0.51100000000E-03 0.  1.
         11    1    4    4    0    0  0.53091485619E-01 -0.14091854762E-01  0.19642916199E-01  0.58338593518E-01  0.51100000000E-03 0. -1.
</event>
<event>
 8    1  0.1092993E+005  0.1043930E+01  0.7957747E-01            NaN
         13   -1    0    0    0    0  0.00000000000E+00  0.00000000000E+00  0.74505805969E-08  0.10566000000E+00  0.10566000000E+00 0. -1.
     999900   -1    0    0    0    0 -0.00000000000E+00 -0.00000000000E+00 -0.74505805969E-08  0.93827000000E+00  0.93827000000E+00 0. -1.
     999902    2    1    2    0    0 -0.23442473105E-01 -0.18615691965E-02 -0.22268553520E-02  0.10203085295E+01  0.10200350589E+01 0.  0.
     999903    2    3    3    0    0 -0.18121254065E-01 -0.12762004814E+00 -0.17055529893E-01  0.13122844310E+00  0.17741382189E-01 0.  0.
         14    1    1    2    0    0  0.23442473105E-01  0.18615691965E-02  0.22268553520E-02  0.23621470528E-01  0.00000000000E+00 0.  1.
     999901    1    3    3    0    0 -0.53212190396E-02  0.12575847894E+00  0.14828674541E-01  0.88908008637E+00  0.88000000000E+00 0.  1.
        -11    1    4    4    0    0  0.28576176088E-02 -0.17967381166E-01  0.53637102528E-03  0.18208283259E-01  0.51100000000E-03 0. -1.
         11    1    4    4    0    0 -0.20978871674E-01 -0.10965266697E+00 -0.17591900918E-01  0.11302015984E+00  0.51100000000E-03 0.  1.
</event>
<event>
 8    1  0.1092993E+005  0.1043930E+01  0.7957747E-01            NaN
         13   -1    0    0    0    0  0.00000000000E+00  0.00000000000E+00  0.74505805969E-08  0.10566000000E+00  0.10566000000E+00 0. -1.
     999900   -1    0    0    0    0 -0.00000000000E+00 -0.00000000000E+00 -0.74505805969E-08  0.93827000000E+00  0.93827000000E+00 0. -1.
     999902    2    1    2    0    0 -0.18225036163E-01  0.18516974194E-02 -0.15313718135E-01  0.10200534280E+01  0.10197739481E+01 0.  0.
     999903    2    3    3    0    0 -0.24416472171E-01 -0.16207931524E-02 -0.12854864637E+00  0.13276962841E+00  0.22455036458E-01 0.  0.
         14    1    1    2    0    0  0.18225036163E-01 -0.18516974194E-02  0.15313718135E-01  0.23876571982E-01  0.00000000000E+00 0.  1.
     999901    1    3    3    0    0  0.61914360071E-02  0.34724905718E-02  0.11323492823E+00  0.88728379961E+00  0.88000000000E+00 0.  1.
        -11    1    4    4    0    0 -0.18151597889E-01 -0.70438110391E-02 -0.48100422304E-01  0.51894195501E-01  0.51100000000E-03 0.  1.
         11    1    4    4    0    0 -0.62648742818E-02  0.54230178867E-02 -0.80448224063E-01  0.80875432912E-01  0.51100000000E-03 0. -1.
</event>
<event>
 8    1  0.1092993E+005  0.1043930E+01  0.7957747E-01            NaN
         13   -1    0    0    0    0  0.00000000000E+00  0.00000000000E+00  0.74505805969E-08  0.10566000000E+00  0.10566000000E+00 0.  1.
     999900   -1    0    0    0    0 -0.00000000000E+00 -0.00000000000E+00 -0.74505805969E-08  0.93827000000E+00  0.93827000000E+00 0. -1.
     999902    2    1    2    0    0  0.17340370060E-02 -0.60031109331E-02  0.22715088270E-01  0.10203711490E+01  0.10200991433E+01 0.  0.
     999903    2    3    3    0    0  0.84113255545E-01 -0.84592584997E-01 -0.46670614754E-01  0.13032788215E+00  0.24005528324E-01 0.  0.
         14    1    1    2    0    0 -0.17340370060E-02  0.60031109331E-02 -0.22715088270E-01  0.23558850998E-01  0.00000000000E+00 0. -1.
     999901    1    3    3    0    0 -0.82379218539E-01  0.78589474063E-01  0.69385703024E-01  0.89004326685E+00  0.88000000000E+00 0.  1.
        -11    1    4    4    0    0  0.90557904678E-02 -0.11477763406E-01 -0.14787111565E-01  0.20800629395E-01  0.51100000000E-03 0.  1.
         11    1    4    4    0    0  0.75057465077E-01 -0.73114821591E-01 -0.31883503190E-01  0.10952725276E+00  0.51100000000E-03 0. -1.
</event>
<event>
 8    1  0.1092993E+005  0.1043930E+01  0.7957747E-01            NaN
         13   -1    0    0    0    0  0.00000000000E+00  0.00000000000E+00  0.74505805969E-08  0.10566000000E+00  0.10566000000E+00 0. -1.
     999900   -1    0    0    0    0 -0.00000000000E+00 -0.00000000000E+00 -0.74505805969E-08  0.93827000000E+00  0.93827000000E+00 0.  1.
     999902    2    1    2    0    0 -0.26618049746E-01  0.26281372348E-02  0.31546979778E-02  0.10169971242E+01  0.10166404334E+01 0.  0.
     999903    2    3    3    0    0 -0.25651901992E-01 -0.12201281414E+00 -0.20787184947E-01  0.12789110471E+00  0.19464858465E-01 0.  0.
         14    1    1    2    0    0  0.26618049746E-01 -0.26281372348E-02 -0.31546979778E-02  0.26932875765E-01  0.00000000000E+00 0.  1.
     999901    1    3    3    0    0 -0.96614775484E-03  0.12464095138E+00  0.23941882925E-01  0.88910601953E+00  0.88000000000E+00 0. -1.
        -11    1    4    4    0    0 -0.25732561815E-01 -0.78638784118E-01 -0.11613126610E-01  0.83554466881E-01  0.51100000000E-03 0. -1.
         11    1    4    4    0    0  0.80659823373E-04 -0.43374030023E-01 -0.91740583377E-02  0.44336637827E-01  0.51100000000E-03 0.  1.
</event>
<event>
 8    1  0.1092993E+005  0.1043930E+01  0.7957747E-01            NaN
         13   -1    0    0    0    0  0.00000000000E+00  0.00000000000E+00  0.74505805969E-08  0.10566000000E+00  0.10566000000E+00 0. -1.
     999900   -1    0    0    0    0 -0.00000000000E+00 -0.00000000000E+00 -0.74505805969E-08  0.93827000000E+00  0.93827000000E+00 0.  1.
     999902    2    1    2    0    0 -0.87944945149E-02 -0.92814993007E-03 -0.21028147578E-01  0.10211179947E+01  0.10208631502E+01 0.  0.
     999903    2    3    3    0    0  0.96213538566E-01 -0.81778964990E-01 -0.29579839564E-01  0.13115357250E+00  0.19530707968E-01 0.  0.
         14    1    1    2    0    0  0.87944945149E-02  0.92814993007E-03  0.21028147578E-01  0.22812005318E-01  0.00000000000E+00 0. -1.
     999901    1    3    3    0    0 -0.10500803308E+00  0.80850815060E-01  0.85516919855E-02  0.88996442218E+00  0.88000000000E+00 0. -1.
        -11    1    4    4    0    0  0.41336796714E-01 -0.35102642974E-01 -0.22664208127E-01  0.58778004027E-01  0.51100000000E-03 0. -1.
         11    1    4    4    0    0  0.54876741852E-01 -0.46676322016E-01 -0.69156314361E-02  0.72375568477E-01  0.51100000000E-03 0.  1.
</event>
<event>
 8    1  0.1092993E+005  0.1043930E+01  0.7957747E-01            NaN
         13   -1    0    0    0    0  0.00000000000E+00  0.00000000000E+00  0.74505805969E-08  0.10566000000E+00  0.10566000000E+00 0.  1.
     999900   -1    0    0    0    0 -0.00000000000E+00 -0.00000000000E+00 -0.74505805969E-08  0.93827000000E+00  0.93827000000E+00 0.  1.
     999902    2    1    2    0    0  0.10670382781E-01  0.37151202133E-02 -0.20600800285E-01  0.10204342098E+01  0.10201636752E+01 0.  0.
     999903    2    3    3    0    0 -0.10972565448E+00  0.66613479556E-01 -0.67729330688E-02  0.12990480580E+00  0.18769950373E-01 0.  0.
         14    1    1    2    0    0 -0.10670382781E-01 -0.37151202133E-02  0.20600800285E-01  0.23495790246E-01  0.00000000000E+00 0. -1.
     999901    1    3    3    0    0  0.12039603726E+00 -0.62898359342E-01 -0.13827867216E-01  0.89052940396E+00  0.88000000000E+00 0.  1.
        -11    1    4    4    0    0 -0.25402230225E-01  0.17306187277E-01  0.62120192108E-02  0.31362839829E-01  0.51100000000E-03 0.  1.
         11    1    4    4    0    0 -0.84323424259E-01  0.49307292278E-01 -0.12984952280E-01  0.98541965970E-01  0.51100000000E-03 0. -1.
</event>
<event>
 8    1  0.1092993E+005  0.1043930E+01  0.7957747E-01            NaN
         13   -1    0    0    0    0  0.00000000000E+00  0.00000000000E+00  0.74505805969E-08  0.10566000000E+00  0.10566000000E+00 0.  1.
     999900   -1    0    0    0    0 -0.00000000000E+00 -0.00000000000E+00 -0.74505805969E-08  0.93827000000E+00  0.93827000000E+00 0.  1.
     999902    2    1    2    0    0  0.17977147905E-01 -0.11531560301E-01 -0.84398004971E-02  0.10209651364E+01  0.10207068260E+01 0.  0.
     999903    2    3    3    0    0 -0.10789573959E+00  0.26239027018E-01  0.61251706645E-01  0.12848123889E+00  0.20632014419E-01 0.  0.
         14    1    1    2    0    0 -0.17977147905E-01  0.11531560301E-01  0.84398004971E-02  0.22964863644E-01  0.00000000000E+00 0. -1.
     999901    1    3    3    0    0  0.12587288749E+00 -0.37770587319E-01 -0.69691507142E-01  0.89248389747E+00  0.88000000000E+00 0.  1.
        -11    1    4    4    0    0 -0.75242287638E-01  0.26514657936E-01  0.37840720194E-01  0.88298415389E-01  0.51100000000E-03 0. -1.
         11    1    4    4    0    0 -0.32653451951E-01 -0.27563091868E-03  0.23410986451E-01  0.40182823498E-01  0.51100000000E-03 0.  1.
</event>
<event>
 8    1  0.1092993E+005  0.1043930E+01  0.7957747E-01            NaN
         13   -1    0    0    0    0  0.00000000000E+00  0.00000000000E+00  0.74505805969E-08  0.10566000000E+00  0.10566000000E+00 0. -1.
     999900   -1    0    0    0    0 -0.00000000000E+00 -0.00000000000E+00 -0.74505805969E-08  0.93827000000E+00  0.93827000000E+00 0. -1.
     999902    2    1    2    0    0  0.63889176414E-02  0.21354760268E-01  0.30697215963E-03  0.10216378873E+01  0.10213946517E+01 0.  0.
     999903    2    3    3    0    0 -0.11055477909E+00  0.17752943419E-01 -0.65793043823E-01  0.13143677894E+00  0.20233043874E-01 0.  0.
         14    1    1    2    0    0 -0.63889176414E-02 -0.21354760268E-01 -0.30697215963E-03  0.22292112655E-01  0.00000000000E+00 0.  1.
     999901    1    3    3    0    0  0.11694369673E+00  0.36018168491E-02  0.66100015982E-01  0.89020110840E+00  0.88000000000E+00 0.  1.
        -11    1    4    4    0    0 -0.38318378542E-01  0.16002137128E-02 -0.12927974573E-01  0.40475331569E-01  0.51100000000E-03 0. -1.
         11    1    4    4    0    0 -0.72236400544E-01  0.16152729706E-01 -0.52865069249E-01  0.90961447373E-01  0.51100000000E-03 0.  1.
</event>
<event>
 8    1  0.1092993E+005  0.1043930E+01  0.7957747E-01            NaN
         13   -1    0    0    0    0  0.00000000000E+00  0.00000000000E+00  0.74505805969E-08  0.10566000000E+00  0.10566000000E+00 0.  1.
     999900   -1    0    0    0    0 -0.00000000000E+00 -0.00000000000E+00 -0.74505805969E-08  0.93827000000E+00  0.93827000000E+00 0. -1.
     999902    2    1    2    0    0  0.37307466253E-02  0.22592764309E-03 -0.21131196205E-01  0.10224708069E+01  0.10222455938E+01 0.  0.
     999903    2    3    3    0    0  0.12615360896E+00 -0.36612123807E-01 -0.70873347907E-02  0.13312181509E+00  0.20396241684E-01 0.  0.
         14    1    1    2    0    0 -0.37307466253E-02 -0.22592764309E-03  0.21131196205E-01  0.21459193059E-01  0.00000000000E+00 0.  1.
     999901    1    3    3    0    0 -0.12242286234E+00  0.36838051450E-01 -0.14043861415E-01  0.88934899185E+00  0.88000000000E+00 0. -1.
        -11    1    4    4    0    0  0.40294224577E-01 -0.71636148338E-02 -0.10612598662E-01  0.42282742143E-01  0.51100000000E-03 0. -1.
         11    1    4    4    0    0  0.85859384386E-01 -0.29448508974E-01  0.35252638709E-02  0.90839072950E-01  0.51100000000E-03 0.  1.
</event>
<event>
 8    1  0.1092993E+005  0.1043930E+01  0.7957747E-01            NaN
         13   -1    0    0    0    0  0.00000000000E+00  0.00000000000E+00  0.74505805969E-08  0.10566000000E+00  0.10566000000E+00 0.  1.
     999900   -1    0    0    0    0 -0.00000000000E+00 -0.00000000000E+00 -0.74505805969E-08  0.93827000000E+00  0.93827000000E+00 0. -1.
     999902    2    1    2    0    0 -0.72183611680E-02  0.23785210201E-01  0.52077662694E-03  0.10190681382E+01  0.10187648199E+01 0.  0.
     999903    2    3    3    0    0 -0.18659443644E-01  0.11995717593E+00 -0.48902297315E-01  0.13237620436E+00  0.19852604450E-01 0.  0.
         14    1    1    2    0    0  0.72183611680E-02 -0.23785210201E-01 -0.52077662694E-03  0.24861861768E-01  0.00000000000E+00 0.  1.
     999901    1    3    3    0    0  0.11441082476E-01 -0.96171965728E-01  0.49423073942E-01  0.88669193387E+00  0.88000000000E+00 0.  1.
        -11    1    4    4    0    0 -0.13055288208E-01  0.72777997910E-01 -0.39890877962E-01  0.84015598526E-01  0.51100000000E-03 0.  1.
         11    1    4    4    0    0 -0.56041554360E-02  0.47179178019E-01 -0.90114193530E-02  0.48360605832E-01  0.51100000000E-03 0. -1.
</event>
<event>
 8    1  0.1092993E+005  0.1043930E+01  0.7957747E-01            NaN
         13   -1    0    0    0    0  0.00000000000E+00  0.00000000000E+00  0.74505805969E-08  0.10566000000E+00  0.10566000000E+00 0.  1.
     999900   -1    0    0    0    0 -0.00000000000E+00 -0.00000000000E+00 -0.74505805969E-08  0.93827000000E+00  0.93827000000E+00 0. -1.
     999902    2    1    2    0    0  0.14715997323E-01 -0.84029604122E-02  0.14022977983E-01  0.10219342224E+01  0.10216974800E+01 0.  0.
     999903    2    3    3    0    0  0.70227232169E-02 -0.10569432507E-01 -0.12830257277E+00  0.13046327925E+00  0.19952080317E-01 0.  0.
         14    1    1    2    0    0 -0.14715997323E-01  0.84029604122E-02 -0.14022977983E-01  0.21995777604E-01  0.00000000000E+00 0. -1.
     999901    1    3    3    0    0  0.76932741060E-02  0.21664720950E-02  0.14232555076E+00  0.89147094314E+00  0.88000000000E+00 0.  1.
        -11    1    4    4    0    0  0.13310357872E-01 -0.77190864367E-02 -0.65724448379E-01  0.67503438119E-01  0.51100000000E-03 0.  1.
         11    1    4    4    0    0 -0.62876346555E-02 -0.28503460706E-02 -0.62578124393E-01  0.62959841136E-01  0.51100000000E-03 0. -1.
</event>
<event>
 8    1  0.1092993E+005  0.1043930E+01  0.7957747E-01            NaN
         13   -1    0    0    0    0  0.00000000000E+00  0.00000000000E+00  0.74505805969E-08  0.10566000000E+00  0.10566000000E+00 0.  1.
     999900   -1    0    0    0    0 -0.00000000000E+00 -0.00000000000E+00 -0.74505805969E-08  0.93827000000E+00  0.93827000000E+00 0. -1.
     999902    2    1    2    0    0 -0.14977421373E-01 -0.15185635656E-01  0.10021594971E-01  0.10203639429E+01  0.10200917689E+01 0.  0.
     999903    2    3    3    0    0 -0.13447951430E-01  0.12266041586E+00  0.33505327092E-01  0.12932221612E+00  0.19370173504E-01 0.  0.
         14    1    1    2    0    0  0.14977421373E-01  0.15185635656E-01 -0.10021594971E-01  0.23566057095E-01  0.00000000000E+00 0.  1.
     999901    1    3    3    0    0 -0.15294699426E-02 -0.13784605152E+00 -0.23483732121E-01  0.89104172678E+00  0.88000000000E+00 0. -1.
        -11    1    4    4    0    0 -0.61425455973E-02  0.13648279917E-01 -0.22160472309E-03  0.14977204036E-01  0.51100000000E-03 0.  1.
         11    1    4    4    0    0 -0.73054058329E-02  0.10901213595E+00  0.33726931815E-01  0.11434501208E+00  0.51100000000E-03 0. -1.
</event>
<event>
 8    1  0.1092993E+005  0.1043930E+01  0.7957747E-01            NaN
         13   -1    0    0    0    0  0.00000000000E+00  0.00000000000E+00  0.74505805969E-08  0.10566000000E+00  0.10566000000E+00 0.  1.
     999900   -1    0    0    0    0 -0.00000000000E+00 -0.00000000000E+00 -0.74505805969E-08  0.93827000000E+00  0.93827000000E+00 0.  1.
     999902    2    1    2    0    0 -0.17096650580E-02 -0.21760588594E-01 -0.84009315320E-02  0.10205415024E+01  0.10202734615E+01 0.  0.
     999903    2    3    3    0    0  0.11984657910E-01 -0.68951244777E-01  0.10929311142E+00  0.13134727148E+00  0.20229071634E-01 0.  0.
         14    1    1    2    0    0  0.17096650580E-02  0.21760588594E-01  0.84009315320E-02  0.23388497626E-01  0.00000000000E+00 0.  1.
     999901    1    3    3    0    0 -0.13694322968E-01  0.47190656183E-01 -0.11769404295E+00  0.88919423090E+00  0.88000000000E+00 0.  1.
        -11    1    4    4    0    0  0.10991974450E-01 -0.45715003256E-01  0.55507018017E-01  0.72745963429E-01  0.51100000000E-03 0. -1.
         11    1    4    4    0    0  0.99268346002E-03 -0.23236241521E-01  0.53786093404E-01  0.58601308050E-01  0.51100000000E-03 0.  1.
</event>
<event>
 7    1  0.1788313E+005  0.1043930E+01  0.7957747E-01            NaN
         13   -1    0    0    0    0  0.00000000000E+00  0.00000000000E+00  0.74505805969E-08  0.10566000000E+00  0.10566000000E+00 0. -1.
     999900   -1    0    0    0    0 -0.00000000000E+00 -0.00000000000E+00 -0.74505805969E-08  0.93827000000E+00  0.93827000000E+00 0.  1.
     999903    2    1    2    0    0 -0.51359936903E-01 -0.56479415437E-01 -0.28955128085E-01  0.84176724865E-01  0.20483019303E-01 0.  0.
         14    1    1    2    0    0 -0.42596773758E-01 -0.42932003237E-01 -0.29459834218E-01  0.67272014008E-01  0.00000000000E+00 0.  1.
     999901    1    1    2    0    0  0.93956710661E-01  0.99411418675E-01  0.58414962303E-01  0.89248126113E+00  0.88000000000E+00 0. -1.
        -11    1    3    3    0    0 -0.29528903089E-01 -0.37159860263E-01 -0.76811120805E-02  0.48084009153E-01  0.51100000000E-03 0.  1.
         11    1    3    3    0    0 -0.21831033814E-01 -0.19319555174E-01 -0.21274016005E-01  0.36092715712E-01  0.51100000000E-03 0. -1.
</event>
<event>
 8    1  0.1092993E+005  0.1043930E+01  0.7957747E-01            NaN
         13   -1    0    0    0    0  0.00000000000E+00  0.00000000000E+00  0.74505805969E-08  0.10566000000E+00  0.10566000000E+00 0.  1.
     999900   -1    0    0    0    0 -0.00000000000E+00 -0.00000000000E+00 -0.74505805969E-08  0.93827000000E+00  0.93827000000E+00 0. -1.
     999902    2    1    2    0    0 -0.15253541611E-01 -0.76574124474E-02  0.16320461871E-01  0.10203150900E+01  0.10200417732E+01 0.  0.
     999903    2    3    3    0    0  0.77897656707E-01  0.60888495096E-02 -0.99070512050E-01  0.12780112245E+00  0.20323423264E-01 0.  0.
         14    1    1    2    0    0  0.15253541611E-01  0.76574124474E-02 -0.16320461871E-01  0.23614909967E-01  0.00000000000E+00 0. -1.
     999901    1    3    3    0    0 -0.93151198318E-01 -0.13746261957E-01  0.11539097392E+00  0.89251396758E+00  0.88000000000E+00 0.  1.
        -11    1    4    4    0    0  0.49278293576E-01  0.10593298900E-01 -0.51234926787E-01  0.71873827247E-01  0.51100000000E-03 0. -1.
         11    1    4    4    0    0  0.28619363132E-01 -0.45044493907E-02 -0.47835585263E-01  0.55927295204E-01  0.51100000000E-03 0.  1.
</event>
<event>
 8    1  0.1092993E+005  0.1043930E+01  0.7957747E-01            NaN
         13   -1    0    0    0    0  0.00000000000E+00  0.00000000000E+00  0.74505805969E-08  0.10566000000E+00  0.10566000000E+00 0. -1.
     999900   -1    0    0    0    0 -0.00000000000E+00 -0.00000000000E+00 -0.74505805969E-08  0.93827000000E+00  0.93827000000E+00 0.  1.
     999902    2    1    2    0    0 -0.19622477837E-01  0.90100487146E-02 -0.99031328862E-02  0.10201751130E+01  0.10198985080E+01 0.  0.
     999903    2    3    3    0    0 -0.13987582947E-01  0.11419356446E+00  0.57333892614E-01  0.13134659097E+00  0.26998686542E-01 0.  0.
         14    1    1    2    0    0  0.19622477837E-01 -0.90100487146E-02  0.99031328862E-02  0.23754886977E-01  0.00000000000E+00 0. -1.
     999901    1    3    3    0    0 -0.56348948898E-02 -0.10518351575E+00 -0.67237025500E-01  0.88882852206E+00  0.88000000000E+00 0.  1.
        -11    1    4    4    0    0 -0.39846257398E-02  0.88343323964E-01  0.53504334280E-01  0.10336051006E+00  0.51100000000E-03 0.  1.
         11    1    4    4    0    0 -0.10002957208E-01  0.25850240497E-01  0.38295583341E-02  0.27986080910E-01  0.51100000000E-03 0. -1.
</event>
<event>
 8    1  0.1092993E+005  0.1043930E+01  0.7957747E-01            NaN
         13   -1    0    0    0    0  0.00000000000E+00  0.00000000000E+00  0.74505805969E-08  0.10566000000E+00  0.10566000000E+00 0. -1.
     999900   -1    0    0    0    0 -0.00000000000E+00 -0.00000000000E+00 -0.74505805969E-08  0.93827000000E+00  0.93827000000E+00 0.  1.
     999902    2    1    2    0    0 -0.69963891210E-02  0.25818045491E-01 -0.45936618453E-02  0.10167892067E+01  0.10164269123E+01 0.  0.
     999903    2    3    3    0    0 -0.77970766627E-02 -0.97047513764E-01  0.75196133125E-01  0.12467766760E+00  0.20274319443E-01 0.  0.
         14    1    1    2    0    0  0.69963891210E-02 -0.25818045491E-01  0.45936618453E-02  0.27140793335E-01  0.00000000000E+00 0.  1.
     999901    1    3    3    0    0  0.80068754174E-03  0.12286555926E+00 -0.79789794970E-01  0.89211153907E+00  0.88000000000E+00 0.  1.
        -11    1    4    4    0    0  0.42726806508E-02 -0.34774156429E-01  0.18622478942E-01  0.39680670335E-01  0.51100000000E-03 0. -1.
         11    1    4    4    0    0 -0.12069757314E-01 -0.62273357335E-01  0.56573654183E-01  0.84996997264E-01  0.51100000000E-03 0.  1.
</event>
<event>
 8    1  0.1092993E+005  0.1043930E+01  0.7957747E-01            NaN
         13   -1    0    0    0    0  0.00000000000E+00  0.00000000000E+00  0.74505805969E-08  0.10566000000E+00  0.10566000000E+00 0.  1.
     999900   -1    0    0    0    0 -0.00000000000E+00 -0.00000000000E+00 -0.74505805969E-08  0.93827000000E+00  0.93827000000E+00 0.  1.
     999902    2    1    2    0    0  0.58624182397E-02  0.48224467664E-02 -0.22339895383E-01  0.10203356179E+01  0.10200627816E+01 0.  0.
     999903    2    3    3    0    0 -0.42632167583E-01 -0.68509333039E-01  0.97180406226E-01  0.12791510197E+00  0.20179482907E-01 0.  0.
         14    1    1    2    0    0 -0.58624182397E-02 -0.48224467664E-02  0.22339895383E-01  0.23594382089E-01  0.00000000000E+00 0.  1.
     999901    1    3    3    0    0  0.48494585823E-01  0.73331779805E-01 -0.11952030161E+00  0.89242051595E+00  0.88000000000E+00 0.  1.
        -11    1    4    4    0    0 -0.39098763182E-01 -0.48486155409E-01  0.79265954791E-01  0.10081157304E+00  0.51100000000E-03 0.  1.
         11    1    4    4    0    0 -0.35334044008E-02 -0.20023177630E-01  0.17914451435E-01  0.27103528926E-01  0.51100000000E-03 0. -1.
</event>
<event>
 8    1  0.1092993E+005  0.1043930E+01  0.7957747E-01            NaN
         13   -1    0    0    0    0  0.00000000000E+00  0.00000000000E+00  0.74505805969E-08  0.10566000000E+00  0.10566000000E+00 0. -1.
     999900   -1    0    0    0    0 -0.00000000000E+00 -0.00000000000E+00 -0.74505805969E-08  0.93827000000E+00  0.93827000000E+00 0. -1.
     999902    2    1    2    0    0  0.91104923776E-02  0.18116621509E-01 -0.12758364997E-01  0.10199719341E+01  0.10196905204E+01 0.  0.
     999903    2    3    3    0    0 -0.11655584060E+00  0.34403497644E-01  0.39447625310E-01  0.12936385246E+00  0.20249112440E-01 0.  0.
         14    1    1    2    0    0 -0.91104923776E-02 -0.18116621509E-01  0.12758364997E-01  0.23958065942E-01  0.00000000000E+00 0. -1.
     999901    1    3    3    0    0  0.12566633297E+00 -0.16286876135E-01 -0.52205990307E-01  0.89060808159E+00  0.88000000000E+00 0.  1.
        -11    1    4    4    0    0 -0.41573750790E-01  0.13226300606E-01  0.41573061003E-02  0.43827572343E-01  0.51100000000E-03 0.  1.
         11    1    4    4    0    0 -0.74982089805E-01  0.21177197038E-01  0.35290319210E-01  0.85536280121E-01  0.51100000000E-03 0. -1.
</event>
<event>
 8    1  0.1092993E+005  0.1043930E+01  0.7957747E-01            NaN
         13   -1    0    0    0    0  0.00000000000E+00  0.00000000000E+00  0.74505805969E-08  0.10566000000E+00  0.10566000000E+00 0.  1.
     999900   -1    0    0    0    0 -0.00000000000E+00 -0.00000000000E+00 -0.74505805969E-08  0.93827000000E+00  0.93827000000E+00 0. -1.
     999902    2    1    2    0    0  0.18416600660E-01 -0.12779911748E-01 -0.51916162337E-02  0.10209202151E+01  0.10206608816E+01 0.  0.
     999903    2    3    3    0    0  0.68112205277E-01  0.85045411096E-01 -0.71187820444E-01  0.13165369377E+00  0.19824097643E-01 0.  0.
         14    1    1    2    0    0 -0.18416600660E-01  0.12779911748E-01  0.51916162337E-02  0.23009784946E-01  0.00000000000E+00 0. -1.
     999901    1    3    3    0    0 -0.49695604617E-01 -0.97825322844E-01  0.65996204211E-01  0.88926652128E+00  0.88000000000E+00 0.  1.
        -11    1    4    4    0    0  0.66448975602E-01  0.73606628871E-01 -0.64341886498E-01  0.11820973586E+00  0.51100000000E-03 0. -1.
         11    1    4    4    0    0  0.16632296747E-02  0.11438782225E-01 -0.68459339462E-02  0.13443957912E-01  0.51100000000E-03 0.  1.
</event>
<event>
 8    1  0.1092993E+005  0.1043930E+01  0.7957747E-01            NaN
         13   -1    0    0    0    0  0.00000000000E+00  0.00000000000E+00  0.74505805969E-08  0.10566000000E+00  0.10566000000E+00 0. -1.
     999900   -1    0    0    0    0 -0.00000000000E+00 -0.00000000000E+00 -0.74505805969E-08  0.93827000000E+00  0.93827000000E+00 0.  1.
     999902    2    1    2    0    0 -0.30705992746E-02  0.22040895694E-01 -0.28333039666E-02  0.10214966036E+01  0.10212502406E+01 0.  0.
     999903    2    3    3    0    0  0.62691818487E-02 -0.72867076227E-01  0.10519714849E+00  0.12977616910E+00  0.20651890343E-01 0.  0.
         14    1    1    2    0    0  0.30705992746E-02 -0.22040895694E-01  0.28333039666E-02  0.22433396405E-01  0.00000000000E+00 0.  1.
     999901    1    3    3    0    0 -0.93397811234E-02  0.94907971921E-01 -0.10803045246E+00  0.89172043450E+00  0.88000000000E+00 0.  1.
        -11    1    4    4    0    0  0.62256406669E-02 -0.64513552031E-01  0.78512088141E-01  0.10180945979E+00  0.51100000000E-03 0. -1.
         11    1    4    4    0    0  0.43541181840E-04 -0.83535241965E-02  0.26685060354E-01  0.27966709306E-01  0.51100000000E-03 0.  1.
</event>
<event>
 8    1  0.1092993E+005  0.1043930E+01  0.7957747E-01            NaN
         13   -1    0    0    0    0  0.00000000000E+00  0.00000000000E+00  0.74505805969E-08  0.10566000000E+00  0.10566000000E+00 0. -1.
     999900   -1    0    0    0    0 -0.00000000000E+00 -0.00000000000E+00 -0.74505805969E-08  0.93827000000E+00  0.93827000000E+00 0. -1.
     999902    2    1    2    0    0  0.23759085310E-01  0.23166640886E-03 -0.42822263540E-02  0.10197869831E+01  0.10195011553E+01 0.  0.
     999903    2    3    3    0    0  0.12734033201E-01  0.10656202825E+00 -0.72107259565E-01  0.13072684294E+00  0.19298422659E-01 0.  0.
         14    1    1    2    0    0 -0.23759085310E-01 -0.23166640886E-03  0.42822263540E-02  0.24143016933E-01  0.00000000000E+00 0.  1.
     999901    1    3    3    0    0  0.11025052109E-01 -0.10633036185E+00  0.67825033211E-01  0.88906014012E+00  0.88000000000E+00 0.  1.
        -11    1    4    4    0    0  0.27068142259E-02  0.41746808375E-01 -0.39258120016E-01  0.57372327485E-01  0.51100000000E-03 0.  1.
         11    1    4    4    0    0  0.10027218975E-01  0.64815219879E-01 -0.32849139548E-01  0.73354515460E-01  0.51100000000E-03 0. -1.
</event>
<event>
 8    1  0.1092993E+005  0.1043930E+01  0.7957747E-01            NaN
         13   -1    0    0    0    0  0.00000000000E+00  0.00000000000E+00  0.74505805969E-08  0.10566000000E+00  0.10566000000E+00 0. -1.
     999900   -1    0    0    0    0 -0.00000000000E+00 -0.00000000000E+00 -0.74505805969E-08  0.93827000000E+00  0.93827000000E+00 0.  1.
     999902    2    1    2    0    0 -0.12572171959E-01  0.21546690387E-01  0.12856060636E-01  0.10158658294E+01  0.10154781070E+01 0.  0.
     999903    2    3    3    0    0  0.95178620907E-01 -0.76527364847E-01  0.77652764229E-02  0.12387105941E+00  0.19191987719E-01 0.  0.
         14    1    1    2    0    0  0.12572171959E-01 -0.21546690387E-01 -0.12856060636E-01  0.28064170565E-01  0.00000000000E+00 0.  1.
     999901    1    3    3    0    0 -0.10775079287E+00  0.98074055234E-01  0.50907842133E-02  0.89199477003E+00  0.88000000000E+00 0. -1.
        -11    1    4    4    0    0  0.77363782598E-01 -0.70860382698E-01  0.59318943683E-02  0.10507995616E+00  0.51100000000E-03 0. -1.
         11    1    4    4    0    0  0.17814838309E-01 -0.56669821497E-02  0.18333820546E-02  0.18791103251E-01  0.51100000000E-03 0.  1.
</event>
<event>
 8    1  0.1092993E+005  0.1043930E+01  0.7957747E-01            NaN
         13   -1    0    0    0    0  0.00000000000E+00  0.00000000000E+00  0.74505805969E-08  0.10566000000E+00  0.10566000000E+00 0.  1.
     999900   -1    0    0    0    0 -0.00000000000E+00 -0.00000000000E+00 -0.74505805969E-08  0.93827000000E+00  0.93827000000E+00 0. -1.
     999902    2    1    2    0    0 -0.50911667438E-02  0.17088422924E-01  0.14374991868E-01  0.10210264071E+01  0.10207694889E+01 0.  0.
     999903    2    3    3    0    0 -0.11382871218E+00 -0.60745100135E-01 -0.25630381157E-02  0.13076307079E+00  0.21106127345E-01 0.  0.
         14    1    1    2    0    0  0.50911667438E-02 -0.17088422924E-01 -0.14374991868E-01  0.22903592907E-01  0.00000000000E+00 0. -1.
     999901    1    3    3    0    0  0.10873754544E+00  0.77833523058E-01  0.16938029984E-01  0.89026333630E+00  0.88000000000E+00 0.  1.
        -11    1    4    4    0    0 -0.28216386219E-01 -0.55771407725E-02  0.17761100945E-02  0.28821600207E-01  0.51100000000E-03 0.  1.
         11    1    4    4    0    0 -0.85612325964E-01 -0.55167959362E-01 -0.43391482102E-02  0.10194147059E+00  0.51100000000E-03 0. -1.
</event>
<event>
 8    1  0.1092993E+005  0.1043930E+01  0.7957747E-01            NaN
         13   -1    0    0    0    0  0.00000000000E+00  0.00000000000E+00  0.74505805969E-08  0.10566000000E+00  0.10566000000E+00 0.  1.
     999900   -1    0    0    0    0 -0.00000000000E+00 -0.00000000000E+00 -0.74505805969E-08  0.93827000000E+00  0.93827000000E+00 0. -1.
     999902    2    1    2    0    0  0.33490429387E-02  0.14805630187E-01 -0.18774857619E-01  0.10197863041E+01  0.10195004600E+01 0.  0.
     999903    2    3    3    0    0  0.15688582434E-01 -0.35881137229E-01  0.11967236674E+00  0.12743601045E+00  0.19618199961E-01 0.  0.
         14    1    1    2    0    0 -0.33490429387E-02 -0.14805630187E-01  0.18774857619E-01  0.24143695915E-01  0.00000000000E+00 0.  1.
     999901    1    3    3    0    0 -0.12339539495E-01  0.50686767416E-01 -0.13844722436E+00  0.89235029364E+00  0.88000000000E+00 0. -1.
        -11    1    4    4    0    0  0.18947809691E-01 -0.34832230227E-01  0.10219832206E+00  0.10962236044E+00  0.51100000000E-03 0.  1.
         11    1    4    4    0    0 -0.32592272573E-02 -0.10489070018E-02  0.17474044678E-01  0.17813650008E-01  0.51100000000E-03 0. -1.
</event>
<event>
 8    1  0.1092993E+005  0.1043930E+01  0.7957747E-01            NaN
         13   -1    0    0    0    0  0.00000000000E+00  0.00000000000E+00  0.74505805969E-08  0.10566000000E+00  0.10566000000E+00 0.  1.
     999900   -1    0    0    0    0 -0.00000000000E+00 -0.00000000000E+00 -0.74505805969E-08  0.93827000000E+00  0.93827000000E+00 0.  1.
     999902    2    1    2    0    0 -0.34185438539E-02  0.23233551123E-01 -0.15419727177E-01  0.10158363650E+01  0.10154478166E+01 0.  0.
     999903    2    3    3    0    0  0.58139221125E-01  0.10528125012E+00  0.39705639223E-01  0.12816526075E+00  0.19633787662E-01 0.  0.
         14    1    1    2    0    0  0.34185438539E-02 -0.23233551123E-01  0.15419727177E-01  0.28093634975E-01  0.00000000000E+00 0.  1.
     999901    1    3    3    0    0 -0.61557764978E-01 -0.82047698996E-01 -0.55125366400E-01  0.88767110427E+00  0.88000000000E+00 0. -1.
        -11    1    4    4    0    0  0.39842831173E-01  0.85736024397E-01  0.35848927790E-01  0.10111144258E+00  0.51100000000E-03 0. -1.
         11    1    4    4    0    0  0.18296389952E-01  0.19545225722E-01  0.38567114331E-02  0.27053818176E-01  0.51100000000E-03 0.  1.
</event>
<event>
 8    1  0.1092993E+005  0.1043930E+01  0.7957747E-01            NaN
         13   -1    0    0    0    0  0.00000000000E+00  0.00000000000E+00  0.74505805969E-08  0.10566000000E+00  0.10566000000E+00 0.  1.
     999900   -1    0    0    0    0 -0.00000000000E+00 -0.00000000000E+00 -0.74505805969E-08  0.93827000000E+00  0.93827000000E+00 0.  1.
     999902    2    1    2    0    0 -0.19418244378E-01  0.12547977876E-01  0.25672091631E-02  0.10206682175E+01  0.10204031064E+01 0.  0.
     999903    2    3    3    0    0 -0.58996039373E-01 -0.41817867377E-01 -0.10778352736E+00  0.13123056815E+00  0.19362503765E-01 0.  0.
         14    1    1    2    0    0  0.19418244378E-01 -0.12547977876E-01 -0.25672091631E-02  0.23261782528E-01  0.00000000000E+00 0. -1.
     999901    1    3    3    0    0  0.39577794995E-01  0.54365845253E-01  0.11035073652E+00  0.88943764933E+00  0.88000000000E+00 0. -1.
        -11    1    4    4    0    0 -0.31264656947E-01 -0.20307319016E-01 -0.38680965479E-01  0.53724707454E-01  0.51100000000E-03 0. -1.
         11    1    4    4    0    0 -0.27731382425E-01 -0.21510548361E-01 -0.69102561881E-01  0.77505860692E-01  0.51100000000E-03 0.  1.
</event>
<event>
 8    1  0.1092993E+005  0.1043930E+01  0.7957747E-01            NaN
         13   -1    0    0    0    0  0.00000000000E+00  0.00000000000E+00  0.74505805969E-08  0.10566000000E+00  0.10566000000E+00 0. -1.
     999900   -1    0    0    0    0 -0.00000000000E+00 -0.00000000000E+00 -0.74505805969E-08  0.93827000000E+00  0.93827000000E+00 0. -1.
     999902    2    1    2    0    0  0.11757038296E-01  0.28810356722E-02  0.19540242147E-01  0.10209441483E+01  0.10206853602E+01 0.  0.
     999903    2    3    3    0    0 -0.13258875530E-01  0.11577081507E+00 -0.54797535623E-01  0.13027248968E+00  0.19735051428E-01 0.  0.
         14    1    1    2    0    0 -0.11757038296E-01 -0.28810356722E-02 -0.19540242147E-01  0.22985851718E-01  0.00000000000E+00 0.  1.
     999901    1    3    3    0    0  0.25015913826E-01 -0.11288977940E+00  0.74337777769E-01  0.89067165860E+00  0.88000000000E+00 0. -1.
        -11    1    4    4    0    0 -0.79465803535E-02  0.15420866520E-01 -0.46733841724E-02  0.17973672529E-01  0.51100000000E-03 0.  1.
         11    1    4    4    0    0 -0.53122951767E-02  0.10034994855E+00 -0.50124151450E-01  0.11229881715E+00  0.51100000000E-03 0. -1.
</event>
<event>
 8    1  0.1092993E+005  0.1043930E+01  0.7957747E-01            NaN
         13   -1    0    0    0    0  0.00000000000E+00  0.00000000000E+00  0.74505805969E-08  0.10566000000E+00  0.10566000000E+00 0. -1.
     999900   -1    0    0    0    0 -0.00000000000E+00 -0.00000000000E+00 -0.74505805969E-08  0.93827000000E+00  0.93827000000E+00 0.  1.
     999902    2    1    2    0    0 -0.71778148244E-02  0.38734419201E-02 -0.23155624809E-01  0.10193798974E+01  0.10190842299E+01 0.  0.
     999903    2    3    3    0    0 -0.11539299147E+00  0.58331026306E-01 -0.92021546179E-02  0.13097072798E+00  0.18724337848E-01 0.  0.
         14    1    1    2    0    0  0.71778148244E-02 -0.38734419201E-02  0.23155624809E-01  0.24550102612E-01  0.00000000000E+00 0. -1.
     999901    1    3    3    0    0  0.10821517665E+00 -0.54457584385E-01 -0.13953470191E-01  0.88840916941E+00  0.88000000000E+00 0. -1.
        -11    1    4    4    0    0 -0.99722865398E-01  0.45860569538E-01 -0.23198324998E-02  0.10978836216E+00  0.51100000000E-03 0. -1.
         11    1    4    4    0    0 -0.15670126074E-01  0.12470456767E-01 -0.68823221181E-02  0.21182365824E-01  0.51100000000E-03 0.  1.
</event>
<event>
 8    1  0.1092993E+005  0.1043930E+01  0.7957747E-01            NaN
         13   -1    0    0    0    0  0.00000000000E+00  0.00000000000E+00  0.74505805969E-08  0.10566000000E+00  0.10566000000E+00 0.  1.
     999900   -1    0    0    0    0 -0.00000000000E+00 -0.00000000000E+00 -0.74505805969E-08  0.93827000000E+00  0.93827000000E+00 0. -1.
     999902    2    1    2    0    0  0.24417586012E-01 -0.15081074575E-01  0.85799534224E-02  0.10139754859E+01  0.10135329363E+01 0.  0.
     999903    2    3    3    0    0  0.74421003197E-01  0.49536837541E-02 -0.99580395454E-01  0.12571854423E+00  0.18051939099E-01 0.  0.
         14    1    1    2    0    0 -0.24417586012E-01  0.15081074575E-01 -0.85799534224E-02  0.29954514146E-01  0.00000000000E+00 0.  1.
     999901    1    3    3    0    0 -0.50003417185E-01 -0.20034758329E-01  0.10816034888E+00  0.88825694162E+00  0.88000000000E+00 0.  1.
        -11    1    4    4    0    0  0.31767447906E-01  0.95676906664E-02 -0.51650132032E-01  0.61389809505E-01  0.51100000000E-03 0. -1.
         11    1    4    4    0    0  0.42653555292E-01 -0.46140069123E-02 -0.47930263422E-01  0.64328734727E-01  0.51100000000E-03 0.  1.
</event>
<event>
 8    1  0.1092993E+005  0.1043930E+01  0.7957747E-01            NaN
         13   -1    0    0    0    0  0.00000000000E+00  0.00000000000E+00  0.74505805969E-08  0.10566000000E+00  0.10566000000E+00 0. -1.
     999900   -1    0    0    0    0 -0.00000000000E+00 -0.00000000000E+00 -0.74505805969E-08  0.93827000000E+00  0.93827000000E+00 0. -1.
     999902    2    1    2    0    0  0.18919867379E-01 -0.95599127817E-02  0.10093423132E-01  0.10204517014E+01  0.10201815742E+01 0.  0.
     999903    2    3    3    0    0 -0.36137487258E-01 -0.16231205790E-01  0.12419077895E+00  0.13135439231E+00  0.16163439466E-01 0.  0.
         14    1    1    2    0    0 -0.18919867379E-01  0.95599127817E-02 -0.10093423132E-01  0.23478298587E-01  0.00000000000E+00 0.  1.
     999901    1    3    3    0    0  0.55057354636E-01  0.66712930085E-02 -0.11409735582E+00  0.88909730910E+00  0.88000000000E+00 0. -1.
        -11    1    4    4    0    0 -0.14472856846E-01 -0.15161699981E-01  0.56080758487E-01  0.59871974454E-01  0.51100000000E-03 0. -1.
         11    1    4    4    0    0 -0.21664630412E-01 -0.10695058097E-02  0.68110020466E-01  0.71482417855E-01  0.51100000000E-03 0.  1.
</event>
<event>
 8    1  0.1092993E+005  0.1043930E+01  0.7957747E-01            NaN
         13   -1    0    0    0    0  0.00000000000E+00  0.00000000000E+00  0.74505805969E-08  0.10566000000E+00  0.10566000000E+00 0. -1.
     999900   -1    0    0    0    0 -0.00000000000E+00 -0.00000000000E+00 -0.74505805969E-08  0.93827000000E+00  0.93827000000E+00 0. -1.
     999902    2    1    2    0    0  0.17324105649E-02 -0.15568868465E-01 -0.16699757108E-01  0.10210329958E+01  0.10207762271E+01 0.  0.
     999903    2    3    3    0    0  0.83817719227E-01  0.40586349526E-01  0.87720517900E-01  0.12929592684E+00  0.18705229568E-01 0.  0.
         14    1    1    2    0    0 -0.17324105649E-02  0.15568868465E-01  0.16699757108E-01  0.22897004152E-01  0.00000000000E+00 0. -1.
     999901    1    3    3    0    0 -0.82085308662E-01 -0.56155217991E-01 -0.10442027501E+00  0.89173706901E+00  0.88000000000E+00 0. -1.
        -11    1    4    4    0    0  0.70541450642E-01  0.25911422377E-01  0.67891138142E-01  0.10127667958E+00  0.51100000000E-03 0. -1.
         11    1    4    4    0    0  0.13276268585E-01  0.14674927149E-01  0.19829379758E-01  0.28019247259E-01  0.51100000000E-03 0.  1.
</event>
<event>
 8    1  0.1092993E+005  0.1043930E+01  0.7957747E-01            NaN
         13   -1    0    0    0    0  0.00000000000E+00  0.00000000000E+00  0.74505805969E-08  0.10566000000E+00  0.10566000000E+00 0. -1.
     999900   -1    0    0    0    0 -0.00000000000E+00 -0.00000000000E+00 -0.74505805969E-08  0.93827000000E+00  0.93827000000E+00 0. -1.
     999902    2    1    2    0    0 -0.28437767571E-02 -0.28009599201E-02 -0.23076070851E-01  0.10205112577E+01  0.10202425151E+01 0.  0.
     999903    2    3    3    0    0  0.61708538461E-01  0.10352849901E+00  0.42344332874E-01  0.12935875427E+00  0.20360524370E-01 0.  0.
         14    1    1    2    0    0  0.28437767571E-02  0.28009599201E-02  0.23076070851E-01  0.23418742251E-01  0.00000000000E+00 0. -1.
     999901    1    3    3    0    0 -0.64552315218E-01 -0.10632945893E+00 -0.65420403724E-01  0.89115250348E+00  0.88000000000E+00 0. -1.
        -11    1    4    4    0    0  0.80895989750E-02  0.45238510810E-02  0.69212246077E-03  0.93084367474E-02  0.51100000000E-03 0. -1.
         11    1    4    4    0    0  0.53618939486E-01  0.99004647931E-01  0.41652210413E-01  0.12005031752E+00  0.51100000000E-03 0.  1.
</event>
<event>
 8    1  0.1092993E+005  0.1043930E+01  0.7957747E-01            NaN
         13   -1    0    0    0    0  0.00000000000E+00  0.00000000000E+00  0.74505805969E-08  0.10566000000E+00  0.10566000000E+00 0. -1.
     999900   -1    0    0    0    0 -0.00000000000E+00 -0.00000000000E+00 -0.74505805969E-08  0.93827000000E+00  0.93827000000E+00 0.  1.
     999902    2    1    2    0    0 -0.20948532703E-01 -0.68062460057E-02  0.75662448791E-02  0.10206402154E+01  0.10203744583E+01 0.  0.
     999903    2    3    3    0    0  0.10748082281E+00  0.35779566005E-01  0.58050558298E-01  0.12886876670E+00  0.20124291176E-01 0.  0.
         14    1    1    2    0    0  0.20948532703E-01  0.68062460057E-02 -0.75662448791E-02  0.23289784642E-01  0.00000000000E+00 0.  1.
     999901    1    3    3    0    0 -0.12842935552E+00 -0.42585812010E-01 -0.50484313419E-01  0.89177144866E+00  0.88000000000E+00 0. -1.
        -11    1    4    4    0    0  0.76432598009E-01  0.19688125285E-01  0.31604819073E-01  0.85021703260E-01  0.51100000000E-03 0.  1.
         11    1    4    4    0    0  0.31048224806E-01  0.16091440719E-01  0.26445739225E-01  0.43847063439E-01  0.51100000000E-03 0. -1.
</event>
<event>
 8    1  0.1092993E+005  0.1043930E+01  0.7957747E-01            NaN
         13   -1    0    0    0    0  0.00000000000E+00  0.00000000000E+00  0.74505805969E-08  0.10566000000E+00  0.10566000000E+00 0.  1.
     999900   -1    0    0    0    0 -0.00000000000E+00 -0.00000000000E+00 -0.74505805969E-08  0.93827000000E+00  0.93827000000E+00 0.  1.
     999902    2    1    2    0    0  0.19441379692E-01  0.13949775521E-01  0.14083919125E-02  0.10199602889E+01  0.10196785983E+01 0.  0.
     999903    2    3    3    0    0  0.93693218114E-01 -0.69811513574E-01  0.55137046908E-01  0.13124432900E+00  0.23084917236E-01 0.  0.
         14    1    1    2    0    0 -0.19441379692E-01 -0.13949775521E-01 -0.14083919125E-02  0.23969711079E-01  0.00000000000E+00 0.  1.
     999901    1    3    3    0    0 -0.74251838422E-01  0.83761289095E-01 -0.53728654995E-01  0.88871595993E+00  0.88000000000E+00 0.  1.
        -11    1    4    4    0    0  0.13835772258E-01 -0.19779780069E-02  0.97937580557E-02  0.17073951178E-01  0.51100000000E-03 0. -1.
         11    1    4    4    0    0  0.79857445855E-01 -0.67833535567E-01  0.45343288852E-01  0.11417037782E+00  0.51100000000E-03 0.  1.
</event>
<event>
 8    1  0.1092993E+005  0.1043930E+01  0.7957747E-01            NaN
         13   -1    0    0    0    0  0.00000000000E+00  0.00000000000E+00  0.74505805969E-08  0.10566000000E+00  0.10566000000E+00 0. -1.
     999900   -1    0    0    0    0 -0.00000000000E+00 -0.00000000000E+00 -0.74505805969E-08  0.93827000000E+00  0.93827000000E+00 0. -1.
     999902    2    1    2    0    0  0.19675984692E-01 -0.10801981811E-01  0.78973200259E-02  0.10201351508E+01  0.10198576033E+01 0.  0.
     999903    2    3    3    0    0  0.36836130666E-01  0.12273180008E+00 -0.52935724096E-02  0.12979828132E+00  0.19989413512E-01 0.  0.
         14    1    1    2    0    0 -0.19675984692E-01  0.10801981811E-01 -0.78973200259E-02  0.23794849196E-01  0.00000000000E+00 0.  1.
     999901    1    3    3    0    0 -0.17160145973E-01 -0.13353378189E+00  0.13190892436E-01  0.89033686948E+00  0.88000000000E+00 0. -1.
        -11    1    4    4    0    0  0.82420999742E-02  0.58767095419E-01 -0.66684483906E-02  0.59717945719E-01  0.51100000000E-03 0. -1.
         11    1    4    4    0    0  0.28594030691E-01  0.63964704660E-01  0.13748759810E-02  0.70080335604E-01  0.51100000000E-03 0.  1.
</event>
<event>
 8    1  0.1119815E+005  0.1043930E+01  0.7957747E-01            NaN
         13   -1    0    0    0    0  0.00000000000E+00  0.00000000000E+00  0.74505805969E-08  0.10566000000E+00  0.10566000000E+00 0. -1.
     999900   -1    0    0    0    0 -0.00000000000E+00 -0.00000000000E+00 -0.74505805969E-08  0.93827000000E+00  0.93827000000E+00 0. -1.
     999902    2    1    2    0    0  0.12906790961E-01  0.15372363800E-01 -0.12363120462E-01  0.10203558283E+01  0.10200834647E+01 0.  0.
     999903    2    3    3    0    0 -0.11360425767E+00  0.38935087055E-01 -0.46676188229E-01  0.13033468591E+00  0.19662030424E-01 0.  0.
         14    1    1    2    0    0 -0.12906790961E-01 -0.15372363800E-01  0.12363120462E-01  0.23574171656E-01  0.00000000000E+00 0. -1.
     999901    1    3    3    0    0  0.12651104863E+00 -0.23562723255E-01  0.34313067767E-01  0.89002114243E+00  0.88000000000E+00 0.  1.
        -11    1    4    4    0    0 -0.32001874659E-01  0.12105515881E-01 -0.41078380192E-02  0.34464459239E-01  0.51100000000E-03 0.  1.
         11    1    4    4    0    0 -0.81602383010E-01  0.26829571174E-01 -0.42568350209E-01  0.95870226676E-01  0.51100000000E-03 0. -1.
</event>
<event>
 8    1  0.1092993E+005  0.1043930E+01  0.7957747E-01            NaN
         13   -1    0    0    0    0  0.00000000000E+00  0.00000000000E+00  0.74505805969E-08  0.10566000000E+00  0.10566000000E+00 0. -1.
     999900   -1    0    0    0    0 -0.00000000000E+00 -0.00000000000E+00 -0.74505805969E-08  0.93827000000E+00  0.93827000000E+00 0.  1.
     999902    2    1    2    0    0  0.86735781496E-02  0.29037635087E-02 -0.21542909187E-01  0.10205257325E+01  0.10202573259E+01 0.  0.
     999903    2    3    3    0    0 -0.95554161036E-01  0.65053218798E-02  0.82814374691E-01  0.12824391854E+00  0.20380507450E-01 0.  0.
         14    1    1    2    0    0 -0.86735781496E-02 -0.29037635087E-02  0.21542909187E-01  0.23404267488E-01  0.00000000000E+00 0. -1.
     999901    1    3    3    0    0  0.10422773919E+00 -0.36015583711E-02 -0.10435728388E+00  0.89228181397E+00  0.88000000000E+00 0.  1.
        -11    1    4    4    0    0 -0.29238053209E-01  0.87369477668E-02  0.35107036861E-01  0.46518417534E-01  0.51100000000E-03 0. -1.
         11    1    4    4    0    0 -0.66316107827E-01 -0.22316258870E-02  0.47707337830E-01  0.81725501010E-01  0.51100000000E-03 0.  1.
</event>
<event>
 8    1  0.1092993E+005  0.1043930E+01  0.7957747E-01            NaN
         13   -1    0    0    0    0  0.00000000000E+00  0.00000000000E+00  0.74505805969E-08  0.10566000000E+00  0.10566000000E+00 0.  1.
     999900   -1    0    0    0    0 -0.00000000000E+00 -0.00000000000E+00 -0.74505805969E-08  0.93827000000E+00  0.93827000000E+00 0.  1.
     999902    2    1    2    0    0  0.14144224107E-01  0.11208818601E-01  0.14465334205E-01  0.10208011742E+01  0.10205391196E+01 0.  0.
     999903    2    3    3    0    0 -0.58090923063E-01  0.56841825818E-01 -0.98657888157E-01  0.12945547734E+00  0.20488855857E-01 0.  0.
         14    1    1    2    0    0 -0.14144224107E-01 -0.11208818601E-01 -0.14465334205E-01  0.23128825817E-01  0.00000000000E+00 0. -1.
     999901    1    3    3    0    0  0.72235147170E-01 -0.45633007217E-01  0.11312322236E+00  0.89134569684E+00  0.88000000000E+00 0. -1.
        -11    1    4    4    0    0 -0.52281350228E-01  0.46838599273E-01 -0.93137208219E-01  0.11662758953E+00  0.51100000000E-03 0. -1.
         11    1    4    4    0    0 -0.58095728350E-02  0.10003226545E-01 -0.55206799378E-02  0.12827887816E-01  0.51100000000E-03 0.  1.
</event>
<event>
 8    1  0.1092993E+005  0.1043930E+01  0.7957747E-01            NaN
         13   -1    0    0    0    0  0.00000000000E+00  0.00000000000E+00  0.74505805969E-08  0.10566000000E+00  0.10566000000E+00 0.  1.
     999900   -1    0    0    0    0 -0.00000000000E+00 -0.00000000000E+00 -0.74505805969E-08  0.93827000000E+00  0.93827000000E+00 0.  1.
     999902    2    1    2    0    0 -0.86645230018E-02 -0.65430028433E-02  0.19480410096E-01  0.10216281789E+01  0.10213847291E+01 0.  0.
     999903    2    3    3    0    0 -0.85633300820E-01  0.48183331359E-01  0.88698946517E-01  0.13387237344E+00  0.19990338352E-01 0.  0.
         14    1    1    2    0    0  0.86645230018E-02  0.65430028433E-02 -0.19480410096E-01  0.22301821059E-01  0.00000000000E+00 0.  1.
     999901    1    3    3    0    0  0.76968777818E-01 -0.54726334202E-01 -0.69218536422E-01  0.88775580550E+00  0.88000000000E+00 0.  1.
        -11    1    4    4    0    0 -0.42079068957E-01  0.26153725528E-01  0.57680153243E-01  0.76038980809E-01  0.51100000000E-03 0.  1.
         11    1    4    4    0    0 -0.43554231863E-01  0.22029605831E-01  0.31018793275E-01  0.57833392633E-01  0.51100000000E-03 0. -1.
</event>
<event>
 8    1  0.1092993E+005  0.1043930E+01  0.7957747E-01            NaN
         13   -1    0    0    0    0  0.00000000000E+00  0.00000000000E+00  0.74505805969E-08  0.10566000000E+00  0.10566000000E+00 0.  1.
     999900   -1    0    0    0    0 -0.00000000000E+00 -0.00000000000E+00 -0.74505805969E-08  0.93827000000E+00  0.93827000000E+00 0. -1.
     999902    2    1    2    0    0 -0.16457361233E-01  0.41897871614E-02  0.14896030827E-01  0.10213403831E+01  0.10210905383E+01 0.  0.
     999903    2    3    3    0    0  0.83873109562E-01  0.83565051507E-01 -0.49286658106E-01  0.12977655844E+00  0.19873704054E-01 0.  0.
         14    1    1    2    0    0  0.16457361233E-01 -0.41897871614E-02 -0.14896030827E-01  0.22589616855E-01  0.00000000000E+00 0. -1.
     999901    1    3    3    0    0 -0.10033047080E+00 -0.79375264346E-01  0.64182688934E-01  0.89156382470E+00  0.88000000000E+00 0.  1.
        -11    1    4    4    0    0  0.58990213102E-01  0.61748937646E-01 -0.44618419320E-01  0.96352690704E-01  0.51100000000E-03 0.  1.
         11    1    4    4    0    0  0.24882896460E-01  0.21816113862E-01 -0.46682387866E-02  0.33423867739E-01  0.51100000000E-03 0. -1.
</event>
<event>
 8    1  0.1092993E+005  0.1043930E+01  0.7957747E-01            NaN
         13   -1    0    0    0    0  0.00000000000E+00  0.00000000000E+00  0.74505805969E-08  0.10566000000E+00  0.10566000000E+00 0. -1.
     999900   -1    0    0    0    0 -0.00000000000E+00 -0.00000000000E+00 -0.74505805969E-08  0.93827000000E+00  0.93827000000E+00 0.  1.
     999902    2    1    2    0    0  0.13009775740E-01  0.17641366815E-01  0.11080087345E-01  0.10193690468E+01  0.10190731147E+01 0.  0.
     999903    2    3    3    0    0 -0.84453751904E-01  0.13749595529E-01 -0.93224786361E-01  0.12785696509E+00  0.18304511526E-01 0.  0.
         14    1    1    2    0    0 -0.13009775740E-01 -0.17641366815E-01 -0.11080087345E-01  0.24560953228E-01  0.00000000000E+00 0. -1.
     999901    1    3    3    0    0  0.97463527645E-01  0.38917712860E-02  0.10430487371E+00  0.89151208168E+00  0.88000000000E+00 0. -1.
        -11    1    4    4    0    0 -0.56783120056E-01  0.58964529288E-02 -0.49750417735E-01  0.75726191415E-01  0.51100000000E-03 0.  1.
         11    1    4    4    0    0 -0.27670631849E-01  0.78531425998E-02 -0.43474368626E-01  0.52130773676E-01  0.51100000000E-03 0. -1.
</event>
<event>
 8    1  0.1092993E+005  0.1043930E+01  0.7957747E-01            NaN
         13   -1    0    0    0    0  0.00000000000E+00  0.00000000000E+00  0.74505805969E-08  0.10566000000E+00  0.10566000000E+00 0.  1.
     999900   -1    0    0    0    0 -0.00000000000E+00 -0.00000000000E+00 -0.74505805969E-08  0.93827000000E+00  0.93827000000E+00 0.  1.
     999902    2    1    2    0    0  0.35864097977E-02  0.18859458920E-01  0.16492833266E-01  0.10186208105E+01  0.10183063392E+01 0.  0.
     999903    2    3    3    0    0 -0.75578885696E-01  0.14750116564E-01 -0.99554098877E-01  0.12746935242E+00  0.20191168908E-01 0.  0.
         14    1    1    2    0    0 -0.35864097977E-02 -0.18859458920E-01 -0.16492833266E-01  0.25309189539E-01  0.00000000000E+00 0. -1.
     999901    1    3    3    0    0  0.79165295494E-01  0.41093423560E-02  0.11604693214E+00  0.89115145804E+00  0.88000000000E+00 0.  1.
        -11    1    4    4    0    0 -0.63081364519E-01  0.61708392794E-02 -0.71293848047E-01  0.95396077998E-01  0.51100000000E-03 0.  1.
         11    1    4    4    0    0 -0.12497521177E-01  0.85792772849E-02 -0.28260250830E-01  0.32073274424E-01  0.51100000000E-03 0. -1.
</event>
<event>
 8    1  0.1092993E+005  0.1043930E+01  0.7957747E-01            NaN
         13   -1    0    0    0    0  0.00000000000E+00  0.00000000000E+00  0.74505805969E-08  0.10566000000E+00  0.10566000000E+00 0.  1.
     999900   -1    0    0    0    0 -0.00000000000E+00 -0.00000000000E+00 -0.74505805969E-08  0.93827000000E+00  0.93827000000E+00 0.  1.
     999902    2    1    2    0    0 -0.25465355309E-01 -0.30250720979E-02  0.59459845573E-02  0.10176052946E+01  0.10172647372E+01 0.  0.
     999903    2    3    3    0    0  0.11706100433E+00 -0.27925042953E-01 -0.27820716485E-01  0.12515139560E+00  0.20144299294E-01 0.  0.
         14    1    1    2    0    0  0.25465355309E-01  0.30250720979E-02 -0.59459845573E-02  0.26324705403E-01  0.00000000000E+00 0. -1.
     999901    1    3    3    0    0 -0.14252635964E+00  0.24899970856E-01  0.33766701043E-01  0.89245389900E+00  0.88000000000E+00 0.  1.
        -11    1    4    4    0    0  0.36748606558E-01 -0.25050493716E-02 -0.15697974787E-01  0.40042763263E-01  0.51100000000E-03 0.  1.
         11    1    4    4    0    0  0.80312397777E-01 -0.25419993582E-01 -0.12122741699E-01  0.85108632333E-01  0.51100000000E-03 0. -1.
</event>
<event>
 8    1  0.1092993E+005  0.1043930E+01  0.7957747E-01            NaN
         13   -1    0    0    0    0  0.00000000000E+00  0.00000000000E+00  0.74505805969E-08  0.10566000000E+00  0.10566000000E+00 0. -1.
     999900   -1    0    0    0    0 -0.00000000000E+00 -0.00000000000E+00 -0.74505805969E-08  0.93827000000E+00  0.93827000000E+00 0.  1.
     999902    2    1    2    0    0  0.11562486042E-01  0.39308385261E-02  0.22027866740E-01  0.10187433073E+01  0.10184319107E+01 0.  0.
     999903    2    3    3    0    0  0.76613974532E-01  0.74324736892E-01  0.75047538851E-01  0.13195241725E+00  0.19632618847E-01 0.  0.
         14    1    1    2    0    0 -0.11562486042E-01 -0.39308385261E-02 -0.22027866740E-01  0.25186692679E-01  0.00000000000E+00 0.  1.
     999901    1    3    3    0    0 -0.65051488490E-01 -0.70393898365E-01 -0.53019672111E-01  0.88679089007E+00  0.88000000000E+00 0.  1.
        -11    1    4    4    0    0  0.44617925181E-01  0.49363385272E-01  0.36100555761E-01  0.75703462934E-01  0.51100000000E-03 0.  1.
         11    1    4    4    0    0  0.31996049351E-01  0.24961351620E-01  0.38946983090E-01  0.56248954316E-01  0.51100000000E-03 0. -1.
</event>
<event>
 8    1  0.1092993E+005  0.1043930E+01  0.7957747E-01            NaN
         13   -1    0    0    0    0  0.00000000000E+00  0.00000000000E+00  0.74505805969E-08  0.10566000000E+00  0.10566000000E+00 0.  1.
     999900   -1    0    0    0    0 -0.00000000000E+00 -0.00000000000E+00 -0.74505805969E-08  0.93827000000E+00  0.93827000000E+00 0. -1.
     999902    2    1    2    0    0  0.15351615899E-01  0.11589011481E-01 -0.14352984804E-01  0.10199303027E+01  0.10196478985E+01 0.  0.
     999903    2    3    3    0    0  0.85010847754E-01  0.89886969992E-01 -0.44356226335E-01  0.13320420441E+00  0.21665032804E-01 0.  0.
         14    1    1    2    0    0 -0.15351615899E-01 -0.11589011481E-01  0.14352984804E-01  0.23999697303E-01  0.00000000000E+00 0. -1.
     999901    1    3    3    0    0 -0.69659231855E-01 -0.78297958511E-01  0.30003241531E-01  0.88672609829E+00  0.88000000000E+00 0.  1.
        -11    1    4    4    0    0  0.67087252676E-01  0.72217285350E-01 -0.44205360858E-01  0.10802967567E+00  0.51100000000E-03 0. -1.
         11    1    4    4    0    0  0.17923595078E-01  0.17669684642E-01 -0.15086547757E-03  0.25174528739E-01  0.51100000000E-03 0.  1.
</event>
<event>
 8    1  0.1092993E+005  0.1043930E+01  0.7957747E-01            NaN
         13   -1    0    0    0    0  0.00000000000E+00  0.00000000000E+00  0.74505805969E-08  0.10566000000E+00  0.10566000000E+00 0.  1.
     999900   -1    0    0    0    0 -0.00000000000E+00 -0.00000000000E+00 -0.74505805969E-08  0.93827000000E+00  0.93827000000E+00 0. -1.
     999902    2    1    2    0    0  0.23826825398E-01  0.40910798939E-02  0.66925128921E-03  0.10197452436E+01  0.10194584148E+01 0.  0.
     999903    2    3    3    0    0  0.83037654586E-01 -0.19965762784E-01  0.99138662615E-01  0.13194972723E+00  0.16981529055E-01 0.  0.
         14    1    1    2    0    0 -0.23826825398E-01 -0.40910798939E-02 -0.66925128921E-03  0.24184756367E-01  0.00000000000E+00 0. -1.
     999901    1    3    3    0    0 -0.59210829188E-01  0.24056842678E-01 -0.98469411326E-01  0.88779551640E+00  0.88000000000E+00 0.  1.
        -11    1    4    4    0    0  0.36007938306E-01 -0.88575044970E-03  0.46589522231E-01  0.58891432973E-01  0.51100000000E-03 0. -1.
         11    1    4    4    0    0  0.47029716279E-01 -0.19080012334E-01  0.52549140384E-01  0.73058294259E-01  0.51100000000E-03 0.  1.
</event>
<event>
 8    1  0.1092993E+005  0.1043930E+01  0.7957747E-01            NaN
         13   -1    0    0    0    0  0.00000000000E+00  0.00000000000E+00  0.74505805969E-08  0.10566000000E+00  0.10566000000E+00 0.  1.
     999900   -1    0    0    0    0 -0.00000000000E+00 -0.00000000000E+00 -0.74505805969E-08  0.93827000000E+00  0.93827000000E+00 0. -1.
     999902    2    1    2    0    0  0.15882324613E-01 -0.54497818465E-02  0.17561904345E-01  0.10196324931E+01  0.10193429512E+01 0.  0.
     999903    2    3    3    0    0 -0.77156194733E-02  0.10244806932E+00 -0.73698530409E-01  0.12804555051E+00  0.20225032217E-01 0.  0.
         14    1    1    2    0    0 -0.15882324613E-01  0.54497818465E-02 -0.17561904345E-01  0.24297506899E-01  0.00000000000E+00 0. -1.
     999901    1    3    3    0    0  0.23597944087E-01 -0.10789785117E+00  0.91260434754E-01  0.89158694259E+00  0.88000000000E+00 0.  1.
        -11    1    4    4    0    0  0.63311050260E-02  0.25036096258E-01 -0.21727355084E-01  0.33752453047E-01  0.51100000000E-03 0.  1.
         11    1    4    4    0    0 -0.14046724499E-01  0.77411973065E-01 -0.51971175325E-01  0.94293097460E-01  0.51100000000E-03 0. -1.
</event>
<event>
 8    1  0.1092993E+005  0.1043930E+01  0.7957747E-01            NaN
         13   -1    0    0    0    0  0.00000000000E+00  0.00000000000E+00  0.74505805969E-08  0.10566000000E+00  0.10566000000E+00 0.  1.
     999900   -1    0    0    0    0 -0.00000000000E+00 -0.00000000000E+00 -0.74505805969E-08  0.93827000000E+00  0.93827000000E+00 0.  1.
     999902    2    1    2    0    0  0.15672476397E-01 -0.10267446957E-01 -0.61883305950E-02  0.10241982383E+01  0.10240081489E+01 0.  0.
     999903    2    3    3    0    0  0.42787526982E-01 -0.57712197085E-02  0.12529727786E+00  0.13400505296E+00  0.19846081193E-01 0.  0.
         14    1    1    2    0    0 -0.15672476397E-01  0.10267446957E-01  0.61883305950E-02  0.19731761680E-01  0.00000000000E+00 0.  1.
     999901    1    3    3    0    0 -0.27115050585E-01 -0.44962272486E-02 -0.13148560845E+00  0.89019318536E+00  0.88000000000E+00 0.  1.
        -11    1    4    4    0    0  0.18019566828E-01 -0.32793620755E-02  0.82337998459E-01  0.84352036819E-01  0.51100000000E-03 0. -1.
         11    1    4    4    0    0  0.24767960154E-01 -0.24918576330E-02  0.42959279398E-01  0.49653016143E-01  0.51100000000E-03 0.  1.
</event>
<event>
 8    1  0.1137136E+005  0.1043930E+01  0.7957747E-01            NaN
         13   -1    0    0    0    0  0.00000000000E+00  0.00000000000E+00  0.74505805969E-08  0.10566000000E+00  0.10566000000E+00 0.  1.
     999900   -1    0    0    0    0 -0.00000000000E+00 -0.00000000000E+00 -0.74505805969E-08  0.93827000000E+00  0.93827000000E+00 0.  1.
     999902    2    1    2    0    0  0.13812147715E-01  0.17425663612E-01  0.84193300865E-02  0.10201536610E+01  0.10198765503E+01 0.  0.
     999903    2    3    3    0    0  0.77848304754E-01 -0.56165015367E-01  0.87308538427E-01  0.13125562150E+00  0.19758284074E-01 0.  0.
         14    1    1    2    0    0 -0.13812147715E-01 -0.17425663612E-01 -0.84193300865E-02  0.23776338994E-01  0.00000000000E+00 0. -1.
     999901    1    3    3    0    0 -0.64036157039E-01  0.73590678980E-01 -0.78889208340E-01  0.88889803950E+00  0.88000000000E+00 0.  1.
        -11    1    4    4    0    0  0.35993555880E-01 -0.37541533813E-01  0.42427492864E-01  0.67121204530E-01  0.51100000000E-03 0. -1.
         11    1    4    4    0    0  0.41854748875E-01 -0.18623481554E-01  0.44881045563E-01  0.64134416972E-01  0.51100000000E-03 0.  1.
</event>
<event>
 8    1  0.1534225E+005  0.1043930E+01  0.7957747E-01            NaN
         13   -1    0    0    0    0  0.00000000000E+00  0.00000000000E+00  0.74505805969E-08  0.10566000000E+00  0.10566000000E+00 0.  1.
     999900   -1    0    0    0    0 -0.00000000000E+00 -0.00000000000E+00 -0.74505805969E-08  0.93827000000E+00  0.93827000000E+00 0.  1.
     999902    2    1    2    0    0 -0.18807848907E-01 -0.13332380413E-01  0.48173835670E-02  0.10203780419E+01  0.10201061972E+01 0.  0.
     999903    2    3    3    0    0 -0.11561707074E-02 -0.26531718938E-01 -0.12613079570E+00  0.13041555392E+00  0.19848683584E-01 0.  0.
         14    1    1    2    0    0  0.18807848907E-01  0.13332380413E-01 -0.48173835670E-02  0.23551958144E-01  0.00000000000E+00 0.  1.
     999901    1    3    3    0    0 -0.17651678200E-01  0.13199338525E-01  0.13094817927E+00  0.88996248794E+00  0.88000000000E+00 0. -1.
        -11    1    4    4    0    0  0.36535000131E-03 -0.23500094657E-01 -0.63847616163E-01  0.68037983070E-01  0.51100000000E-03 0.  1.
         11    1    4    4    0    0 -0.15215207087E-02 -0.30316242813E-02 -0.62283179535E-01  0.62377570849E-01  0.51100000000E-03 0. -1.
</event>
<event>
 8    1  0.1092993E+005  0.1043930E+01  0.7957747E-01            NaN
         13   -1    0    0    0    0  0.00000000000E+00  0.00000000000E+00  0.74505805969E-08  0.10566000000E+00  0.10566000000E+00 0. -1.
     999900   -1    0    0    0    0 -0.00000000000E+00 -0.00000000000E+00 -0.74505805969E-08  0.93827000000E+00  0.93827000000E+00 0.  1.
     999902    2    1    2    0    0 -0.46512143917E-02 -0.11401840057E-01 -0.20566343486E-01  0.10199589709E+01  0.10196772490E+01 0.  0.
     999903    2    3    3    0    0 -0.25126601202E-01 -0.53060090577E-01  0.11264871629E+00  0.12872336599E+00  0.20814715210E-01 0.  0.
         14    1    1    2    0    0  0.46512143917E-02  0.11401840057E-01  0.20566343486E-01  0.23971029106E-01  0.00000000000E+00 0.  1.
     999901    1    3    3    0    0  0.20475386810E-01  0.41658250519E-01 -0.13321505978E+00  0.89123560491E+00  0.88000000000E+00 0.  1.
        -11    1    4    4    0    0 -0.14231305442E-01 -0.13442187112E-01  0.23714965397E-01  0.30755213440E-01  0.51100000000E-03 0.  1.
         11    1    4    4    0    0 -0.10895295760E-01 -0.39617903465E-01  0.88933750893E-01  0.97968152547E-01  0.51100000000E-03 0. -1.
</event>
<event>
 8    1  0.1092993E+005  0.1043930E+01  0.7957747E-01            NaN
         13   -1    0    0    0    0  0.00000000000E+00  0.00000000000E+00  0.74505805969E-08  0.10566000000E+00  0.10566000000E+00 0. -1.
     999900   -1    0    0    0    0 -0.00000000000E+00 -0.00000000000E+00 -0.74505805969E-08  0.93827000000E+00  0.93827000000E+00 0.  1.
     999902    2    1    2    0    0 -0.11425373715E-01 -0.13993228567E-01  0.14793634345E-01  0.10205804555E+01  0.10203133171E+01 0.  0.
     999903    2    3    3    0    0  0.48308035314E-01  0.11130358256E+00  0.39693908728E-01  0.12935242931E+00  0.20839645213E-01 0.  0.
         14    1    1    2    0    0  0.11425373715E-01  0.13993228567E-01 -0.14793634345E-01  0.23349544479E-01  0.00000000000E+00 0.  1.
     999901    1    3    3    0    0 -0.59733409028E-01 -0.12529681113E+00 -0.24900274383E-01  0.89122802621E+00  0.88000000000E+00 0.  1.
        -11    1    4    4    0    0  0.32636156043E-01  0.50865882791E-01  0.15530001437E-01  0.62401112001E-01  0.51100000000E-03 0. -1.
         11    1    4    4    0    0  0.15671879270E-01  0.60437699769E-01  0.24163907291E-01  0.66951317312E-01  0.51100000000E-03 0.  1.
</event>
<event>
 8    1  0.1092993E+005  0.1043930E+01  0.7957747E-01            NaN
         13   -1    0    0    0    0  0.00000000000E+00  0.00000000000E+00  0.74505805969E-08  0.10566000000E+00  0.10566000000E+00 0. -1.
     999900   -1    0    0    0    0 -0.00000000000E+00 -0.00000000000E+00 -0.74505805969E-08  0.93827000000E+00  0.93827000000E+00 0. -1.
     999902    2    1    2    0    0 -0.10023872040E-01  0.17590746973E-01 -0.13165122684E-01  0.10197797858E+01  0.10194937855E+01 0.  0.
     999903    2    3    3    0    0 -0.60894503746E-01 -0.10354612916E-01 -0.11494356473E+00  0.13201426747E+00  0.20009626356E-01 0.  0.
         14    1    1    2    0    0  0.10023872040E-01 -0.17590746973E-01  0.13165122684E-01  0.24150214181E-01  0.00000000000E+00 0.  1.
     999901    1    3    3    0    0  0.50870631705E-01  0.27945359889E-01  0.10177844205E+00  0.88776551835E+00  0.88000000000E+00 0.  1.
        -11    1    4    4    0    0 -0.25200482581E-01 -0.43366705101E-02 -0.68563671495E-01  0.73178611652E-01  0.51100000000E-03 0.  1.
         11    1    4    4    0    0 -0.35694021164E-01 -0.60179424060E-02 -0.46379893235E-01  0.58835655815E-01  0.51100000000E-03 0. -1.
</event>
<event>
 8    1  0.1092993E+005  0.1043930E+01  0.7957747E-01            NaN
         13   -1    0    0    0    0  0.00000000000E+00  0.00000000000E+00  0.74505805969E-08  0.10566000000E+00  0.10566000000E+00 0.  1.
     999900   -1    0    0    0    0 -0.00000000000E+00 -0.00000000000E+00 -0.74505805969E-08  0.93827000000E+00  0.93827000000E+00 0. -1.
     999902    2    1    2    0    0 -0.10745436361E-01  0.17918304511E-01  0.48026027569E-02  0.10224918323E+01  0.10222670650E+01 0.  0.
     999903    2    3    3    0    0 -0.88469080819E-01  0.63866079277E-01  0.76888440966E-01  0.13493984458E+00  0.19780671333E-01 0.  0.
         14    1    1    2    0    0  0.10745436361E-01 -0.17918304511E-01 -0.48026027569E-02  0.21438167655E-01  0.00000000000E+00 0. -1.
     999901    1    3    3    0    0  0.77723644457E-01 -0.45947774765E-01 -0.72085838209E-01  0.88755198776E+00  0.88000000000E+00 0.  1.
        -11    1    4    4    0    0 -0.12885557858E-01  0.29547387667E-02  0.14071783661E-01  0.19314354737E-01  0.51100000000E-03 0. -1.
         11    1    4    4    0    0 -0.75583522960E-01  0.60911340510E-01  0.62816657305E-01  0.11562548984E+00  0.51100000000E-03 0.  1.
</event>
<event>
 8    1  0.1092993E+005  0.1043930E+01  0.7957747E-01            NaN
         13   -1    0    0    0    0  0.00000000000E+00  0.00000000000E+00  0.74505805969E-08  0.10566000000E+00  0.10566000000E+00 0. -1.
     999900   -1    0    0    0    0 -0.00000000000E+00 -0.00000000000E+00 -0.74505805969E-08  0.93827000000E+00  0.93827000000E+00 0. -1.
     999902    2    1    2    0    0 -0.53909497378E-02 -0.17607978898E-01  0.13804904412E-01  0.10209152516E+01  0.10206558050E+01 0.  0.
     999903    2    3    3    0    0  0.15260250404E-01 -0.61715857064E-01  0.11589142057E+00  0.13367591870E+00  0.19917520520E-01 0.  0.
         14    1    1    2    0    0  0.53909497378E-02  0.17607978898E-01 -0.13804904412E-01  0.23014748440E-01  0.00000000000E+00 0. -1.
     999901    1    3    3    0    0 -0.20651200142E-01  0.44107878166E-01 -0.10208651616E+00  0.88723933286E+00  0.88000000000E+00 0. -1.
        -11    1    4    4    0    0  0.12277309509E-01 -0.27892189440E-01  0.71967631058E-01  0.78155662633E-01  0.51100000000E-03 0.  1.
         11    1    4    4    0    0  0.29829408947E-02 -0.33823667624E-01  0.43923789515E-01  0.55520256072E-01  0.51100000000E-03 0. -1.
</event>
<event>
 8    1  0.1092993E+005  0.1043930E+01  0.7957747E-01            NaN
         13   -1    0    0    0    0  0.00000000000E+00  0.00000000000E+00  0.74505805969E-08  0.10566000000E+00  0.10566000000E+00 0.  1.
     999900   -1    0    0    0    0 -0.00000000000E+00 -0.00000000000E+00 -0.74505805969E-08  0.93827000000E+00  0.93827000000E+00 0.  1.
     999902    2    1    2    0    0  0.11537440051E-01 -0.65355966212E-02  0.19761216384E-01  0.10201322644E+01  0.10198546488E+01 0.  0.
     999903    2    3    3    0    0 -0.17569902990E-02  0.91424782963E-01  0.92453378313E-01  0.13161826438E+00  0.20350980375E-01 0.  0.
         14    1    1    2    0    0 -0.11537440051E-01  0.65355966212E-02 -0.19761216384E-01  0.23797735588E-01  0.00000000000E+00 0.  1.
     999901    1    3    3    0    0  0.13294430350E-01 -0.97960379584E-01 -0.72692161929E-01  0.88851400003E+00  0.88000000000E+00 0. -1.
        -11    1    4    4    0    0 -0.38466252146E-02  0.14044251441E-01  0.65293034237E-02  0.15966541526E-01  0.51100000000E-03 0.  1.
         11    1    4    4    0    0  0.20896349156E-02  0.77380531521E-01  0.85924074889E-01  0.11565172285E+00  0.51100000000E-03 0. -1.
</event>
<event>
 8    1  0.1092993E+005  0.1043930E+01  0.7957747E-01            NaN
         13   -1    0    0    0    0  0.00000000000E+00  0.00000000000E+00  0.74505805969E-08  0.10566000000E+00  0.10566000000E+00 0.  1.
     999900   -1    0    0    0    0 -0.00000000000E+00 -0.00000000000E+00 -0.74505805969E-08  0.93827000000E+00  0.93827000000E+00 0. -1.
     999902    2    1    2    0    0 -0.19297772003E-01 -0.35666689170E-02  0.12596486993E-01  0.10206105528E+01  0.10203441106E+01 0.  0.
     999903    2    3    3    0    0 -0.10124649555E+00  0.77059285690E-01  0.32538034027E-01  0.13290913730E+00  0.20423729997E-01 0.  0.
         14    1    1    2    0    0  0.19297772003E-01  0.35666689170E-02 -0.12596486993E-01  0.23319447163E-01  0.00000000000E+00 0. -1.
     999901    1    3    3    0    0  0.81948723549E-01 -0.80625954607E-01 -0.19941547033E-01  0.88770141554E+00  0.88000000000E+00 0.  1.
        -11    1    4    4    0    0 -0.33474464963E-01  0.23659249784E-01  0.20353889313E-01  0.45769442164E-01  0.51100000000E-03 0.  1.
         11    1    4    4    0    0 -0.67772030589E-01  0.53400035907E-01  0.12184144714E-01  0.87139695136E-01  0.51100000000E-03 0. -1.
</event>
<event>
 8    1  0.1092993E+005  0.1043930E+01  0.7957747E-01            NaN
         13   -1    0    0    0    0  0.00000000000E+00  0.00000000000E+00  0.74505805969E-08  0.10566000000E+00  0.10566000000E+00 0. -1.
     999900   -1    0    0    0    0 -0.00000000000E+00 -0.00000000000E+00 -0.74505805969E-08  0.93827000000E+00  0.93827000000E+00 0.  1.
     999902    2    1    2    0    0 -0.15146648287E-01 -0.45579560569E-02  0.17283557677E-01  0.10205010162E+01  0.10202320357E+01 0.  0.
     999903    2    3    3    0    0  0.58642175758E-01  0.84473814414E-01 -0.73782386748E-01  0.12827657526E+00  0.20888012516E-01 0.  0.
         14    1    1    2    0    0  0.15146648287E-01  0.45579560569E-02 -0.17283557677E-01  0.23428983839E-01  0.00000000000E+00 0.  1.
     999901    1    3    3    0    0 -0.73788824046E-01 -0.89031770471E-01  0.91065944425E-01  0.89222444090E+00  0.88000000000E+00 0. -1.
        -11    1    4    4    0    0  0.45699208205E-01  0.74190190494E-01 -0.68738162753E-01  0.11098557625E+00  0.51100000000E-03 0. -1.
         11    1    4    4    0    0  0.12942967553E-01  0.10283623920E-01 -0.50442239952E-02  0.17290999009E-01  0.51100000000E-03 0.  1.
</event>
<event>
 8    1  0.1172720E+005  0.1043930E+01  0.7957747E-01            NaN
         13   -1    0    0    0    0  0.00000000000E+00  0.00000000000E+00  0.74505805969E-08  0.10566000000E+00  0.10566000000E+00 0.  1.
     999900   -1    0    0    0    0 -0.00000000000E+00 -0.00000000000E+00 -0.74505805969E-08  0.93827000000E+00  0.93827000000E+00 0.  1.
     999902    2    1    2    0    0  0.70288304269E-02  0.15531153982E-01 -0.15078134674E-01  0.10211710161E+01  0.10209173683E+01 0.  0.
     999903    2    3    3    0    0 -0.60510618397E-02 -0.60136075467E-01  0.11186472303E+00  0.12875233507E+00  0.20260419675E-01 0.  0.
         14    1    1    2    0    0 -0.70288304269E-02 -0.15531153982E-01  0.15078134674E-01  0.22758983862E-01  0.00000000000E+00 0.  1.
     999901    1    3    3    0    0  0.13079892267E-01  0.75667229450E-01 -0.12694285771E+00  0.89241868107E+00  0.88000000000E+00 0.  1.
        -11    1    4    4    0    0 -0.12597923744E-01 -0.38017472819E-01  0.79311388146E-01  0.88851524088E-01  0.51100000000E-03 0. -1.
         11    1    4    4    0    0  0.65468619047E-02 -0.22118602648E-01  0.32553334886E-01  0.39900810983E-01  0.51100000000E-03 0.  1.
</event>
<event>
 8    1  0.1092993E+005  0.1043930E+01  0.7957747E-01            NaN
         13   -1    0    0    0    0  0.00000000000E+00  0.00000000000E+00  0.74505805969E-08  0.10566000000E+00  0.10566000000E+00 0.  1.
     999900   -1    0    0    0    0 -0.00000000000E+00 -0.00000000000E+00 -0.74505805969E-08  0.93827000000E+00  0.93827000000E+00 0.  1.
     999902    2    1    2    0    0 -0.35734123762E-02 -0.12932194634E-01  0.19424279012E-01  0.10203225107E+01  0.10200493676E+01 0.  0.
     999903    2    3    3    0    0 -0.10186556542E+00 -0.75190427654E-01 -0.28997856822E-01  0.13134436806E+00  0.19500602287E-01 0.  0.
         14    1    1    2    0    0  0.35734123762E-02  0.12932194634E-01 -0.19424279012E-01  0.23607489261E-01  0.00000000000E+00 0. -1.
     999901    1    3    3    0    0  0.98292153048E-01  0.62258233020E-01  0.48422135835E-01  0.88897814268E+00  0.88000000000E+00 0. -1.
        -11    1    4    4    0    0 -0.53375204934E-01 -0.31786586845E-01 -0.64087070626E-02  0.62455041847E-01  0.51100000000E-03 0.  1.
         11    1    4    4    0    0 -0.48490360491E-01 -0.43403840809E-01 -0.22589149760E-01  0.68889326208E-01  0.51100000000E-03 0. -1.
</event>
<event>
 8    1  0.1092993E+005  0.1043930E+01  0.7957747E-01            NaN
         13   -1    0    0    0    0  0.00000000000E+00  0.00000000000E+00  0.74505805969E-08  0.10566000000E+00  0.10566000000E+00 0.  1.
     999900   -1    0    0    0    0 -0.00000000000E+00 -0.00000000000E+00 -0.74505805969E-08  0.93827000000E+00  0.93827000000E+00 0.  1.
     999902    2    1    2    0    0  0.92946358967E-02 -0.21851976883E-01 -0.29436475739E-02  0.10200016860E+01  0.10197209791E+01 0.  0.
     999903    2    3    3    0    0 -0.28967113959E-01 -0.24652788311E-02 -0.12578365405E+00  0.13043467179E+00  0.18614636425E-01 0.  0.
         14    1    1    2    0    0 -0.92946358967E-02  0.21851976883E-01  0.29436475739E-02  0.23928314006E-01  0.00000000000E+00 0.  1.
     999901    1    3    3    0    0  0.38261749856E-01 -0.19386698051E-01  0.12284000647E+00  0.88956701420E+00  0.88000000000E+00 0. -1.
        -11    1    4    4    0    0 -0.13682510211E-01 -0.70430350397E-02 -0.89208914754E-01  0.90527935030E-01  0.51100000000E-03 0.  1.
         11    1    4    4    0    0 -0.15284603748E-01  0.45777562086E-02 -0.36574739295E-01  0.39906736764E-01  0.51100000000E-03 0. -1.
</event>
<event>
 8    1  0.1092993E+005  0.1043930E+01  0.7957747E-01            NaN
         13   -1    0    0    0    0  0.00000000000E+00  0.00000000000E+00  0.74505805969E-08  0.10566000000E+00  0.10566000000E+00 0.  1.
     999900   -1    0    0    0    0 -0.00000000000E+00 -0.00000000000E+00 -0.74505805969E-08  0.93827000000E+00  0.93827000000E+00 0.  1.
     999902    2    1    2    0    0  0.11351756338E-01  0.17499459376E-01  0.11167894832E-01  0.10202695832E+01  0.10199951995E+01 0.  0.
     999903    2    3    3    0    0 -0.34113288131E-01  0.12346746314E+00 -0.25233975114E-01  0.13200082640E+00  0.19481626954E-01 0.  0.
         14    1    1    2    0    0 -0.11351756338E-01 -0.17499459376E-01 -0.11167894832E-01  0.23660416847E-01  0.00000000000E+00 0. -1.
     999901    1    3    3    0    0  0.45465044469E-01 -0.10596800376E+00  0.36401869945E-01  0.88826875675E+00  0.88000000000E+00 0. -1.
        -11    1    4    4    0    0 -0.17739047404E-01  0.34185582675E-01 -0.11483913168E-01  0.40192900471E-01  0.51100000000E-03 0. -1.
         11    1    4    4    0    0 -0.16374240727E-01  0.89281880464E-01 -0.13750061945E-01  0.91807925927E-01  0.51100000000E-03 0.  1.
</event>
<event>
 8    1  0.1092993E+005  0.1043930E+01  0.7957747E-01            NaN
         13   -1    0    0    0    0  0.00000000000E+00  0.00000000000E+00  0.74505805969E-08  0.10566000000E+00  0.10566000000E+00 0.  1.
     999900   -1    0    0    0    0 -0.00000000000E+00 -0.00000000000E+00 -0.74505805969E-08  0.93827000000E+00  0.93827000000E+00 0. -1.
     999902    2    1    2    0    0  0.18408121223E-01  0.27480213642E-02  0.14082592542E-01  0.10205905493E+01  0.10203236444E+01 0.  0.
     999903    2    3    3    0    0  0.58134936807E-01  0.11049976557E+00  0.41003409595E-01  0.13272040748E+00  0.18535314808E-01 0.  0.
         14    1    1    2    0    0 -0.18408121223E-01 -0.27480213642E-02 -0.14082592542E-01  0.23339450745E-01  0.00000000000E+00 0. -1.
     999901    1    3    3    0    0 -0.39726815584E-01 -0.10775174421E+00 -0.26920817054E-01  0.88787014177E+00  0.88000000000E+00 0.  1.
        -11    1    4    4    0    0  0.35576862500E-01  0.66200785422E-01  0.15085831501E-01  0.76655727567E-01  0.51100000000E-03 0.  1.
         11    1    4    4    0    0  0.22558074307E-01  0.44298980152E-01  0.25917578095E-01  0.56064679917E-01  0.51100000000E-03 0. -1.
</event>
<event>
 8    1  0.1092993E+005  0.1043930E+01  0.7957747E-01            NaN
         13   -1    0    0    0    0  0.00000000000E+00  0.00000000000E+00  0.74505805969E-08  0.10566000000E+00  0.10566000000E+00 0. -1.
     999900   -1    0    0    0    0 -0.00000000000E+00 -0.00000000000E+00 -0.74505805969E-08  0.93827000000E+00  0.93827000000E+00 0. -1.
     999902    2    1    2    0    0 -0.57081685060E-02 -0.38863955882E-02  0.21834084535E-01  0.10210299016E+01  0.10207730627E+01 0.  0.
     999903    2    3    3    0    0 -0.84295050481E-01 -0.97858683249E-01 -0.63989716345E-02  0.13209582401E+00  0.26951483470E-01 0.  0.
         14    1    1    2    0    0  0.57081685060E-02  0.38863955882E-02 -0.21834084535E-01  0.22900098380E-01  0.00000000000E+00 0.  1.
     999901    1    3    3    0    0  0.78586881975E-01  0.93972287661E-01  0.28233056169E-01  0.88893407761E+00  0.88000000000E+00 0.  1.
        -11    1    4    4    0    0 -0.41306134050E-01 -0.67403826566E-01 -0.27991761675E-03  0.79055752610E-01  0.51100000000E-03 0.  1.
         11    1    4    4    0    0 -0.42988916431E-01 -0.30454856683E-01 -0.61190540177E-02  0.53040071404E-01  0.51100000000E-03 0. -1.
</event>
<event>
 8    1  0.1092993E+005  0.1043930E+01  0.7957747E-01            NaN
         13   -1    0    0    0    0  0.00000000000E+00  0.00000000000E+00  0.74505805969E-08  0.10566000000E+00  0.10566000000E+00 0.  1.
     999900   -1    0    0    0    0 -0.00000000000E+00 -0.00000000000E+00 -0.74505805969E-08  0.93827000000E+00  0.93827000000E+00 0.  1.
     999902    2    1    2    0    0  0.10103044743E-01  0.14128456049E-01 -0.13971006301E-01  0.10216393338E+01  0.10213961301E+01 0.  0.
     999903    2    3    3    0    0  0.11362598388E+00 -0.63799585540E-01 -0.15200780575E-01  0.13214999099E+00  0.15852604211E-01 0.  0.
         14    1    1    2    0    0 -0.10103044743E-01 -0.14128456049E-01  0.13971006301E-01  0.22290666219E-01  0.00000000000E+00 0.  1.
     999901    1    3    3    0    0 -0.10352293914E+00  0.77928041590E-01  0.12297742741E-02  0.88948934279E+00  0.88000000000E+00 0. -1.
        -11    1    4    4    0    0  0.93609541318E-01 -0.45307448853E-01 -0.11151993909E-01  0.10459512052E+00  0.51100000000E-03 0. -1.
         11    1    4    4    0    0  0.20016442565E-01 -0.18492136688E-01 -0.40487866658E-02  0.27554870471E-01  0.51100000000E-03 0.  1.
</event>
<event>
 8    1  0.1092993E+005  0.1043930E+01  0.7957747E-01            NaN
         13   -1    0    0    0    0  0.00000000000E+00  0.00000000000E+00  0.74505805969E-08  0.10566000000E+00  0.10566000000E+00 0. -1.
     999900   -1    0    0    0    0 -0.00000000000E+00 -0.00000000000E+00 -0.74505805969E-08  0.93827000000E+00  0.93827000000E+00 0. -1.
     999902    2    1    2    0    0 -0.70055190960E-02  0.22350064785E-01 -0.32042473664E-02  0.10202895708E+01  0.10200156559E+01 0.  0.
     999903    2    3    3    0    0 -0.77127917880E-01  0.95463115934E-01  0.47002587625E-01  0.13305600774E+00  0.20802301125E-01 0.  0.
         14    1    1    2    0    0  0.70055190960E-02 -0.22350064785E-01  0.32042473664E-02  0.23640429245E-01  0.00000000000E+00 0. -1.
     999901    1    3    3    0    0  0.70122398784E-01 -0.73113051149E-01 -0.50206834991E-01  0.88723356301E+00  0.88000000000E+00 0.  1.
        -11    1    4    4    0    0 -0.56914552789E-01  0.68106720964E-01  0.43539832860E-01  0.98862378719E-01  0.51100000000E-03 0.  1.
         11    1    4    4    0    0 -0.20213365091E-01  0.27356394971E-01  0.34627547650E-02  0.34193629021E-01  0.51100000000E-03 0. -1.
</event>
<event>
 8    1  0.1146880E+005  0.1043930E+01  0.7957747E-01            NaN
         13   -1    0    0    0    0  0.00000000000E+00  0.00000000000E+00  0.74505805969E-08  0.10566000000E+00  0.10566000000E+00 0. -1.
     999900   -1    0    0    0    0 -0.00000000000E+00 -0.00000000000E+00 -0.74505805969E-08  0.93827000000E+00  0.93827000000E+00 0. -1.
     999902    2    1    2    0    0  0.54259465684E-02  0.22400336387E-01 -0.45048878443E-02  0.10204457504E+01  0.10201754846E+01 0.  0.
     999903    2    3    3    0    0 -0.10837371060E+00  0.46662248139E-01 -0.54385363630E-01  0.13138609871E+00  0.19552815857E-01 0.  0.
         14    1    1    2    0    0 -0.54259465684E-02 -0.22400336387E-01  0.45048878443E-02  0.23484249635E-01  0.00000000000E+00 0.  1.
     999901    1    3    3    0    0  0.11379965716E+00 -0.24261911751E-01  0.49880475786E-01  0.88905965165E+00  0.88000000000E+00 0.  1.
        -11    1    4    4    0    0 -0.56585163002E-01  0.14052019558E-01 -0.29124354832E-01  0.65175371814E-01  0.51100000000E-03 0.  1.
         11    1    4    4    0    0 -0.51788547594E-01  0.32610228581E-01 -0.25261008798E-01  0.66210726898E-01  0.51100000000E-03 0. -1.
</event>
<event>
 8    1  0.1092993E+005  0.1043930E+01  0.7957747E-01            NaN
         13   -1    0    0    0    0  0.00000000000E+00  0.00000000000E+00  0.74505805969E-08  0.10566000000E+00  0.10566000000E+00 0.  1.
     999900   -1    0    0    0    0 -0.00000000000E+00 -0.00000000000E+00 -0.74505805969E-08  0.93827000000E+00  0.93827000000E+00 0. -1.
     999902    2    1    2    0    0  0.12257299795E-01 -0.20056452809E-01  0.25656708570E-02  0.10202850140E+01  0.10200109923E+01 0.  0.
     999903    2    3    3    0    0  0.11692580648E+00  0.27622815804E-01  0.49664712568E-01  0.13155157323E+00  0.20113890001E-01 0.  0.
         14    1    1    2    0    0 -0.12257299795E-01  0.20056452809E-01 -0.25656708570E-02  0.23644986032E-01  0.00000000000E+00 0.  1.
     999901    1    3    3    0    0 -0.10466850669E+00 -0.47679268612E-01 -0.47099041711E-01  0.88873344073E+00  0.88000000000E+00 0.  1.
        -11    1    4    4    0    0  0.44000517264E-01  0.11825246888E-01  0.85643835976E-02  0.46362611778E-01  0.51100000000E-03 0. -1.
         11    1    4    4    0    0  0.72925289220E-01  0.15797568915E-01  0.41100328970E-01  0.85188961456E-01  0.51100000000E-03 0.  1.
</event>
<event>
 8    1  0.1092993E+005  0.1043930E+01  0.7957747E-01            NaN
         13   -1    0    0    0    0  0.00000000000E+00  0.00000000000E+00  0.74505805969E-08  0.10566000000E+00  0.10566000000E+00 0. -1.
     999900   -1    0    0    0    0 -0.00000000000E+00 -0.00000000000E+00 -0.74505805969E-08  0.93827000000E+00  0.93827000000E+00 0. -1.
     999902    2    1    2    0    0  0.29861988808E-02  0.54135593326E-02 -0.23377746439E-01  0.10197485394E+01  0.10194617897E+01 0.  0.
     999903    2    3    3    0    0 -0.11375880629E+00  0.34675302126E-01  0.45620433096E-01  0.12888020198E+00  0.19632624926E-01 0.  0.
         14    1    1    2    0    0 -0.29861988808E-02 -0.54135593326E-02  0.23377746439E-01  0.24181460604E-01  0.00000000000E+00 0. -1.
     999901    1    3    3    0    0  0.11674500517E+00 -0.29261742794E-01 -0.68998179534E-01  0.89086833741E+00  0.88000000000E+00 0. -1.
        -11    1    4    4    0    0 -0.48607934560E-01  0.15540358125E-01  0.93082377903E-02  0.51876183790E-01  0.51100000000E-03 0. -1.
         11    1    4    4    0    0 -0.65150871730E-01  0.19134944001E-01  0.36312195305E-01  0.77004018194E-01  0.51100000000E-03 0.  1.
</event>
<event>
 8    1  0.1092993E+005  0.1043930E+01  0.7957747E-01            NaN
         13   -1    0    0    0    0  0.00000000000E+00  0.00000000000E+00  0.74505805969E-08  0.10566000000E+00  0.10566000000E+00 0.  1.
     999900   -1    0    0    0    0 -0.00000000000E+00 -0.00000000000E+00 -0.74505805969E-08  0.93827000000E+00  0.93827000000E+00 0. -1.
     999902    2    1    2    0    0  0.11674539860E-01  0.61145310238E-02 -0.20193287919E-01  0.10198166998E+01  0.10195315836E+01 0.  0.
     999903    2    3    3    0    0  0.36649764924E-01  0.90030523841E-01 -0.88467760539E-01  0.13284034196E+00  0.19269439673E-01 0.  0.
         14    1    1    2    0    0 -0.11674539860E-01 -0.61145310238E-02  0.20193287919E-01  0.24113300222E-01  0.00000000000E+00 0.  1.
     999901    1    3    3    0    0 -0.24975225063E-01 -0.83915992817E-01  0.68274472619E-01  0.88697635782E+00  0.88000000000E+00 0.  1.
        -11    1    4    4    0    0  0.25349563658E-01  0.53896260253E-01 -0.41907856056E-01  0.72828131702E-01  0.51100000000E-03 0.  1.
         11    1    4    4    0    0  0.11300201265E-01  0.36134263587E-01 -0.46559904482E-01  0.60012210258E-01  0.51100000000E-03 0. -1.
</event>
<event>
 8    1  0.1092993E+005  0.1043930E+01  0.7957747E-01            NaN
         13   -1    0    0    0    0  0.00000000000E+00  0.00000000000E+00  0.74505805969E-08  0.10566000000E+00  0.10566000000E+00 0. -1.
     999900   -1    0    0    0    0 -0.00000000000E+00 -0.00000000000E+00 -0.74505805969E-08  0.93827000000E+00  0.93827000000E+00 0. -1.
     999902    2    1    2    0    0 -0.13565981125E-01 -0.19739390627E-01  0.15735845882E-02  0.10199267595E+01  0.10196442709E+01 0.  0.
     999903    2    3    3    0    0 -0.50492057144E-01  0.62441039165E-01 -0.98614820905E-01  0.12967124858E+00  0.25326243274E-01 0.  0.
         14    1    1    2    0    0  0.13565981125E-01  0.19739390627E-01 -0.15735845882E-02  0.24003240503E-01  0.00000000000E+00 0. -1.
     999901    1    3    3    0    0  0.36926076019E-01 -0.82180429792E-01  0.10018840549E+00  0.89025551092E+00  0.88000000000E+00 0.  1.
        -11    1    4    4    0    0 -0.34710294833E-01  0.54336713858E-01 -0.87639099669E-01  0.10880329017E+00  0.51100000000E-03 0. -1.
         11    1    4    4    0    0 -0.15781762311E-01  0.81043253069E-02 -0.10975721236E-01  0.20867958404E-01  0.51100000000E-03 0.  1.
</event>
<event>
 8    1  0.1092993E+005  0.1043930E+01  0.7957747E-01            NaN
         13   -1    0    0    0    0  0.00000000000E+00  0.00000000000E+00  0.74505805969E-08  0.10566000000E+00  0.10566000000E+00 0. -1.
     999900   -1    0    0    0    0 -0.00000000000E+00 -0.00000000000E+00 -0.74505805969E-08  0.93827000000E+00  0.93827000000E+00 0.  1.
     999902    2    1    2    0    0 -0.19711438711E-01 -0.18597478204E-02 -0.96261512189E-02  0.10219149537E+01  0.10216777918E+01 0.  0.
     999903    2    3    3    0    0 -0.11289284591E-01 -0.12577080655E+00 -0.37084386562E-01  0.13276994983E+00  0.17517537571E-01 0.  0.
         14    1    1    2    0    0  0.19711438711E-01  0.18597478204E-02  0.96261512189E-02  0.22015046339E-01  0.00000000000E+00 0.  1.
     999901    1    3    3    0    0 -0.84221541196E-02  0.12391105873E+00  0.27458235344E-01  0.88914500383E+00  0.88000000000E+00 0. -1.
        -11    1    4    4    0    0 -0.35568206305E-02 -0.89894268388E-01 -0.19427292455E-01  0.92039726614E-01  0.51100000000E-03 0. -1.
         11    1    4    4    0    0 -0.77324639606E-02 -0.35876538165E-01 -0.17657094107E-01  0.40730223212E-01  0.51100000000E-03 0.  1.
</event>
<event>
 8    1  0.1092993E+005  0.1043930E+01  0.7957747E-01            NaN
         13   -1    0    0    0    0  0.00000000000E+00  0.00000000000E+00  0.74505805969E-08  0.10566000000E+00  0.10566000000E+00 0. -1.
     999900   -1    0    0    0    0 -0.00000000000E+00 -0.00000000000E+00 -0.74505805969E-08  0.93827000000E+00  0.93827000000E+00 0.  1.
     999902    2    1    2    0    0 -0.68570436721E-02  0.21589927121E-01  0.19039533764E-02  0.10211974454E+01  0.10209443929E+01 0.  0.
     999903    2    3    3    0    0  0.36729898677E-01 -0.79041813448E-02  0.12404107458E+00  0.13120463622E+00  0.20418296775E-01 0.  0.
         14    1    1    2    0    0  0.68570436721E-02 -0.21589927121E-01 -0.19039533764E-02  0.22732554618E-01  0.00000000000E+00 0. -1.
     999901    1    3    3    0    0 -0.43586942349E-01  0.29494108466E-01 -0.12213712121E+00  0.88999280916E+00  0.88000000000E+00 0.  1.
        -11    1    4    4    0    0  0.20786802244E-01 -0.13229897663E-01  0.88803369264E-01  0.92159757234E-01  0.51100000000E-03 0.  1.
         11    1    4    4    0    0  0.15943096433E-01  0.53257163179E-02  0.35237705319E-01  0.39044878990E-01  0.51100000000E-03 0. -1.
</event>
<event>
 8    1  0.1092993E+005  0.1043930E+01  0.7957747E-01            NaN
         13   -1    0    0    0    0  0.00000000000E+00  0.00000000000E+00  0.74505805969E-08  0.10566000000E+00  0.10566000000E+00 0.  1.
     999900   -1    0    0    0    0 -0.00000000000E+00 -0.00000000000E+00 -0.74505805969E-08  0.93827000000E+00  0.93827000000E+00 0.  1.
     999902    2    1    2    0    0  0.14747129269E-02 -0.10060104200E-01 -0.21270865810E-01  0.10203539484E+01  0.10200815408E+01 0.  0.
     999903    2    3    3    0    0 -0.97922815233E-01 -0.34912808335E-01  0.74266017375E-01  0.12927324415E+00  0.19706556983E-01 0.  0.
         14    1    1    2    0    0 -0.14747129269E-02  0.10060104200E-01  0.21270865810E-01  0.23576051558E-01  0.00000000000E+00 0.  1.
     999901    1    3    3    0    0  0.99397528160E-01  0.24852704135E-01 -0.95536883185E-01  0.89108070429E+00  0.88000000000E+00 0.  1.
        -11    1    4    4    0    0 -0.72062245932E-01 -0.28451596009E-01  0.44639026874E-01  0.89416801808E-01  0.51100000000E-03 0. -1.
         11    1    4    4    0    0 -0.25860569301E-01 -0.64612123256E-02  0.29626990501E-01  0.39856442346E-01  0.51100000000E-03 0.  1.
</event>
<event>
 8    1  0.1092993E+005  0.1043930E+01  0.7957747E-01            NaN
         13   -1    0    0    0    0  0.00000000000E+00  0.00000000000E+00  0.74505805969E-08  0.10566000000E+00  0.10566000000E+00 0.  1.
     999900   -1    0    0    0    0 -0.00000000000E+00 -0.00000000000E+00 -0.74505805969E-08  0.93827000000E+00  0.93827000000E+00 0. -1.
     999902    2    1    2    0    0  0.26424880171E-01  0.12952929868E-01  0.12868874781E-01  0.10118105258E+01  0.10113005881E+01 0.  0.
     999903    2    3    3    0    0  0.10925049365E+00  0.59599091287E-03 -0.57438810795E-01  0.12504339356E+00  0.20015187212E-01 0.  0.
         14    1    1    2    0    0 -0.26424880171E-01 -0.12952929868E-01 -0.12868874781E-01  0.32119474192E-01  0.00000000000E+00 0. -1.
     999901    1    3    3    0    0 -0.82825613478E-01  0.12356938955E-01  0.70307685576E-01  0.88676713225E+00  0.88000000000E+00 0.  1.
        -11    1    4    4    0    0  0.70084248162E-01  0.79857206607E-02 -0.30012853387E-01  0.76659024676E-01  0.51100000000E-03 0. -1.
         11    1    4    4    0    0  0.39166245488E-01 -0.73897297479E-02 -0.27425957408E-01  0.48384368882E-01  0.51100000000E-03 0.  1.
</event>
<event>
 8    1  0.1092993E+005  0.1043930E+01  0.7957747E-01            NaN
         13   -1    0    0    0    0  0.00000000000E+00  0.00000000000E+00  0.74505805969E-08  0.10566000000E+00  0.10566000000E+00 0. -1.
     999900   -1    0    0    0    0 -0.00000000000E+00 -0.00000000000E+00 -0.74505805969E-08  0.93827000000E+00  0.93827000000E+00 0. -1.
     999902    2    1    2    0    0  0.71228206455E-02 -0.18746231722E-01  0.12564974336E-01  0.10202649549E+01  0.10199904627E+01 0.  0.
     999903    2    3    3    0    0  0.38626371571E-01  0.65786219849E-01  0.10459445071E+00  0.13087885565E+00  0.19221145485E-01 0.  0.
         14    1    1    2    0    0 -0.71228206455E-02  0.18746231722E-01 -0.12564974336E-01  0.23665045062E-01  0.00000000000E+00 0.  1.
     999901    1    3    3    0    0 -0.31503550925E-01 -0.84532451571E-01 -0.92029476374E-01  0.88938609929E+00  0.88000000000E+00 0.  1.
        -11    1    4    4    0    0  0.22368965373E-01  0.44451380018E-01  0.81436905898E-01  0.95438600999E-01  0.51100000000E-03 0. -1.
         11    1    4    4    0    0  0.16257406197E-01  0.21334839831E-01  0.23157544811E-01  0.35440254649E-01  0.51100000000E-03 0.  1.
</event>
<event>
 8    1  0.1092993E+005  0.1043930E+01  0.7957747E-01            NaN
         13   -1    0    0    0    0  0.00000000000E+00  0.00000000000E+00  0.74505805969E-08  0.10566000000E+00  0.10566000000E+00 0. -1.
     999900   -1    0    0    0    0 -0.00000000000E+00 -0.00000000000E+00 -0.74505805969E-08  0.93827000000E+00  0.93827000000E+00 0. -1.
     999902    2    1    2    0    0  0.45620923133E-02  0.20820705838E-01 -0.10441705017E-01  0.10201951378E+01  0.10199190044E+01 0.  0.
     999903    2    3    3    0    0 -0.18193337400E-01 -0.53078227667E-01  0.11347119126E+00  0.12815631144E+00  0.20000828384E-01 0.  0.
         14    1    1    2    0    0 -0.45620923133E-02 -0.20820705838E-01  0.10441705017E-01  0.23734862155E-01  0.00000000000E+00 0. -1.
     999901    1    3    3    0    0  0.22755429713E-01  0.73898933505E-01 -0.12391289628E+00  0.89203882641E+00  0.88000000000E+00 0. -1.
        -11    1    4    4    0    0 -0.79024538716E-02 -0.35378341766E-02  0.21515817561E-01  0.23198201960E-01  0.51100000000E-03 0.  1.
         11    1    4    4    0    0 -0.10290883528E-01 -0.49540393490E-01  0.91955373704E-01  0.10495810948E+00  0.51100000000E-03 0. -1.
</event>
<event>
 8    1  0.1092993E+005  0.1043930E+01  0.7957747E-01            NaN
         13   -1    0    0    0    0  0.00000000000E+00  0.00000000000E+00  0.74505805969E-08  0.10566000000E+00  0.10566000000E+00 0.  1.
     999900   -1    0    0    0    0 -0.00000000000E+00 -0.00000000000E+00 -0.74505805969E-08  0.93827000000E+00  0.93827000000E+00 0.  1.
     999902    2    1    2    0    0  0.18636809360E-01  0.82487840365E-02 -0.12971719007E-01  0.10197713867E+01  0.10194851851E+01 0.  0.
     999903    2    3    3    0    0  0.73479853160E-01 -0.57161893887E-01 -0.91670711754E-01  0.13214542513E+00  0.19802097284E-01 0.  0.
         14    1    1    2    0    0 -0.18636809360E-01 -0.82487840365E-02  0.12971719007E-01  0.24158613271E-01  0.00000000000E+00 0.  1.
     999901    1    3    3    0    0 -0.54843043801E-01  0.65410677923E-01  0.78698992747E-01  0.88762596160E+00  0.88000000000E+00 0. -1.
        -11    1    4    4    0    0  0.70919249949E-01 -0.48017098222E-01 -0.81664866161E-01  0.11834100397E+00  0.51100000000E-03 0.  1.
         11    1    4    4    0    0  0.25606032116E-02 -0.91447956650E-02 -0.10005845593E-01  0.13804421161E-01  0.51100000000E-03 0. -1.
</event>
<event>
 8    1  0.1092993E+005  0.1043930E+01  0.7957747E-01            NaN
         13   -1    0    0    0    0  0.00000000000E+00  0.00000000000E+00  0.74505805969E-08  0.10566000000E+00  0.10566000000E+00 0. -1.
     999900   -1    0    0    0    0 -0.00000000000E+00 -0.00000000000E+00 -0.74505805969E-08  0.93827000000E+00  0.93827000000E+00 0. -1.
     999902    2    1    2    0    0 -0.92086138438E-02  0.22086515329E-01  0.21649480157E-02  0.10199029376E+01  0.10196198813E+01 0.  0.
     999903    2    3    3    0    0  0.60123344788E-01 -0.72307024803E-01 -0.84486834735E-01  0.12792446679E+00  0.19583705882E-01 0.  0.
         14    1    1    2    0    0  0.92086138438E-02 -0.22086515329E-01 -0.21649480157E-02  0.24027062414E-01  0.00000000000E+00 0. -1.
     999901    1    3    3    0    0 -0.69331958632E-01  0.94393540133E-01  0.86651782751E-01  0.89197847079E+00  0.88000000000E+00 0.  1.
        -11    1    4    4    0    0  0.28496657842E-01 -0.43743820799E-01 -0.56547205507E-01  0.76963815771E-01  0.51100000000E-03 0.  1.
         11    1    4    4    0    0  0.31626686945E-01 -0.28563204004E-01 -0.27939629228E-01  0.50960651021E-01  0.51100000000E-03 0. -1.
</event>
<event>
 8    1  0.1092993E+005  0.1043930E+01  0.7957747E-01            NaN
         13   -1    0    0    0    0  0.00000000000E+00  0.00000000000E+00  0.74505805969E-08  0.10566000000E+00  0.10566000000E+00 0. -1.
     999900   -1    0    0    0    0 -0.00000000000E+00 -0.00000000000E+00 -0.74505805969E-08  0.93827000000E+00  0.93827000000E+00 0.  1.
     999902    2    1    2    0    0 -0.14010925168E-01 -0.18271499183E-01 -0.38721184153E-02  0.10205816166E+01  0.10203145050E+01 0.  0.
     999903    2    3    3    0    0 -0.98573818721E-01 -0.88010346775E-01 -0.56540016012E-02  0.13377974192E+00  0.20060726226E-01 0.  0.
         14    1    1    2    0    0  0.14010925168E-01  0.18271499183E-01  0.38721184153E-02  0.23348383402E-01  0.00000000000E+00 0. -1.
     999901    1    3    3    0    0  0.84562893553E-01  0.69738847592E-01  0.17818831858E-02  0.88680187468E+00  0.88000000000E+00 0.  1.
        -11    1    4    4    0    0 -0.47456097687E-01 -0.38994222672E-01 -0.12308791507E-01  0.62645016393E-01  0.51100000000E-03 0. -1.
         11    1    4    4    0    0 -0.51117721034E-01 -0.49016124103E-01  0.66547899062E-02  0.71134725525E-01  0.51100000000E-03 0.  1.
</event>
<event>
 8    1  0.1092993E+005  0.1043930E+01  0.7957747E-01            NaN
         13   -1    0    0    0    0  0.00000000000E+00  0.00000000000E+00  0.74505805969E-08  0.10566000000E+00  0.10566000000E+00 0. -1.
     999900   -1    0    0    0    0 -0.00000000000E+00 -0.00000000000E+00 -0.74505805969E-08  0.93827000000E+00  0.93827000000E+00 0. -1.
     999902    2    1    2    0    0 -0.27509679237E-02 -0.97656822230E-02  0.19462073781E-01  0.10219821370E+01  0.10217464361E+01 0.  0.
     999903    2    3    3    0    0  0.88833835000E-01  0.31358850559E-01 -0.86642236208E-01  0.12994114697E+00  0.22427590842E-01 0.  0.
         14    1    1    2    0    0  0.27509679237E-02  0.97656822230E-02 -0.19462073781E-01  0.21947862986E-01  0.00000000000E+00 0.  1.
     999901    1    3    3    0    0 -0.91584802924E-01 -0.41124532782E-01  0.10610430999E+00  0.89204099005E+00  0.88000000000E+00 0.  1.
        -11    1    4    4    0    0  0.20440791134E-01  0.98348062715E-02 -0.34468903829E-01  0.41266400482E-01  0.51100000000E-03 0. -1.
         11    1    4    4    0    0  0.68393043867E-01  0.21524044287E-01 -0.52173332380E-01  0.88674746486E-01  0.51100000000E-03 0.  1.
</event>
<event>
 8    1  0.1092993E+005  0.1043930E+01  0.7957747E-01            NaN
         13   -1    0    0    0    0  0.00000000000E+00  0.00000000000E+00  0.74505805969E-08  0.10566000000E+00  0.10566000000E+00 0. -1.
     999900   -1    0    0    0    0 -0.00000000000E+00 -0.00000000000E+00 -0.74505805969E-08  0.93827000000E+00  0.93827000000E+00 0.  1.
     999902    2    1    2    0    0  0.15559315041E-01 -0.23844480920E-02  0.17470348792E-01  0.10204142401E+01  0.10201432401E+01 0.  0.
     999903    2    3    3    0    0  0.71390807159E-01  0.10257469123E+00  0.37664693790E-01  0.13219051376E+00  0.20916217235E-01 0.  0.
         14    1    1    2    0    0 -0.15559315041E-01  0.23844480920E-02 -0.17470348792E-01  0.23515759910E-01  0.00000000000E+00 0.  1.
     999901    1    3    3    0    0 -0.55831492118E-01 -0.10495913932E+00 -0.20194344998E-01  0.88822372633E+00  0.88000000000E+00 0.  1.
        -11    1    4    4    0    0  0.24004818897E-01  0.43674668811E-01  0.24198925266E-01  0.55403584100E-01  0.51100000000E-03 0. -1.
         11    1    4    4    0    0  0.47385988262E-01  0.58900022417E-01  0.13465768524E-01  0.76786929664E-01  0.51100000000E-03 0.  1.
</event>
<event>
 8    1  0.1092993E+005  0.1043930E+01  0.7957747E-01            NaN
         13   -1    0    0    0    0  0.00000000000E+00  0.00000000000E+00  0.74505805969E-08  0.10566000000E+00  0.10566000000E+00 0.  1.
     999900   -1    0    0    0    0 -0.00000000000E+00 -0.00000000000E+00 -0.74505805969E-08  0.93827000000E+00  0.93827000000E+00 0.  1.
     999902    2    1    2    0    0  0.17981207842E-02 -0.23229521980E-01  0.37381930848E-02  0.10203330083E+01  0.10200601109E+01 0.  0.
     999903    2    3    3    0    0  0.60152742401E-01 -0.29064595722E-01 -0.11055324885E+00  0.13100638458E+00  0.21852890595E-01 0.  0.
         14    1    1    2    0    0 -0.17981207842E-02  0.23229521980E-01 -0.37381930848E-02  0.23596991701E-01  0.00000000000E+00 0.  1.
     999901    1    3    3    0    0 -0.58354621617E-01  0.58350737412E-02  0.11429144194E+00  0.88932662372E+00  0.88000000000E+00 0. -1.
        -11    1    4    4    0    0  0.22731619420E-01 -0.43924389674E-04 -0.31411097528E-01  0.38776882543E-01  0.51100000000E-03 0. -1.
         11    1    4    4    0    0  0.37421122981E-01 -0.29020671332E-01 -0.79142151323E-01  0.92229502041E-01  0.51100000000E-03 0.  1.
</event>
<event>
 8    1  0.1092993E+005  0.1043930E+01  0.7957747E-01            NaN
         13   -1    0    0    0    0  0.00000000000E+00  0.00000000000E+00  0.74505805969E-08  0.10566000000E+00  0.10566000000E+00 0. -1.
     999900   -1    0    0    0    0 -0.00000000000E+00 -0.00000000000E+00 -0.74505805969E-08  0.93827000000E+00  0.93827000000E+00 0.  1.
     999902    2    1    2    0    0  0.12277228670E-01  0.15697994789E-01 -0.14147081531E-01  0.10194903335E+01  0.10191973522E+01 0.  0.
     999903    2    3    3    0    0 -0.65523070442E-01 -0.46964916733E-01  0.96124963821E-01  0.12699974472E+00  0.19747159931E-01 0.  0.
         14    1    1    2    0    0 -0.12277228670E-01 -0.15697994789E-01  0.14147081531E-01  0.24439666529E-01  0.00000000000E+00 0. -1.
     999901    1    3    3    0    0  0.77800299113E-01  0.62662911523E-01 -0.11027204535E+00  0.89249058875E+00  0.88000000000E+00 0.  1.
        -11    1    4    4    0    0 -0.30324769346E-01 -0.29592686173E-01  0.38357123763E-01  0.57156353760E-01  0.51100000000E-03 0. -1.
         11    1    4    4    0    0 -0.35198301097E-01 -0.17372230560E-01  0.57767840059E-01  0.69843390960E-01  0.51100000000E-03 0.  1.
</event>
<event>
 8    1  0.1092993E+005  0.1043930E+01  0.7957747E-01            NaN
         13   -1    0    0    0    0  0.00000000000E+00  0.00000000000E+00  0.74505805969E-08  0.10566000000E+00  0.10566000000E+00 0.  1.
     999900   -1    0    0    0    0 -0.00000000000E+00 -0.00000000000E+00 -0.74505805969E-08  0.93827000000E+00  0.93827000000E+00 0. -1.
     999902    2    1    2    0    0  0.13291703704E-01  0.29765521731E-02 -0.19559368055E-01  0.10200951908E+01  0.10198166993E+01 0.  0.
     999903    2    3    3    0    0  0.53855198746E-01  0.67599422646E-01 -0.99168724275E-01  0.13321348387E+00  0.21007904131E-01 0.  0.
         14    1    1    2    0    0 -0.13291703704E-01 -0.29765521731E-02  0.19559368055E-01  0.23834809186E-01  0.00000000000E+00 0.  1.
     999901    1    3    3    0    0 -0.40563495042E-01 -0.64622870473E-01  0.79609356220E-01  0.88688170695E+00  0.88000000000E+00 0.  1.
        -11    1    4    4    0    0  0.43038145688E-01  0.43093158107E-01 -0.58068482198E-01  0.84151720159E-01  0.51100000000E-03 0.  1.
         11    1    4    4    0    0  0.10817053058E-01  0.24506264538E-01 -0.41100242077E-01  0.49061763709E-01  0.51100000000E-03 0. -1.
</event>
<event>
 8    1  0.1092993E+005  0.1043930E+01  0.7957747E-01            NaN
         13   -1    0    0    0    0  0.00000000000E+00  0.00000000000E+00  0.74505805969E-08  0.10566000000E+00  0.10566000000E+00 0.  1.
     999900   -1    0    0    0    0 -0.00000000000E+00 -0.00000000000E+00 -0.74505805969E-08  0.93827000000E+00  0.93827000000E+00 0. -1.
     999902    2    1    2    0    0  0.13316235582E-01  0.38627925241E-03  0.19170468663E-01  0.10205852316E+01  0.10203182037E+01 0.  0.
     999903    2    3    3    0    0 -0.35386299787E-01  0.50826898960E-01  0.11576344273E+00  0.13252757826E+00  0.18078176218E-01 0.  0.
         14    1    1    2    0    0 -0.13316235582E-01 -0.38627925241E-03 -0.19170468663E-01  0.23344768375E-01  0.00000000000E+00 0. -1.
     999901    1    3    3    0    0  0.48702535368E-01 -0.50440619707E-01 -0.96592974067E-01  0.88805765337E+00  0.88000000000E+00 0. -1.
        -11    1    4    4    0    0 -0.23149711460E-01  0.32322247334E-01  0.55216710140E-01  0.68042508868E-01  0.51100000000E-03 0. -1.
         11    1    4    4    0    0 -0.12236588326E-01  0.18504651625E-01  0.60546732590E-01  0.64485069388E-01  0.51100000000E-03 0.  1.
</event>
<event>
 8    1  0.1092993E+005  0.1043930E+01  0.7957747E-01            NaN
         13   -1    0    0    0    0  0.00000000000E+00  0.00000000000E+00  0.74505805969E-08  0.10566000000E+00  0.10566000000E+00 0. -1.
     999900   -1    0    0    0    0 -0.00000000000E+00 -0.00000000000E+00 -0.74505805969E-08  0.93827000000E+00  0.93827000000E+00 0.  1.
     999902    2    1    2    0    0  0.16840643038E-01 -0.62397226280E-03  0.16044894537E-01  0.10206612390E+01  0.10203959670E+01 0.  0.
     999903    2    3    3    0    0  0.54570000211E-01  0.98703213064E-01  0.66845057399E-01  0.13281550311E+00  0.21248222865E-01 0.  0.
         14    1    1    2    0    0 -0.16840643038E-01  0.62397226280E-03 -0.16044894537E-01  0.23268761033E-01  0.00000000000E+00 0.  1.
     999901    1    3    3    0    0 -0.37729357173E-01 -0.99327185326E-01 -0.50800162862E-01  0.88784573586E+00  0.88000000000E+00 0. -1.
        -11    1    4    4    0    0  0.43229925793E-02  0.24504262689E-01  0.18355749860E-01  0.30924776939E-01  0.51100000000E-03 0.  1.
         11    1    4    4    0    0  0.50247007631E-01  0.74198950374E-01  0.48489307539E-01  0.10189072617E+00  0.51100000000E-03 0. -1.
</event>
<event>
 8    1  0.1092993E+005  0.1043930E+01  0.7957747E-01            NaN
         13   -1    0    0    0    0  0.00000000000E+00  0.00000000000E+00  0.74505805969E-08  0.10566000000E+00  0.10566000000E+00 0.  1.
     999900   -1    0    0    0    0 -0.00000000000E+00 -0.00000000000E+00 -0.74505805969E-08  0.93827000000E+00  0.93827000000E+00 0.  1.
     999902    2    1    2    0    0 -0.52769341448E-02 -0.11421397639E-01 -0.20701286472E-01  0.10197052684E+01  0.10194174792E+01 0.  0.
     999903    2    3    3    0    0  0.10759890105E+00 -0.45360596354E-01 -0.56042848735E-01  0.13114359392E+00  0.20560499122E-01 0.  0.
         14    1    1    2    0    0  0.52769341448E-02  0.11421397639E-01  0.20701286472E-01  0.24224731569E-01  0.00000000000E+00 0.  1.
     999901    1    3    3    0    0 -0.11287583519E+00  0.33939198715E-01  0.35341562263E-01  0.88856167451E+00  0.88000000000E+00 0. -1.
        -11    1    4    4    0    0  0.62187197628E-01 -0.21529850398E-01 -0.21203017915E-01  0.69141963356E-01  0.51100000000E-03 0.  1.
         11    1    4    4    0    0  0.45411703421E-01 -0.23830745957E-01 -0.34839830820E-01  0.62001630568E-01  0.51100000000E-03 0. -1.
</event>
<event>
 8    1  0.1092993E+005  0.1043930E+01  0.7957747E-01            NaN
         13   -1    0    0    0    0  0.00000000000E+00  0.00000000000E+00  0.74505805969E-08  0.10566000000E+00  0.10566000000E+00 0. -1.
     999900   -1    0    0    0    0 -0.00000000000E+00 -0.00000000000E+00 -0.74505805969E-08  0.93827000000E+00  0.93827000000E+00 0. -1.
     999902    2    1    2    0    0  0.17743052833E-01  0.16863732433E-01  0.21104993087E-02  0.10193605962E+01  0.10190644580E+01 0.  0.
     999903    2    3    3    0    0 -0.71244392370E-01  0.91988841189E-01  0.55407689230E-01  0.13008946892E+00  0.17763658157E-01 0.  0.
         14    1    1    2    0    0 -0.17743052833E-01 -0.16863732433E-01 -0.21104993087E-02  0.24569403793E-01  0.00000000000E+00 0. -1.
     999901    1    3    3    0    0  0.88987445203E-01 -0.75125108756E-01 -0.53297189921E-01  0.88927112729E+00  0.88000000000E+00 0.  1.
        -11    1    4    4    0    0 -0.48157750645E-01  0.50852728465E-01  0.38859147175E-01  0.80096587816E-01  0.51100000000E-03 0. -1.
         11    1    4    4    0    0 -0.23086641725E-01  0.41136112724E-01  0.16548542055E-01  0.49992881106E-01  0.51100000000E-03 0.  1.
</event>
<event>
 8    1  0.1092993E+005  0.1043930E+01  0.7957747E-01            NaN
         13   -1    0    0    0    0  0.00000000000E+00  0.00000000000E+00  0.74505805969E-08  0.10566000000E+00  0.10566000000E+00 0.  1.
     999900   -1    0    0    0    0 -0.00000000000E+00 -0.00000000000E+00 -0.74505805969E-08  0.93827000000E+00  0.93827000000E+00 0. -1.
     999902    2    1    2    0    0 -0.12443181929E-01 -0.12509019612E-01 -0.15910635706E-01  0.10201717030E+01  0.10198950176E+01 0.  0.
     999903    2    3    3    0    0  0.23134458772E-01  0.88955530397E-01 -0.90565776516E-01  0.13048961737E+00  0.19418825770E-01 0.  0.
         14    1    1    2    0    0  0.12443181929E-01  0.12509019612E-01  0.15910635706E-01  0.23758297009E-01  0.00000000000E+00 0.  1.
     999901    1    3    3    0    0 -0.35577640701E-01 -0.10146455001E+00  0.74655140810E-01  0.88968208562E+00  0.88000000000E+00 0.  1.
        -11    1    4    4    0    0  0.12378715043E-01  0.16424334596E-01 -0.21523790371E-01  0.29774586916E-01  0.51100000000E-03 0.  1.
         11    1    4    4    0    0  0.10755743729E-01  0.72531195801E-01 -0.69041986145E-01  0.10071503045E+00  0.51100000000E-03 0. -1.
</event>
<event>
 8    1  0.1092993E+005  0.1043930E+01  0.7957747E-01            NaN
         13   -1    0    0    0    0  0.00000000000E+00  0.00000000000E+00  0.74505805969E-08  0.10566000000E+00  0.10566000000E+00 0. -1.
     999900   -1    0    0    0    0 -0.00000000000E+00 -0.00000000000E+00 -0.74505805969E-08  0.93827000000E+00  0.93827000000E+00 0.  1.
     999902    2    1    2    0    0 -0.12302361288E-01 -0.22317487486E-01 -0.17034623101E-01  0.10132771580E+01  0.10128134093E+01 0.  0.
     999903    2    3    3    0    0 -0.76915484461E-01  0.93436976255E-01 -0.13868338367E-01  0.12334234185E+00  0.19353092852E-01 0.  0.
         14    1    1    2    0    0  0.12302361288E-01  0.22317487486E-01  0.17034623101E-01  0.30652842040E-01  0.00000000000E+00 0. -1.
     999901    1    3    3    0    0  0.64613123174E-01 -0.11575446374E+00 -0.31662847346E-02  0.88993481611E+00  0.88000000000E+00 0. -1.
        -11    1    4    4    0    0 -0.20228568421E-01  0.28785373370E-01  0.43323919768E-02  0.35451705765E-01  0.51100000000E-03 0.  1.
         11    1    4    4    0    0 -0.56686916041E-01  0.64651602885E-01 -0.18200730344E-01  0.87890636087E-01  0.51100000000E-03 0. -1.
</event>
<event>
 8    1  0.1092993E+005  0.1043930E+01  0.7957747E-01            NaN
         13   -1    0    0    0    0  0.00000000000E+00  0.00000000000E+00  0.74505805969E-08  0.10566000000E+00  0.10566000000E+00 0.  1.
     999900   -1    0    0    0    0 -0.00000000000E+00 -0.00000000000E+00 -0.74505805969E-08  0.93827000000E+00  0.93827000000E+00 0. -1.
     999902    2    1    2    0    0 -0.74730995058E-02 -0.87130291622E-02 -0.20680635206E-01  0.10202772461E+01  0.10200030422E+01 0.  0.
     999903    2    3    3    0    0  0.10587918111E+00 -0.68623692259E-01  0.23057057857E-01  0.12991158368E+00  0.20634425716E-01 0.  0.
         14    1    1    2    0    0  0.74730995058E-02  0.87130291622E-02  0.20680635206E-01  0.23652753876E-01  0.00000000000E+00 0.  1.
     999901    1    3    3    0    0 -0.11335228061E+00  0.59910663096E-01 -0.43737693063E-01  0.89036566245E+00  0.88000000000E+00 0.  1.
        -11    1    4    4    0    0  0.79460265044E-01 -0.51027489580E-01  0.79946441467E-02  0.94772959592E-01  0.51100000000E-03 0. -1.
         11    1    4    4    0    0  0.26418916064E-01 -0.17596202678E-01  0.15062413710E-01  0.35138624084E-01  0.51100000000E-03 0.  1.
</event>
<event>
 8    1  0.1092993E+005  0.1043930E+01  0.7957747E-01            NaN
         13   -1    0    0    0    0  0.00000000000E+00  0.00000000000E+00  0.74505805969E-08  0.10566000000E+00  0.10566000000E+00 0.  1.
     999900   -1    0    0    0    0 -0.00000000000E+00 -0.00000000000E+00 -0.74505805969E-08  0.93827000000E+00  0.93827000000E+00 0.  1.
     999902    2    1    2    0    0 -0.21637217719E-01 -0.10699794908E-01 -0.25318271617E-02  0.10196593397E+01  0.10193704450E+01 0.  0.
     999903    2    3    3    0    0 -0.45659847103E-01 -0.86435258055E-01 -0.86921242104E-01  0.13205891134E+00  0.18121210325E-01 0.  0.
         14    1    1    2    0    0  0.21637217719E-01  0.10699794908E-01  0.25318271617E-02  0.24270660281E-01  0.00000000000E+00 0.  1.
     999901    1    3    3    0    0  0.24022629385E-01  0.75735463147E-01  0.84389414942E-01  0.88760042838E+00  0.88000000000E+00 0. -1.
        -11    1    4    4    0    0 -0.33428119783E-01 -0.62472888896E-01 -0.51589872875E-01  0.87647459424E-01  0.51100000000E-03 0.  1.
         11    1    4    4    0    0 -0.12231727321E-01 -0.23962369159E-01 -0.35331369228E-01  0.44411451918E-01  0.51100000000E-03 0. -1.
</event>
<event>
 8    1  0.1092993E+005  0.1043930E+01  0.7957747E-01            NaN
         13   -1    0    0    0    0  0.00000000000E+00  0.00000000000E+00  0.74505805969E-08  0.10566000000E+00  0.10566000000E+00 0. -1.
     999900   -1    0    0    0    0 -0.00000000000E+00 -0.00000000000E+00 -0.74505805969E-08  0.93827000000E+00  0.93827000000E+00 0.  1.
     999902    2    1    2    0    0 -0.78114324143E-02  0.19908133725E-01 -0.11283833780E-01  0.10197499014E+01  0.10194631843E+01 0.  0.
     999903    2    3    3    0    0 -0.58350809179E-01  0.10499251840E+00  0.51173769589E-01  0.13200301552E+00  0.19436963823E-01 0.  0.
         14    1    1    2    0    0  0.78114324143E-02 -0.19908133725E-01  0.11283833780E-01  0.24180098626E-01  0.00000000000E+00 0. -1.
     999901    1    3    3    0    0  0.50539376765E-01 -0.85084384670E-01 -0.62457603369E-01  0.88774688585E+00  0.88000000000E+00 0.  1.
        -11    1    4    4    0    0 -0.69159607248E-02  0.17632385724E-01  0.12224296346E-02  0.18986495050E-01  0.51100000000E-03 0. -1.
         11    1    4    4    0    0 -0.51434848454E-01  0.87360132671E-01  0.49951339954E-01  0.11301652047E+00  0.51100000000E-03 0.  1.
</event>
<event>
 8    1  0.1092993E+005  0.1043930E+01  0.7957747E-01            NaN
         13   -1    0    0    0    0  0.00000000000E+00  0.00000000000E+00  0.74505805969E-08  0.10566000000E+00  0.10566000000E+00 0. -1.
     999900   -1    0    0    0    0 -0.00000000000E+00 -0.00000000000E+00 -0.74505805969E-08  0.93827000000E+00  0.93827000000E+00 0.  1.
     999902    2    1    2    0    0 -0.16553088069E-01  0.15079133376E-01  0.10359959407E-01  0.10192578751E+01  0.10189592250E+01 0.  0.
     999903    2    3    3    0    0  0.11935625153E-01 -0.92256803525E-01 -0.84663959313E-01  0.12720285704E+00  0.18942119389E-01 0.  0.
         14    1    1    2    0    0  0.16553088069E-01 -0.15079133376E-01 -0.10359959407E-01  0.24672124897E-01  0.00000000000E+00 0.  1.
     999901    1    3    3    0    0 -0.28488713222E-01  0.10733593690E+00  0.95023918720E-01  0.89205501807E+00  0.88000000000E+00 0. -1.
        -11    1    4    4    0    0 -0.39218671304E-02 -0.23606351203E-01 -0.27605115875E-01  0.36536890978E-01  0.51100000000E-03 0. -1.
         11    1    4    4    0    0  0.15857492283E-01 -0.68650452322E-01 -0.57058843439E-01  0.90665966057E-01  0.51100000000E-03 0.  1.
</event>
<event>
 8    1  0.1092993E+005  0.1043930E+01  0.7957747E-01            NaN
         13   -1    0    0    0    0  0.00000000000E+00  0.00000000000E+00  0.74505805969E-08  0.10566000000E+00  0.10566000000E+00 0.  1.
     999900   -1    0    0    0    0 -0.00000000000E+00 -0.00000000000E+00 -0.74505805969E-08  0.93827000000E+00  0.93827000000E+00 0.  1.
     999902    2    1    2    0    0 -0.14262647596E-01 -0.18282288408E-01  0.20621734176E-02  0.10206508732E+01  0.10203853621E+01 0.  0.
     999903    2    3    3    0    0 -0.93216503569E-01 -0.42624387514E-01 -0.83724421622E-01  0.13262745624E+00  0.86086249845E-02 0.  0.
         14    1    1    2    0    0  0.14262647596E-01  0.18282288408E-01 -0.20621734176E-02  0.23279126811E-01  0.00000000000E+00 0.  1.
     999901    1    3    3    0    0  0.78953855972E-01  0.24342099106E-01  0.85786595040E-01  0.88802341695E+00  0.88000000000E+00 0. -1.
        -11    1    4    4    0    0 -0.74319972817E-01 -0.34741760897E-01 -0.62527597055E-01  0.10315236218E+00  0.51100000000E-03 0.  1.
         11    1    4    4    0    0 -0.18896530752E-01 -0.78826266162E-02 -0.21196824567E-01  0.29475094055E-01  0.51100000000E-03 0. -1.
</event>
<event>
 8    1  0.1092993E+005  0.1043930E+01  0.7957747E-01            NaN
         13   -1    0    0    0    0  0.00000000000E+00  0.00000000000E+00  0.74505805969E-08  0.10566000000E+00  0.10566000000E+00 0.  1.
     999900   -1    0    0    0    0 -0.00000000000E+00 -0.00000000000E+00 -0.74505805969E-08  0.93827000000E+00  0.93827000000E+00 0.  1.
     999902    2    1    2    0    0  0.20603498255E-01  0.53563203175E-02 -0.13018749029E-02  0.10226018687E+01  0.10223794269E+01 0.  0.
     999903    2    3    3    0    0 -0.37244977221E-01 -0.80723204623E-01  0.94964095067E-01  0.13129761775E+00  0.17817434812E-01 0.  0.
         14    1    1    2    0    0 -0.20603498255E-01 -0.53563203175E-02  0.13018749029E-02  0.21328131328E-01  0.00000000000E+00 0. -1.
     999901    1    3    3    0    0  0.57848475476E-01  0.86079524941E-01 -0.96265969970E-01  0.89130425092E+00  0.88000000000E+00 0.  1.
        -11    1    4    4    0    0 -0.28405630627E-01 -0.64241475989E-01  0.84418907078E-01  0.10982103661E+00  0.51100000000E-03 0.  1.
         11    1    4    4    0    0 -0.88393465945E-02 -0.16481728635E-01  0.10545187989E-01  0.21476581146E-01  0.51100000000E-03 0. -1.
</event>
<event>
 8    1  0.1092993E+005  0.1043930E+01  0.7957747E-01            NaN
         13   -1    0    0    0    0  0.00000000000E+00  0.00000000000E+00  0.74505805969E-08  0.10566000000E+00  0.10566000000E+00 0.  1.
     999900   -1    0    0    0    0 -0.00000000000E+00 -0.00000000000E+00 -0.74505805969E-08  0.93827000000E+00  0.93827000000E+00 0.  1.
     999902    2    1    2    0    0 -0.10218393533E-01 -0.50016976622E-02  0.19776935883E-01  0.10211142217E+01  0.10208592920E+01 0.  0.
     999903    2    3    3    0    0  0.71743796409E-01 -0.73820068230E-01  0.81024344083E-01  0.13251700491E+00  0.19980927372E-01 0.  0.
         14    1    1    2    0    0  0.10218393533E-01  0.50016976622E-02 -0.19776935883E-01  0.22815778286E-01  0.00000000000E+00 0. -1.
     999901    1    3    3    0    0 -0.81962189942E-01  0.68818370567E-01 -0.61247408200E-01  0.88859721681E+00  0.88000000000E+00 0.  1.
        -11    1    4    4    0    0  0.49618974209E-01 -0.58682524380E-01  0.50845484256E-01  0.92147738222E-01  0.51100000000E-03 0.  1.
         11    1    4    4    0    0  0.22124822199E-01 -0.15137543849E-01  0.30178859827E-01  0.40369266684E-01  0.51100000000E-03 0. -1.
</event>
<event>
 8    1  0.1092993E+005  0.1043930E+01  0.7957747E-01            NaN
         13   -1    0    0    0    0  0.00000000000E+00  0.00000000000E+00  0.74505805969E-08  0.10566000000E+00  0.10566000000E+00 0. -1.
     999900   -1    0    0    0    0 -0.00000000000E+00 -0.00000000000E+00 -0.74505805969E-08  0.93827000000E+00  0.93827000000E+00 0.  1.
     999902    2    1    2    0    0  0.18103363625E-01  0.13134961629E-01 -0.14158880886E-01  0.10174586400E+01  0.10171142272E+01 0.  0.
     999903    2    3    3    0    0 -0.46903826991E-01  0.90736897447E-01  0.73326900395E-01  0.12734530049E+00  0.20170217905E-01 0.  0.
         14    1    1    2    0    0 -0.18103363625E-01 -0.13134961629E-01  0.14158880886E-01  0.26471359986E-01  0.00000000000E+00 0. -1.
     999901    1    3    3    0    0  0.65007190616E-01 -0.77601935817E-01 -0.87485781281E-01  0.89011333953E+00  0.88000000000E+00 0.  1.
        -11    1    4    4    0    0 -0.37704331129E-01  0.54901900748E-01  0.53075987563E-01  0.85165467582E-01  0.51100000000E-03 0. -1.
         11    1    4    4    0    0 -0.91994958618E-02  0.35834996699E-01  0.20250912832E-01  0.42179832907E-01  0.51100000000E-03 0.  1.
</event>
<event>
 8    1  0.1092993E+005  0.1043930E+01  0.7957747E-01            NaN
         13   -1    0    0    0    0  0.00000000000E+00  0.00000000000E+00  0.74505805969E-08  0.10566000000E+00  0.10566000000E+00 0.  1.
     999900   -1    0    0    0    0 -0.00000000000E+00 -0.00000000000E+00 -0.74505805969E-08  0.93827000000E+00  0.93827000000E+00 0. -1.
     999902    2    1    2    0    0  0.10226531886E-01  0.20517916707E-01 -0.73194561749E-02  0.10198646453E+01  0.10195806752E+01 0.  0.
     999903    2    3    3    0    0  0.66966851359E-01  0.23177308493E-01  0.10756799229E+00  0.13058085364E+00  0.21418206297E-01 0.  0.
         14    1    1    2    0    0 -0.10226531886E-01 -0.20517916707E-01  0.73194561749E-02  0.24065354747E-01  0.00000000000E+00 0.  1.
     999901    1    3    3    0    0 -0.56740319473E-01 -0.26593917860E-02 -0.11488744847E+00  0.88928379162E+00  0.88000000000E+00 0.  1.
        -11    1    4    4    0    0  0.41560710930E-01  0.83849196095E-02  0.47300049542E-01  0.63522872869E-01  0.51100000000E-03 0.  1.
         11    1    4    4    0    0  0.25406140428E-01  0.14792388883E-01  0.60267942749E-01  0.67057980767E-01  0.51100000000E-03 0. -1.
</event>
<event>
 8    1  0.1092993E+005  0.1043930E+01  0.7957747E-01            NaN
         13   -1    0    0    0    0  0.00000000000E+00  0.00000000000E+00  0.74505805969E-08  0.10566000000E+00  0.10566000000E+00 0. -1.
     999900   -1    0    0    0    0 -0.00000000000E+00 -0.00000000000E+00 -0.74505805969E-08  0.93827000000E+00  0.93827000000E+00 0. -1.
     999902    2    1    2    0    0  0.26769808012E-02  0.10818620205E-01  0.21769724261E-01  0.10194733104E+01  0.10191799159E+01 0.  0.
     999903    2    3    3    0    0  0.40868378325E-01 -0.12153220183E-01 -0.11829843847E+00  0.12728197530E+00  0.19704202201E-01 0.  0.
         14    1    1    2    0    0 -0.26769808012E-02 -0.10818620205E-01 -0.21769724261E-01  0.24456689550E-01  0.00000000000E+00 0. -1.
     999901    1    3    3    0    0 -0.38191397523E-01  0.22971840388E-01  0.14006816274E+00  0.89219133514E+00  0.88000000000E+00 0.  1.
        -11    1    4    4    0    0  0.21488088741E-01 -0.39033211321E-02 -0.34178650574E-01  0.40563717158E-01  0.51100000000E-03 0.  1.
         11    1    4    4    0    0  0.19380289584E-01 -0.82498990507E-02 -0.84119787900E-01  0.86718258147E-01  0.51100000000E-03 0. -1.
</event>
<event>
 8    1  0.1092993E+005  0.1043930E+01  0.7957747E-01            NaN
         13   -1    0    0    0    0  0.00000000000E+00  0.00000000000E+00  0.74505805969E-08  0.10566000000E+00  0.10566000000E+00 0.  1.
     999900   -1    0    0    0    0 -0.00000000000E+00 -0.00000000000E+00 -0.74505805969E-08  0.93827000000E+00  0.93827000000E+00 0.  1.
     999902    2    1    2    0    0  0.23270309692E-01  0.10661773007E-02 -0.31148176220E-02  0.10204279546E+01  0.10201572744E+01 0.  0.
     999903    2    3    3    0    0 -0.64184559939E-01 -0.48355134984E-01  0.98793359923E-01  0.12886971371E+00  0.19733178452E-01 0.  0.
         14    1    1    2    0    0 -0.23270309692E-01 -0.10661773007E-02  0.31148176220E-02  0.23502045358E-01  0.00000000000E+00 0. -1.
     999901    1    3    3    0    0  0.87454869631E-01  0.49421312285E-01 -0.10190817755E+00  0.89155824094E+00  0.88000000000E+00 0.  1.
        -11    1    4    4    0    0 -0.64381194670E-01 -0.43735862778E-01  0.95341030303E-01  0.12307695601E+00  0.51100000000E-03 0. -1.
         11    1    4    4    0    0  0.19663473094E-03 -0.46192722064E-02  0.34523296198E-02  0.57927576971E-02  0.51100000000E-03 0.  1.
</event>
<event>
 8    1  0.1092993E+005  0.1043930E+01  0.7957747E-01            NaN
         13   -1    0    0    0    0  0.00000000000E+00  0.00000000000E+00  0.74505805969E-08  0.10566000000E+00  0.10566000000E+00 0.  1.
     999900   -1    0    0    0    0 -0.00000000000E+00 -0.00000000000E+00 -0.74505805969E-08  0.93827000000E+00  0.93827000000E+00 0.  1.
     999902    2    1    2    0    0 -0.12613030092E-01 -0.58974465695E-02  0.20223516623E-01  0.10193768122E+01  0.10190810696E+01 0.  0.
     999903    2    3    3    0    0  0.28422403129E-01 -0.92865401622E-01 -0.80988941839E-01  0.12837103576E+00  0.22092946937E-01 0.  0.
         14    1    1    2    0    0  0.12613030092E-01  0.58974465695E-02 -0.20223516623E-01  0.24553187751E-01  0.00000000000E+00 0. -1.
     999901    1    3    3    0    0 -0.41035433220E-01  0.86967955052E-01  0.10121245846E+00  0.89100577649E+00  0.88000000000E+00 0. -1.
        -11    1    4    4    0    0  0.24387944907E-01 -0.86860081007E-01 -0.80804539656E-01  0.12111597863E+00  0.51100000000E-03 0. -1.
         11    1    4    4    0    0  0.40344582216E-02 -0.60053206145E-02 -0.18440218288E-03  0.72550571321E-02  0.51100000000E-03 0.  1.
</event>
<event>
 8    1  0.1092993E+005  0.1043930E+01  0.7957747E-01            NaN
         13   -1    0    0    0    0  0.00000000000E+00  0.00000000000E+00  0.74505805969E-08  0.10566000000E+00  0.10566000000E+00 0. -1.
     999900   -1    0    0    0    0 -0.00000000000E+00 -0.00000000000E+00 -0.74505805969E-08  0.93827000000E+00  0.93827000000E+00 0. -1.
     999902    2    1    2    0    0  0.23321496896E-01 -0.86358178469E-04  0.35062823343E-02  0.10203462409E+01  0.10200736531E+01 0.  0.
     999903    2    3    3    0    0 -0.72352784444E-02 -0.29990614240E-01  0.12570502337E+00  0.13087419903E+00  0.19352438457E-01 0.  0.
         14    1    1    2    0    0 -0.23321496896E-01  0.86358178469E-04 -0.35062823343E-02  0.23583759051E-01  0.00000000000E+00 0.  1.
     999901    1    3    3    0    0  0.30556775340E-01  0.29904256062E-01 -0.12219874103E+00  0.88947204192E+00  0.88000000000E+00 0. -1.
        -11    1    4    4    0    0 -0.13763537789E-01 -0.18338110991E-01  0.84385156437E-01  0.87446195086E-01  0.51100000000E-03 0. -1.
         11    1    4    4    0    0  0.65282593442E-02 -0.11652503250E-01  0.41319866931E-01  0.43428003941E-01  0.51100000000E-03 0.  1.
</event>
<event>
 8    1  0.1092993E+005  0.1043930E+01  0.7957747E-01            NaN
         13   -1    0    0    0    0  0.00000000000E+00  0.00000000000E+00  0.74505805969E-08  0.10566000000E+00  0.10566000000E+00 0. -1.
     999900   -1    0    0    0    0 -0.00000000000E+00 -0.00000000000E+00 -0.74505805969E-08  0.93827000000E+00  0.93827000000E+00 0. -1.
     999902    2    1    2    0    0 -0.47405517658E-02 -0.19252496189E-01 -0.14457630939E-01  0.10193911628E+01  0.10190957699E+01 0.  0.
     999903    2    3    3    0    0 -0.10235987150E+00  0.26150830872E-01 -0.74425068496E-01  0.13080403296E+00  0.20228568128E-01 0.  0.
         14    1    1    2    0    0  0.47405517658E-02  0.19252496189E-01  0.14457630939E-01  0.24538837236E-01  0.00000000000E+00 0.  1.
     999901    1    3    3    0    0  0.97619319733E-01 -0.45403327060E-01  0.59967437557E-01  0.88858712981E+00  0.88000000000E+00 0. -1.
        -11    1    4    4    0    0 -0.40807530502E-01  0.15881195231E-01 -0.20608724586E-01  0.48398838392E-01  0.51100000000E-03 0.  1.
         11    1    4    4    0    0 -0.61552340997E-01  0.10269635641E-01 -0.53816343909E-01  0.82405194564E-01  0.51100000000E-03 0. -1.
</event>
<event>
 8    1  0.1092993E+005  0.1043930E+01  0.7957747E-01            NaN
         13   -1    0    0    0    0  0.00000000000E+00  0.00000000000E+00  0.74505805969E-08  0.10566000000E+00  0.10566000000E+00 0.  1.
     999900   -1    0    0    0    0 -0.00000000000E+00 -0.00000000000E+00 -0.74505805969E-08  0.93827000000E+00  0.93827000000E+00 0. -1.
     999902    2    1    2    0    0 -0.15166330243E-01  0.15987389069E-01 -0.49718980318E-02  0.10213394278E+01  0.10210895616E+01 0.  0.
     999903    2    3    3    0    0  0.34059584878E-01 -0.11531675422E+00 -0.43514768394E-01  0.12940359960E+00  0.19843069204E-01 0.  0.
         14    1    1    2    0    0  0.15166330243E-01 -0.15987389069E-01  0.49718980318E-02  0.22590572200E-01  0.00000000000E+00 0.  1.
     999901    1    3    3    0    0 -0.49225915121E-01  0.13130414329E+00  0.38542870362E-01  0.89193582820E+00  0.88000000000E+00 0. -1.
        -11    1    4    4    0    0  0.29485080025E-01 -0.91690432672E-01 -0.26399258674E-01  0.99868350178E-01  0.51100000000E-03 0.  1.
         11    1    4    4    0    0  0.45745048526E-02 -0.23626321550E-01 -0.17115509720E-01  0.29535249426E-01  0.51100000000E-03 0. -1.
</event>
<event>
 8    1  0.1092993E+005  0.1043930E+01  0.7957747E-01            NaN
         13   -1    0    0    0    0  0.00000000000E+00  0.00000000000E+00  0.74505805969E-08  0.10566000000E+00  0.10566000000E+00 0.  1.
     999900   -1    0    0    0    0 -0.00000000000E+00 -0.00000000000E+00 -0.74505805969E-08  0.93827000000E+00  0.93827000000E+00 0.  1.
     999902    2    1    2    0    0 -0.40753631790E-02 -0.78487334767E-03  0.23391269495E-01  0.10201733988E+01  0.10198967534E+01 0.  0.
     999903    2    3    3    0    0  0.99288948688E-01 -0.77210455623E-01 -0.21951804205E-01  0.12967856732E+00  0.22691393180E-01 0.  0.
         14    1    1    2    0    0  0.40753631790E-02  0.78487334767E-03 -0.23391269495E-01  0.23756601184E-01  0.00000000000E+00 0. -1.
     999901    1    3    3    0    0 -0.10336431187E+00  0.76425582276E-01  0.45343073700E-01  0.89049483150E+00  0.88000000000E+00 0.  1.
        -11    1    4    4    0    0  0.48899449826E-01 -0.24661825523E-01 -0.13297394539E-01  0.56359947250E-01  0.51100000000E-03 0.  1.
         11    1    4    4    0    0  0.50389498862E-01 -0.52548630100E-01 -0.86544096657E-02  0.73318620067E-01  0.51100000000E-03 0. -1.
</event>
<event>
 8    1  0.1092993E+005  0.1043930E+01  0.7957747E-01            NaN
         13   -1    0    0    0    0  0.00000000000E+00  0.00000000000E+00  0.74505805969E-08  0.10566000000E+00  0.10566000000E+00 0. -1.
     999900   -1    0    0    0    0 -0.00000000000E+00 -0.00000000000E+00 -0.74505805969E-08  0.93827000000E+00  0.93827000000E+00 0. -1.
     999902    2    1    2    0    0 -0.15208381400E-01 -0.14553698061E-01  0.10175817720E-01  0.10205494042E+01  0.10202815465E+01 0.  0.
     999903    2    3    3    0    0  0.48064609104E-01  0.11737980947E+00  0.79542799375E-02  0.12846484716E+00  0.18754201362E-01 0.  0.
         14    1    1    2    0    0  0.15208381400E-01  0.14553698061E-01 -0.10175817720E-01  0.23380595765E-01  0.00000000000E+00 0.  1.
     999901    1    3    3    0    0 -0.63272990503E-01 -0.13193350753E+00  0.22215377825E-02  0.89208455707E+00  0.88000000000E+00 0.  1.
        -11    1    4    4    0    0  0.31627398227E-01  0.92481862906E-01  0.64485912161E-03  0.97743870649E-01  0.51100000000E-03 0.  1.
         11    1    4    4    0    0  0.16437210877E-01  0.24897946560E-01  0.73094208159E-02  0.30720976514E-01  0.51100000000E-03 0. -1.
</event>
<event>
 8    1  0.1092993E+005  0.1043930E+01  0.7957747E-01            NaN
         13   -1    0    0    0    0  0.00000000000E+00  0.00000000000E+00  0.74505805969E-08  0.10566000000E+00  0.10566000000E+00 0. -1.
     999900   -1    0    0    0    0 -0.00000000000E+00 -0.00000000000E+00 -0.74505805969E-08  0.93827000000E+00  0.93827000000E+00 0.  1.
     999902    2    1    2    0    0  0.13329033713E-01  0.10310410957E-01  0.16844816647E-01  0.10201032176E+01  0.10198249158E+01 0.  0.
     999903    2    3    3    0    0 -0.35634495024E-01  0.55442808768E-01  0.11295780598E+00  0.13236898525E+00  0.20453851624E-01 0.  0.
         14    1    1    2    0    0 -0.13329033713E-01 -0.10310410957E-01 -0.16844816647E-01  0.23826782445E-01  0.00000000000E+00 0.  1.
     999901    1    3    3    0    0  0.48963528738E-01 -0.45132397811E-01 -0.96112989331E-01  0.88773423230E+00  0.88000000000E+00 0.  1.
        -11    1    4    4    0    0 -0.15243980661E-01  0.23279481537E-01  0.67831217243E-01  0.73318813143E-01  0.51100000000E-03 0.  1.
         11    1    4    4    0    0 -0.20390514364E-01  0.32163327231E-01  0.45126588735E-01  0.59050172112E-01  0.51100000000E-03 0. -1.
</event>
<event>
 8    1  0.1092993E+005  0.1043930E+01  0.7957747E-01            NaN
         13   -1    0    0    0    0  0.00000000000E+00  0.00000000000E+00  0.74505805969E-08  0.10566000000E+00  0.10566000000E+00 0. -1.
     999900   -1    0    0    0    0 -0.00000000000E+00 -0.00000000000E+00 -0.74505805969E-08  0.93827000000E+00  0.93827000000E+00 0.  1.
     999902    2    1    2    0    0 -0.22752741630E-01 -0.14523041101E-01 -0.40225647685E-02  0.10166392140E+01  0.10162728494E+01 0.  0.
     999903    2    3    3    0    0 -0.59930401581E-01  0.10069330448E+00  0.44340554236E-01  0.12703482102E+00  0.20999199993E-01 0.  0.
         14    1    1    2    0    0  0.22752741630E-01  0.14523041101E-01  0.40225647685E-02  0.27290786024E-01  0.00000000000E+00 0. -1.
     999901    1    3    3    0    0  0.37177659952E-01 -0.11521634558E+00 -0.48363119005E-01  0.88960439296E+00  0.88000000000E+00 0.  1.
        -11    1    4    4    0    0 -0.53281763202E-01  0.78198783168E-01  0.41757866756E-01  0.10343102308E+00  0.51100000000E-03 0. -1.
         11    1    4    4    0    0 -0.66486383788E-02  0.22494521313E-01  0.25826874799E-02  0.23603797936E-01  0.51100000000E-03 0.  1.
</event>
<event>
 8    1  0.1092993E+005  0.1043930E+01  0.7957747E-01            NaN
         13   -1    0    0    0    0  0.00000000000E+00  0.00000000000E+00  0.74505805969E-08  0.10566000000E+00  0.10566000000E+00 0. -1.
     999900   -1    0    0    0    0 -0.00000000000E+00 -0.00000000000E+00 -0.74505805969E-08  0.93827000000E+00  0.93827000000E+00 0. -1.
     999902    2    1    2    0    0 -0.19263755797E-01 -0.13048794658E-01  0.44302341248E-02  0.10202447661E+01  0.10199697998E+01 0.  0.
     999903    2    3    3    0    0 -0.11616206045E+00  0.52462285731E-01 -0.27096921476E-01  0.13194586111E+00  0.20725621801E-01 0.  0.
         14    1    1    2    0    0  0.19263755797E-01  0.13048794658E-01 -0.44302341248E-02  0.23685233878E-01  0.00000000000E+00 0.  1.
     999901    1    3    3    0    0  0.96898304655E-01 -0.65511080389E-01  0.31527155601E-01  0.88829890501E+00  0.88000000000E+00 0.  1.
        -11    1    4    4    0    0 -0.47329187625E-01  0.32618302278E-01 -0.11142727253E-01  0.58552772235E-01  0.51100000000E-03 0. -1.
         11    1    4    4    0    0 -0.68832872827E-01  0.19843983452E-01 -0.15954194224E-01  0.73393088879E-01  0.51100000000E-03 0.  1.
</event>
<event>
 8    1  0.1092993E+005  0.1043930E+01  0.7957747E-01            NaN
         13   -1    0    0    0    0  0.00000000000E+00  0.00000000000E+00  0.74505805969E-08  0.10566000000E+00  0.10566000000E+00 0.  1.
     999900   -1    0    0    0    0 -0.00000000000E+00 -0.00000000000E+00 -0.74505805969E-08  0.93827000000E+00  0.93827000000E+00 0.  1.
     999902    2    1    2    0    0  0.23305112837E-01 -0.59669129578E-02 -0.30223584836E-02  0.10196840316E+01  0.10193957314E+01 0.  0.
     999903    2    3    3    0    0  0.35897837982E-01  0.61917096598E-01  0.10740214854E+00  0.13009964140E+00  0.16380279552E-01 0.  0.
         14    1    1    2    0    0 -0.23305112837E-01  0.59669129578E-02  0.30223584836E-02  0.24245968436E-01  0.00000000000E+00 0. -1.
     999901    1    3    3    0    0 -0.12592725144E-01 -0.67884009555E-01 -0.11042450702E+00  0.88958439017E+00  0.88000000000E+00 0.  1.
        -11    1    4    4    0    0  0.17451375882E-01  0.44224969340E-01  0.64009339103E-01  0.79736158966E-01  0.51100000000E-03 0. -1.
         11    1    4    4    0    0  0.18446462099E-01  0.17692127258E-01  0.43392809434E-01  0.50363482430E-01  0.51100000000E-03 0.  1.
</event>
<event>
 8    1  0.1092993E+005  0.1043930E+01  0.7957747E-01            NaN
         13   -1    0    0    0    0  0.00000000000E+00  0.00000000000E+00  0.74505805969E-08  0.10566000000E+00  0.10566000000E+00 0. -1.
     999900   -1    0    0    0    0 -0.00000000000E+00 -0.00000000000E+00 -0.74505805969E-08  0.93827000000E+00  0.93827000000E+00 0.  1.
     999902    2    1    2    0    0 -0.80505811066E-02  0.15437201590E-01  0.15669730026E-01  0.10205065184E+01  0.10202376658E+01 0.  0.
     999903    2    3    3    0    0  0.11124291896E+00  0.65412454037E-01  0.10111955395E-01  0.13103512831E+00  0.20351340152E-01 0.  0.
         14    1    1    2    0    0  0.80505811066E-02 -0.15437201590E-01 -0.15669730026E-01  0.23423481555E-01  0.00000000000E+00 0.  1.
     999901    1    3    3    0    0 -0.11929350007E+00 -0.49975252448E-01  0.55577746315E-02  0.88947139014E+00  0.88000000000E+00 0. -1.
        -11    1    4    4    0    0  0.85692738831E-01  0.58045642306E-01  0.12855973519E-01  0.10429803093E+00  0.51100000000E-03 0. -1.
         11    1    4    4    0    0  0.25550180131E-01  0.73668117311E-02 -0.27440181243E-02  0.26737097379E-01  0.51100000000E-03 0.  1.
</event>
<event>
 8    1  0.1092993E+005  0.1043930E+01  0.7957747E-01            NaN
         13   -1    0    0    0    0  0.00000000000E+00  0.00000000000E+00  0.74505805969E-08  0.10566000000E+00  0.10566000000E+00 0. -1.
     999900   -1    0    0    0    0 -0.00000000000E+00 -0.00000000000E+00 -0.74505805969E-08  0.93827000000E+00  0.93827000000E+00 0. -1.
     999902    2    1    2    0    0  0.15304190719E-02  0.98826592978E-02  0.21519762720E-01  0.10202000753E+01  0.10199240581E+01 0.  0.
     999903    2    3    3    0    0  0.12759535596E+00  0.21372835356E-01  0.29153350422E-02  0.13094728945E+00  0.20032984909E-01 0.  0.
         14    1    1    2    0    0 -0.15304190719E-02 -0.98826592978E-02 -0.21519762720E-01  0.23729924670E-01  0.00000000000E+00 0.  1.
     999901    1    3    3    0    0 -0.12606493688E+00 -0.11490176058E-01  0.18604427678E-01  0.88925278588E+00  0.88000000000E+00 0.  1.
        -11    1    4    4    0    0  0.12066490445E-01  0.30362650239E-02  0.62293230986E-02  0.13924248067E-01  0.51100000000E-03 0. -1.
         11    1    4    4    0    0  0.11552886551E+00  0.18336570332E-01 -0.33139880563E-02  0.11702304139E+00  0.51100000000E-03 0.  1.
</event>
<event>
 8    1  0.1092993E+005  0.1043930E+01  0.7957747E-01            NaN
         13   -1    0    0    0    0  0.00000000000E+00  0.00000000000E+00  0.74505805969E-08  0.10566000000E+00  0.10566000000E+00 0.  1.
     999900   -1    0    0    0    0 -0.00000000000E+00 -0.00000000000E+00 -0.74505805969E-08  0.93827000000E+00  0.93827000000E+00 0. -1.
     999902    2    1    2    0    0  0.18004721818E-02  0.46612336959E-02  0.22748340610E-01  0.10206393195E+01  0.10203735417E+01 0.  0.
     999903    2    3    3    0    0  0.11703656710E+00  0.55770928966E-01 -0.41007347782E-02  0.13125052294E+00  0.20048171700E-01 0.  0.
         14    1    1    2    0    0 -0.18004721818E-02 -0.46612336959E-02 -0.22748340610E-01  0.23290680543E-01  0.00000000000E+00 0. -1.
     999901    1    3    3    0    0 -0.11523609492E+00 -0.51109695270E-01  0.26849075388E-01  0.88938879652E+00  0.88000000000E+00 0. -1.
        -11    1    4    4    0    0  0.19361560387E-01  0.17898084629E-01  0.66854624270E-03  0.26380286751E-01  0.51100000000E-03 0. -1.
         11    1    4    4    0    0  0.97675006718E-01  0.37872844337E-01 -0.47692810209E-02  0.10487023619E+00  0.51100000000E-03 0.  1.
</event>
<event>
 8    1  0.1092993E+005  0.1043930E+01  0.7957747E-01            NaN
         13   -1    0    0    0    0  0.00000000000E+00  0.00000000000E+00  0.74505805969E-08  0.10566000000E+00  0.10566000000E+00 0. -1.
     999900   -1    0    0    0    0 -0.00000000000E+00 -0.00000000000E+00 -0.74505805969E-08  0.93827000000E+00  0.93827000000E+00 0. -1.
     999902    2    1    2    0    0 -0.11839432812E-01  0.13688609170E-02  0.18168818906E-01  0.10222009427E+01  0.10219699679E+01 0.  0.
     999903    2    3    3    0    0  0.10477505369E+00  0.60809351628E-01 -0.43869896095E-01  0.13035963815E+00  0.19836288794E-01 0.  0.
         14    1    1    2    0    0  0.11839432812E-01 -0.13688609170E-02 -0.18168818906E-01  0.21729057272E-01  0.00000000000E+00 0.  1.
     999901    1    3    3    0    0 -0.11661448650E+00 -0.59440490711E-01  0.62038715001E-01  0.89184130458E+00  0.88000000000E+00 0.  1.
        -11    1    4    4    0    0  0.10302307540E-01  0.13161327050E-01 -0.87565743863E-02  0.18875825448E-01  0.51100000000E-03 0. -1.
         11    1    4    4    0    0  0.94472746150E-01  0.47648024577E-01 -0.35113321709E-01  0.11148381270E+00  0.51100000000E-03 0.  1.
</event>
<event>
 8    1  0.1092993E+005  0.1043930E+01  0.7957747E-01            NaN
         13   -1    0    0    0    0  0.00000000000E+00  0.00000000000E+00  0.74505805969E-08  0.10566000000E+00  0.10566000000E+00 0.  1.
     999900   -1    0    0    0    0 -0.00000000000E+00 -0.00000000000E+00 -0.74505805969E-08  0.93827000000E+00  0.93827000000E+00 0.  1.
     999902    2    1    2    0    0  0.33574794080E-02  0.12528861143E-01  0.19741977946E-01  0.10203081727E+01  0.10200346938E+01 0.  0.
     999903    2    3    3    0    0 -0.60188476466E-01 -0.10179774200E-01 -0.11082119795E+00  0.12811956403E+00  0.20174346820E-01 0.  0.
         14    1    1    2    0    0 -0.33574794080E-02 -0.12528861143E-01 -0.19741977946E-01  0.23621827252E-01  0.00000000000E+00 0. -1.
     999901    1    3    3    0    0  0.63545955874E-01  0.22708635343E-01  0.13056317590E+00  0.89218860872E+00  0.88000000000E+00 0. -1.
        -11    1    4    4    0    0 -0.17820289424E-01 -0.12618172458E-01 -0.36703180804E-01  0.42710251621E-01  0.51100000000E-03 0. -1.
         11    1    4    4    0    0 -0.42368187042E-01  0.24383982586E-02 -0.74118017147E-01  0.85409312409E-01  0.51100000000E-03 0.  1.
</event>
<event>
 8    1  0.1092993E+005  0.1043930E+01  0.7957747E-01            NaN
         13   -1    0    0    0    0  0.00000000000E+00  0.00000000000E+00  0.74505805969E-08  0.10566000000E+00  0.10566000000E+00 0. -1.
     999900   -1    0    0    0    0 -0.00000000000E+00 -0.00000000000E+00 -0.74505805969E-08  0.93827000000E+00  0.93827000000E+00 0.  1.
     999902    2    1    2    0    0  0.10836833161E-01 -0.13635582979E-01  0.17196070529E-01  0.10194540747E+01  0.10191602129E+01 0.  0.
     999903    2    3    3    0    0  0.95442252500E-01 -0.56128144398E-01  0.70449961403E-01  0.13277506198E+00  0.20160056217E-01 0.  0.
         14    1    1    2    0    0 -0.10836833161E-01  0.13635582979E-01 -0.17196070529E-01  0.24475925270E-01  0.00000000000E+00 0.  1.
     999901    1    3    3    0    0 -0.84605419338E-01  0.42492561418E-01 -0.53253890873E-01  0.88667901275E+00  0.88000000000E+00 0.  1.
        -11    1    4    4    0    0  0.71769532107E-01 -0.31634380336E-01  0.50772377061E-01  0.93432837652E-01  0.51100000000E-03 0.  1.
         11    1    4    4    0    0  0.23672720392E-01 -0.24493764061E-01  0.19677584341E-01  0.39342224329E-01  0.51100000000E-03 0. -1.
</event>
<event>
 8    1  0.1092993E+005  0.1043930E+01  0.7957747E-01            NaN
         13   -1    0    0    0    0  0.00000000000E+00  0.00000000000E+00  0.74505805969E-08  0.10566000000E+00  0.10566000000E+00 0.  1.
     999900   -1    0    0    0    0 -0.00000000000E+00 -0.00000000000E+00 -0.74505805969E-08  0.93827000000E+00  0.93827000000E+00 0.  1.
     999902    2    1    2    0    0 -0.19684194281E-01  0.16003104414E-01  0.15586852033E-02  0.10185135417E+01  0.10181963652E+01 0.  0.
     999903    2    3    3    0    0 -0.89380851168E-01 -0.45070452169E-01 -0.80200003772E-01  0.12987858481E+00  0.20399116977E-01 0.  0.
         14    1    1    2    0    0  0.19684194281E-01 -0.16003104414E-01 -0.15586852033E-02  0.25416458348E-01  0.00000000000E+00 0. -1.
     999901    1    3    3    0    0  0.69696656887E-01  0.61073556584E-01  0.81758688975E-01  0.88863495684E+00  0.88000000000E+00 0. -1.
        -11    1    4    4    0    0 -0.12330367719E-01 -0.64157105587E-02 -0.21424952706E-01  0.25543864812E-01  0.51100000000E-03 0.  1.
         11    1    4    4    0    0 -0.77050483449E-01 -0.38654741611E-01 -0.58775051065E-01  0.10433472000E+00  0.51100000000E-03 0. -1.
</event>
<event>
 8    1  0.1092993E+005  0.1043930E+01  0.7957747E-01            NaN
         13   -1    0    0    0    0  0.00000000000E+00  0.00000000000E+00  0.74505805969E-08  0.10566000000E+00  0.10566000000E+00 0. -1.
     999900   -1    0    0    0    0 -0.00000000000E+00 -0.00000000000E+00 -0.74505805969E-08  0.93827000000E+00  0.93827000000E+00 0.  1.
     999902    2    1    2    0    0 -0.19114921316E-01 -0.11254117386E-01 -0.76718890594E-02  0.10204588846E+01  0.10201889246E+01 0.  0.
     999903    2    3    3    0    0  0.64556836304E-01 -0.10377719790E-01  0.10917833535E+00  0.12879992177E+00  0.19855194687E-01 0.  0.
         14    1    1    2    0    0  0.19114921316E-01  0.11254117386E-01  0.76718890594E-02  0.23471115372E-01  0.00000000000E+00 0. -1.
     999901    1    3    3    0    0 -0.83671757621E-01 -0.87639759572E-03 -0.11685022441E+00  0.89165896286E+00  0.88000000000E+00 0.  1.
        -11    1    4    4    0    0  0.15488427813E-01 -0.27112985248E-02  0.44851998551E-01  0.47531099618E-01  0.51100000000E-03 0. -1.
         11    1    4    4    0    0  0.49068408491E-01 -0.76664212656E-02  0.64326336803E-01  0.81268822154E-01  0.51100000000E-03 0.  1.
</event>
<event>
 8    1  0.1092993E+005  0.1043930E+01  0.7957747E-01            NaN
         13   -1    0    0    0    0  0.00000000000E+00  0.00000000000E+00  0.74505805969E-08  0.10566000000E+00  0.10566000000E+00 0. -1.
     999900   -1    0    0    0    0 -0.00000000000E+00 -0.00000000000E+00 -0.74505805969E-08  0.93827000000E+00  0.93827000000E+00 0. -1.
     999902    2    1    2    0    0 -0.34424403127E-02  0.20778160694E-01  0.10909169703E-01  0.10202109709E+01  0.10199352101E+01 0.  0.
     999903    2    3    3    0    0 -0.73330073172E-01  0.18429957717E-01 -0.10389130099E+00  0.13000372350E+00  0.19763671951E-01 0.  0.
         14    1    1    2    0    0  0.34424403127E-02 -0.20778160694E-01 -0.10909169703E-01  0.23719029085E-01  0.00000000000E+00 0. -1.
     999901    1    3    3    0    0  0.69887632859E-01  0.23482029776E-02  0.11480047069E+00  0.89020724742E+00  0.88000000000E+00 0.  1.
        -11    1    4    4    0    0 -0.45710833818E-01  0.10608452195E-01 -0.79565168751E-01  0.92373680157E-01  0.51100000000E-03 0. -1.
         11    1    4    4    0    0 -0.27619239354E-01  0.78215055216E-02 -0.24326132238E-01  0.37630043340E-01  0.51100000000E-03 0.  1.
</event>
<event>
 7    1  0.1173652E+005  0.1043930E+01  0.7957747E-01            NaN
         13   -1    0    0    0    0  0.00000000000E+00  0.00000000000E+00  0.74505805969E-08  0.10566000000E+00  0.10566000000E+00 0.  1.
     999900   -1    0    0    0    0 -0.00000000000E+00 -0.00000000000E+00 -0.74505805969E-08  0.93827000000E+00  0.93827000000E+00 0. -1.
     999902    2    1    2    0    0  0.11409277866E-01  0.85817363714E-02 -0.18867024103E-01  0.10202702786E+01  0.10199959112E+01 0.  0.
         14    1    1    2    0    0 -0.11409277866E-01 -0.85817363714E-02  0.18867024103E-01  0.23659721449E-01  0.00000000000E+00 0.  1.
     999901    1    3    3    0    0  0.10583820258E+00 -0.52318773278E-01  0.28364661098E-01  0.88833751084E+00  0.88000000000E+00 0.  1.
        -11    1    3    3    0    0 -0.52484596210E-01  0.62429024005E-02 -0.10630172949E-01  0.53915381550E-01  0.51100000000E-03 0.  1.
         11    1    3    3    0    0 -0.41944328501E-01  0.54657607249E-01 -0.36601512251E-01  0.78017386163E-01  0.51100000000E-03 0. -1.
</event>
<event>
 8    1  0.1092993E+005  0.1043930E+01  0.7957747E-01            NaN
         13   -1    0    0    0    0  0.00000000000E+00  0.00000000000E+00  0.74505805969E-08  0.10566000000E+00  0.10566000000E+00 0.  1.
     999900   -1    0    0    0    0 -0.00000000000E+00 -0.00000000000E+00 -0.74505805969E-08  0.93827000000E+00  0.93827000000E+00 0. -1.
     999902    2    1    2    0    0 -0.19574272974E-01 -0.91546549958E-02  0.77974534753E-02  0.10209569690E+01  0.10206984729E+01 0.  0.
     999903    2    3    3    0    0  0.66952586583E-01 -0.95971875087E-01 -0.53691148763E-01  0.13033641273E+00  0.20287714742E-01 0.  0.
         14    1    1    2    0    0  0.19574272974E-01  0.91546549958E-02 -0.77974534753E-02  0.22973030955E-01  0.00000000000E+00 0. -1.
     999901    1    3    3    0    0 -0.86526859557E-01  0.86817220091E-01  0.61488602238E-01  0.89062055632E+00  0.88000000000E+00 0.  1.
        -11    1    4    4    0    0  0.28072600733E-01 -0.54242239205E-01 -0.34548632376E-01  0.70172363120E-01  0.51100000000E-03 0. -1.
         11    1    4    4    0    0  0.38879985850E-01 -0.41729635883E-01 -0.19142516387E-01  0.60164049608E-01  0.51100000000E-03 0.  1.
</event>
<event>
 8    1  0.1092993E+005  0.1043930E+01  0.7957747E-01            NaN
         13   -1    0    0    0    0  0.00000000000E+00  0.00000000000E+00  0.74505805969E-08  0.10566000000E+00  0.10566000000E+00 0.  1.
     999900   -1    0    0    0    0 -0.00000000000E+00 -0.00000000000E+00 -0.74505805969E-08  0.93827000000E+00  0.93827000000E+00 0. -1.
     999902    2    1    2    0    0  0.16311284292E-01  0.13507156263E-01 -0.77672132663E-02  0.10213727203E+01  0.10211235983E+01 0.  0.
     999903    2    3    3    0    0 -0.42505682494E-01  0.54666088513E-01 -0.11112891402E+00  0.13241989002E+00  0.19755441352E-01 0.  0.
         14    1    1    2    0    0 -0.16311284292E-01 -0.13507156263E-01  0.77672132663E-02  0.22557279701E-01  0.00000000000E+00 0. -1.
     999901    1    3    3    0    0  0.58816966786E-01 -0.41158932250E-01  0.10336170075E+00  0.88895283028E+00  0.88000000000E+00 0.  1.
        -11    1    4    4    0    0 -0.73569966149E-02  0.15661044697E-01 -0.15091035383E-01  0.22965064557E-01  0.51100000000E-03 0. -1.
         11    1    4    4    0    0 -0.35148685879E-01  0.39005043816E-01 -0.96037878637E-01  0.10945482546E+00  0.51100000000E-03 0.  1.
</event>
<event>
 8    1  0.1092993E+005  0.1043930E+01  0.7957747E-01            NaN
         13   -1    0    0    0    0  0.00000000000E+00  0.00000000000E+00  0.74505805969E-08  0.10566000000E+00  0.10566000000E+00 0.  1.
     999900   -1    0    0    0    0 -0.00000000000E+00 -0.00000000000E+00 -0.74505805969E-08  0.93827000000E+00  0.93827000000E+00 0. -1.
     999902    2    1    2    0    0 -0.14745299103E-01 -0.12737500513E-01 -0.91932593443E-02  0.10223850753E+01  0.10221580398E+01 0.  0.
     999903    2    3    3    0    0 -0.28497385757E-01  0.35024433568E-01  0.12178649892E+00  0.13130369889E+00  0.19232734582E-01 0.  0.
         14    1    1    2    0    0  0.14745299103E-01  0.12737500513E-01  0.91932593443E-02  0.21544924746E-01  0.00000000000E+00 0.  1.
     999901    1    3    3    0    0  0.13752086654E-01 -0.47761934081E-01 -0.13097975827E+00  0.89108137637E+00  0.88000000000E+00 0. -1.
        -11    1    4    4    0    0 -0.21090849571E-01  0.29304583770E-01  0.70943901807E-01  0.79604528076E-01  0.51100000000E-03 0. -1.
         11    1    4    4    0    0 -0.74065361863E-02  0.57198497982E-02  0.50842597115E-01  0.51699170810E-01  0.51100000000E-03 0.  1.
</event>
<event>
 8    1  0.1092993E+005  0.1043930E+01  0.7957747E-01            NaN
         13   -1    0    0    0    0  0.00000000000E+00  0.00000000000E+00  0.74505805969E-08  0.10566000000E+00  0.10566000000E+00 0. -1.
     999900   -1    0    0    0    0 -0.00000000000E+00 -0.00000000000E+00 -0.74505805969E-08  0.93827000000E+00  0.93827000000E+00 0. -1.
     999902    2    1    2    0    0  0.90135327252E-02 -0.21160936216E-01  0.15937883581E-02  0.10208742165E+01  0.10206138333E+01 0.  0.
     999903    2    3    3    0    0 -0.48076540357E-01  0.94006634566E-01  0.71112364587E-01  0.12882282878E+00  0.19742131163E-01 0.  0.
         14    1    1    2    0    0 -0.90135327252E-02  0.21160936216E-01 -0.15937883581E-02  0.23055783549E-01  0.00000000000E+00 0. -1.
     999901    1    3    3    0    0  0.57090073082E-01 -0.11516757078E+00 -0.69518576229E-01  0.89205138767E+00  0.88000000000E+00 0.  1.
        -11    1    4    4    0    0 -0.82825165925E-02  0.32843140725E-01  0.16510050756E-01  0.37684411509E-01  0.51100000000E-03 0. -1.
         11    1    4    4    0    0 -0.39794023765E-01  0.61163493840E-01  0.54602313831E-01  0.91138417272E-01  0.51100000000E-03 0.  1.
</event>
<event>
 8    1  0.1092993E+005  0.1043930E+01  0.7957747E-01            NaN
         13   -1    0    0    0    0  0.00000000000E+00  0.00000000000E+00  0.74505805969E-08  0.10566000000E+00  0.10566000000E+00 0. -1.
     999900   -1    0    0    0    0 -0.00000000000E+00 -0.00000000000E+00 -0.74505805969E-08  0.93827000000E+00  0.93827000000E+00 0.  1.
     999902    2    1    2    0    0 -0.48761033227E-02  0.31747906483E-02 -0.23859569899E-01  0.10193711980E+01  0.10190753184E+01 0.  0.
     999903    2    3    3    0    0  0.93988674192E-01 -0.68326123926E-01  0.49399761447E-01  0.12793777108E+00  0.20625390947E-01 0.  0.
         14    1    1    2    0    0  0.48761033227E-02 -0.31747906483E-02  0.23859569899E-01  0.24558801987E-01  0.00000000000E+00 0. -1.
     999901    1    3    3    0    0 -0.98864777515E-01  0.71500914574E-01 -0.73259331346E-01  0.89143342693E+00  0.88000000000E+00 0.  1.
        -11    1    4    4    0    0  0.82196573436E-01 -0.67137278185E-01  0.45155205426E-01  0.11533839129E+00  0.51100000000E-03 0.  1.
         11    1    4    4    0    0  0.11792100756E-01 -0.11888457411E-02  0.42445560203E-02  0.12599379796E-01  0.51100000000E-03 0. -1.
</event>
<event>
 8    1  0.1092993E+005  0.1043930E+01  0.7957747E-01            NaN
         13   -1    0    0    0    0  0.00000000000E+00  0.00000000000E+00  0.74505805969E-08  0.10566000000E+00  0.10566000000E+00 0.  1.
     999900   -1    0    0    0    0 -0.00000000000E+00 -0.00000000000E+00 -0.74505805969E-08  0.93827000000E+00  0.93827000000E+00 0. -1.
     999902    2    1    2    0    0  0.15045765778E-01  0.17121352760E-01  0.26717774182E-02  0.10209810527E+01  0.10207231044E+01 0.  0.
     999903    2    3    3    0    0 -0.33221782497E-02 -0.10204932166E+00 -0.76605917010E-01  0.12922773262E+00  0.20155382381E-01 0.  0.
         14    1    1    2    0    0 -0.15045765778E-01 -0.17121352760E-01 -0.26717774182E-02  0.22948947313E-01  0.00000000000E+00 0.  1.
     999901    1    3    3    0    0  0.18367944028E-01  0.11917067442E+00  0.79277694428E-01  0.89175332006E+00  0.88000000000E+00 0.  1.
        -11    1    4    4    0    0 -0.88188295011E-02 -0.91319006798E-01 -0.70498093608E-01  0.11570296055E+00  0.51100000000E-03 0.  1.
         11    1    4    4    0    0  0.54966512515E-02 -0.10730314860E-01 -0.61078234022E-02  0.13524772076E-01  0.51100000000E-03 0. -1.
</event>
<event>
 8    1  0.1092993E+005  0.1043930E+01  0.7957747E-01            NaN
         13   -1    0    0    0    0  0.00000000000E+00  0.00000000000E+00  0.74505805969E-08  0.10566000000E+00  0.10566000000E+00 0. -1.
     999900   -1    0    0    0    0 -0.00000000000E+00 -0.00000000000E+00 -0.74505805969E-08  0.93827000000E+00  0.93827000000E+00 0.  1.
     999902    2    1    2    0    0  0.14485719355E-01 -0.17817863912E-01  0.93081308255E-02  0.10191519121E+01  0.10188506595E+01 0.  0.
     999903    2    3    3    0    0 -0.15322618038E-01  0.48518285343E-01  0.11735458251E+00  0.12956602116E+00  0.20650645656E-01 0.  0.
         14    1    1    2    0    0 -0.14485719355E-01  0.17817863912E-01 -0.93081308255E-02  0.24778087882E-01  0.00000000000E+00 0.  1.
     999901    1    3    3    0    0  0.29808337393E-01 -0.66336149256E-01 -0.10804645168E+00  0.88958589096E+00  0.88000000000E+00 0.  1.
        -11    1    4    4    0    0 -0.11459255708E-01  0.39678558317E-01  0.70347896242E-01  0.81576897208E-01  0.51100000000E-03 0. -1.
         11    1    4    4    0    0 -0.38633623296E-02  0.88397270265E-02  0.47006686268E-01  0.47989123948E-01  0.51100000000E-03 0.  1.
</event>
<event>
 8    1  0.1092993E+005  0.1043930E+01  0.7957747E-01            NaN
         13   -1    0    0    0    0  0.00000000000E+00  0.00000000000E+00  0.74505805969E-08  0.10566000000E+00  0.10566000000E+00 0. -1.
     999900   -1    0    0    0    0 -0.00000000000E+00 -0.00000000000E+00 -0.74505805969E-08  0.93827000000E+00  0.93827000000E+00 0.  1.
     999902    2    1    2    0    0  0.17896963960E-01 -0.87403463278E-02 -0.13417506907E-01  0.10199149117E+01  0.10196321409E+01 0.  0.
     999903    2    3    3    0    0 -0.79512076524E-01  0.88268982919E-01  0.41965170556E-01  0.12752118019E+00  0.19672117298E-01 0.  0.
         14    1    1    2    0    0 -0.17896963960E-01  0.87403463278E-02  0.13417506907E-01  0.24015088268E-01  0.00000000000E+00 0. -1.
     999901    1    3    3    0    0  0.97409040485E-01 -0.97009329247E-01 -0.55382677462E-01  0.89239373154E+00  0.88000000000E+00 0.  1.
        -11    1    4    4    0    0 -0.44863827197E-01  0.35320180474E-01  0.21492485414E-01  0.61012016765E-01  0.51100000000E-03 0.  1.
         11    1    4    4    0    0 -0.34648249327E-01  0.52948802445E-01  0.20472685141E-01  0.66509163427E-01  0.51100000000E-03 0. -1.
</event>
<event>
 7    1  0.1092993E+005  0.1043930E+01  0.7957747E-01            NaN
         13   -1    0    0    0    0  0.00000000000E+00  0.00000000000E+00  0.74505805969E-08  0.10566000000E+00  0.10566000000E+00 0.  1.
     999900   -1    0    0    0    0 -0.00000000000E+00 -0.00000000000E+00 -0.74505805969E-08  0.93827000000E+00  0.93827000000E+00 0. -1.
     999903    2    1    2    0    0  0.10224312384E+00 -0.50731510715E-01 -0.12365634280E-01  0.11612445334E+00  0.17453859182E-01 0.  0.
         14    1    1    2    0    0 -0.13107699929E-01  0.32749349077E-01  0.24650679887E-01  0.43034726457E-01  0.00000000000E+00 0.  1.
     999901    1    1    2    0    0 -0.89135423914E-01  0.17982161638E-01 -0.12285045607E-01  0.88477082020E+00  0.88000000000E+00 0. -1.
        -11    1    3    3    0    0  0.20347113676E-01 -0.40861499532E-02 -0.62341964687E-02  0.21675515749E-01  0.51100000000E-03 0.  1.
         11    1    3    3    0    0  0.81896010166E-01 -0.46645360762E-01 -0.61314378116E-02  0.94448937593E-01  0.51100000000E-03 0. -1.
</event>
<event>
 8    1  0.1092993E+005  0.1043930E+01  0.7957747E-01            NaN
         13   -1    0    0    0    0  0.00000000000E+00  0.00000000000E+00  0.74505805969E-08  0.10566000000E+00  0.10566000000E+00 0.  1.
     999900   -1    0    0    0    0 -0.00000000000E+00 -0.00000000000E+00 -0.74505805969E-08  0.93827000000E+00  0.93827000000E+00 0.  1.
     999902    2    1    2    0    0  0.28178801384E-02  0.16321628435E-02 -0.23117115645E-01  0.10205846484E+01  0.10203176070E+01 0.  0.
     999903    2    3    3    0    0  0.53117021933E-01 -0.11236615573E+00 -0.38222708248E-01  0.13167869209E+00  0.20754073136E-01 0.  0.
         14    1    1    2    0    0 -0.28178801384E-02 -0.16321628435E-02  0.23117115645E-01  0.23345351567E-01  0.00000000000E+00 0.  1.
     999901    1    3    3    0    0 -0.50299141795E-01  0.11399831857E+00  0.15105592603E-01  0.88890595635E+00  0.88000000000E+00 0.  1.
        -11    1    4    4    0    0  0.32521332073E-01 -0.69986009835E-01 -0.13103340946E-01  0.78279226346E-01  0.51100000000E-03 0.  1.
         11    1    4    4    0    0  0.20595689861E-01 -0.42380145891E-01 -0.25119367302E-01  0.53399465739E-01  0.51100000000E-03 0. -1.
</event>
<event>
 8    1  0.1092993E+005  0.1043930E+01  0.7957747E-01            NaN
         13   -1    0    0    0    0  0.00000000000E+00  0.00000000000E+00  0.74505805969E-08  0.10566000000E+00  0.10566000000E+00 0.  1.
     999900   -1    0    0    0    0 -0.00000000000E+00 -0.00000000000E+00 -0.74505805969E-08  0.93827000000E+00  0.93827000000E+00 0.  1.
     999902    2    1    2    0    0  0.24712144166E-01 -0.55011352105E-02  0.37098293206E-02  0.10183425931E+01  0.10180210811E+01 0.  0.
     999903    2    3    3    0    0 -0.63102516077E-01 -0.10658645674E+00  0.25171583009E-01  0.12795488898E+00  0.19905896827E-01 0.  0.
         14    1    1    2    0    0 -0.24712144166E-01  0.55011352105E-02 -0.37098293206E-02  0.25587406893E-01  0.00000000000E+00 0. -1.
     999901    1    3    3    0    0  0.87814660243E-01  0.10108532153E+00 -0.21461753688E-01  0.89038770412E+00  0.88000000000E+00 0.  1.
        -11    1    4    4    0    0 -0.87028131505E-02 -0.24610282062E-01  0.11848704817E-01  0.28671551523E-01  0.51100000000E-03 0. -1.
         11    1    4    4    0    0 -0.54399702927E-01 -0.81976174677E-01  0.13322878191E-01  0.99283337461E-01  0.51100000000E-03 0.  1.
</event>
<event>
 8    1  0.1092993E+005  0.1043930E+01  0.7957747E-01            NaN
         13   -1    0    0    0    0  0.00000000000E+00  0.00000000000E+00  0.74505805969E-08  0.10566000000E+00  0.10566000000E+00 0.  1.
     999900   -1    0    0    0    0 -0.00000000000E+00 -0.00000000000E+00 -0.74505805969E-08  0.93827000000E+00  0.93827000000E+00 0. -1.
     999902    2    1    2    0    0  0.19599961502E-01 -0.16308587935E-02  0.13417150178E-01  0.10201216378E+01  0.10198437713E+01 0.  0.
     999903    2    3    3    0    0  0.61061241914E-01  0.65057596578E-01 -0.92598594491E-01  0.13028697566E+00  0.20957819239E-01 0.  0.
         14    1    1    2    0    0 -0.19599961502E-01  0.16308587935E-02 -0.13417150178E-01  0.23808362190E-01  0.00000000000E+00 0. -1.
     999901    1    3    3    0    0 -0.41461280412E-01 -0.66688455371E-01  0.10601574467E+00  0.88983466215E+00  0.88000000000E+00 0.  1.
        -11    1    4    4    0    0  0.49432406858E-01  0.57883000534E-01 -0.86759950605E-01  0.11541903980E+00  0.51100000000E-03 0. -1.
         11    1    4    4    0    0  0.11628835056E-01  0.71745960438E-02 -0.58386438861E-02  0.14867935855E-01  0.51100000000E-03 0.  1.
</event>
<event>
 8    1  0.1092993E+005  0.1043930E+01  0.7957747E-01            NaN
         13   -1    0    0    0    0  0.00000000000E+00  0.00000000000E+00  0.74505805969E-08  0.10566000000E+00  0.10566000000E+00 0. -1.
     999900   -1    0    0    0    0 -0.00000000000E+00 -0.00000000000E+00 -0.74505805969E-08  0.93827000000E+00  0.93827000000E+00 0. -1.
     999902    2    1    2    0    0  0.19202150724E-01 -0.26393558737E-02 -0.15769543005E-01  0.10189426576E+01  0.10186362316E+01 0.  0.
     999903    2    3    3    0    0 -0.20161741025E-01  0.21776898948E-01  0.12021960529E+00  0.12729322096E+00  0.29497143548E-01 0.  0.
         14    1    1    2    0    0 -0.19202150724E-01  0.26393558737E-02  0.15769543005E-01  0.24987342364E-01  0.00000000000E+00 0. -1.
     999901    1    3    3    0    0  0.39363891749E-01 -0.24416254822E-01 -0.13598914829E+00  0.89164943668E+00  0.88000000000E+00 0. -1.
        -11    1    4    4    0    0  0.57754674443E-02  0.12740454656E-01  0.48965307734E-01  0.50926787564E-01  0.51100000000E-03 0.  1.
         11    1    4    4    0    0 -0.25937208469E-01  0.90364442919E-02  0.71254297554E-01  0.76366433395E-01  0.51100000000E-03 0. -1.
</event>
<event>
 8    1  0.1092993E+005  0.1043930E+01  0.7957747E-01            NaN
         13   -1    0    0    0    0  0.00000000000E+00  0.00000000000E+00  0.74505805969E-08  0.10566000000E+00  0.10566000000E+00 0.  1.
     999900   -1    0    0    0    0 -0.00000000000E+00 -0.00000000000E+00 -0.74505805969E-08  0.93827000000E+00  0.93827000000E+00 0. -1.
     999902    2    1    2    0    0 -0.76673091939E-02  0.48791076831E-02 -0.22229552765E-01  0.10199144563E+01  0.10196316746E+01 0.  0.
     999903    2    3    3    0    0  0.11605995364E+00  0.47999243140E-01 -0.27840682874E-01  0.13019581179E+00  0.20050077402E-01 0.  0.
         14    1    1    2    0    0  0.76673091939E-02 -0.48791076831E-02  0.22229552765E-01  0.24015543679E-01  0.00000000000E+00 0.  1.
     999901    1    3    3    0    0 -0.12372726283E+00 -0.43120135457E-01  0.56111301090E-02  0.88971864453E+00  0.88000000000E+00 0. -1.
        -11    1    4    4    0    0  0.93162483409E-01  0.46371871108E-01 -0.25275373047E-01  0.10709203681E+00  0.51100000000E-03 0. -1.
         11    1    4    4    0    0  0.22897470228E-01  0.16273720320E-02 -0.25653098274E-02  0.23103774975E-01  0.51100000000E-03 0.  1.
</event>
<event>
 8    1  0.1092993E+005  0.1043930E+01  0.7957747E-01            NaN
         13   -1    0    0    0    0  0.00000000000E+00  0.00000000000E+00  0.74505805969E-08  0.10566000000E+00  0.10566000000E+00 0. -1.
     999900   -1    0    0    0    0 -0.00000000000E+00 -0.00000000000E+00 -0.74505805969E-08  0.93827000000E+00  0.93827000000E+00 0.  1.
     999902    2    1    2    0    0 -0.44905944586E-02  0.11668235433E-01 -0.19881382320E-01  0.10204442060E+01  0.10201739043E+01 0.  0.
     999903    2    3    3    0    0  0.12655672558E+00 -0.16228697706E-03 -0.28794499480E-01  0.13061680420E+00  0.14662714986E-01 0.  0.
         14    1    1    2    0    0  0.44905944586E-02 -0.11668235433E-01  0.19881382320E-01  0.23485793997E-01  0.00000000000E+00 0. -1.
     999901    1    3    3    0    0 -0.13104732004E+00  0.11830522410E-01  0.89131171602E-02  0.88982740181E+00  0.88000000000E+00 0. -1.
        -11    1    4    4    0    0  0.79340182998E-01  0.63938721750E-02 -0.15123240951E-01  0.81022958335E-01  0.51100000000E-03 0. -1.
         11    1    4    4    0    0  0.47216542585E-01 -0.65561591521E-02 -0.13671258528E-01  0.49593845861E-01  0.51100000000E-03 0.  1.
</event>
<event>
 8    1  0.1092993E+005  0.1043930E+01  0.7957747E-01            NaN
         13   -1    0    0    0    0  0.00000000000E+00  0.00000000000E+00  0.74505805969E-08  0.10566000000E+00  0.10566000000E+00 0. -1.
     999900   -1    0    0    0    0 -0.00000000000E+00 -0.00000000000E+00 -0.74505805969E-08  0.93827000000E+00  0.93827000000E+00 0.  1.
     999902    2    1    2    0    0  0.16546156994E-01  0.18228550798E-01  0.25249226455E-02  0.10191826646E+01  0.10188821685E+01 0.  0.
     999903    2    3    3    0    0  0.78183092781E-01 -0.21755454794E-01 -0.99835569292E-01  0.13020825390E+00  0.20028796206E-01 0.  0.
         14    1    1    2    0    0 -0.16546156994E-01 -0.18228550798E-01 -0.25249226455E-02  0.24747335409E-01  0.00000000000E+00 0. -1.
     999901    1    3    3    0    0 -0.61636935787E-01  0.39984005592E-01  0.10236049194E+00  0.88897441069E+00  0.88000000000E+00 0. -1.
        -11    1    4    4    0    0  0.39714776227E-01 -0.13472493447E-01 -0.36278644327E-01  0.55454239564E-01  0.51100000000E-03 0. -1.
         11    1    4    4    0    0  0.38468316555E-01 -0.82829613471E-02 -0.63556924964E-01  0.74754014335E-01  0.51100000000E-03 0.  1.
</event>
<event>
 8    1  0.1092993E+005  0.1043930E+01  0.7957747E-01            NaN
         13   -1    0    0    0    0  0.00000000000E+00  0.00000000000E+00  0.74505805969E-08  0.10566000000E+00  0.10566000000E+00 0. -1.
     999900   -1    0    0    0    0 -0.00000000000E+00 -0.00000000000E+00 -0.74505805969E-08  0.93827000000E+00  0.93827000000E+00 0. -1.
     999902    2    1    2    0    0  0.13087855216E-01 -0.24702249605E-01  0.96695658769E-02  0.10143497094E+01  0.10139183100E+01 0.  0.
     999903    2    3    3    0    0 -0.34164801523E-01 -0.11333445031E+00  0.44317838703E-01  0.12795872149E+00  0.19935703869E-01 0.  0.
         14    1    1    2    0    0 -0.13087855216E-01  0.24702249605E-01 -0.96695658769E-02  0.29580290633E-01  0.00000000000E+00 0.  1.
     999901    1    3    3    0    0  0.47252656739E-01  0.88632200706E-01 -0.34648272827E-01  0.88639098787E+00  0.88000000000E+00 0.  1.
        -11    1    4    4    0    0 -0.11037737587E-01 -0.66520148369E-01  0.30067009488E-01  0.73831212713E-01  0.51100000000E-03 0. -1.
         11    1    4    4    0    0 -0.23127063936E-01 -0.46814301942E-01  0.14250829216E-01  0.54127508782E-01  0.51100000000E-03 0.  1.
</event>
<event>
 8    1  0.1092993E+005  0.1043930E+01  0.7957747E-01            NaN
         13   -1    0    0    0    0  0.00000000000E+00  0.00000000000E+00  0.74505805969E-08  0.10566000000E+00  0.10566000000E+00 0.  1.
     999900   -1    0    0    0    0 -0.00000000000E+00 -0.00000000000E+00 -0.74505805969E-08  0.93827000000E+00  0.93827000000E+00 0. -1.
     999902    2    1    2    0    0  0.32255751314E-02  0.73350823244E-02 -0.22862663251E-01  0.10197037923E+01  0.10194159676E+01 0.  0.
     999903    2    3    3    0    0 -0.51166513811E-01 -0.69375916731E-01  0.91428679657E-01  0.12734423038E+00  0.20647508085E-01 0.  0.
         14    1    1    2    0    0 -0.32255751314E-02 -0.73350823244E-02  0.22862663251E-01  0.24226207681E-01  0.00000000000E+00 0.  1.
     999901    1    3    3    0    0  0.54392088943E-01  0.76710999056E-01 -0.11429134291E+00  0.89235956194E+00  0.88000000000E+00 0. -1.
        -11    1    4    4    0    0 -0.45889139663E-01 -0.47373566798E-01  0.66133160765E-01  0.93401948823E-01  0.51100000000E-03 0. -1.
         11    1    4    4    0    0 -0.52773741487E-02 -0.22002349933E-01  0.25295518892E-01  0.33942281560E-01  0.51100000000E-03 0.  1.
</event>
<event>
 8    1  0.1092993E+005  0.1043930E+01  0.7957747E-01            NaN
         13   -1    0    0    0    0  0.00000000000E+00  0.00000000000E+00  0.74505805969E-08  0.10566000000E+00  0.10566000000E+00 0. -1.
     999900   -1    0    0    0    0 -0.00000000000E+00 -0.00000000000E+00 -0.74505805969E-08  0.93827000000E+00  0.93827000000E+00 0. -1.
     999902    2    1    2    0    0 -0.21733214394E-01 -0.63331335445E-02  0.30604613787E-02  0.10210868914E+01  0.10208313436E+01 0.  0.
     999903    2    3    3    0    0  0.73555669335E-01 -0.96502840697E-01 -0.42900877797E-01  0.13017556460E+00  0.19543734289E-01 0.  0.
         14    1    1    2    0    0  0.21733214394E-01  0.63331335445E-02 -0.30604613787E-02  0.22843108637E-01  0.00000000000E+00 0. -1.
     999901    1    3    3    0    0 -0.95288883729E-01  0.90169707153E-01  0.45961339175E-01  0.89091132676E+00  0.88000000000E+00 0.  1.
        -11    1    4    4    0    0  0.31761228546E-01 -0.46617244172E-01 -0.10146064449E-01  0.57316200483E-01  0.51100000000E-03 0.  1.
         11    1    4    4    0    0  0.41794440789E-01 -0.49885596525E-01 -0.32754813348E-01  0.72859364120E-01  0.51100000000E-03 0. -1.
</event>
<event>
 8    1  0.1092993E+005  0.1043930E+01  0.7957747E-01            NaN
         13   -1    0    0    0    0  0.00000000000E+00  0.00000000000E+00  0.74505805969E-08  0.10566000000E+00  0.10566000000E+00 0.  1.
     999900   -1    0    0    0    0 -0.00000000000E+00 -0.00000000000E+00 -0.74505805969E-08  0.93827000000E+00  0.93827000000E+00 0. -1.
     999902    2    1    2    0    0 -0.62546493048E-03 -0.11514586449E-01  0.20377682686E-01  0.10205157552E+01  0.10202471170E+01 0.  0.
     999903    2    3    3    0    0 -0.23110129823E-02  0.11605975090E+00  0.56281849114E-01  0.13059038655E+00  0.20273035232E-01 0.  0.
         14    1    1    2    0    0  0.62546493048E-03  0.11514586449E-01 -0.20377682686E-01  0.23414244791E-01  0.00000000000E+00 0. -1.
     999901    1    3    3    0    0  0.16855480519E-02 -0.12757433735E+00 -0.35904166428E-01  0.88992536866E+00  0.88000000000E+00 0. -1.
        -11    1    4    4    0    0 -0.82811114030E-02  0.33214123015E-01  0.22232576798E-01  0.40820379295E-01  0.51100000000E-03 0. -1.
         11    1    4    4    0    0  0.59700984206E-02  0.82845627889E-01  0.34049272316E-01  0.89770007250E-01  0.51100000000E-03 0.  1.
</event>
<event>
 8    1  0.1092993E+005  0.1043930E+01  0.7957747E-01            NaN
         13   -1    0    0    0    0  0.00000000000E+00  0.00000000000E+00  0.74505805969E-08  0.10566000000E+00  0.10566000000E+00 0. -1.
     999900   -1    0    0    0    0 -0.00000000000E+00 -0.00000000000E+00 -0.74505805969E-08  0.93827000000E+00  0.93827000000E+00 0. -1.
     999902    2    1    2    0    0  0.78955963828E-02 -0.19287922074E-01  0.11427214253E-01  0.10201614156E+01  0.10198844877E+01 0.  0.
     999903    2    3    3    0    0  0.66745440565E-01  0.90956454780E-01 -0.58284581972E-01  0.12860274598E+00  0.20335763476E-01 0.  0.
         14    1    1    2    0    0 -0.78955963828E-02  0.19287922074E-01 -0.11427214253E-01  0.23768584429E-01  0.00000000000E+00 0.  1.
     999901    1    3    3    0    0 -0.58849844182E-01 -0.11024437685E+00  0.69711796225E-01  0.89155866959E+00  0.88000000000E+00 0.  1.
        -11    1    4    4    0    0  0.55316147712E-01  0.63423918475E-01 -0.36797981598E-01  0.91852175822E-01  0.51100000000E-03 0.  1.
         11    1    4    4    0    0  0.11429292852E-01  0.27532536304E-01 -0.21486600374E-01  0.36750570160E-01  0.51100000000E-03 0. -1.
</event>
<event>
 8    1  0.1092993E+005  0.1043930E+01  0.7957747E-01            NaN
         13   -1    0    0    0    0  0.00000000000E+00  0.00000000000E+00  0.74505805969E-08  0.10566000000E+00  0.10566000000E+00 0. -1.
     999900   -1    0    0    0    0 -0.00000000000E+00 -0.00000000000E+00 -0.74505805969E-08  0.93827000000E+00  0.93827000000E+00 0. -1.
     999902    2    1    2    0    0  0.23250868901E-02 -0.18720669715E-01 -0.83856162125E-02  0.10232856772E+01  0.10230774111E+01 0.  0.
     999903    2    3    3    0    0  0.53921900624E-01 -0.41296954700E-01  0.11275479970E+00  0.13320314161E+00  0.20406426562E-01 0.  0.
         14    1    1    2    0    0 -0.23250868901E-02  0.18720669715E-01  0.83856162125E-02  0.20644322776E-01  0.00000000000E+00 0. -1.
     999901    1    3    3    0    0 -0.51596813734E-01  0.22576284986E-01 -0.12114041592E+00  0.89008253561E+00  0.88000000000E+00 0. -1.
        -11    1    4    4    0    0  0.54771972359E-01 -0.37755720565E-01  0.10146594168E+00  0.12133038298E+00  0.51100000000E-03 0. -1.
         11    1    4    4    0    0 -0.85007173501E-03 -0.35412341351E-02  0.11288858020E-01  0.11872758633E-01  0.51100000000E-03 0.  1.
</event>
<event>
 8    1  0.1092993E+005  0.1043930E+01  0.7957747E-01            NaN
         13   -1    0    0    0    0  0.00000000000E+00  0.00000000000E+00  0.74505805969E-08  0.10566000000E+00  0.10566000000E+00 0. -1.
     999900   -1    0    0    0    0 -0.00000000000E+00 -0.00000000000E+00 -0.74505805969E-08  0.93827000000E+00  0.93827000000E+00 0. -1.
     999902    2    1    2    0    0 -0.23432511160E-01 -0.60361992601E-02  0.52929323848E-02  0.10191603933E+01  0.10188593494E+01 0.  0.
     999903    2    3    3    0    0  0.80104081322E-01  0.86106640778E-01 -0.43430891855E-01  0.12698096072E+00  0.20171876125E-01 0.  0.
         14    1    1    2    0    0  0.23432511160E-01  0.60361992601E-02 -0.52929323848E-02  0.24769606658E-01  0.00000000000E+00 0.  1.
     999901    1    3    3    0    0 -0.10353659248E+00 -0.92142840038E-01  0.48723824240E-01  0.89217943263E+00  0.88000000000E+00 0.  1.
        -11    1    4    4    0    0  0.76781753267E-01  0.73632240625E-01 -0.37997270664E-01  0.11296547346E+00  0.51100000000E-03 0.  1.
         11    1    4    4    0    0  0.33223280556E-02  0.12474400153E-01 -0.54336211907E-02  0.14015487260E-01  0.51100000000E-03 0. -1.
</event>
<event>
 8    1  0.1092993E+005  0.1043930E+01  0.7957747E-01            NaN
         13   -1    0    0    0    0  0.00000000000E+00  0.00000000000E+00  0.74505805969E-08  0.10566000000E+00  0.10566000000E+00 0. -1.
     999900   -1    0    0    0    0 -0.00000000000E+00 -0.00000000000E+00 -0.74505805969E-08  0.93827000000E+00  0.93827000000E+00 0.  1.
     999902    2    1    2    0    0  0.16926684610E-01 -0.83362602421E-02 -0.14750521662E-01  0.10199803909E+01  0.10196991782E+01 0.  0.
     999903    2    3    3    0    0  0.11352548821E+00  0.77167571686E-02  0.61987701994E-01  0.13122970415E+00  0.20764759570E-01 0.  0.
         14    1    1    2    0    0 -0.16926684610E-01  0.83362602421E-02  0.14750521662E-01  0.23949609100E-01  0.00000000000E+00 0. -1.
     999901    1    3    3    0    0 -0.96598803595E-01 -0.16053017411E-01 -0.76738223656E-01  0.88875068675E+00  0.88000000000E+00 0.  1.
        -11    1    4    4    0    0  0.11401366199E-01 -0.20239924023E-02  0.13397080185E-01  0.17715263897E-01  0.51100000000E-03 0.  1.
         11    1    4    4    0    0  0.10212412201E+00  0.97407495709E-02  0.48590621809E-01  0.11351444026E+00  0.51100000000E-03 0. -1.
</event>
<event>
 8    1  0.1092993E+005  0.1043930E+01  0.7957747E-01            NaN
         13   -1    0    0    0    0  0.00000000000E+00  0.00000000000E+00  0.74505805969E-08  0.10566000000E+00  0.10566000000E+00 0.  1.
     999900   -1    0    0    0    0 -0.00000000000E+00 -0.00000000000E+00 -0.74505805969E-08  0.93827000000E+00  0.93827000000E+00 0. -1.
     999902    2    1    2    0    0 -0.29776306091E-01 -0.53516884145E-02 -0.34062766584E-02  0.10134854324E+01  0.10130280599E+01 0.  0.
     999903    2    3    3    0    0  0.35769841613E-01 -0.42796780176E-01 -0.10818122304E+00  0.12406077472E+00  0.24017760972E-01 0.  0.
         14    1    1    2    0    0  0.29776306091E-01  0.53516884145E-02  0.34062766584E-02  0.30444567561E-01  0.00000000000E+00 0. -1.
     999901    1    3    3    0    0 -0.65546147704E-01  0.37445091761E-01  0.10477494638E+00  0.88942465772E+00  0.88000000000E+00 0.  1.
        -11    1    4    4    0    0  0.10268711243E-01 -0.90691563799E-03 -0.30439440557E-01  0.32141711047E-01  0.51100000000E-03 0.  1.
         11    1    4    4    0    0  0.25501130370E-01 -0.41889864538E-01 -0.77741782484E-01  0.91919063669E-01  0.51100000000E-03 0. -1.
</event>
<event>
 7    1  0.1092993E+005  0.1043930E+01  0.7957747E-01            NaN
         13   -1    0    0    0    0  0.00000000000E+00  0.00000000000E+00  0.74505805969E-08  0.10566000000E+00  0.10566000000E+00 0.  1.
     999900   -1    0    0    0    0 -0.00000000000E+00 -0.00000000000E+00 -0.74505805969E-08  0.93827000000E+00  0.93827000000E+00 0.  1.
     999903    2    1    2    0    0 -0.10168128104E+00  0.60806371080E-02 -0.26285202950E-01  0.10705138821E+00  0.19825003495E-01 0.  0.
         14    1    1    2    0    0  0.14615361654E-01 -0.35103611791E-01 -0.32686733727E-01  0.50142745425E-01  0.00000000000E+00 0. -1.
     999901    1    1    2    0    0  0.87065919382E-01  0.29022974683E-01  0.58971936676E-01  0.88673586636E+00  0.88000000000E+00 0. -1.
        -11    1    3    3    0    0 -0.92228187431E-02 -0.49328419227E-02 -0.74189057858E-03  0.10497849191E-01  0.51100000000E-03 0. -1.
         11    1    3    3    0    0 -0.92458462292E-01  0.11013479031E-01 -0.25543312371E-01  0.96553539022E-01  0.51100000000E-03 0.  1.
</event>
<event>
 8    1  0.1092993E+005  0.1043930E+01  0.7957747E-01            NaN
         13   -1    0    0    0    0  0.00000000000E+00  0.00000000000E+00  0.74505805969E-08  0.10566000000E+00  0.10566000000E+00 0. -1.
     999900   -1    0    0    0    0 -0.00000000000E+00 -0.00000000000E+00 -0.74505805969E-08  0.93827000000E+00  0.93827000000E+00 0. -1.
     999902    2    1    2    0    0 -0.19904992423E-01 -0.61156675595E-02  0.11213629327E-01  0.10202793003E+01  0.10200051446E+01 0.  0.
     999903    2    3    3    0    0 -0.76952138116E-01  0.87778420582E-01 -0.55988253046E-01  0.13090504297E+00  0.19358799458E-01 0.  0.
         14    1    1    2    0    0  0.19904992423E-01  0.61156675595E-02 -0.11213629327E-01  0.23650699689E-01  0.00000000000E+00 0.  1.
     999901    1    3    3    0    0  0.57047145692E-01 -0.93894088142E-01  0.67201882373E-01  0.88937425734E+00  0.88000000000E+00 0.  1.
        -11    1    4    4    0    0 -0.72337396137E-01  0.87265930399E-01 -0.51777892311E-01  0.12461642244E+00  0.51100000000E-03 0.  1.
         11    1    4    4    0    0 -0.46147419783E-02  0.51249018300E-03 -0.42103607352E-02  0.62886205351E-02  0.51100000000E-03 0. -1.
</event>
<event>
 8    1  0.1092993E+005  0.1043930E+01  0.7957747E-01            NaN
         13   -1    0    0    0    0  0.00000000000E+00  0.00000000000E+00  0.74505805969E-08  0.10566000000E+00  0.10566000000E+00 0. -1.
     999900   -1    0    0    0    0 -0.00000000000E+00 -0.00000000000E+00 -0.74505805969E-08  0.93827000000E+00  0.93827000000E+00 0. -1.
     999902    2    1    2    0    0  0.15366031474E-02  0.43857775114E-02  0.24797034953E-01  0.10187012637E+01  0.10183888135E+01 0.  0.
     999903    2    3    3    0    0  0.10719907546E+00  0.66025571927E-01 -0.20665718829E-01  0.12907725081E+00  0.19566471664E-01 0.  0.
         14    1    1    2    0    0 -0.15366031474E-02 -0.43857775114E-02 -0.24797034953E-01  0.25228736315E-01  0.00000000000E+00 0.  1.
     999901    1    3    3    0    0 -0.10566247231E+00 -0.61639794416E-01  0.45462753782E-01  0.88962401288E+00  0.88000000000E+00 0.  1.
        -11    1    4    4    0    0  0.82256216534E-01  0.43790234555E-01 -0.87494031469E-02  0.93597451767E-01  0.51100000000E-03 0.  1.
         11    1    4    4    0    0  0.24942858924E-01  0.22235337372E-01 -0.11916315682E-01  0.35479799038E-01  0.51100000000E-03 0. -1.
</event>
<event>
 8    1  0.1092993E+005  0.1043930E+01  0.7957747E-01            NaN
         13   -1    0    0    0    0  0.00000000000E+00  0.00000000000E+00  0.74505805969E-08  0.10566000000E+00  0.10566000000E+00 0. -1.
     999900   -1    0    0    0    0 -0.00000000000E+00 -0.00000000000E+00 -0.74505805969E-08  0.93827000000E+00  0.93827000000E+00 0. -1.
     999902    2    1    2    0    0 -0.14083938714E-01 -0.17058711377E-01 -0.44209595056E-02  0.10213711470E+01  0.10211219899E+01 0.  0.
     999903    2    3    3    0    0  0.50373984764E-01 -0.10492826624E+00 -0.61066140921E-01  0.13284171076E+00  0.19244925403E-01 0.  0.
         14    1    1    2    0    0  0.14083938714E-01  0.17058711377E-01  0.44209595056E-02  0.22558852951E-01  0.00000000000E+00 0.  1.
     999901    1    3    3    0    0 -0.64457923477E-01  0.87869554864E-01  0.56645181415E-01  0.88852943629E+00  0.88000000000E+00 0.  1.
        -11    1    4    4    0    0  0.37941668839E-01 -0.93712785710E-01 -0.54427443653E-01  0.11482275116E+00  0.51100000000E-03 0.  1.
         11    1    4    4    0    0  0.12432315925E-01 -0.11215480532E-01 -0.66386972684E-02  0.18018959605E-01  0.51100000000E-03 0. -1.
</event>
<event>
 8    1  0.1092993E+005  0.1043930E+01  0.7957747E-01            NaN
         13   -1    0    0    0    0  0.00000000000E+00  0.00000000000E+00  0.74505805969E-08  0.10566000000E+00  0.10566000000E+00 0.  1.
     999900   -1    0    0    0    0 -0.00000000000E+00 -0.00000000000E+00 -0.74505805969E-08  0.93827000000E+00  0.93827000000E+00 0.  1.
     999902    2    1    2    0    0 -0.21053466827E-01  0.97747206194E-02 -0.43959725893E-02  0.10203054745E+01  0.10200319324E+01 0.  0.
     999903    2    3    3    0    0  0.11307942633E+00 -0.42218125928E-01 -0.37388805798E-01  0.12801436947E+00  0.20504369712E-01 0.  0.
         14    1    1    2    0    0  0.21053466827E-01 -0.97747206194E-02  0.43959725893E-02  0.23624525469E-01  0.00000000000E+00 0. -1.
     999901    1    3    3    0    0 -0.13413289316E+00  0.51992846547E-01  0.32992833208E-01  0.89229110506E+00  0.88000000000E+00 0. -1.
        -11    1    4    4    0    0  0.17028672538E-01 -0.47819838350E-03 -0.74462556401E-03  0.17059306854E-01  0.51100000000E-03 0. -1.
         11    1    4    4    0    0  0.96050753791E-01 -0.41739927544E-01 -0.36644180234E-01  0.11095506262E+00  0.51100000000E-03 0.  1.
</event>
<event>
 8    1  0.1092993E+005  0.1043930E+01  0.7957747E-01            NaN
         13   -1    0    0    0    0  0.00000000000E+00  0.00000000000E+00  0.74505805969E-08  0.10566000000E+00  0.10566000000E+00 0.  1.
     999900   -1    0    0    0    0 -0.00000000000E+00 -0.00000000000E+00 -0.74505805969E-08  0.93827000000E+00  0.93827000000E+00 0.  1.
     999902    2    1    2    0    0 -0.10687437643E-01  0.19330878294E-01 -0.95263829792E-02  0.10198747272E+01  0.10195909979E+01 0.  0.
     999903    2    3    3    0    0  0.10105675297E+00  0.36121475927E-01  0.68941767500E-01  0.12918626369E+00  0.20466926415E-01 0.  0.
         14    1    1    2    0    0  0.10687437643E-01 -0.19330878294E-01  0.95263829792E-02  0.24055272845E-01  0.00000000000E+00 0.  1.
     999901    1    3    3    0    0 -0.11174419061E+00 -0.16790597633E-01 -0.78468150479E-01  0.89068846346E+00  0.88000000000E+00 0. -1.
        -11    1    4    4    0    0  0.67880105259E-01  0.19859716009E-01  0.34585200340E-01  0.78730643421E-01  0.51100000000E-03 0.  1.
         11    1    4    4    0    0  0.33176647711E-01  0.16261759918E-01  0.34356567160E-01  0.50455620272E-01  0.51100000000E-03 0. -1.
</event>
<event>
 8    1  0.1092993E+005  0.1043930E+01  0.7957747E-01            NaN
         13   -1    0    0    0    0  0.00000000000E+00  0.00000000000E+00  0.74505805969E-08  0.10566000000E+00  0.10566000000E+00 0. -1.
     999900   -1    0    0    0    0 -0.00000000000E+00 -0.00000000000E+00 -0.74505805969E-08  0.93827000000E+00  0.93827000000E+00 0.  1.
     999902    2    1    2    0    0  0.95947042818E-02  0.14448342402E-01  0.14716340296E-01  0.10211839318E+01  0.10209305750E+01 0.  0.
     999903    2    3    3    0    0  0.29355800293E-01  0.85166692141E-01 -0.93740045021E-01  0.13149051636E+00  0.19683276917E-01 0.  0.
         14    1    1    2    0    0 -0.95947042818E-02 -0.14448342402E-01 -0.14716340296E-01  0.22746068234E-01  0.00000000000E+00 0.  1.
     999901    1    3    3    0    0 -0.19761096011E-01 -0.70718349740E-01  0.10845638532E+00  0.88969341541E+00  0.88000000000E+00 0. -1.
        -11    1    4    4    0    0  0.24922088465E-01  0.43549786076E-01 -0.55119930997E-01  0.74539669135E-01  0.51100000000E-03 0. -1.
         11    1    4    4    0    0  0.44337118275E-02  0.41616906066E-01 -0.38620114024E-01  0.56950847222E-01  0.51100000000E-03 0.  1.
</event>
<event>
 8    1  0.1092993E+005  0.1043930E+01  0.7957747E-01            NaN
         13   -1    0    0    0    0  0.00000000000E+00  0.00000000000E+00  0.74505805969E-08  0.10566000000E+00  0.10566000000E+00 0. -1.
     999900   -1    0    0    0    0 -0.00000000000E+00 -0.00000000000E+00 -0.74505805969E-08  0.93827000000E+00  0.93827000000E+00 0. -1.
     999902    2    1    2    0    0 -0.15696771121E-02  0.91072551544E-02  0.21890260978E-01  0.10201689077E+01  0.10198921564E+01 0.  0.
     999903    2    3    3    0    0  0.24334024898E-01  0.12234559681E+00 -0.33760358058E-01  0.13079220729E+00  0.20155641473E-01 0.  0.
         14    1    1    2    0    0  0.15696771121E-02 -0.91072551544E-02 -0.21890260978E-01  0.23761092323E-01  0.00000000000E+00 0.  1.
     999901    1    3    3    0    0 -0.25903702010E-01 -0.11323834166E+00  0.55650619036E-01  0.88937670039E+00  0.88000000000E+00 0. -1.
        -11    1    4    4    0    0  0.34509383956E-02  0.67587286040E-01 -0.20341376700E-01  0.70668118251E-01  0.51100000000E-03 0.  1.
         11    1    4    4    0    0  0.20883086502E-01  0.54758310773E-01 -0.13418981358E-01  0.60124089035E-01  0.51100000000E-03 0. -1.
</event>
<event>
 8    1  0.1092993E+005  0.1043930E+01  0.7957747E-01            NaN
         13   -1    0    0    0    0  0.00000000000E+00  0.00000000000E+00  0.74505805969E-08  0.10566000000E+00  0.10566000000E+00 0. -1.
     999900   -1    0    0    0    0 -0.00000000000E+00 -0.00000000000E+00 -0.74505805969E-08  0.93827000000E+00  0.93827000000E+00 0.  1.
     999902    2    1    2    0    0 -0.15306824094E-01 -0.13749071160E-01  0.12877345578E-01  0.10196573436E+01  0.10193684007E+01 0.  0.
     999903    2    3    3    0    0 -0.71986089950E-01 -0.70856083099E-01  0.84171587215E-01  0.13311539933E+00  0.20791146801E-01 0.  0.
         14    1    1    2    0    0  0.15306824094E-01  0.13749071160E-01 -0.12877345578E-01  0.24272656442E-01  0.00000000000E+00 0.  1.
     999901    1    3    3    0    0  0.56679265855E-01  0.57107011939E-01 -0.71294241637E-01  0.88654194423E+00  0.88000000000E+00 0. -1.
        -11    1    4    4    0    0 -0.31275878774E-01 -0.28703629360E-01  0.48724473267E-01  0.64625183541E-01  0.51100000000E-03 0. -1.
         11    1    4    4    0    0 -0.40710211176E-01 -0.42152453739E-01  0.35447113948E-01  0.68490215786E-01  0.51100000000E-03 0.  1.
</event>
<event>
 8    1  0.1092993E+005  0.1043930E+01  0.7957747E-01            NaN
         13   -1    0    0    0    0  0.00000000000E+00  0.00000000000E+00  0.74505805969E-08  0.10566000000E+00  0.10566000000E+00 0. -1.
     999900   -1    0    0    0    0 -0.00000000000E+00 -0.00000000000E+00 -0.74505805969E-08  0.93827000000E+00  0.93827000000E+00 0. -1.
     999902    2    1    2    0    0  0.18644275580E-01 -0.49064619054E-02 -0.24818574152E-01  0.10125031961E+01  0.10120153547E+01 0.  0.
     999903    2    3    3    0    0 -0.10737683391E+00  0.51479969610E-01  0.89876867322E-02  0.12109778162E+00  0.20097822508E-01 0.  0.
         14    1    1    2    0    0 -0.18644275580E-01  0.49064619054E-02  0.24818574152E-01  0.31426803898E-01  0.00000000000E+00 0. -1.
     999901    1    3    3    0    0  0.12602110948E+00 -0.56386431516E-01 -0.33806260884E-01  0.89140541448E+00  0.88000000000E+00 0.  1.
        -11    1    4    4    0    0 -0.25148403449E-01  0.34482910481E-02  0.43145241346E-02  0.25752847351E-01  0.51100000000E-03 0.  1.
         11    1    4    4    0    0 -0.82228430456E-01  0.48031678562E-01  0.46731625977E-02  0.95344934267E-01  0.51100000000E-03 0. -1.
</event>
<event>
 8    1  0.1092993E+005  0.1043930E+01  0.7957747E-01            NaN
         13   -1    0    0    0    0  0.00000000000E+00  0.00000000000E+00  0.74505805969E-08  0.10566000000E+00  0.10566000000E+00 0. -1.
     999900   -1    0    0    0    0 -0.00000000000E+00 -0.00000000000E+00 -0.74505805969E-08  0.93827000000E+00  0.93827000000E+00 0. -1.
     999902    2    1    2    0    0  0.13271828389E-01 -0.14981697792E-01  0.13230227736E-01  0.10199376757E+01  0.10196554471E+01 0.  0.
     999903    2    3    3    0    0  0.12276522751E-01  0.70100444503E-01  0.10786649476E+00  0.13078302968E+00  0.20105592014E-01 0.  0.
         14    1    1    2    0    0 -0.13271828389E-01  0.14981697792E-01 -0.13230227736E-01  0.23992324261E-01  0.00000000000E+00 0. -1.
     999901    1    3    3    0    0  0.99530563841E-03 -0.85082142295E-01 -0.94636267025E-01  0.88915464606E+00  0.88000000000E+00 0. -1.
        -11    1    4    4    0    0  0.49942290929E-02  0.12692435141E-01  0.36078571280E-01  0.38574144977E-01  0.51100000000E-03 0. -1.
         11    1    4    4    0    0  0.72822936577E-02  0.57408009362E-01  0.71787923480E-01  0.92208884704E-01  0.51100000000E-03 0.  1.
</event>
<event>
 8    1  0.1092993E+005  0.1043930E+01  0.7957747E-01            NaN
         13   -1    0    0    0    0  0.00000000000E+00  0.00000000000E+00  0.74505805969E-08  0.10566000000E+00  0.10566000000E+00 0.  1.
     999900   -1    0    0    0    0 -0.00000000000E+00 -0.00000000000E+00 -0.74505805969E-08  0.93827000000E+00  0.93827000000E+00 0. -1.
     999902    2    1    2    0    0 -0.14006068843E-01  0.18484667235E-01  0.11556670273E-02  0.10207095682E+01  0.10204454097E+01 0.  0.
     999903    2    3    3    0    0  0.17789545379E-02 -0.73757654729E-01  0.10482117614E+00  0.12969646464E+00  0.19756964870E-01 0.  0.
         14    1    1    2    0    0  0.14006068843E-01 -0.18484667235E-01 -0.11556670273E-02  0.23220431811E-01  0.00000000000E+00 0. -1.
     999901    1    3    3    0    0 -0.15785023381E-01  0.92242321964E-01 -0.10366550911E+00  0.89101310355E+00  0.88000000000E+00 0. -1.
        -11    1    4    4    0    0 -0.46914807794E-02 -0.15648198879E-01  0.13206584770E-01  0.21013117863E-01  0.51100000000E-03 0.  1.
         11    1    4    4    0    0  0.64704353173E-02 -0.58109455851E-01  0.91614591371E-01  0.10868334677E+00  0.51100000000E-03 0. -1.
</event>
<event>
 8    1  0.1092993E+005  0.1043930E+01  0.7957747E-01            NaN
         13   -1    0    0    0    0  0.00000000000E+00  0.00000000000E+00  0.74505805969E-08  0.10566000000E+00  0.10566000000E+00 0.  1.
     999900   -1    0    0    0    0 -0.00000000000E+00 -0.00000000000E+00 -0.74505805969E-08  0.93827000000E+00  0.93827000000E+00 0. -1.
     999902    2    1    2    0    0  0.13665542628E-01 -0.16478830158E-01 -0.13918405104E-01  0.10183953001E+01  0.10180751280E+01 0.  0.
     999903    2    3    3    0    0  0.10906298391E+00 -0.70749994018E-01 -0.14445898184E-02  0.13148965286E+00  0.19676022361E-01 0.  0.
         14    1    1    2    0    0 -0.13665542628E-01  0.16478830158E-01  0.13918405104E-01  0.25534699906E-01  0.00000000000E+00 0.  1.
     999901    1    3    3    0    0 -0.95397441283E-01  0.54271163860E-01 -0.12473815285E-01  0.88690564724E+00  0.88000000000E+00 0.  1.
        -11    1    4    4    0    0  0.61315120860E-01 -0.39289370503E-01 -0.10554078488E-01  0.73585653319E-01  0.51100000000E-03 0.  1.
         11    1    4    4    0    0  0.47747863050E-01 -0.31460623515E-01  0.91094886693E-02  0.57903999539E-01  0.51100000000E-03 0. -1.
</event>
<event>
 8    1  0.1092993E+005  0.1043930E+01  0.7957747E-01            NaN
         13   -1    0    0    0    0  0.00000000000E+00  0.00000000000E+00  0.74505805969E-08  0.10566000000E+00  0.10566000000E+00 0. -1.
     999900   -1    0    0    0    0 -0.00000000000E+00 -0.00000000000E+00 -0.74505805969E-08  0.93827000000E+00  0.93827000000E+00 0. -1.
     999902    2    1    2    0    0  0.62484120887E-02  0.22703312860E-01 -0.19790296679E-02  0.10202995191E+01  0.10200258375E+01 0.  0.
     999903    2    3    3    0    0  0.11259970206E+00  0.64042755363E-02  0.64111619725E-01  0.13128645429E+00  0.20152559320E-01 0.  0.
         14    1    1    2    0    0 -0.62484120887E-02 -0.22703312860E-01  0.19790296679E-02  0.23630480885E-01  0.00000000000E+00 0. -1.
     999901    1    3    3    0    0 -0.10635128997E+00  0.16299037324E-01 -0.66090649393E-01  0.88901306483E+00  0.88000000000E+00 0. -1.
        -11    1    4    4    0    0  0.21240913188E-01 -0.15194076336E-04  0.21658124515E-01  0.30339942360E-01  0.51100000000E-03 0. -1.
         11    1    4    4    0    0  0.91358788870E-01  0.64194696126E-02  0.42453495210E-01  0.10094651193E+00  0.51100000000E-03 0.  1.
</event>
<event>
 8    1  0.1092993E+005  0.1043930E+01  0.7957747E-01            NaN
         13   -1    0    0    0    0  0.00000000000E+00  0.00000000000E+00  0.74505805969E-08  0.10566000000E+00  0.10566000000E+00 0.  1.
     999900   -1    0    0    0    0 -0.00000000000E+00 -0.00000000000E+00 -0.74505805969E-08  0.93827000000E+00  0.93827000000E+00 0. -1.
     999902    2    1    2    0    0 -0.11339848431E-01 -0.20670589307E-01  0.12882896487E-02  0.10203180303E+01  0.10200447822E+01 0.  0.
     999903    2    3    3    0    0 -0.73183326810E-01 -0.79438218161E-01 -0.74729747720E-01  0.13293029538E+00  0.20486542094E-01 0.  0.
         14    1    1    2    0    0  0.11339848431E-01  0.20670589307E-01 -0.12882896487E-02  0.23611969739E-01  0.00000000000E+00 0. -1.
     999901    1    3    3    0    0  0.61843478380E-01  0.58767628854E-01  0.76018037368E-01  0.88738773489E+00  0.88000000000E+00 0.  1.
        -11    1    4    4    0    0 -0.69374543491E-01 -0.77700384425E-01 -0.66218745881E-01  0.12343160232E+00  0.51100000000E-03 0.  1.
         11    1    4    4    0    0 -0.38087833190E-02 -0.17378337359E-02 -0.85110018386E-02  0.94986930554E-02  0.51100000000E-03 0. -1.
</event>
<event>
 8    1  0.1092993E+005  0.1043930E+01  0.7957747E-01            NaN
         13   -1    0    0    0    0  0.00000000000E+00  0.00000000000E+00  0.74505805969E-08  0.10566000000E+00  0.10566000000E+00 0.  1.
     999900   -1    0    0    0    0 -0.00000000000E+00 -0.00000000000E+00 -0.74505805969E-08  0.93827000000E+00  0.93827000000E+00 0.  1.
     999902    2    1    2    0    0 -0.83371102944E-02  0.23206247759E-02  0.21302366673E-01  0.10209368807E+01  0.10206779271E+01 0.  0.
     999903    2    3    3    0    0  0.95698343357E-01  0.56720359858E-01  0.68444283079E-01  0.13188960018E+00  0.18299579369E-01 0.  0.
         14    1    1    2    0    0  0.83371102944E-02 -0.23206247759E-02 -0.21302366673E-01  0.22993119260E-01  0.00000000000E+00 0. -1.
     999901    1    3    3    0    0 -0.10403545365E+00 -0.54399735082E-01 -0.47141916405E-01  0.88904728056E+00  0.88000000000E+00 0. -1.
        -11    1    4    4    0    0  0.51353257278E-01  0.30985070060E-01  0.47470617399E-01  0.76491517418E-01  0.51100000000E-03 0. -1.
         11    1    4    4    0    0  0.44345086079E-01  0.25735289799E-01  0.20973665679E-01  0.55398082759E-01  0.51100000000E-03 0.  1.
</event>
<event>
 8    1  0.1092993E+005  0.1043930E+01  0.7957747E-01            NaN
         13   -1    0    0    0    0  0.00000000000E+00  0.00000000000E+00  0.74505805969E-08  0.10566000000E+00  0.10566000000E+00 0.  1.
     999900   -1    0    0    0    0 -0.00000000000E+00 -0.00000000000E+00 -0.74505805969E-08  0.93827000000E+00  0.93827000000E+00 0. -1.
     999902    2    1    2    0    0 -0.10737604509E-01  0.17125850279E-01 -0.12673524739E-01  0.10200718960E+01  0.10197928534E+01 0.  0.
     999903    2    3    3    0    0 -0.53672428532E-01  0.95388243290E-01 -0.73787669345E-01  0.13344720652E+00  0.19593117138E-01 0.  0.
         14    1    1    2    0    0  0.10737604509E-01 -0.17125850279E-01  0.12673524739E-01  0.23858104025E-01  0.00000000000E+00 0.  1.
     999901    1    3    3    0    0  0.42934824023E-01 -0.78262393010E-01  0.61114144606E-01  0.88662468945E+00  0.88000000000E+00 0.  1.
        -11    1    4    4    0    0 -0.88880881870E-02  0.20475132607E-01 -0.24757850722E-01  0.33338288202E-01  0.51100000000E-03 0. -1.
         11    1    4    4    0    0 -0.44784340345E-01  0.74913110682E-01 -0.49029818623E-01  0.10010891832E+00  0.51100000000E-03 0.  1.
</event>
<event>
 8    1  0.1092993E+005  0.1043930E+01  0.7957747E-01            NaN
         13   -1    0    0    0    0  0.00000000000E+00  0.00000000000E+00  0.74505805969E-08  0.10566000000E+00  0.10566000000E+00 0. -1.
     999900   -1    0    0    0    0 -0.00000000000E+00 -0.00000000000E+00 -0.74505805969E-08  0.93827000000E+00  0.93827000000E+00 0.  1.
     999902    2    1    2    0    0 -0.13627984954E-01 -0.90556763779E-02 -0.18603168307E-01  0.10191549093E+01  0.10188537304E+01 0.  0.
     999903    2    3    3    0    0  0.47978942354E-02 -0.32597546211E-01 -0.12635669287E+00  0.13207850068E+00  0.19826666419E-01 0.  0.
         14    1    1    2    0    0  0.13627984954E-01  0.90556763779E-02  0.18603168307E-01  0.24775090709E-01  0.00000000000E+00 0. -1.
     999901    1    3    3    0    0 -0.18425879189E-01  0.23541869833E-01  0.10775352456E+00  0.88707640861E+00  0.88000000000E+00 0. -1.
        -11    1    4    4    0    0  0.36212390012E-02 -0.22989977667E-01 -0.50526000654E-01  0.55630839541E-01  0.51100000000E-03 0. -1.
         11    1    4    4    0    0  0.11766552342E-02 -0.96075685441E-02 -0.75830692214E-01  0.76447661139E-01  0.51100000000E-03 0.  1.
</event>
<event>
 8    1  0.1092993E+005  0.1043930E+01  0.7957747E-01            NaN
         13   -1    0    0    0    0  0.00000000000E+00  0.00000000000E+00  0.74505805969E-08  0.10566000000E+00  0.10566000000E+00 0. -1.
     999900   -1    0    0    0    0 -0.00000000000E+00 -0.00000000000E+00 -0.74505805969E-08  0.93827000000E+00  0.93827000000E+00 0.  1.
     999902    2    1    2    0    0 -0.49724706193E-03 -0.11635295494E-01  0.22020288578E-01  0.10190197518E+01  0.10187152370E+01 0.  0.
     999903    2    3    3    0    0  0.81725259102E-01  0.80948293690E-01  0.55786969543E-01  0.12970965390E+00  0.21926333858E-01 0.  0.
         14    1    1    2    0    0  0.49724706193E-03  0.11635295494E-01 -0.22020288578E-01  0.24910248191E-01  0.00000000000E+00 0.  1.
     999901    1    3    3    0    0 -0.82222506164E-01 -0.92583589184E-01 -0.33766680964E-01  0.88931009791E+00  0.88000000000E+00 0.  1.
        -11    1    4    4    0    0  0.30389252629E-01  0.18310968319E-01  0.23295846680E-01  0.42447094478E-01  0.51100000000E-03 0.  1.
         11    1    4    4    0    0  0.51336006473E-01  0.62637325371E-01  0.32491122863E-01  0.87262559418E-01  0.51100000000E-03 0. -1.
</event>
<event>
 8    1  0.1092993E+005  0.1043930E+01  0.7957747E-01            NaN
         13   -1    0    0    0    0  0.00000000000E+00  0.00000000000E+00  0.74505805969E-08  0.10566000000E+00  0.10566000000E+00 0.  1.
     999900   -1    0    0    0    0 -0.00000000000E+00 -0.00000000000E+00 -0.74505805969E-08  0.93827000000E+00  0.93827000000E+00 0.  1.
     999902    2    1    2    0    0 -0.22111739087E-02  0.19250160737E-01  0.13812143536E-01  0.10201343431E+01  0.10198567766E+01 0.  0.
     999903    2    3    3    0    0  0.66229785788E-01 -0.64768600500E-01 -0.86070858503E-01  0.12787881282E+00  0.19064153522E-01 0.  0.
         14    1    1    2    0    0  0.22111739087E-02 -0.19250160737E-01 -0.13812143536E-01  0.23795656904E-01  0.00000000000E+00 0. -1.
     999901    1    3    3    0    0 -0.68440959696E-01  0.84018761237E-01  0.99883002040E-01  0.89225553027E+00  0.88000000000E+00 0. -1.
        -11    1    4    4    0    0  0.35816785776E-01 -0.27261918235E-01 -0.31120182283E-01  0.54724594065E-01  0.51100000000E-03 0. -1.
         11    1    4    4    0    0  0.30413000011E-01 -0.37506682265E-01 -0.54950676220E-01  0.73154218760E-01  0.51100000000E-03 0.  1.
</event>
<event>
 8    1  0.1092993E+005  0.1043930E+01  0.7957747E-01            NaN
         13   -1    0    0    0    0  0.00000000000E+00  0.00000000000E+00  0.74505805969E-08  0.10566000000E+00  0.10566000000E+00 0. -1.
     999900   -1    0    0    0    0 -0.00000000000E+00 -0.00000000000E+00 -0.74505805969E-08  0.93827000000E+00  0.93827000000E+00 0.  1.
     999902    2    1    2    0    0  0.10316298290E-01  0.19425732020E-01 -0.82522970868E-02  0.10204377570E+01  0.10201673051E+01 0.  0.
     999903    2    3    3    0    0  0.49738628340E-01  0.20973367195E-01  0.11727592909E+00  0.13065472115E+00  0.20079824097E-01 0.  0.
         14    1    1    2    0    0 -0.10316298290E-01 -0.19425732020E-01  0.82522970868E-02  0.23492243020E-01  0.00000000000E+00 0. -1.
     999901    1    3    3    0    0 -0.39422330050E-01 -0.15476351746E-02 -0.12552822617E+00  0.88978303583E+00  0.88000000000E+00 0.  1.
        -11    1    4    4    0    0  0.40644999335E-01  0.19025946581E-01  0.75321683033E-01  0.87679072019E-01  0.51100000000E-03 0.  1.
         11    1    4    4    0    0  0.90936290046E-02  0.19474206142E-02  0.41954246053E-01  0.42975649133E-01  0.51100000000E-03 0. -1.
</event>
<event>
 8    1  0.1092993E+005  0.1043930E+01  0.7957747E-01            NaN
         13   -1    0    0    0    0  0.00000000000E+00  0.00000000000E+00  0.74505805969E-08  0.10566000000E+00  0.10566000000E+00 0. -1.
     999900   -1    0    0    0    0 -0.00000000000E+00 -0.00000000000E+00 -0.74505805969E-08  0.93827000000E+00  0.93827000000E+00 0.  1.
     999902    2    1    2    0    0 -0.11590155628E-01 -0.84805702135E-02 -0.21926605155E-01  0.10177187850E+01  0.10173811958E+01 0.  0.
     999903    2    3    3    0    0 -0.10260983417E+00 -0.72142927570E-01 -0.30401257706E-01  0.13069606975E+00  0.20587523177E-01 0.  0.
         14    1    1    2    0    0  0.11590155628E-01  0.84805702135E-02  0.21926605155E-01  0.26211215009E-01  0.00000000000E+00 0.  1.
     999901    1    3    3    0    0  0.91019678539E-01  0.63662357357E-01  0.84746525508E-02  0.88702271525E+00  0.88000000000E+00 0. -1.
        -11    1    4    4    0    0 -0.45587017417E-01 -0.31690326672E-01 -0.24000439432E-01  0.60487479493E-01  0.51100000000E-03 0. -1.
         11    1    4    4    0    0 -0.57022816751E-01 -0.40452600898E-01 -0.64008182737E-02  0.70208590252E-01  0.51100000000E-03 0.  1.
</event>
<event>
 8    1  0.1092993E+005  0.1043930E+01  0.7957747E-01            NaN
         13   -1    0    0    0    0  0.00000000000E+00  0.00000000000E+00  0.74505805969E-08  0.10566000000E+00  0.10566000000E+00 0.  1.
     999900   -1    0    0    0    0 -0.00000000000E+00 -0.00000000000E+00 -0.74505805969E-08  0.93827000000E+00  0.93827000000E+00 0. -1.
     999902    2    1    2    0    0 -0.33488469160E-02  0.26393324007E-02 -0.25243861303E-01  0.10183285667E+01  0.10180066977E+01 0.  0.
     999903    2    3    3    0    0 -0.54820063617E-01  0.90442415203E-01 -0.74657762333E-01  0.13108542019E+00  0.20604273019E-01 0.  0.
         14    1    1    2    0    0  0.33488469160E-02 -0.26393324007E-02  0.25243861303E-01  0.25601433254E-01  0.00000000000E+00 0.  1.
     999901    1    3    3    0    0  0.51471216701E-01 -0.87803082802E-01  0.49413901031E-01  0.88724314656E+00  0.88000000000E+00 0. -1.
        -11    1    4    4    0    0 -0.29130921401E-01  0.56207764328E-01 -0.55486791739E-01  0.84184134674E-01  0.51100000000E-03 0. -1.
         11    1    4    4    0    0 -0.25689142216E-01  0.34234650875E-01 -0.19170970595E-01  0.46901285514E-01  0.51100000000E-03 0.  1.
</event>
<event>
 8    1  0.1092993E+005  0.1043930E+01  0.7957747E-01            NaN
         13   -1    0    0    0    0  0.00000000000E+00  0.00000000000E+00  0.74505805969E-08  0.10566000000E+00  0.10566000000E+00 0. -1.
     999900   -1    0    0    0    0 -0.00000000000E+00 -0.00000000000E+00 -0.74505805969E-08  0.93827000000E+00  0.93827000000E+00 0.  1.
     999902    2    1    2    0    0  0.63425609887E-02  0.11110032661E-01 -0.19552647904E-01  0.10205640644E+01  0.10202965464E+01 0.  0.
     999903    2    3    3    0    0 -0.10568125745E+00 -0.41443888030E-01  0.56972487313E-01  0.12861824387E+00  0.20264854132E-01 0.  0.
         14    1    1    2    0    0 -0.63425609887E-02 -0.11110032661E-01  0.19552647904E-01  0.23365935583E-01  0.00000000000E+00 0. -1.
     999901    1    3    3    0    0  0.11202381844E+00  0.52553920692E-01 -0.76525135216E-01  0.89194582055E+00  0.88000000000E+00 0.  1.
        -11    1    4    4    0    0 -0.69520295342E-01 -0.16852917451E-01  0.33651051416E-01  0.79055339310E-01  0.51100000000E-03 0.  1.
         11    1    4    4    0    0 -0.36160962109E-01 -0.24590970580E-01  0.23321435896E-01  0.49562904556E-01  0.51100000000E-03 0. -1.
</event>
<event>
 8    1  0.1092993E+005  0.1043930E+01  0.7957747E-01            NaN
         13   -1    0    0    0    0  0.00000000000E+00  0.00000000000E+00  0.74505805969E-08  0.10566000000E+00  0.10566000000E+00 0. -1.
     999900   -1    0    0    0    0 -0.00000000000E+00 -0.00000000000E+00 -0.74505805969E-08  0.93827000000E+00  0.93827000000E+00 0. -1.
     999902    2    1    2    0    0  0.27095187780E-02 -0.72219246708E-02  0.22251366177E-01  0.10203796075E+01  0.10201077995E+01 0.  0.
     999903    2    3    3    0    0  0.54882358410E-01  0.27451133348E-01  0.11644924469E+00  0.13313811479E+00  0.19992324403E-01 0.  0.
         14    1    1    2    0    0 -0.27095187780E-02  0.72219246708E-02 -0.22251366177E-01  0.23550392454E-01  0.00000000000E+00 0.  1.
     999901    1    3    3    0    0 -0.52172839632E-01 -0.34673058019E-01 -0.94197878512E-01  0.88724149275E+00  0.88000000000E+00 0.  1.
        -11    1    4    4    0    0  0.40510770476E-01  0.10661787046E-01  0.84103925702E-01  0.93960245142E-01  0.51100000000E-03 0. -1.
         11    1    4    4    0    0  0.14371587934E-01  0.16789346302E-01  0.32345318987E-01  0.39177869651E-01  0.51100000000E-03 0.  1.
</event>
<event>
 8    1  0.1092993E+005  0.1043930E+01  0.7957747E-01            NaN
         13   -1    0    0    0    0  0.00000000000E+00  0.00000000000E+00  0.74505805969E-08  0.10566000000E+00  0.10566000000E+00 0. -1.
     999900   -1    0    0    0    0 -0.00000000000E+00 -0.00000000000E+00 -0.74505805969E-08  0.93827000000E+00  0.93827000000E+00 0.  1.
     999902    2    1    2    0    0  0.10980474809E-01  0.13312775360E-01 -0.16420163327E-01  0.10201093665E+01  0.10198312101E+01 0.  0.
     999903    2    3    3    0    0  0.85559851000E-01 -0.74566625435E-01  0.58981064408E-01  0.12939604701E+00  0.19593399190E-01 0.  0.
         14    1    1    2    0    0 -0.10980474809E-01 -0.13312775360E-01  0.16420163327E-01  0.23820633462E-01  0.00000000000E+00 0. -1.
     999901    1    3    3    0    0 -0.74579376191E-01  0.87879400795E-01 -0.75401227735E-01  0.89071331953E+00  0.88000000000E+00 0.  1.
        -11    1    4    4    0    0  0.14226159411E-01 -0.23221208177E-01  0.12479013851E-01  0.29959890328E-01  0.51100000000E-03 0. -1.
         11    1    4    4    0    0  0.71333691589E-01 -0.51345417258E-01  0.46502050557E-01  0.99436156684E-01  0.51100000000E-03 0.  1.
</event>
<event>
 8    1  0.1092993E+005  0.1043930E+01  0.7957747E-01            NaN
         13   -1    0    0    0    0  0.00000000000E+00  0.00000000000E+00  0.74505805969E-08  0.10566000000E+00  0.10566000000E+00 0. -1.
     999900   -1    0    0    0    0 -0.00000000000E+00 -0.00000000000E+00 -0.74505805969E-08  0.93827000000E+00  0.93827000000E+00 0.  1.
     999902    2    1    2    0    0 -0.30395987781E-02  0.16146911030E-04 -0.23763394148E-01  0.10199729901E+01  0.10196916015E+01 0.  0.
     999903    2    3    3    0    0 -0.74692056294E-01 -0.17744956136E-01 -0.10667072750E+00  0.13299883188E+00  0.20402412455E-01 0.  0.
         14    1    1    2    0    0  0.30395987781E-02 -0.16146911030E-04  0.23763394148E-01  0.23957009891E-01  0.00000000000E+00 0. -1.
     999901    1    3    3    0    0  0.71652457516E-01  0.17761103048E-01  0.82907333349E-01  0.88697415823E+00  0.88000000000E+00 0. -1.
        -11    1    4    4    0    0 -0.57566996957E-01 -0.17557332601E-01 -0.68662778640E-01  0.91307487964E-01  0.51100000000E-03 0.  1.
         11    1    4    4    0    0 -0.17125059337E-01 -0.18762353532E-03 -0.38007948858E-01  0.41691343913E-01  0.51100000000E-03 0. -1.
</event>
<event>
 8    1  0.1092993E+005  0.1043930E+01  0.7957747E-01            NaN
         13   -1    0    0    0    0  0.00000000000E+00  0.00000000000E+00  0.74505805969E-08  0.10566000000E+00  0.10566000000E+00 0.  1.
     999900   -1    0    0    0    0 -0.00000000000E+00 -0.00000000000E+00 -0.74505805969E-08  0.93827000000E+00  0.93827000000E+00 0.  1.
     999902    2    1    2    0    0  0.23846305622E-01 -0.23154880102E-02 -0.32244894075E-02  0.10197555278E+01  0.10194689457E+01 0.  0.
     999903    2    3    3    0    0  0.12463510853E-01 -0.93403923304E-01 -0.89328066747E-01  0.13080080613E+00  0.15802385408E-01 0.  0.
         14    1    1    2    0    0 -0.23846305622E-01  0.23154880102E-02  0.32244894075E-02  0.24174472248E-01  0.00000000000E+00 0.  1.
     999901    1    3    3    0    0  0.11382794769E-01  0.91088435294E-01  0.86103577339E-01  0.88895472162E+00  0.88000000000E+00 0. -1.
        -11    1    4    4    0    0 -0.35192145145E-02 -0.21955718771E-01 -0.23258443197E-01  0.32181590367E-01  0.51100000000E-03 0. -1.
         11    1    4    4    0    0  0.15982725367E-01 -0.71448204533E-01 -0.66069623549E-01  0.98619215765E-01  0.51100000000E-03 0.  1.
</event>
<event>
 8    1  0.1092993E+005  0.1043930E+01  0.7957747E-01            NaN
         13   -1    0    0    0    0  0.00000000000E+00  0.00000000000E+00  0.74505805969E-08  0.10566000000E+00  0.10566000000E+00 0.  1.
     999900   -1    0    0    0    0 -0.00000000000E+00 -0.00000000000E+00 -0.74505805969E-08  0.93827000000E+00  0.93827000000E+00 0. -1.
     999902    2    1    2    0    0 -0.13474376962E-01 -0.93775427763E-02  0.17762535275E-01  0.10197431275E+01  0.10194562478E+01 0.  0.
     999903    2    3    3    0    0  0.10852139740E+00 -0.54401120837E-01 -0.36509977027E-01  0.12853294063E+00  0.21245299821E-01 0.  0.
         14    1    1    2    0    0  0.13474376962E-01  0.93775427763E-02 -0.17762535275E-01  0.24186872523E-01  0.00000000000E+00 0. -1.
     999901    1    3    3    0    0 -0.12199577436E+00  0.45023578061E-01  0.54272512302E-01  0.89121018684E+00  0.88000000000E+00 0.  1.
        -11    1    4    4    0    0  0.77790637584E-01 -0.48102401422E-01 -0.31653607007E-01  0.96785516870E-01  0.51100000000E-03 0. -1.
         11    1    4    4    0    0  0.30730759812E-01 -0.62987194150E-02 -0.48563700208E-02  0.31747423764E-01  0.51100000000E-03 0.  1.
</event>
<event>
 8    1  0.1092993E+005  0.1043930E+01  0.7957747E-01            NaN
         13   -1    0    0    0    0  0.00000000000E+00  0.00000000000E+00  0.74505805969E-08  0.10566000000E+00  0.10566000000E+00 0.  1.
     999900   -1    0    0    0    0 -0.00000000000E+00 -0.00000000000E+00 -0.74505805969E-08  0.93827000000E+00  0.93827000000E+00 0.  1.
     999902    2    1    2    0    0 -0.18547184453E-01  0.14615436291E-01  0.17352840433E-02  0.10202525795E+01  0.10199777967E+01 0.  0.
     999903    2    3    3    0    0 -0.36491594498E-01  0.12626978290E+00  0.43465491080E-02  0.13301218727E+00  0.19941287059E-01 0.  0.
         14    1    1    2    0    0  0.18547184453E-01 -0.14615436291E-01 -0.17352840433E-02  0.23677420463E-01  0.00000000000E+00 0. -1.
     999901    1    3    3    0    0  0.17944410046E-01 -0.11165434661E+00 -0.26112650647E-02  0.88724039227E+00  0.88000000000E+00 0.  1.
        -11    1    4    4    0    0 -0.30078182881E-01  0.10393514828E+00 -0.41090997905E-02  0.10827907441E+00  0.51100000000E-03 0. -1.
         11    1    4    4    0    0 -0.64134116174E-02  0.22334634623E-01  0.84556488985E-02  0.24733112857E-01  0.51100000000E-03 0.  1.
</event>
<event>
 8    1  0.1092993E+005  0.1043930E+01  0.7957747E-01            NaN
         13   -1    0    0    0    0  0.00000000000E+00  0.00000000000E+00  0.74505805969E-08  0.10566000000E+00  0.10566000000E+00 0.  1.
     999900   -1    0    0    0    0 -0.00000000000E+00 -0.00000000000E+00 -0.74505805969E-08  0.93827000000E+00  0.93827000000E+00 0. -1.
     999902    2    1    2    0    0  0.13664102430E-01  0.14269430824E-01  0.65945835840E-02  0.10231018248E+01  0.10228897941E+01 0.  0.
     999903    2    3    3    0    0 -0.99630562317E-01 -0.81610697163E-01 -0.71235721122E-02  0.13056786585E+00  0.20264932141E-01 0.  0.
         14    1    1    2    0    0 -0.13664102430E-01 -0.14269430824E-01 -0.65945835840E-02  0.20828175242E-01  0.00000000000E+00 0. -1.
     999901    1    3    3    0    0  0.11329466475E+00  0.95880127987E-01  0.13718155696E-01  0.89253395891E+00  0.88000000000E+00 0. -1.
        -11    1    4    4    0    0 -0.62756168778E-01 -0.57217525180E-01 -0.13168838912E-01  0.85941034127E-01  0.51100000000E-03 0.  1.
         11    1    4    4    0    0 -0.36874393539E-01 -0.24393171983E-01  0.60452667997E-02  0.44626831726E-01  0.51100000000E-03 0. -1.
</event>
<event>
 8    1  0.1092993E+005  0.1043930E+01  0.7957747E-01            NaN
         13   -1    0    0    0    0  0.00000000000E+00  0.00000000000E+00  0.74505805969E-08  0.10566000000E+00  0.10566000000E+00 0. -1.
     999900   -1    0    0    0    0 -0.00000000000E+00 -0.00000000000E+00 -0.74505805969E-08  0.93827000000E+00  0.93827000000E+00 0. -1.
     999902    2    1    2    0    0  0.21469829954E-01 -0.96966961476E-02 -0.13770079216E-02  0.10203317868E+01  0.10200588608E+01 0.  0.
     999903    2    3    3    0    0  0.58003551134E-01 -0.93147756774E-01 -0.71648329092E-01  0.13284271597E+00  0.21743679264E-01 0.  0.
         14    1    1    2    0    0 -0.21469829954E-01  0.96966961476E-02  0.13770079216E-02  0.23598213179E-01  0.00000000000E+00 0.  1.
     999901    1    3    3    0    0 -0.36533721180E-01  0.83451060627E-01  0.70271321171E-01  0.88748907085E+00  0.88000000000E+00 0.  1.
        -11    1    4    4    0    0  0.11715345250E-01 -0.38301408919E-01 -0.24010820717E-01  0.46701476123E-01  0.51100000000E-03 0.  1.
         11    1    4    4    0    0  0.46288205884E-01 -0.54846347855E-01 -0.47637508376E-01  0.86141239846E-01  0.51100000000E-03 0. -1.
</event>
<event>
 8    1  0.1092993E+005  0.1043930E+01  0.7957747E-01            NaN
         13   -1    0    0    0    0  0.00000000000E+00  0.00000000000E+00  0.74505805969E-08  0.10566000000E+00  0.10566000000E+00 0. -1.
     999900   -1    0    0    0    0 -0.00000000000E+00 -0.00000000000E+00 -0.74505805969E-08  0.93827000000E+00  0.93827000000E+00 0.  1.
     999902    2    1    2    0    0  0.35327133411E-02 -0.23118433754E-02 -0.25922869771E-01  0.10176655780E+01  0.10173265989E+01 0.  0.
     999903    2    3    3    0    0  0.86242530509E-01  0.26899219322E-01 -0.92338381155E-01  0.13081428263E+00  0.20607227756E-01 0.  0.
         14    1    1    2    0    0 -0.35327133411E-02  0.23118433754E-02  0.25922869771E-01  0.26264421952E-01  0.00000000000E+00 0. -1.
     999901    1    3    3    0    0 -0.82709817168E-01 -0.29211062697E-01  0.66415511384E-01  0.88685129542E+00  0.88000000000E+00 0.  1.
        -11    1    4    4    0    0  0.23448112737E-01 -0.74473250275E-03 -0.17417189236E-01  0.29223076828E-01  0.51100000000E-03 0.  1.
         11    1    4    4    0    0  0.62794417772E-01  0.27643951825E-01 -0.74921191918E-01  0.10159120580E+00  0.51100000000E-03 0. -1.
</event>
<event>
 8    1  0.1092993E+005  0.1043930E+01  0.7957747E-01            NaN
         13   -1    0    0    0    0  0.00000000000E+00  0.00000000000E+00  0.74505805969E-08  0.10566000000E+00  0.10566000000E+00 0. -1.
     999900   -1    0    0    0    0 -0.00000000000E+00 -0.00000000000E+00 -0.74505805969E-08  0.93827000000E+00  0.93827000000E+00 0. -1.
     999902    2    1    2    0    0 -0.21074640614E-01 -0.72006458642E-02 -0.56089957446E-02  0.10209637071E+01  0.10207053642E+01 0.  0.
     999903    2    3    3    0    0  0.12538017565E+00 -0.13300641908E-01 -0.15925036513E-01  0.12877950868E+00  0.20819691314E-01 0.  0.
         14    1    1    2    0    0  0.21074640614E-01  0.72006458642E-02  0.56089957446E-02  0.22966292934E-01  0.00000000000E+00 0.  1.
     999901    1    3    3    0    0 -0.14645481626E+00  0.60999960434E-02  0.10316040769E-01  0.89218419839E+00  0.88000000000E+00 0.  1.
        -11    1    4    4    0    0  0.26657681128E-01 -0.10628979756E-01 -0.74643816566E-02  0.29657803160E-01  0.51100000000E-03 0. -1.
         11    1    4    4    0    0  0.98722494520E-01 -0.26716621516E-02 -0.84606548565E-02  0.99121705517E-01  0.51100000000E-03 0.  1.
</event>
<event>
 8    1  0.1273747E+005  0.1043930E+01  0.7957747E-01            NaN
         13   -1    0    0    0    0  0.00000000000E+00  0.00000000000E+00  0.74505805969E-08  0.10566000000E+00  0.10566000000E+00 0. -1.
     999900   -1    0    0    0    0 -0.00000000000E+00 -0.00000000000E+00 -0.74505805969E-08  0.93827000000E+00  0.93827000000E+00 0. -1.
     999902    2    1    2    0    0 -0.20331754823E-01  0.11749554086E-01  0.52128014832E-02  0.10198757784E+01  0.10195920743E+01 0.  0.
     999903    2    3    3    0    0  0.36673586287E-01  0.10759596517E+00 -0.60755758750E-01  0.13038828872E+00  0.19697714636E-01 0.  0.
         14    1    1    2    0    0  0.20331754823E-01 -0.11749554086E-01 -0.52128014832E-02  0.24054221557E-01  0.00000000000E+00 0. -1.
     999901    1    3    3    0    0 -0.57005341110E-01 -0.95846411085E-01  0.65968560234E-01  0.88948748972E+00  0.88000000000E+00 0.  1.
        -11    1    4    4    0    0  0.13424597440E-01  0.59299536824E-01 -0.23869585659E-01  0.65319775907E-01  0.51100000000E-03 0.  1.
         11    1    4    4    0    0  0.23248988847E-01  0.48296428347E-01 -0.36886173091E-01  0.65068512814E-01  0.51100000000E-03 0. -1.
</event>
<event>
 8    1  0.1092993E+005  0.1043930E+01  0.7957747E-01            NaN
         13   -1    0    0    0    0  0.00000000000E+00  0.00000000000E+00  0.74505805969E-08  0.10566000000E+00  0.10566000000E+00 0. -1.
     999900   -1    0    0    0    0 -0.00000000000E+00 -0.00000000000E+00 -0.74505805969E-08  0.93827000000E+00  0.93827000000E+00 0.  1.
     999902    2    1    2    0    0  0.89912579007E-02  0.18747164137E-02 -0.30533985631E-01  0.10120445557E+01  0.10115421401E+01 0.  0.
     999903    2    3    3    0    0  0.12153959398E+00 -0.15627215949E-01 -0.38765079709E-02  0.12430356491E+00  0.20500394002E-01 0.  0.
         14    1    1    2    0    0 -0.89912579007E-02 -0.18747164137E-02  0.30533985631E-01  0.31885444309E-01  0.00000000000E+00 0.  1.
     999901    1    3    3    0    0 -0.11254833607E+00  0.17501932363E-01 -0.26657477660E-01  0.88774099078E+00  0.88000000000E+00 0.  1.
        -11    1    4    4    0    0  0.59096269779E-01 -0.98363013679E-02  0.81010103688E-02  0.60456673878E-01  0.51100000000E-03 0.  1.
         11    1    4    4    0    0  0.62443324196E-01 -0.57909145812E-02 -0.11977518340E-01  0.63846891036E-01  0.51100000000E-03 0. -1.
</event>
<event>
 8    1  0.1092993E+005  0.1043930E+01  0.7957747E-01            NaN
         13   -1    0    0    0    0  0.00000000000E+00  0.00000000000E+00  0.74505805969E-08  0.10566000000E+00  0.10566000000E+00 0. -1.
     999900   -1    0    0    0    0 -0.00000000000E+00 -0.00000000000E+00 -0.74505805969E-08  0.93827000000E+00  0.93827000000E+00 0.  1.
     999902    2    1    2    0    0 -0.89604071520E-02  0.20587178152E-01 -0.68403704237E-02  0.10204584967E+01  0.10201885277E+01 0.  0.
     999903    2    3    3    0    0  0.76914486897E-01 -0.87569842517E-01 -0.50493073981E-01  0.12861882663E+00  0.20222176696E-01 0.  0.
         14    1    1    2    0    0  0.89604071520E-02 -0.20587178152E-01  0.68403704237E-02  0.23471503321E-01  0.00000000000E+00 0. -1.
     999901    1    3    3    0    0 -0.85874894049E-01  0.10815702067E+00  0.43652703558E-01  0.89183967005E+00  0.88000000000E+00 0. -1.
        -11    1    4    4    0    0  0.84932316769E-02 -0.21554100915E-01 -0.11273621631E-01  0.25769554056E-01  0.51100000000E-03 0.  1.
         11    1    4    4    0    0  0.68421255220E-01 -0.66015741602E-01 -0.39219452350E-01  0.10284927257E+00  0.51100000000E-03 0. -1.
</event>
<event>
 8    1  0.1092993E+005  0.1043930E+01  0.7957747E-01            NaN
         13   -1    0    0    0    0  0.00000000000E+00  0.00000000000E+00  0.74505805969E-08  0.10566000000E+00  0.10566000000E+00 0.  1.
     999900   -1    0    0    0    0 -0.00000000000E+00 -0.00000000000E+00 -0.74505805969E-08  0.93827000000E+00  0.93827000000E+00 0.  1.
     999902    2    1    2    0    0 -0.19781105028E-01  0.13991450406E-01 -0.28546705040E-02  0.10195332391E+01  0.10192412980E+01 0.  0.
     999903    2    3    3    0    0 -0.42155657061E-01 -0.65594331033E-01  0.10128822526E+00  0.12954432906E+00  0.21040744502E-01 0.  0.
         14    1    1    2    0    0  0.19781105028E-01 -0.13991450406E-01  0.28546705040E-02  0.24396760938E-01  0.00000000000E+00 0.  1.
     999901    1    3    3    0    0  0.22374552033E-01  0.79585781439E-01 -0.10414289577E+00  0.88998891000E+00  0.88000000000E+00 0. -1.
        -11    1    4    4    0    0 -0.10317787282E-01 -0.27397517373E-01  0.51084024718E-01  0.58880551925E-01  0.51100000000E-03 0.  1.
         11    1    4    4    0    0 -0.31837869779E-01 -0.38196813660E-01  0.50204200544E-01  0.70663777136E-01  0.51100000000E-03 0. -1.
</event>
<event>
 8    1  0.1092993E+005  0.1043930E+01  0.7957747E-01            NaN
         13   -1    0    0    0    0  0.00000000000E+00  0.00000000000E+00  0.74505805969E-08  0.10566000000E+00  0.10566000000E+00 0. -1.
     999900   -1    0    0    0    0 -0.00000000000E+00 -0.00000000000E+00 -0.74505805969E-08  0.93827000000E+00  0.93827000000E+00 0.  1.
     999902    2    1    2    0    0 -0.97579683439E-02  0.11084735653E-01 -0.18858460537E-01  0.10199773207E+01  0.10196960351E+01 0.  0.
     999903    2    3    3    0    0 -0.30231862938E-01 -0.20456499047E-01  0.12117027807E+00  0.12811293783E+00  0.19956318848E-01 0.  0.
         14    1    1    2    0    0  0.97579683439E-02 -0.11084735653E-01  0.18858460537E-01  0.23952679276E-01  0.00000000000E+00 0. -1.
     999901    1    3    3    0    0  0.20473894594E-01  0.31541234700E-01 -0.14002873860E+00  0.89186438290E+00  0.88000000000E+00 0.  1.
        -11    1    4    4    0    0 -0.16032033683E-01 -0.38462621403E-02  0.28777158493E-01  0.33169350436E-01  0.51100000000E-03 0. -1.
         11    1    4    4    0    0 -0.14199829255E-01 -0.16610236907E-01  0.92393119574E-01  0.94943587390E-01  0.51100000000E-03 0.  1.
</event>
<event>
 8    1  0.1092993E+005  0.1043930E+01  0.7957747E-01            NaN
         13   -1    0    0    0    0  0.00000000000E+00  0.00000000000E+00  0.74505805969E-08  0.10566000000E+00  0.10566000000E+00 0.  1.
     999900   -1    0    0    0    0 -0.00000000000E+00 -0.00000000000E+00 -0.74505805969E-08  0.93827000000E+00  0.93827000000E+00 0.  1.
     999902    2    1    2    0    0  0.15400123138E-01 -0.14127616562E-01  0.48571244018E-02  0.10224743481E+01  0.10222492101E+01 0.  0.
     999903    2    3    3    0    0 -0.96528252717E-01 -0.84832316324E-01 -0.23437037957E-01  0.13212179120E+00  0.19815334898E-01 0.  0.
         14    1    1    2    0    0 -0.15400123138E-01  0.14127616562E-01 -0.48571244018E-02  0.21455651933E-01  0.00000000000E+00 0. -1.
     999901    1    3    3    0    0  0.11192837586E+00  0.70704699762E-01  0.28294162359E-01  0.89035255686E+00  0.88000000000E+00 0. -1.
        -11    1    4    4    0    0 -0.42223878943E-01 -0.27916725653E-01 -0.23424421341E-02  0.50674921612E-01  0.51100000000E-03 0. -1.
         11    1    4    4    0    0 -0.54304373774E-01 -0.56915590671E-01 -0.21094595823E-01  0.81446869592E-01  0.51100000000E-03 0.  1.
</event>
<event>
 8    1  0.1092993E+005  0.1043930E+01  0.7957747E-01            NaN
         13   -1    0    0    0    0  0.00000000000E+00  0.00000000000E+00  0.74505805969E-08  0.10566000000E+00  0.10566000000E+00 0. -1.
     999900   -1    0    0    0    0 -0.00000000000E+00 -0.00000000000E+00 -0.74505805969E-08  0.93827000000E+00  0.93827000000E+00 0.  1.
     999902    2    1    2    0    0  0.11592698498E-01 -0.20468940730E-01  0.15560346079E-02  0.10203548131E+01  0.10200824257E+01 0.  0.
     999903    2    3    3    0    0  0.24633307286E-01  0.12412838908E+00  0.97207146375E-02  0.12842145951E+00  0.19568397152E-01 0.  0.
         14    1    1    2    0    0 -0.11592698498E-01  0.20468940730E-01 -0.15560346079E-02  0.23575186887E-01  0.00000000000E+00 0.  1.
     999901    1    3    3    0    0 -0.13040608787E-01 -0.14459732981E+00 -0.81646800296E-02  0.89193335360E+00  0.88000000000E+00 0.  1.
        -11    1    4    4    0    0  0.21201455663E-01  0.83595120251E-01 -0.13738574295E-02  0.86254243126E-01  0.51100000000E-03 0.  1.
         11    1    4    4    0    0  0.34318516227E-02  0.40533268828E-01  0.11094572067E-01  0.42167216386E-01  0.51100000000E-03 0. -1.
</event>
<event>
 8    1  0.1092993E+005  0.1043930E+01  0.7957747E-01            NaN
         13   -1    0    0    0    0  0.00000000000E+00  0.00000000000E+00  0.74505805969E-08  0.10566000000E+00  0.10566000000E+00 0. -1.
     999900   -1    0    0    0    0 -0.00000000000E+00 -0.00000000000E+00 -0.74505805969E-08  0.93827000000E+00  0.93827000000E+00 0.  1.
     999902    2    1    2    0    0 -0.24027604346E-01 -0.14893044758E-02  0.33552011676E-02  0.10196235981E+01  0.10193338416E+01 0.  0.
     999903    2    3    3    0    0 -0.29550329200E-01  0.40561535123E-01  0.11921866496E+00  0.13101619556E+00  0.20825305250E-01 0.  0.
         14    1    1    2    0    0  0.24027604346E-01  0.14893044758E-02 -0.33552011676E-02  0.24306401900E-01  0.00000000000E+00 0. -1.
     999901    1    3    3    0    0  0.55227248540E-02 -0.42050839599E-01 -0.11586346379E+00  0.88860740254E+00  0.88000000000E+00 0.  1.
        -11    1    4    4    0    0 -0.24920398552E-01  0.16927410134E-01  0.61993207450E-01  0.68927370245E-01  0.51100000000E-03 0. -1.
         11    1    4    4    0    0 -0.46299306482E-02  0.23634124989E-01  0.57225457506E-01  0.62088825320E-01  0.51100000000E-03 0.  1.
</event>
<event>
 8    1  0.1092993E+005  0.1043930E+01  0.7957747E-01            NaN
         13   -1    0    0    0    0  0.00000000000E+00  0.00000000000E+00  0.74505805969E-08  0.10566000000E+00  0.10566000000E+00 0.  1.
     999900   -1    0    0    0    0 -0.00000000000E+00 -0.00000000000E+00 -0.74505805969E-08  0.93827000000E+00  0.93827000000E+00 0. -1.
     999902    2    1    2    0    0  0.14019041099E-01 -0.31027667276E-02  0.20222978374E-01  0.10191281950E+01  0.10188263583E+01 0.  0.
     999903    2    3    3    0    0 -0.11789334371E+00  0.44151902121E-01 -0.37370206498E-02  0.12772034083E+00  0.21220018546E-01 0.  0.
         14    1    1    2    0    0 -0.14019041099E-01  0.31027667276E-02 -0.20222978374E-01  0.24801804955E-01  0.00000000000E+00 0. -1.
     999901    1    3    3    0    0  0.13191238481E+00 -0.47254668848E-01  0.23959999023E-01  0.89140785421E+00  0.88000000000E+00 0. -1.
        -11    1    4    4    0    0 -0.27373715174E-01  0.75161210473E-02 -0.93879035322E-02  0.29903280953E-01  0.51100000000E-03 0. -1.
         11    1    4    4    0    0 -0.90519628539E-01  0.36635781073E-01  0.56508828824E-02  0.97817059882E-01  0.51100000000E-03 0.  1.
</event>
<event>
 8    1  0.1092993E+005  0.1043930E+01  0.7957747E-01            NaN
         13   -1    0    0    0    0  0.00000000000E+00  0.00000000000E+00  0.74505805969E-08  0.10566000000E+00  0.10566000000E+00 0. -1.
     999900   -1    0    0    0    0 -0.00000000000E+00 -0.00000000000E+00 -0.74505805969E-08  0.93827000000E+00  0.93827000000E+00 0. -1.
     999902    2    1    2    0    0 -0.13736334950E-01  0.18592900750E-01  0.33951556964E-02  0.10205652843E+01  0.10202977946E+01 0.  0.
     999903    2    3    3    0    0 -0.43310097801E-02 -0.39581942608E-01  0.12251788464E+00  0.13058607272E+00  0.21368259284E-01 0.  0.
         14    1    1    2    0    0  0.13736334950E-01 -0.18592900750E-01 -0.33951556964E-02  0.23364715671E-01  0.00000000000E+00 0. -1.
     999901    1    3    3    0    0 -0.94053251702E-02  0.58174843358E-01 -0.11912272895E+00  0.88997921161E+00  0.88000000000E+00 0. -1.
        -11    1    4    4    0    0 -0.72889225462E-02 -0.38085896123E-02  0.35704750428E-01  0.36643199517E-01  0.51100000000E-03 0. -1.
         11    1    4    4    0    0  0.29579127660E-02 -0.35773352996E-01  0.86813134217E-01  0.93942873205E-01  0.51100000000E-03 0.  1.
</event>
<event>
 8    1  0.1092993E+005  0.1043930E+01  0.7957747E-01            NaN
         13   -1    0    0    0    0  0.00000000000E+00  0.00000000000E+00  0.74505805969E-08  0.10566000000E+00  0.10566000000E+00 0. -1.
     999900   -1    0    0    0    0 -0.00000000000E+00 -0.00000000000E+00 -0.74505805969E-08  0.93827000000E+00  0.93827000000E+00 0.  1.
     999902    2    1    2    0    0  0.19842768426E-01 -0.58604464071E-02  0.12636859883E-01  0.10196860210E+01  0.10193977687E+01 0.  0.
     999903    2    3    3    0    0  0.12243574709E-01  0.87659434100E-02  0.12931674104E+00  0.13183137427E+00  0.20735111337E-01 0.  0.
         14    1    1    2    0    0 -0.19842768426E-01  0.58604464071E-02 -0.12636859883E-01  0.24243979018E-01  0.00000000000E+00 0.  1.
     999901    1    3    3    0    0  0.75991937172E-02 -0.14626389817E-01 -0.11667988116E+00  0.88785464671E+00  0.88000000000E+00 0.  1.
        -11    1    4    4    0    0 -0.32573066950E-02  0.94212662154E-02  0.56996645356E-01  0.57864056260E-01  0.51100000000E-03 0. -1.
         11    1    4    4    0    0  0.15500881404E-01 -0.65532280538E-03  0.72320095686E-01  0.73967318008E-01  0.51100000000E-03 0.  1.
</event>
<event>
 8    1  0.1092993E+005  0.1043930E+01  0.7957747E-01            NaN
         13   -1    0    0    0    0  0.00000000000E+00  0.00000000000E+00  0.74505805969E-08  0.10566000000E+00  0.10566000000E+00 0. -1.
     999900   -1    0    0    0    0 -0.00000000000E+00 -0.00000000000E+00 -0.74505805969E-08  0.93827000000E+00  0.93827000000E+00 0. -1.
     999902    2    1    2    0    0 -0.22244796476E-01 -0.49364496073E-02  0.62759138307E-02  0.10202955633E+01  0.10200217889E+01 0.  0.
     999903    2    3    3    0    0 -0.10484291185E+00 -0.54444291129E-01  0.54212305476E-01  0.13374529810E+00  0.31505772427E-01 0.  0.
         14    1    1    2    0    0  0.22244796476E-01  0.49364496073E-02 -0.62759138307E-02  0.23634436727E-01  0.00000000000E+00 0. -1.
     999901    1    3    3    0    0  0.82598115378E-01  0.49507841522E-01 -0.47936391645E-01  0.88655026517E+00  0.88000000000E+00 0. -1.
        -11    1    4    4    0    0 -0.44963847612E-01 -0.19301579447E-01  0.61898941729E-02  0.49324177358E-01  0.51100000000E-03 0. -1.
         11    1    4    4    0    0 -0.59879064242E-01 -0.35142711682E-01  0.48022411303E-01  0.84421120741E-01  0.51100000000E-03 0.  1.
</event>
<event>
 8    1  0.1092993E+005  0.1043930E+01  0.7957747E-01            NaN
         13   -1    0    0    0    0  0.00000000000E+00  0.00000000000E+00  0.74505805969E-08  0.10566000000E+00  0.10566000000E+00 0.  1.
     999900   -1    0    0    0    0 -0.00000000000E+00 -0.00000000000E+00 -0.74505805969E-08  0.93827000000E+00  0.93827000000E+00 0.  1.
     999902    2    1    2    0    0 -0.11649618016E-01 -0.86350551264E-02 -0.13975662388E-01  0.10237905632E+01  0.10235924581E+01 0.  0.
     999903    2    3    3    0    0 -0.13427009164E+00  0.65635778374E-02 -0.45537298153E-02  0.13510864492E+00  0.12730727106E-01 0.  0.
         14    1    1    2    0    0  0.11649618016E-01  0.86350551264E-02  0.13975662388E-01  0.20139436838E-01  0.00000000000E+00 0.  1.
     999901    1    3    3    0    0  0.12262047363E+00 -0.15198632964E-01 -0.94219325726E-02  0.88868191824E+00  0.88000000000E+00 0.  1.
        -11    1    4    4    0    0 -0.85976576404E-01 -0.21807562700E-03 -0.71086515904E-02  0.86271741003E-01  0.51100000000E-03 0.  1.
         11    1    4    4    0    0 -0.48293515240E-01  0.67816534644E-02  0.25549217751E-02  0.48836903918E-01  0.51100000000E-03 0. -1.
</event>
<event>
 8    1  0.1092993E+005  0.1043930E+01  0.7957747E-01            NaN
         13   -1    0    0    0    0  0.00000000000E+00  0.00000000000E+00  0.74505805969E-08  0.10566000000E+00  0.10566000000E+00 0.  1.
     999900   -1    0    0    0    0 -0.00000000000E+00 -0.00000000000E+00 -0.74505805969E-08  0.93827000000E+00  0.93827000000E+00 0. -1.
     999902    2    1    2    0    0  0.22829548467E-03 -0.31331256402E-02 -0.23353058892E-01  0.10203665971E+01  0.10200944851E+01 0.  0.
     999903    2    3    3    0    0  0.89710831810E-01  0.37542099863E-01 -0.87820585090E-01  0.13255036603E+00  0.19992542670E-01 0.  0.
         14    1    1    2    0    0 -0.22829548467E-03  0.31331256402E-02  0.23353058892E-01  0.23563402868E-01  0.00000000000E+00 0.  1.
     999901    1    3    3    0    0 -0.89482536326E-01 -0.40675225504E-01  0.64467526197E-01  0.88781623110E+00  0.88000000000E+00 0.  1.
        -11    1    4    4    0    0  0.55131822971E-01  0.12517084916E-01 -0.47780145653E-01  0.74022961022E-01  0.51100000000E-03 0.  1.
         11    1    4    4    0    0  0.34579008840E-01  0.25025014947E-01 -0.40040439437E-01  0.58527405006E-01  0.51100000000E-03 0. -1.
</event>
<event>
 8    1  0.1092993E+005  0.1043930E+01  0.7957747E-01            NaN
         13   -1    0    0    0    0  0.00000000000E+00  0.00000000000E+00  0.74505805969E-08  0.10566000000E+00  0.10566000000E+00 0. -1.
     999900   -1    0    0    0    0 -0.00000000000E+00 -0.00000000000E+00 -0.74505805969E-08  0.93827000000E+00  0.93827000000E+00 0. -1.
     999902    2    1    2    0    0  0.15311806254E-01 -0.22602998404E-03  0.18473900693E-01  0.10199344273E+01  0.10196521213E+01 0.  0.
     999903    2    3    3    0    0 -0.71452334555E-01  0.69427653661E-01  0.82446792268E-01  0.13062447989E+00  0.18429486865E-01 0.  0.
         14    1    1    2    0    0 -0.15311806254E-01  0.22602998404E-03 -0.18473900693E-01  0.23995572657E-01  0.00000000000E+00 0.  1.
     999901    1    3    3    0    0  0.86764140809E-01 -0.69653683645E-01 -0.63972891576E-01  0.88930994745E+00  0.88000000000E+00 0. -1.
        -11    1    4    4    0    0 -0.47547398489E-01  0.48767504442E-01  0.45040763055E-01  0.81657553540E-01  0.51100000000E-03 0. -1.
         11    1    4    4    0    0 -0.23904936066E-01  0.20660149219E-01  0.37406029213E-01  0.48966926354E-01  0.51100000000E-03 0.  1.
</event>
<event>
 8    1  0.1092993E+005  0.1043930E+01  0.7957747E-01            NaN
         13   -1    0    0    0    0  0.00000000000E+00  0.00000000000E+00  0.74505805969E-08  0.10566000000E+00  0.10566000000E+00 0.  1.
     999900   -1    0    0    0    0 -0.00000000000E+00 -0.00000000000E+00 -0.74505805969E-08  0.93827000000E+00  0.93827000000E+00 0.  1.
     999902    2    1    2    0    0 -0.11545671626E-01 -0.13086257819E-01  0.15624286681E-01  0.10205062725E+01  0.10202374141E+01 0.  0.
     999903    2    3    3    0    0 -0.94872669288E-01  0.87567158145E-01  0.52646323155E-02  0.13079743183E+00  0.20283521775E-01 0.  0.
         14    1    1    2    0    0  0.11545671626E-01  0.13086257819E-01 -0.15624286681E-01  0.23423727528E-01  0.00000000000E+00 0. -1.
     999901    1    3    3    0    0  0.83326997662E-01 -0.10065341596E+00  0.10359654366E-01  0.88970884065E+00  0.88000000000E+00 0. -1.
        -11    1    4    4    0    0 -0.27443150260E-01  0.15006224323E-01  0.53796049174E-02  0.31741369452E-01  0.51100000000E-03 0.  1.
         11    1    4    4    0    0 -0.67429519028E-01  0.72560933821E-01 -0.11497260190E-03  0.99056062374E-01  0.51100000000E-03 0. -1.
</event>
<event>
 8    1  0.1092993E+005  0.1043930E+01  0.7957747E-01            NaN
         13   -1    0    0    0    0  0.00000000000E+00  0.00000000000E+00  0.74505805969E-08  0.10566000000E+00  0.10566000000E+00 0. -1.
     999900   -1    0    0    0    0 -0.00000000000E+00 -0.00000000000E+00 -0.74505805969E-08  0.93827000000E+00  0.93827000000E+00 0. -1.
     999902    2    1    2    0    0  0.13987412697E-01  0.10933261702E-01  0.15222411260E-01  0.10205439843E+01  0.10202760010E+01 0.  0.
     999903    2    3    3    0    0  0.94661466143E-01 -0.77685836720E-01  0.44641809059E-01  0.13193431270E+00  0.20442342152E-01 0.  0.
         14    1    1    2    0    0 -0.13987412697E-01 -0.10933261702E-01 -0.15222411260E-01  0.23386015692E-01  0.00000000000E+00 0.  1.
     999901    1    3    3    0    0 -0.80674053447E-01  0.88619098423E-01 -0.29419397799E-01  0.88860967161E+00  0.88000000000E+00 0.  1.
        -11    1    4    4    0    0  0.12408731904E-01 -0.17183258674E-01  0.20581830101E-02  0.21301132469E-01  0.51100000000E-03 0. -1.
         11    1    4    4    0    0  0.82252734239E-01 -0.60502578046E-01  0.42583626049E-01  0.11063318023E+00  0.51100000000E-03 0.  1.
</event>
<event>
 8    1  0.1092993E+005  0.1043930E+01  0.7957747E-01            NaN
         13   -1    0    0    0    0  0.00000000000E+00  0.00000000000E+00  0.74505805969E-08  0.10566000000E+00  0.10566000000E+00 0. -1.
     999900   -1    0    0    0    0 -0.00000000000E+00 -0.00000000000E+00 -0.74505805969E-08  0.93827000000E+00  0.93827000000E+00 0. -1.
     999902    2    1    2    0    0 -0.14994120447E-01 -0.48937317098E-02 -0.16254229994E-01  0.10212811093E+01  0.10210299368E+01 0.  0.
     999903    2    3    3    0    0 -0.12241071044E+00  0.27199933243E-01 -0.42517413151E-01  0.13378007721E+00  0.19109166390E-01 0.  0.
         14    1    1    2    0    0  0.14994120447E-01  0.48937317098E-02  0.16254229994E-01  0.22648890718E-01  0.00000000000E+00 0. -1.
     999901    1    3    3    0    0  0.10741658999E+00 -0.32093664953E-01  0.26263183156E-01  0.88750103207E+00  0.88000000000E+00 0.  1.
        -11    1    4    4    0    0 -0.42154871110E-01  0.73756425360E-02 -0.23976708179E-01  0.49056874311E-01  0.51100000000E-03 0.  1.
         11    1    4    4    0    0 -0.80255839327E-01  0.19824290707E-01 -0.18540704972E-01  0.84723202902E-01  0.51100000000E-03 0. -1.
</event>
<event>
 8    1  0.1092993E+005  0.1043930E+01  0.7957747E-01            NaN
         13   -1    0    0    0    0  0.00000000000E+00  0.00000000000E+00  0.74505805969E-08  0.10566000000E+00  0.10566000000E+00 0. -1.
     999900   -1    0    0    0    0 -0.00000000000E+00 -0.00000000000E+00 -0.74505805969E-08  0.93827000000E+00  0.93827000000E+00 0. -1.
     999902    2    1    2    0    0  0.94819767925E-02  0.66044187676E-02 -0.21626406507E-01  0.10194100553E+01  0.10191151226E+01 0.  0.
     999903    2    3    3    0    0  0.15899567067E-01  0.48812783720E-01 -0.12088817908E+00  0.13280099202E+00  0.19663864162E-01 0.  0.
         14    1    1    2    0    0 -0.94819767925E-02 -0.66044187676E-02  0.21626406507E-01  0.24519944730E-01  0.00000000000E+00 0. -1.
     999901    1    3    3    0    0 -0.64175902740E-02 -0.42208364952E-01  0.99261772573E-01  0.88660906325E+00  0.88000000000E+00 0.  1.
        -11    1    4    4    0    0  0.16513539207E-01  0.42816960708E-01 -0.11681947119E+00  0.12551111135E+00  0.51100000000E-03 0.  1.
         11    1    4    4    0    0 -0.61397214095E-03  0.59958230122E-02 -0.40687078893E-02  0.72898806761E-02  0.51100000000E-03 0. -1.
</event>
<event>
 8    1  0.1116765E+005  0.1043930E+01  0.7957747E-01            NaN
         13   -1    0    0    0    0  0.00000000000E+00  0.00000000000E+00  0.74505805969E-08  0.10566000000E+00  0.10566000000E+00 0. -1.
     999900   -1    0    0    0    0 -0.00000000000E+00 -0.00000000000E+00 -0.74505805969E-08  0.93827000000E+00  0.93827000000E+00 0. -1.
     999902    2    1    2    0    0  0.14424543901E-01  0.13405621522E-01  0.13034588981E-01  0.10203147790E+01  0.10200414548E+01 0.  0.
     999903    2    3    3    0    0  0.56180617046E-02 -0.78674097591E-01  0.10249178361E+00  0.13095612325E+00  0.20585535219E-01 0.  0.
         14    1    1    2    0    0 -0.14424543901E-01 -0.13405621522E-01 -0.13034588981E-01  0.23615221046E-01  0.00000000000E+00 0.  1.
     999901    1    3    3    0    0  0.88064821964E-02  0.92079719112E-01 -0.89457194631E-01  0.88935865570E+00  0.88000000000E+00 0. -1.
        -11    1    4    4    0    0 -0.23956199805E-02 -0.33722846315E-01  0.58391317859E-01  0.67474265324E-01  0.51100000000E-03 0.  1.
         11    1    4    4    0    0  0.80136816851E-02 -0.44951251276E-01  0.44100465753E-01  0.63481857929E-01  0.51100000000E-03 0. -1.
</event>
<event>
 8    1  0.1092993E+005  0.1043930E+01  0.7957747E-01            NaN
         13   -1    0    0    0    0  0.00000000000E+00  0.00000000000E+00  0.74505805969E-08  0.10566000000E+00  0.10566000000E+00 0.  1.
     999900   -1    0    0    0    0 -0.00000000000E+00 -0.00000000000E+00 -0.74505805969E-08  0.93827000000E+00  0.93827000000E+00 0. -1.
     999902    2    1    2    0    0 -0.12454090578E-01  0.16011255377E-01  0.13099022159E-01  0.10197835913E+01  0.10194976822E+01 0.  0.
     999903    2    3    3    0    0  0.50751253873E-01 -0.62655362563E-01  0.99174366360E-01  0.12984408931E+00  0.22859316671E-01 0.  0.
         14    1    1    2    0    0  0.12454090578E-01 -0.16011255377E-01 -0.13099022159E-01  0.24146408686E-01  0.00000000000E+00 0. -1.
     999901    1    3    3    0    0 -0.63205344452E-01  0.78666617940E-01 -0.86075344200E-01  0.88993950200E+00  0.88000000000E+00 0. -1.
        -11    1    4    4    0    0  0.31180885689E-01 -0.43017429898E-01  0.47824670050E-01  0.71485712515E-01  0.51100000000E-03 0.  1.
         11    1    4    4    0    0  0.19570368185E-01 -0.19637932665E-01  0.51349696310E-01  0.58358376797E-01  0.51100000000E-03 0. -1.
</event>
<event>
 8    1  0.1092993E+005  0.1043930E+01  0.7957747E-01            NaN
         13   -1    0    0    0    0  0.00000000000E+00  0.00000000000E+00  0.74505805969E-08  0.10566000000E+00  0.10566000000E+00 0.  1.
     999900   -1    0    0    0    0 -0.00000000000E+00 -0.00000000000E+00 -0.74505805969E-08  0.93827000000E+00  0.93827000000E+00 0. -1.
     999902    2    1    2    0    0  0.19274341014E-01  0.58546379557E-02 -0.83209352505E-02  0.10221351618E+01  0.10219027714E+01 0.  0.
     999903    2    3    3    0    0  0.83031390266E-01 -0.87848641171E-01 -0.53576731525E-01  0.13371332907E+00  0.19929693521E-01 0.  0.
         14    1    1    2    0    0 -0.19274341014E-01 -0.58546379557E-02  0.83209352505E-02  0.21794838163E-01  0.00000000000E+00 0.  1.
     999901    1    3    3    0    0 -0.63757049252E-01  0.93703279127E-01  0.45255796275E-01  0.88842183277E+00  0.88000000000E+00 0.  1.
        -11    1    4    4    0    0  0.52412926276E-01 -0.58511002154E-01 -0.44712439962E-01  0.90388691894E-01  0.51100000000E-03 0.  1.
         11    1    4    4    0    0  0.30618463990E-01 -0.29337639017E-01 -0.88642915633E-02  0.43324637172E-01  0.51100000000E-03 0. -1.
</event>
<event>
 8    1  0.1092993E+005  0.1043930E+01  0.7957747E-01            NaN
         13   -1    0    0    0    0  0.00000000000E+00  0.00000000000E+00  0.74505805969E-08  0.10566000000E+00  0.10566000000E+00 0. -1.
     999900   -1    0    0    0    0 -0.00000000000E+00 -0.00000000000E+00 -0.74505805969E-08  0.93827000000E+00  0.93827000000E+00 0. -1.
     999902    2    1    2    0    0  0.73236690585E-03  0.22055886808E-01  0.67677648158E-02  0.10208475143E+01  0.10205865208E+01 0.  0.
     999903    2    3    3    0    0 -0.10837599881E+00  0.27840314149E-01  0.67173685790E-01  0.13203540237E+00  0.20015074496E-01 0.  0.
         14    1    1    2    0    0 -0.73236690585E-03 -0.22055886808E-01 -0.67677648158E-02  0.23082485671E-01  0.00000000000E+00 0. -1.
     999901    1    3    3    0    0  0.10910836572E+00 -0.57844273408E-02 -0.60405920974E-01  0.88881211196E+00  0.88000000000E+00 0. -1.
        -11    1    4    4    0    0 -0.47873376451E-01  0.68771942495E-02  0.19263360548E-01  0.52062406342E-01  0.51100000000E-03 0.  1.
         11    1    4    4    0    0 -0.60502622361E-01  0.20963119899E-01  0.47910325242E-01  0.79972996031E-01  0.51100000000E-03 0. -1.
</event>
<event>
 8    1  0.1092993E+005  0.1043930E+01  0.7957747E-01            NaN
         13   -1    0    0    0    0  0.00000000000E+00  0.00000000000E+00  0.74505805969E-08  0.10566000000E+00  0.10566000000E+00 0. -1.
     999900   -1    0    0    0    0 -0.00000000000E+00 -0.00000000000E+00 -0.74505805969E-08  0.93827000000E+00  0.93827000000E+00 0.  1.
     999902    2    1    2    0    0 -0.20993589830E-01  0.10643530927E-01 -0.27454004852E-02  0.10202328949E+01  0.10199576497E+01 0.  0.
     999903    2    3    3    0    0  0.48606746366E-01 -0.71050730162E-01 -0.93942900671E-01  0.12903418357E+00  0.20340351411E-01 0.  0.
         14    1    1    2    0    0  0.20993589830E-01 -0.10643530927E-01  0.27454004852E-02  0.23697105063E-01  0.00000000000E+00 0. -1.
     999901    1    3    3    0    0 -0.69600336196E-01  0.81694261088E-01  0.91197500186E-01  0.89119871136E+00  0.88000000000E+00 0. -1.
        -11    1    4    4    0    0  0.56505226906E-02 -0.22192824940E-01 -0.30684031101E-01  0.38291262334E-01  0.51100000000E-03 0.  1.
         11    1    4    4    0    0  0.42956223675E-01 -0.48857905221E-01 -0.63258869570E-01  0.90742921241E-01  0.51100000000E-03 0. -1.
</event>
<event>
 8    1  0.1092993E+005  0.1043930E+01  0.7957747E-01            NaN
         13   -1    0    0    0    0  0.00000000000E+00  0.00000000000E+00  0.74505805969E-08  0.10566000000E+00  0.10566000000E+00 0. -1.
     999900   -1    0    0    0    0 -0.00000000000E+00 -0.00000000000E+00 -0.74505805969E-08  0.93827000000E+00  0.93827000000E+00 0.  1.
     999902    2    1    2    0    0 -0.11992608326E-01 -0.19412700325E-01 -0.77992007890E-02  0.10198156242E+01  0.10195304822E+01 0.  0.
     999903    2    3    3    0    0  0.83789952382E-01 -0.64629408952E-02  0.95166374441E-01  0.12855589498E+00  0.20185479552E-01 0.  0.
         14    1    1    2    0    0  0.11992608326E-01  0.19412700325E-01  0.77992007890E-02  0.24114375823E-01  0.00000000000E+00 0.  1.
     999901    1    3    3    0    0 -0.95782560708E-01 -0.12949759430E-01 -0.10296557523E+00  0.89125972920E+00  0.88000000000E+00 0. -1.
        -11    1    4    4    0    0  0.39710170095E-01  0.51655333019E-02  0.35904446943E-01  0.53786343755E-01  0.51100000000E-03 0. -1.
         11    1    4    4    0    0  0.44079782287E-01 -0.11628474197E-01  0.59261927498E-01  0.74769551225E-01  0.51100000000E-03 0.  1.
</event>
<event>
 8    1  0.1092993E+005  0.1043930E+01  0.7957747E-01            NaN
         13   -1    0    0    0    0  0.00000000000E+00  0.00000000000E+00  0.74505805969E-08  0.10566000000E+00  0.10566000000E+00 0.  1.
     999900   -1    0    0    0    0 -0.00000000000E+00 -0.00000000000E+00 -0.74505805969E-08  0.93827000000E+00  0.93827000000E+00 0.  1.
     999902    2    1    2    0    0  0.23280109890E-01  0.10204041220E-02  0.10249366537E-01  0.10184730902E+01  0.10181548906E+01 0.  0.
     999903    2    3    3    0    0  0.80941015027E-01  0.82231033714E-01  0.59881998723E-01  0.13146500428E+00  0.19590884646E-01 0.  0.
         14    1    1    2    0    0 -0.23280109890E-01 -0.10204041220E-02 -0.10249366537E-01  0.25456909779E-01  0.00000000000E+00 0.  1.
     999901    1    3    3    0    0 -0.57660905136E-01 -0.81210629592E-01 -0.49632632186E-01  0.88700808594E+00  0.88000000000E+00 0.  1.
        -11    1    4    4    0    0  0.49641637120E-01  0.37548002796E-01  0.27766055910E-01  0.68156875161E-01  0.51100000000E-03 0. -1.
         11    1    4    4    0    0  0.31299377907E-01  0.44683030918E-01  0.32115942812E-01  0.63308129123E-01  0.51100000000E-03 0.  1.
</event>
<event>
 8    1  0.1092993E+005  0.1043930E+01  0.7957747E-01            NaN
         13   -1    0    0    0    0  0.00000000000E+00  0.00000000000E+00  0.74505805969E-08  0.10566000000E+00  0.10566000000E+00 0.  1.
     999900   -1    0    0    0    0 -0.00000000000E+00 -0.00000000000E+00 -0.74505805969E-08  0.93827000000E+00  0.93827000000E+00 0.  1.
     999902    2    1    2    0    0 -0.88049427744E-02 -0.77173402599E-02  0.20372508724E-01  0.10204326923E+01  0.10201621224E+01 0.  0.
     999903    2    3    3    0    0  0.13186537636E-01 -0.11862723158E+00  0.54153503435E-01  0.13255556971E+00  0.19800815130E-01 0.  0.
         14    1    1    2    0    0  0.88049427744E-02  0.77173402599E-02 -0.20372508724E-01  0.23497307710E-01  0.00000000000E+00 0.  1.
     999901    1    3    3    0    0 -0.21991480411E-01  0.11090989132E+00 -0.33780994712E-01  0.88787712258E+00  0.88000000000E+00 0.  1.
        -11    1    4    4    0    0  0.39549747054E-02 -0.86369303837E-01  0.31284767725E-01  0.91947247282E-01  0.51100000000E-03 0. -1.
         11    1    4    4    0    0  0.92315629308E-02 -0.32257927739E-01  0.22868735710E-01  0.40608322424E-01  0.51100000000E-03 0.  1.
</event>
<event>
 8    1  0.1092993E+005  0.1043930E+01  0.7957747E-01            NaN
         13   -1    0    0    0    0  0.00000000000E+00  0.00000000000E+00  0.74505805969E-08  0.10566000000E+00  0.10566000000E+00 0.  1.
     999900   -1    0    0    0    0 -0.00000000000E+00 -0.00000000000E+00 -0.74505805969E-08  0.93827000000E+00  0.93827000000E+00 0.  1.
     999902    2    1    2    0    0  0.85306035731E-02  0.12866483014E-01  0.17193330769E-01  0.10208231135E+01  0.10205615615E+01 0.  0.
     999903    2    3    3    0    0  0.41013326139E-01  0.64625184563E-01 -0.10379492437E+00  0.13044552596E+00  0.19599528454E-01 0.  0.
         14    1    1    2    0    0 -0.85306035731E-02 -0.12866483014E-01 -0.17193330769E-01  0.23106886536E-01  0.00000000000E+00 0. -1.
     999901    1    3    3    0    0 -0.32482722566E-01 -0.51758701550E-01  0.12098825514E+00  0.89037758751E+00  0.88000000000E+00 0. -1.
        -11    1    4    4    0    0  0.11390054438E-02  0.16068012289E-01 -0.19173672991E-01  0.25047339365E-01  0.51100000000E-03 0.  1.
         11    1    4    4    0    0  0.39874320695E-01  0.48557172274E-01 -0.84621251383E-01  0.10539818659E+00  0.51100000000E-03 0. -1.
</event>
<event>
 8    1  0.1092993E+005  0.1043930E+01  0.7957747E-01            NaN
         13   -1    0    0    0    0  0.00000000000E+00  0.00000000000E+00  0.74505805969E-08  0.10566000000E+00  0.10566000000E+00 0.  1.
     999900   -1    0    0    0    0 -0.00000000000E+00 -0.00000000000E+00 -0.74505805969E-08  0.93827000000E+00  0.93827000000E+00 0. -1.
     999902    2    1    2    0    0 -0.35787965688E-01 -0.11204288765E-01 -0.33457520225E-02  0.10062801842E+01  0.10055756065E+01 0.  0.
     999903    2    3    3    0    0  0.97428982692E-01  0.10565609455E-01 -0.55417993771E-01  0.11446618891E+00  0.20671613322E-01 0.  0.
         14    1    1    2    0    0  0.35787965688E-01  0.11204288765E-01  0.33457520225E-02  0.37649815821E-01  0.00000000000E+00 0. -1.
     999901    1    3    3    0    0 -0.13321694838E+00 -0.21769898220E-01  0.52072241749E-01  0.89181399527E+00  0.88000000000E+00 0.  1.
        -11    1    4    4    0    0  0.65921448252E-01  0.14294227712E-01 -0.30073835661E-01  0.73855663276E-01  0.51100000000E-03 0. -1.
         11    1    4    4    0    0  0.31507534440E-01 -0.37286182578E-02 -0.25344158110E-01  0.40610525630E-01  0.51100000000E-03 0.  1.
</event>
<event>
 8    1  0.1092993E+005  0.1043930E+01  0.7957747E-01            NaN
         13   -1    0    0    0    0  0.00000000000E+00  0.00000000000E+00  0.74505805969E-08  0.10566000000E+00  0.10566000000E+00 0.  1.
     999900   -1    0    0    0    0 -0.00000000000E+00 -0.00000000000E+00 -0.74505805969E-08  0.93827000000E+00  0.93827000000E+00 0.  1.
     999902    2    1    2    0    0 -0.17839172149E-01 -0.14927078820E-01  0.23814089434E-02  0.10205478518E+01  0.10202799581E+01 0.  0.
     999903    2    3    3    0    0 -0.10415323638E+00  0.47204661468E-01  0.63222415617E-01  0.13205919183E+00  0.19141044848E-01 0.  0.
         14    1    1    2    0    0  0.17839172149E-01  0.14927078820E-01 -0.23814089434E-02  0.23382148182E-01  0.00000000000E+00 0.  1.
     999901    1    3    3    0    0  0.86314064229E-01 -0.62131740288E-01 -0.60841006674E-01  0.88848865999E+00  0.88000000000E+00 0. -1.
        -11    1    4    4    0    0 -0.39035671841E-01  0.25039468140E-01  0.33017733459E-01  0.56931454264E-01  0.51100000000E-03 0.  1.
         11    1    4    4    0    0 -0.65117564536E-01  0.22165193328E-01  0.30204682159E-01  0.75127737565E-01  0.51100000000E-03 0. -1.
</event>
<event>
 8    1  0.1092993E+005  0.1043930E+01  0.7957747E-01            NaN
         13   -1    0    0    0    0  0.00000000000E+00  0.00000000000E+00  0.74505805969E-08  0.10566000000E+00  0.10566000000E+00 0. -1.
     999900   -1    0    0    0    0 -0.00000000000E+00 -0.00000000000E+00 -0.74505805969E-08  0.93827000000E+00  0.93827000000E+00 0. -1.
     999902    2    1    2    0    0  0.25223865248E-01  0.12589964804E-02  0.74873130040E-03  0.10186636380E+01  0.10183502434E+01 0.  0.
     999903    2    3    3    0    0 -0.10322040046E+00  0.19527973497E-01  0.63926805369E-01  0.12691078325E+00  0.31367461472E-01 0.  0.
         14    1    1    2    0    0 -0.25223865248E-01 -0.12589964804E-02 -0.74873130040E-03  0.25266362001E-01  0.00000000000E+00 0.  1.
     999901    1    3    3    0    0  0.12844426571E+00 -0.18268977017E-01 -0.63178074069E-01  0.89175285475E+00  0.88000000000E+00 0.  1.
        -11    1    4    4    0    0 -0.77781410050E-01  0.28223065153E-01  0.48076523123E-01  0.95697974652E-01  0.51100000000E-03 0.  1.
         11    1    4    4    0    0 -0.25438990413E-01 -0.86950916553E-02  0.15850282246E-01  0.31212808595E-01  0.51100000000E-03 0. -1.
</event>
<event>
 8    1  0.1092993E+005  0.1043930E+01  0.7957747E-01            NaN
         13   -1    0    0    0    0  0.00000000000E+00  0.00000000000E+00  0.74505805969E-08  0.10566000000E+00  0.10566000000E+00 0. -1.
     999900   -1    0    0    0    0 -0.00000000000E+00 -0.00000000000E+00 -0.74505805969E-08  0.93827000000E+00  0.93827000000E+00 0. -1.
     999902    2    1    2    0    0  0.13640249948E-01 -0.20577917227E-01 -0.97329426947E-02  0.10173925308E+01  0.10170463729E+01 0.  0.
     999903    2    3    3    0    0  0.30887567237E-02  0.11755992275E+00  0.39550415464E-01  0.12519174277E+00  0.16699138885E-01 0.  0.
         14    1    1    2    0    0 -0.13640249948E-01  0.20577917227E-01  0.97329426947E-02  0.26537469162E-01  0.00000000000E+00 0. -1.
     999901    1    3    3    0    0  0.10551493225E-01 -0.13813783997E+00 -0.49283358159E-01  0.89220078807E+00  0.88000000000E+00 0. -1.
        -11    1    4    4    0    0 -0.36632519144E-02  0.81134104389E-01  0.32486289897E-01  0.87474467485E-01  0.51100000000E-03 0. -1.
         11    1    4    4    0    0  0.67520086381E-02  0.36425818358E-01  0.70641255669E-02  0.37717275282E-01  0.51100000000E-03 0.  1.
</event>
<event>
 8    1  0.1092993E+005  0.1043930E+01  0.7957747E-01            NaN
         13   -1    0    0    0    0  0.00000000000E+00  0.00000000000E+00  0.74505805969E-08  0.10566000000E+00  0.10566000000E+00 0.  1.
     999900   -1    0    0    0    0 -0.00000000000E+00 -0.00000000000E+00 -0.74505805969E-08  0.93827000000E+00  0.93827000000E+00 0. -1.
     999902    2    1    2    0    0  0.60668036983E-02  0.76498586928E-02 -0.20932436533E-01  0.10208325252E+01  0.10205711886E+01 0.  0.
     999903    2    3    3    0    0 -0.35895821499E-01 -0.53940898995E-01  0.10876397454E+00  0.12820973674E+00  0.20248551825E-01 0.  0.
         14    1    1    2    0    0 -0.60668036983E-02 -0.76498586928E-02  0.20932436533E-01  0.23097474847E-01  0.00000000000E+00 0.  1.
     999901    1    3    3    0    0  0.41962625197E-01  0.61590757688E-01 -0.12969641108E+00  0.89262278841E+00  0.88000000000E+00 0. -1.
        -11    1    4    4    0    0 -0.20816453646E-01 -0.22599727812E-01  0.34489000530E-01  0.46193340625E-01  0.51100000000E-03 0.  1.
         11    1    4    4    0    0 -0.15079367853E-01 -0.31341171183E-01  0.74274974015E-01  0.82016396116E-01  0.51100000000E-03 0. -1.
</event>
<event>
 8    1  0.1092993E+005  0.1043930E+01  0.7957747E-01            NaN
         13   -1    0    0    0    0  0.00000000000E+00  0.00000000000E+00  0.74505805969E-08  0.10566000000E+00  0.10566000000E+00 0. -1.
     999900   -1    0    0    0    0 -0.00000000000E+00 -0.00000000000E+00 -0.74505805969E-08  0.93827000000E+00  0.93827000000E+00 0. -1.
     999902    2    1    2    0    0 -0.95772244745E-02 -0.15314161643E-01  0.14828850483E-01  0.10205603277E+01  0.10202927232E+01 0.  0.
     999903    2    3    3    0    0 -0.46135265140E-01  0.11868464498E+00  0.14175881751E-01  0.12966605966E+00  0.19945519771E-01 0.  0.
         14    1    1    2    0    0  0.95772244745E-02  0.15314161643E-01 -0.14828850483E-01  0.23369672272E-01  0.00000000000E+00 0.  1.
     999901    1    3    3    0    0  0.36558040666E-01 -0.13399880663E+00  0.65296873184E-03  0.89089426807E+00  0.88000000000E+00 0. -1.
        -11    1    4    4    0    0 -0.27315050671E-02  0.10591768685E-01 -0.42286190494E-02  0.11738356949E-01  0.51100000000E-03 0.  1.
         11    1    4    4    0    0 -0.43403760073E-01  0.10809287630E+00  0.18404500801E-01  0.11792770271E+00  0.51100000000E-03 0. -1.
</event>
<event>
 8    1  0.1092993E+005  0.1043930E+01  0.7957747E-01            NaN
         13   -1    0    0    0    0  0.00000000000E+00  0.00000000000E+00  0.74505805969E-08  0.10566000000E+00  0.10566000000E+00 0. -1.
     999900   -1    0    0    0    0 -0.00000000000E+00 -0.00000000000E+00 -0.74505805969E-08  0.93827000000E+00  0.93827000000E+00 0.  1.
     999902    2    1    2    0    0  0.17820530900E-01 -0.18422762878E-02  0.14896525175E-01  0.10206303913E+01  0.10203644074E+01 0.  0.
     999903    2    3    3    0    0  0.10656076137E+00 -0.17380659058E-01 -0.72741286842E-01  0.13170032884E+00  0.19909762254E-01 0.  0.
         14    1    1    2    0    0 -0.17820530900E-01  0.18422762878E-02 -0.14896525175E-01  0.23299608704E-01  0.00000000000E+00 0.  1.
     999901    1    3    3    0    0 -0.88740230466E-01  0.15538382770E-01  0.87637812016E-01  0.88893006246E+00  0.88000000000E+00 0.  1.
        -11    1    4    4    0    0  0.48886072219E-01  0.14859465053E-02 -0.36364556504E-01  0.60948323888E-01  0.51100000000E-03 0. -1.
         11    1    4    4    0    0  0.57674689147E-01 -0.18866605563E-01 -0.36376730337E-01  0.70752004952E-01  0.51100000000E-03 0.  1.
</event>
<event>
 8    1  0.1092993E+005  0.1043930E+01  0.7957747E-01            NaN
         13   -1    0    0    0    0  0.00000000000E+00  0.00000000000E+00  0.74505805969E-08  0.10566000000E+00  0.10566000000E+00 0. -1.
     999900   -1    0    0    0    0 -0.00000000000E+00 -0.00000000000E+00 -0.74505805969E-08  0.93827000000E+00  0.93827000000E+00 0. -1.
     999902    2    1    2    0    0 -0.16232587699E-02  0.22348746478E-01 -0.82812160293E-02  0.10200410909E+01  0.10197613187E+01 0.  0.
     999903    2    3    3    0    0  0.33586584709E-01 -0.67505017462E-01 -0.10363526555E+00  0.12964464734E+00  0.19557102657E-01 0.  0.
         14    1    1    2    0    0  0.16232587699E-02 -0.22348746478E-01  0.82812160293E-02  0.23888909081E-01  0.00000000000E+00 0. -1.
     999901    1    3    3    0    0 -0.35209843479E-01  0.89853763940E-01  0.95354049520E-01  0.89039644358E+00  0.88000000000E+00 0.  1.
        -11    1    4    4    0    0  0.10690184617E-01 -0.29280685593E-01 -0.28231506685E-01  0.42058503144E-01  0.51100000000E-03 0. -1.
         11    1    4    4    0    0  0.22896400092E-01 -0.38224331869E-01 -0.75403758863E-01  0.87586144200E-01  0.51100000000E-03 0.  1.
</event>
<event>
 8    1  0.1092993E+005  0.1043930E+01  0.7957747E-01            NaN
         13   -1    0    0    0    0  0.00000000000E+00  0.00000000000E+00  0.74505805969E-08  0.10566000000E+00  0.10566000000E+00 0.  1.
     999900   -1    0    0    0    0 -0.00000000000E+00 -0.00000000000E+00 -0.74505805969E-08  0.93827000000E+00  0.93827000000E+00 0.  1.
     999902    2    1    2    0    0 -0.14901979521E-02  0.23291294410E-01  0.90340020463E-03  0.10205736044E+01  0.10203063073E+01 0.  0.
     999903    2    3    3    0    0 -0.11029899595E+00  0.70568855792E-01 -0.32562028057E-02  0.13260298287E+00  0.20666792060E-01 0.  0.
         14    1    1    2    0    0  0.14901979521E-02 -0.23291294410E-01 -0.90340020463E-03  0.23356395637E-01  0.00000000000E+00 0.  1.
     999901    1    3    3    0    0  0.10880879800E+00 -0.47277561382E-01  0.41596030104E-02  0.88797062149E+00  0.88000000000E+00 0. -1.
        -11    1    4    4    0    0 -0.54611098326E-01  0.25298853015E-01  0.48190899469E-02  0.60381195526E-01  0.51100000000E-03 0.  1.
         11    1    4    4    0    0 -0.55687897627E-01  0.45270002777E-01 -0.80752927526E-02  0.72221787347E-01  0.51100000000E-03 0. -1.
</event>
<event>
 8    1  0.1092993E+005  0.1043930E+01  0.7957747E-01            NaN
         13   -1    0    0    0    0  0.00000000000E+00  0.00000000000E+00  0.74505805969E-08  0.10566000000E+00  0.10566000000E+00 0.  1.
     999900   -1    0    0    0    0 -0.00000000000E+00 -0.00000000000E+00 -0.74505805969E-08  0.93827000000E+00  0.93827000000E+00 0.  1.
     999902    2    1    2    0    0 -0.70541903027E-02  0.22075231917E-01  0.15695668287E-02  0.10207019780E+01  0.10204376448E+01 0.  0.
     999903    2    3    3    0    0  0.85093181119E-01 -0.41584904220E-01  0.86509237693E-01  0.12954626846E+00  0.18117222038E-01 0.  0.
         14    1    1    2    0    0  0.70541903027E-02 -0.22075231917E-01 -0.15695668287E-02  0.23228021979E-01  0.00000000000E+00 0.  1.
     999901    1    3    3    0    0 -0.92147371422E-01  0.63660136137E-01 -0.84939670864E-01  0.89115570956E+00  0.88000000000E+00 0.  1.
        -11    1    4    4    0    0  0.60272924668E-01 -0.37353489184E-01  0.68435015475E-01  0.98548064752E-01  0.51100000000E-03 0.  1.
         11    1    4    4    0    0  0.24820256452E-01 -0.42314150365E-02  0.18074222217E-01  0.30998203711E-01  0.51100000000E-03 0. -1.
</event>
<event>
 8    1  0.1092993E+005  0.1043930E+01  0.7957747E-01            NaN
         13   -1    0    0    0    0  0.00000000000E+00  0.00000000000E+00  0.74505805969E-08  0.10566000000E+00  0.10566000000E+00 0.  1.
     999900   -1    0    0    0    0 -0.00000000000E+00 -0.00000000000E+00 -0.74505805969E-08  0.93827000000E+00  0.93827000000E+00 0.  1.
     999902    2    1    2    0    0 -0.13065437684E-01 -0.19551621412E-01 -0.48731555177E-02  0.10199150212E+01  0.10196322530E+01 0.  0.
     999903    2    3    3    0    0  0.47455567614E-01 -0.97953211744E-01 -0.71316204765E-01  0.13186981952E+00  0.21372544286E-01 0.  0.
         14    1    1    2    0    0  0.13065437684E-01  0.19551621412E-01  0.48731555177E-02  0.24014978793E-01  0.00000000000E+00 0.  1.
     999901    1    3    3    0    0 -0.60521005298E-01  0.78401590331E-01  0.66443049248E-01  0.88804520169E+00  0.88000000000E+00 0. -1.
        -11    1    4    4    0    0  0.93034511534E-02 -0.42762999794E-01 -0.26042310963E-01  0.50928297007E-01  0.51100000000E-03 0. -1.
         11    1    4    4    0    0  0.38152116461E-01 -0.55190211950E-01 -0.45273893802E-01  0.80941522511E-01  0.51100000000E-03 0.  1.
</event>
<event>
 8    1  0.1092993E+005  0.1043930E+01  0.7957747E-01            NaN
         13   -1    0    0    0    0  0.00000000000E+00  0.00000000000E+00  0.74505805969E-08  0.10566000000E+00  0.10566000000E+00 0. -1.
     999900   -1    0    0    0    0 -0.00000000000E+00 -0.00000000000E+00 -0.74505805969E-08  0.93827000000E+00  0.93827000000E+00 0. -1.
     999902    2    1    2    0    0  0.28143928392E-02  0.18952592992E-02  0.19467319102E-01  0.10241691972E+01  0.10239785423E+01 0.  0.
     999903    2    3    3    0    0  0.99317155050E-01 -0.79815062939E-01 -0.34361921244E-01  0.13350262265E+00  0.20195718960E-01 0.  0.
         14    1    1    2    0    0 -0.28143928392E-02 -0.18952592992E-02 -0.19467319102E-01  0.19760802815E-01  0.00000000000E+00 0.  1.
     999901    1    3    3    0    0 -0.96502762211E-01  0.81710322238E-01  0.53829240345E-01  0.89066657453E+00  0.88000000000E+00 0.  1.
        -11    1    4    4    0    0  0.52642312377E-01 -0.43645394708E-01 -0.80559683761E-02  0.68857049596E-01  0.51100000000E-03 0.  1.
         11    1    4    4    0    0  0.46674842674E-01 -0.36169668230E-01 -0.26305952867E-01  0.64645573056E-01  0.51100000000E-03 0. -1.
</event>
<event>
 8    1  0.1092993E+005  0.1043930E+01  0.7957747E-01            NaN
         13   -1    0    0    0    0  0.00000000000E+00  0.00000000000E+00  0.74505805969E-08  0.10566000000E+00  0.10566000000E+00 0.  1.
     999900   -1    0    0    0    0 -0.00000000000E+00 -0.00000000000E+00 -0.74505805969E-08  0.93827000000E+00  0.93827000000E+00 0.  1.
     999902    2    1    2    0    0  0.13044994006E-02  0.22477890400E-01 -0.85606412255E-02  0.10198417902E+01  0.10195572741E+01 0.  0.
     999903    2    3    3    0    0 -0.91162421315E-01 -0.66593828586E-01  0.57075482210E-01  0.12810640157E+00  0.20206790637E-01 0.  0.
         14    1    1    2    0    0 -0.13044994006E-02 -0.22477890400E-01  0.85606412255E-02  0.24088209849E-01  0.00000000000E+00 0.  1.
     999901    1    3    3    0    0  0.92466920715E-01  0.89071718986E-01 -0.65636123435E-01  0.89173538858E+00  0.88000000000E+00 0.  1.
        -11    1    4    4    0    0 -0.76295974908E-01 -0.49699963765E-01  0.38259672075E-01  0.98768546682E-01  0.51100000000E-03 0.  1.
         11    1    4    4    0    0 -0.14866446407E-01 -0.16893864821E-01  0.18815810135E-01  0.29337854887E-01  0.51100000000E-03 0. -1.
</event>
<event>
 8    1  0.1092993E+005  0.1043930E+01  0.7957747E-01            NaN
         13   -1    0    0    0    0  0.00000000000E+00  0.00000000000E+00  0.74505805969E-08  0.10566000000E+00  0.10566000000E+00 0.  1.
     999900   -1    0    0    0    0 -0.00000000000E+00 -0.00000000000E+00 -0.74505805969E-08  0.93827000000E+00  0.93827000000E+00 0. -1.
     999902    2    1    2    0    0  0.21252134239E-01  0.13388921933E-02 -0.11720002732E-01  0.10196235337E+01  0.10193337756E+01 0.  0.
     999903    2    3    3    0    0  0.95059510180E-01 -0.89047420012E-01  0.26867836747E-02  0.13180329866E+00  0.19978419477E-01 0.  0.
         14    1    1    2    0    0 -0.21252134239E-01 -0.13388921933E-02  0.11720002732E-01  0.24306466342E-01  0.00000000000E+00 0.  1.
     999901    1    3    3    0    0 -0.73807375941E-01  0.90386312205E-01 -0.14406786407E-01  0.88782023500E+00  0.88000000000E+00 0.  1.
        -11    1    4    4    0    0  0.29815642835E-01 -0.41223063889E-01  0.71229117563E-03  0.50883023041E-01  0.51100000000E-03 0. -1.
         11    1    4    4    0    0  0.65243867344E-01 -0.47824356123E-01  0.19744924991E-02  0.80920275619E-01  0.51100000000E-03 0.  1.
</event>
<event>
 8    1  0.1092993E+005  0.1043930E+01  0.7957747E-01            NaN
         13   -1    0    0    0    0  0.00000000000E+00  0.00000000000E+00  0.74505805969E-08  0.10566000000E+00  0.10566000000E+00 0. -1.
     999900   -1    0    0    0    0 -0.00000000000E+00 -0.00000000000E+00 -0.74505805969E-08  0.93827000000E+00  0.93827000000E+00 0.  1.
     999902    2    1    2    0    0  0.16060685665E-01 -0.22471778806E-02  0.11528620047E-01  0.10240326506E+01  0.10238393258E+01 0.  0.
     999903    2    3    3    0    0  0.23815900858E-01  0.12874525088E+00  0.22127320856E-01  0.13423970154E+00  0.19701329517E-01 0.  0.
         14    1    1    2    0    0 -0.16060685665E-01  0.22471778806E-02 -0.11528620047E-01  0.19897349388E-01  0.00000000000E+00 0.  1.
     999901    1    3    3    0    0 -0.77552151928E-02 -0.13099242876E+00 -0.10598700809E-01  0.88979294907E+00  0.88000000000E+00 0. -1.
        -11    1    4    4    0    0  0.26543977670E-01  0.10499261990E+00  0.20888798457E-01  0.11029340872E+00  0.51100000000E-03 0.  1.
         11    1    4    4    0    0 -0.27280768121E-02  0.23752630974E-01  0.12385223993E-02  0.23946292824E-01  0.51100000000E-03 0. -1.
</event>
<event>
 8    1  0.1092993E+005  0.1043930E+01  0.7957747E-01            NaN
         13   -1    0    0    0    0  0.00000000000E+00  0.00000000000E+00  0.74505805969E-08  0.10566000000E+00  0.10566000000E+00 0. -1.
     999900   -1    0    0    0    0 -0.00000000000E+00 -0.00000000000E+00 -0.74505805969E-08  0.93827000000E+00  0.93827000000E+00 0.  1.
     999902    2    1    2    0    0 -0.77840951853E-03  0.18719264965E-01  0.14161517545E-01  0.10204445709E+01  0.10201742777E+01 0.  0.
     999903    2    3    3    0    0 -0.77058530560E-01 -0.65529009421E-01  0.80248552942E-01  0.13067835166E+00  0.20122950461E-01 0.  0.
         14    1    1    2    0    0  0.77840951853E-03 -0.18719264965E-01 -0.14161517545E-01  0.23485429129E-01  0.00000000000E+00 0. -1.
     999901    1    3    3    0    0  0.76280121042E-01  0.84248274386E-01 -0.66087035397E-01  0.88976621921E+00  0.88000000000E+00 0. -1.
        -11    1    4    4    0    0 -0.51264148170E-01 -0.46659622364E-01  0.65884790259E-01  0.95635767134E-01  0.51100000000E-03 0.  1.
         11    1    4    4    0    0 -0.25794382391E-01 -0.18869387057E-01  0.14363762682E-01  0.35042584525E-01  0.51100000000E-03 0. -1.
</event>
<event>
 8    1  0.1092993E+005  0.1043930E+01  0.7957747E-01            NaN
         13   -1    0    0    0    0  0.00000000000E+00  0.00000000000E+00  0.74505805969E-08  0.10566000000E+00  0.10566000000E+00 0.  1.
     999900   -1    0    0    0    0 -0.00000000000E+00 -0.00000000000E+00 -0.74505805969E-08  0.93827000000E+00  0.93827000000E+00 0.  1.
     999902    2    1    2    0    0 -0.20470137531E-01 -0.68556352966E-02 -0.81680916877E-02  0.10208487525E+01  0.10205877872E+01 0.  0.
     999903    2    3    3    0    0 -0.92557002127E-01 -0.93374604851E-01 -0.13352690271E-01  0.13365715636E+00  0.20008139219E-01 0.  0.
         14    1    1    2    0    0  0.20470137531E-01  0.68556352966E-02  0.81680916877E-02  0.23081247533E-01  0.00000000000E+00 0.  1.
     999901    1    3    3    0    0  0.72086864596E-01  0.86518969554E-01  0.51845985837E-02  0.88719159611E+00  0.88000000000E+00 0. -1.
        -11    1    4    4    0    0 -0.21033023606E-01 -0.11758470183E-01 -0.62672178789E-02  0.24903590986E-01  0.51100000000E-03 0.  1.
         11    1    4    4    0    0 -0.71523978521E-01 -0.81616134668E-01 -0.70854723924E-02  0.10875356537E+00  0.51100000000E-03 0. -1.
</event>
<event>
 8    1  0.1092993E+005  0.1043930E+01  0.7957747E-01            NaN
         13   -1    0    0    0    0  0.00000000000E+00  0.00000000000E+00  0.74505805969E-08  0.10566000000E+00  0.10566000000E+00 0.  1.
     999900   -1    0    0    0    0 -0.00000000000E+00 -0.00000000000E+00 -0.74505805969E-08  0.93827000000E+00  0.93827000000E+00 0. -1.
     999902    2    1    2    0    0  0.15167369266E-01  0.16307348968E-02  0.17605111682E-01  0.10206351863E+01  0.10203693132E+01 0.  0.
     999903    2    3    3    0    0 -0.45815177452E-02  0.14554842019E-01 -0.12479536471E+00  0.12887571945E+00  0.28323740595E-01 0.  0.
         14    1    1    2    0    0 -0.15167369266E-01 -0.16307348968E-02 -0.17605111682E-01  0.23294813674E-01  0.00000000000E+00 0.  1.
     999901    1    3    3    0    0  0.19748887011E-01 -0.12924107122E-01  0.14240047639E+00  0.89175946687E+00  0.88000000000E+00 0.  1.
        -11    1    4    4    0    0  0.63985395374E-02 -0.58046434449E-02 -0.43469701275E-01  0.44322807262E-01  0.51100000000E-03 0.  1.
         11    1    4    4    0    0 -0.10980057283E-01  0.20359485464E-01 -0.81325663432E-01  0.84552912190E-01  0.51100000000E-03 0. -1.
</event>
<event>
 8    1  0.1092993E+005  0.1043930E+01  0.7957747E-01            NaN
         13   -1    0    0    0    0  0.00000000000E+00  0.00000000000E+00  0.74505805969E-08  0.10566000000E+00  0.10566000000E+00 0.  1.
     999900   -1    0    0    0    0 -0.00000000000E+00 -0.00000000000E+00 -0.74505805969E-08  0.93827000000E+00  0.93827000000E+00 0.  1.
     999902    2    1    2    0    0 -0.15406389167E-01 -0.50284374975E-02 -0.16729617507E-01  0.10206378959E+01  0.10203720853E+01 0.  0.
     999903    2    3    3    0    0 -0.11203307377E+00  0.42561950377E-01 -0.54283536724E-01  0.13327559221E+00  0.21277967036E-01 0.  0.
         14    1    1    2    0    0  0.15406389167E-01  0.50284374975E-02  0.16729617507E-01  0.23292104086E-01  0.00000000000E+00 0. -1.
     999901    1    3    3    0    0  0.96626684598E-01 -0.47590387875E-01  0.37553919217E-01  0.88736230371E+00  0.88000000000E+00 0. -1.
        -11    1    4    4    0    0 -0.55449528339E-01  0.99075502751E-02 -0.23089826637E-01  0.60878657677E-01  0.51100000000E-03 0.  1.
         11    1    4    4    0    0 -0.56583545426E-01  0.32654400102E-01 -0.31193710087E-01  0.72396934528E-01  0.51100000000E-03 0. -1.
</event>
<event>
 8    1  0.1092993E+005  0.1043930E+01  0.7957747E-01            NaN
         13   -1    0    0    0    0  0.00000000000E+00  0.00000000000E+00  0.74505805969E-08  0.10566000000E+00  0.10566000000E+00 0.  1.
     999900   -1    0    0    0    0 -0.00000000000E+00 -0.00000000000E+00 -0.74505805969E-08  0.93827000000E+00  0.93827000000E+00 0. -1.
     999902    2    1    2    0    0 -0.10780740340E-01 -0.62143622804E-02 -0.18363026598E-01  0.10217479485E+01  0.10215071350E+01 0.  0.
     999903    2    3    3    0    0  0.12051450565E+00 -0.21434376108E-01  0.39460888802E-01  0.13000039703E+00  0.18967417619E-01 0.  0.
         14    1    1    2    0    0  0.10780740340E-01  0.62143622804E-02  0.18363026598E-01  0.22182051453E-01  0.00000000000E+00 0.  1.
     999901    1    3    3    0    0 -0.13129524599E+00  0.15220013828E-01 -0.57823915400E-01  0.89174755152E+00  0.88000000000E+00 0. -1.
        -11    1    4    4    0    0  0.54870358950E-01 -0.81208988429E-02  0.27667469739E-01  0.61987541426E-01  0.51100000000E-03 0. -1.
         11    1    4    4    0    0  0.65644146704E-01 -0.13313477265E-01  0.11793419064E-01  0.68012855606E-01  0.51100000000E-03 0.  1.
</event>
<event>
 8    1  0.1092993E+005  0.1043930E+01  0.7957747E-01            NaN
         13   -1    0    0    0    0  0.00000000000E+00  0.00000000000E+00  0.74505805969E-08  0.10566000000E+00  0.10566000000E+00 0.  1.
     999900   -1    0    0    0    0 -0.00000000000E+00 -0.00000000000E+00 -0.74505805969E-08  0.93827000000E+00  0.93827000000E+00 0. -1.
     999902    2    1    2    0    0  0.10628790337E-01 -0.19975007116E-01  0.76467873314E-02  0.10200460001E+01  0.10197663443E+01 0.  0.
     999903    2    3    3    0    0  0.86105193861E-01 -0.65380794385E-01 -0.72707586720E-01  0.13200591183E+00  0.21222980612E-01 0.  0.
         14    1    1    2    0    0 -0.10628790337E-01  0.19975007116E-01 -0.76467873314E-02  0.23883999871E-01  0.00000000000E+00 0. -1.
     999901    1    3    3    0    0 -0.75476403523E-01  0.45405787268E-01  0.80354374051E-01  0.88804008830E+00  0.88000000000E+00 0.  1.
        -11    1    4    4    0    0  0.91428229271E-03 -0.30942616850E-03 -0.52147774718E-02  0.53279153283E-02  0.51100000000E-03 0. -1.
         11    1    4    4    0    0  0.85190911568E-01 -0.65071368216E-01 -0.67492809248E-01  0.12667799650E+00  0.51100000000E-03 0.  1.
</event>
<event>
 8    1  0.1092993E+005  0.1043930E+01  0.7957747E-01            NaN
         13   -1    0    0    0    0  0.00000000000E+00  0.00000000000E+00  0.74505805969E-08  0.10566000000E+00  0.10566000000E+00 0. -1.
     999900   -1    0    0    0    0 -0.00000000000E+00 -0.00000000000E+00 -0.74505805969E-08  0.93827000000E+00  0.93827000000E+00 0.  1.
     999902    2    1    2    0    0  0.10166123631E-01 -0.13944889829E-01  0.15840725648E-01  0.10205048295E+01  0.10202359377E+01 0.  0.
     999903    2    3    3    0    0  0.10244301261E+00  0.52521930730E-01  0.63048034919E-01  0.13193215805E+00  0.13338499893E-01 0.  0.
         14    1    1    2    0    0 -0.10166123631E-01  0.13944889829E-01 -0.15840725648E-01  0.23425170460E-01  0.00000000000E+00 0.  1.
     999901    1    3    3    0    0 -0.92276888980E-01 -0.66466820559E-01 -0.47207309271E-01  0.88857267149E+00  0.88000000000E+00 0.  1.
        -11    1    4    4    0    0  0.65166705409E-01  0.31108767468E-01  0.46367750616E-01  0.85817738990E-01  0.51100000000E-03 0.  1.
         11    1    4    4    0    0  0.37276307203E-01  0.21413163262E-01  0.16680284303E-01  0.46114419057E-01  0.51100000000E-03 0. -1.
</event>
<event>
 8    1  0.1092993E+005  0.1043930E+01  0.7957747E-01            NaN
         13   -1    0    0    0    0  0.00000000000E+00  0.00000000000E+00  0.74505805969E-08  0.10566000000E+00  0.10566000000E+00 0.  1.
     999900   -1    0    0    0    0 -0.00000000000E+00 -0.00000000000E+00 -0.74505805969E-08  0.93827000000E+00  0.93827000000E+00 0.  1.
     999902    2    1    2    0    0 -0.45472363771E-02  0.19711345572E-01  0.12742508490E-01  0.10200221347E+01  0.10197419130E+01 0.  0.
     999903    2    3    3    0    0  0.73407668288E-02  0.48473807612E-01  0.12172632526E+00  0.13275324860E+00  0.20063147051E-01 0.  0.
         14    1    1    2    0    0  0.45472363771E-02 -0.19711345572E-01 -0.12742508490E-01  0.23907865349E-01  0.00000000000E+00 0. -1.
     999901    1    3    3    0    0 -0.11888003206E-01 -0.28762462040E-01 -0.10898381677E+00  0.88726888605E+00  0.88000000000E+00 0. -1.
        -11    1    4    4    0    0 -0.49725637397E-02  0.23778851651E-01  0.70426420787E-01  0.74500349273E-01  0.51100000000E-03 0. -1.
         11    1    4    4    0    0  0.12313330568E-01  0.24694955962E-01  0.51299904473E-01  0.58252899323E-01  0.51100000000E-03 0.  1.
</event>
<event>
 8    1  0.1092993E+005  0.1043930E+01  0.7957747E-01            NaN
         13   -1    0    0    0    0  0.00000000000E+00  0.00000000000E+00  0.74505805969E-08  0.10566000000E+00  0.10566000000E+00 0. -1.
     999900   -1    0    0    0    0 -0.00000000000E+00 -0.00000000000E+00 -0.74505805969E-08  0.93827000000E+00  0.93827000000E+00 0.  1.
     999902    2    1    2    0    0  0.22673543087E-01 -0.64606928590E-02  0.44162713193E-02  0.10199438882E+01  0.10196618074E+01 0.  0.
     999903    2    3    3    0    0  0.19887170758E-01  0.93244457218E-01 -0.85592766577E-01  0.12974699550E+00  0.20448295466E-01 0.  0.
         14    1    1    2    0    0 -0.22673543087E-01  0.64606928590E-02 -0.44162713193E-02  0.23986111829E-01  0.00000000000E+00 0.  1.
     999901    1    3    3    0    0  0.27863723288E-02 -0.99705150077E-01  0.90009037897E-01  0.89019689267E+00  0.88000000000E+00 0. -1.
        -11    1    4    4    0    0  0.11890701461E-01  0.16552825565E-01 -0.17032898563E-01  0.26566248698E-01  0.51100000000E-03 0.  1.
         11    1    4    4    0    0  0.79964692964E-02  0.76691631653E-01 -0.68559868015E-01  0.10318074680E+00  0.51100000000E-03 0. -1.
</event>
<event>
 8    1  0.1092993E+005  0.1043930E+01  0.7957747E-01            NaN
         13   -1    0    0    0    0  0.00000000000E+00  0.00000000000E+00  0.74505805969E-08  0.10566000000E+00  0.10566000000E+00 0. -1.
     999900   -1    0    0    0    0 -0.00000000000E+00 -0.00000000000E+00 -0.74505805969E-08  0.93827000000E+00  0.93827000000E+00 0. -1.
     999902    2    1    2    0    0  0.36436232649E-02 -0.23567453234E-02 -0.22828584469E-01  0.10206926484E+01  0.10204281004E+01 0.  0.
     999903    2    3    3    0    0 -0.38225680157E-01 -0.91886447828E-01 -0.85794461310E-01  0.13292392413E+00  0.20093732784E-01 0.  0.
         14    1    1    2    0    0 -0.36436232649E-02  0.23567453234E-02  0.22828584469E-01  0.23237351567E-01  0.00000000000E+00 0. -1.
     999901    1    3    3    0    0  0.41869303422E-01  0.89529702505E-01  0.62965876841E-01  0.88776872430E+00  0.88000000000E+00 0.  1.
        -11    1    4    4    0    0 -0.20159391894E-01 -0.63924866434E-01 -0.66608566814E-01  0.94497364641E-01  0.51100000000E-03 0. -1.
         11    1    4    4    0    0 -0.18066288263E-01 -0.27961581395E-01 -0.19185894496E-01  0.38426559491E-01  0.51100000000E-03 0.  1.
</event>
<event>
 8    1  0.1092993E+005  0.1043930E+01  0.7957747E-01            NaN
         13   -1    0    0    0    0  0.00000000000E+00  0.00000000000E+00  0.74505805969E-08  0.10566000000E+00  0.10566000000E+00 0.  1.
     999900   -1    0    0    0    0 -0.00000000000E+00 -0.00000000000E+00 -0.74505805969E-08  0.93827000000E+00  0.93827000000E+00 0. -1.
     999902    2    1    2    0    0  0.86054291417E-03  0.17231241061E-01  0.15305523573E-01  0.10208667120E+01  0.10206061573E+01 0.  0.
     999903    2    3    3    0    0 -0.22759963313E-01  0.12862234911E+00 -0.15158945121E-01  0.13300749390E+00  0.19986875576E-01 0.  0.
         14    1    1    2    0    0 -0.86054291417E-03 -0.17231241061E-01 -0.15305523573E-01  0.23063288024E-01  0.00000000000E+00 0. -1.
     999901    1    3    3    0    0  0.23620506227E-01 -0.11139110805E+00  0.30464468693E-01  0.88785921807E+00  0.88000000000E+00 0.  1.
        -11    1    4    4    0    0 -0.18241541865E-01  0.48166258468E-01 -0.41451642890E-02  0.51673840698E-01  0.51100000000E-03 0. -1.
         11    1    4    4    0    0 -0.45184214476E-02  0.80456090645E-01 -0.11013780832E-01  0.81333653204E-01  0.51100000000E-03 0.  1.
</event>
<event>
 8    1  0.1092993E+005  0.1043930E+01  0.7957747E-01            NaN
         13   -1    0    0    0    0  0.00000000000E+00  0.00000000000E+00  0.74505805969E-08  0.10566000000E+00  0.10566000000E+00 0.  1.
     999900   -1    0    0    0    0 -0.00000000000E+00 -0.00000000000E+00 -0.74505805969E-08  0.93827000000E+00  0.93827000000E+00 0. -1.
     999902    2    1    2    0    0 -0.46291586802E-02  0.11746713056E-01 -0.18382817050E-01  0.10216288265E+01  0.10213853909E+01 0.  0.
     999903    2    3    3    0    0 -0.12576730349E-01  0.95437432970E-01 -0.92047041320E-01  0.13455852575E+00  0.19153623119E-01 0.  0.
         14    1    1    2    0    0  0.46291586802E-02 -0.11746713056E-01  0.18382817050E-01  0.22301173521E-01  0.00000000000E+00 0.  1.
     999901    1    3    3    0    0  0.79475716690E-02 -0.83690719915E-01  0.73664224270E-01  0.88707030073E+00  0.88000000000E+00 0.  1.
        -11    1    4    4    0    0 -0.16377156901E-01  0.71112780403E-01 -0.62387966323E-01  0.96009157208E-01  0.51100000000E-03 0. -1.
         11    1    4    4    0    0  0.38004265518E-02  0.24324652567E-01 -0.29659074997E-01  0.38549368544E-01  0.51100000000E-03 0.  1.
</event>
<event>
 8    1  0.1092993E+005  0.1043930E+01  0.7957747E-01            NaN
         13   -1    0    0    0    0  0.00000000000E+00  0.00000000000E+00  0.74505805969E-08  0.10566000000E+00  0.10566000000E+00 0. -1.
     999900   -1    0    0    0    0 -0.00000000000E+00 -0.00000000000E+00 -0.74505805969E-08  0.93827000000E+00  0.93827000000E+00 0. -1.
     999902    2    1    2    0    0 -0.37886937664E-03 -0.10279048745E-01 -0.21131832304E-01  0.10204277294E+01  0.10201570439E+01 0.  0.
     999903    2    3    3    0    0 -0.70939389769E-01 -0.64253625817E-01  0.85772829093E-01  0.12951771791E+00  0.16029210549E-01 0.  0.
         14    1    1    2    0    0  0.37886937664E-03  0.10279048745E-01  0.21131832304E-01  0.23502270564E-01  0.00000000000E+00 0. -1.
     999901    1    3    3    0    0  0.70560520392E-01  0.53974577072E-01 -0.10690466140E+00  0.89091001153E+00  0.88000000000E+00 0. -1.
        -11    1    4    4    0    0 -0.42777053319E-01 -0.43021531220E-01  0.63373486712E-01  0.87733621709E-01  0.51100000000E-03 0.  1.
         11    1    4    4    0    0 -0.28162336450E-01 -0.21232094597E-01  0.22399342381E-01  0.41784096202E-01  0.51100000000E-03 0. -1.
</event>
<event>
 8    1  0.1092993E+005  0.1043930E+01  0.7957747E-01            NaN
         13   -1    0    0    0    0  0.00000000000E+00  0.00000000000E+00  0.74505805969E-08  0.10566000000E+00  0.10566000000E+00 0. -1.
     999900   -1    0    0    0    0 -0.00000000000E+00 -0.00000000000E+00 -0.74505805969E-08  0.93827000000E+00  0.93827000000E+00 0. -1.
     999902    2    1    2    0    0 -0.15913634655E-01  0.17677729250E-01 -0.49744757953E-02  0.10196299735E+01  0.10193403708E+01 0.  0.
     999903    2    3    3    0    0 -0.50009047709E-01 -0.20156408842E-01  0.11619622282E+00  0.12986806297E+00  0.21376760999E-01 0.  0.
         14    1    1    2    0    0  0.15913634655E-01 -0.17677729250E-01  0.49744757953E-02  0.24300026519E-01  0.00000000000E+00 0.  1.
     999901    1    3    3    0    0  0.34095413053E-01  0.37834138092E-01 -0.12117069862E+00  0.88976191051E+00  0.88000000000E+00 0. -1.
        -11    1    4    4    0    0 -0.31231748647E-01 -0.22275199559E-02  0.53240322257E-01  0.61767119115E-01  0.51100000000E-03 0.  1.
         11    1    4    4    0    0 -0.18777299061E-01 -0.17928888886E-01  0.62955900565E-01  0.68100943854E-01  0.51100000000E-03 0. -1.
</event>
<event>
 8    1  0.1092993E+005  0.1043930E+01  0.7957747E-01            NaN
         13   -1    0    0    0    0  0.00000000000E+00  0.00000000000E+00  0.74505805969E-08  0.10566000000E+00  0.10566000000E+00 0.  1.
     999900   -1    0    0    0    0 -0.00000000000E+00 -0.00000000000E+00 -0.74505805969E-08  0.93827000000E+00  0.93827000000E+00 0.  1.
     999902    2    1    2    0    0 -0.18902751000E-01  0.12216224740E-01  0.16843680186E-02  0.10213603913E+01  0.10211109938E+01 0.  0.
     999903    2    3    3    0    0  0.35873381751E-01  0.10745819926E+00  0.65167358159E-01  0.13225885126E+00  0.20284355062E-01 0.  0.
         14    1    1    2    0    0  0.18902751000E-01 -0.12216224740E-01 -0.16843680186E-02  0.22569608723E-01  0.00000000000E+00 0. -1.
     999901    1    3    3    0    0 -0.54776132751E-01 -0.95241974518E-01 -0.63482990141E-01  0.88910154002E+00  0.88000000000E+00 0.  1.
        -11    1    4    4    0    0  0.30420154069E-01  0.71015729096E-01  0.51986634798E-01  0.93120840155E-01  0.51100000000E-03 0.  1.
         11    1    4    4    0    0  0.54532276823E-02  0.36442470162E-01  0.13180723362E-01  0.39138011102E-01  0.51100000000E-03 0. -1.
</event>
<event>
 8    1  0.1092993E+005  0.1043930E+01  0.7957747E-01            NaN
         13   -1    0    0    0    0  0.00000000000E+00  0.00000000000E+00  0.74505805969E-08  0.10566000000E+00  0.10566000000E+00 0.  1.
     999900   -1    0    0    0    0 -0.00000000000E+00 -0.00000000000E+00 -0.74505805969E-08  0.93827000000E+00  0.93827000000E+00 0. -1.
     999902    2    1    2    0    0 -0.30283403713E-02 -0.31924977859E-01  0.80867700645E-02  0.10108577925E+01  0.10103166364E+01 0.  0.
     999903    2    3    3    0    0  0.37019420766E-01 -0.11841113894E+00  0.13611780458E-02  0.12568610703E+00  0.20087542264E-01 0.  0.
         14    1    1    2    0    0  0.30283403713E-02  0.31924977859E-01 -0.80867700645E-02  0.33072207467E-01  0.00000000000E+00 0. -1.
     999901    1    3    3    0    0 -0.40047761137E-01  0.86486161085E-01  0.67255920187E-02  0.88517168550E+00  0.88000000000E+00 0.  1.
        -11    1    4    4    0    0  0.88927322383E-02 -0.61808775223E-01 -0.54741284557E-03  0.62449709071E-01  0.51100000000E-03 0.  1.
         11    1    4    4    0    0  0.28126688528E-01 -0.56602363721E-01  0.19085908914E-02  0.63236397957E-01  0.51100000000E-03 0. -1.
</event>
<event>
 8    1  0.1092993E+005  0.1043930E+01  0.7957747E-01            NaN
         13   -1    0    0    0    0  0.00000000000E+00  0.00000000000E+00  0.74505805969E-08  0.10566000000E+00  0.10566000000E+00 0.  1.
     999900   -1    0    0    0    0 -0.00000000000E+00 -0.00000000000E+00 -0.74505805969E-08  0.93827000000E+00  0.93827000000E+00 0. -1.
     999902    2    1    2    0    0 -0.18056236407E-02 -0.85091124512E-02 -0.21893565053E-01  0.10203717008E+01  0.10200997080E+01 0.  0.
     999903    2    3    3    0    0  0.20495704302E-01  0.11113544470E+00  0.57869709774E-01  0.12842195483E+00  0.19290780477E-01 0.  0.
         14    1    1    2    0    0  0.18056236407E-02  0.85091124512E-02  0.21893565053E-01  0.23558299220E-01  0.00000000000E+00 0.  1.
     999901    1    3    3    0    0 -0.22301327943E-01 -0.11964455715E+00 -0.79763274826E-01  0.89194974595E+00  0.88000000000E+00 0.  1.
        -11    1    4    4    0    0  0.81696961091E-02  0.13600059403E-01  0.42256043327E-02  0.16426271739E-01  0.51100000000E-03 0.  1.
         11    1    4    4    0    0  0.12326008193E-01  0.97535385293E-01  0.53644105441E-01  0.11199568309E+00  0.51100000000E-03 0. -1.
</event>
<event>
 8    1  0.1092993E+005  0.1043930E+01  0.7957747E-01            NaN
         13   -1    0    0    0    0  0.00000000000E+00  0.00000000000E+00  0.74505805969E-08  0.10566000000E+00  0.10566000000E+00 0. -1.
     999900   -1    0    0    0    0 -0.00000000000E+00 -0.00000000000E+00 -0.74505805969E-08  0.93827000000E+00  0.93827000000E+00 0. -1.
     999902    2    1    2    0    0  0.71738591678E-02 -0.14744522649E-01  0.18153567170E-01  0.10194674326E+01  0.10191738953E+01 0.  0.
     999903    2    3    3    0    0  0.18200800314E-01  0.11900945708E+00  0.43149739850E-01  0.12894144803E+00  0.16415753564E-01 0.  0.
         14    1    1    2    0    0 -0.71738591678E-02  0.14744522649E-01 -0.18153567170E-01  0.24462567414E-01  0.00000000000E+00 0.  1.
     999901    1    3    3    0    0 -0.11026941146E-01 -0.13375397972E+00 -0.24996172681E-01  0.89052598456E+00  0.88000000000E+00 0.  1.
        -11    1    4    4    0    0  0.12951979019E-01  0.59157745099E-01  0.13991376461E-01  0.62156353673E-01  0.51100000000E-03 0. -1.
         11    1    4    4    0    0  0.52488212956E-02  0.59851711977E-01  0.29158363389E-01  0.66785094356E-01  0.51100000000E-03 0.  1.
</event>
<event>
 8    1  0.1092993E+005  0.1043930E+01  0.7957747E-01            NaN
         13   -1    0    0    0    0  0.00000000000E+00  0.00000000000E+00  0.74505805969E-08  0.10566000000E+00  0.10566000000E+00 0. -1.
     999900   -1    0    0    0    0 -0.00000000000E+00 -0.00000000000E+00 -0.74505805969E-08  0.93827000000E+00  0.93827000000E+00 0. -1.
     999902    2    1    2    0    0 -0.22777378460E-01  0.79865670827E-03 -0.22295616892E-02  0.10210298304E+01  0.10207729899E+01 0.  0.
     999903    2    3    3    0    0 -0.22326423770E-02  0.33166331719E-01  0.12514796501E+00  0.13103275913E+00  0.20064410462E-01 0.  0.
         14    1    1    2    0    0  0.22777378460E-01 -0.79865670827E-03  0.22295616892E-02  0.22900169593E-01  0.00000000000E+00 0.  1.
     999901    1    3    3    0    0 -0.20544736083E-01 -0.32367675011E-01 -0.12737752670E+00  0.88999707127E+00  0.88000000000E+00 0. -1.
        -11    1    4    4    0    0  0.84274201021E-02  0.12281109241E-01  0.58875696136E-01  0.60732658186E-01  0.51100000000E-03 0.  1.
         11    1    4    4    0    0 -0.10660062479E-01  0.20885222478E-01  0.66272268878E-01  0.70300100948E-01  0.51100000000E-03 0. -1.
</event>
<event>
 7    1  0.1092993E+005  0.1043930E+01  0.7957747E-01            NaN
         13   -1    0    0    0    0  0.00000000000E+00  0.00000000000E+00  0.74505805969E-08  0.10566000000E+00  0.10566000000E+00 0. -1.
     999900   -1    0    0    0    0 -0.00000000000E+00 -0.00000000000E+00 -0.74505805969E-08  0.93827000000E+00  0.93827000000E+00 0. -1.
     999903    2    1    2    0    0  0.28767496738E-01  0.71073108655E-01  0.14753877637E-01  0.80497280088E-01  0.19574972637E-01 0.  0.
         14    1    1    2    0    0 -0.66372291095E-01  0.13717596862E-01 -0.39058379491E-01  0.78224104324E-01  0.00000000000E+00 0.  1.
     999901    1    1    2    0    0  0.37604794357E-01 -0.84790705517E-01  0.24304501854E-01  0.88520861559E+00  0.88000000000E+00 0.  1.
        -11    1    3    3    0    0  0.26006556078E-01  0.46909980109E-01  0.36672679495E-02  0.53764274087E-01  0.51100000000E-03 0. -1.
         11    1    3    3    0    0  0.27609406593E-02  0.24163128547E-01  0.11086609688E-01  0.26733006001E-01  0.51100000000E-03 0.  1.
</event>
<event>
 8    1  0.1092993E+005  0.1043930E+01  0.7957747E-01            NaN
         13   -1    0    0    0    0  0.00000000000E+00  0.00000000000E+00  0.74505805969E-08  0.10566000000E+00  0.10566000000E+00 0. -1.
     999900   -1    0    0    0    0 -0.00000000000E+00 -0.00000000000E+00 -0.74505805969E-08  0.93827000000E+00  0.93827000000E+00 0.  1.
     999902    2    1    2    0    0 -0.14660570599E-01 -0.19076003476E-01 -0.25201552741E-02  0.10197395593E+01  0.10194525940E+01 0.  0.
     999903    2    3    3    0    0  0.11955798734E+00  0.23997805303E-01 -0.32999261631E-01  0.12800027552E+00  0.20618250888E-01 0.  0.
         14    1    1    2    0    0  0.14660570599E-01  0.19076003476E-01  0.25201552741E-02  0.24190440705E-01  0.00000000000E+00 0.  1.
     999901    1    3    3    0    0 -0.13421855794E+00 -0.43073808779E-01  0.30479106357E-01  0.89173928377E+00  0.88000000000E+00 0.  1.
        -11    1    4    4    0    0  0.94647229979E-01  0.26947199068E-01 -0.23538079673E-01  0.10118573020E+00  0.51100000000E-03 0. -1.
         11    1    4    4    0    0  0.24910757360E-01 -0.29493937649E-02 -0.94611819580E-02  0.26814545323E-01  0.51100000000E-03 0.  1.
</event>
<event>
 8    1  0.1092993E+005  0.1043930E+01  0.7957747E-01            NaN
         13   -1    0    0    0    0  0.00000000000E+00  0.00000000000E+00  0.74505805969E-08  0.10566000000E+00  0.10566000000E+00 0.  1.
     999900   -1    0    0    0    0 -0.00000000000E+00 -0.00000000000E+00 -0.74505805969E-08  0.93827000000E+00  0.93827000000E+00 0. -1.
     999902    2    1    2    0    0  0.12183670569E-01  0.77367700434E-02  0.18746736114E-01  0.10202711844E+01  0.10199968383E+01 0.  0.
     999903    2    3    3    0    0 -0.11377397279E+00 -0.17569862535E-01  0.57261843403E-01  0.13010874585E+00  0.19903519319E-01 0.  0.
         14    1    1    2    0    0 -0.12183670569E-01 -0.77367700434E-02 -0.18746736114E-01  0.23658815569E-01  0.00000000000E+00 0. -1.
     999901    1    3    3    0    0  0.12595764336E+00  0.25306632579E-01 -0.38515107289E-01  0.89016243858E+00  0.88000000000E+00 0.  1.
        -11    1    4    4    0    0 -0.71314598888E-01 -0.92015842628E-02  0.46090624093E-01  0.85411052668E-01  0.51100000000E-03 0. -1.
         11    1    4    4    0    0 -0.42459373906E-01 -0.83682782726E-02  0.11171219310E-01  0.44697693180E-01  0.51100000000E-03 0.  1.
</event>
<event>
 8    1  0.1092993E+005  0.1043930E+01  0.7957747E-01            NaN
         13   -1    0    0    0    0  0.00000000000E+00  0.00000000000E+00  0.74505805969E-08  0.10566000000E+00  0.10566000000E+00 0.  1.
     999900   -1    0    0    0    0 -0.00000000000E+00 -0.00000000000E+00 -0.74505805969E-08  0.93827000000E+00  0.93827000000E+00 0. -1.
     999902    2    1    2    0    0  0.12277785219E-01  0.11929979414E-01  0.15191821408E-01  0.10210420150E+01  0.10207854508E+01 0.  0.
     999903    2    3    3    0    0 -0.33139421924E-01 -0.76739639328E-01  0.99300052903E-01  0.13143579955E+00  0.20680313539E-01 0.  0.
         14    1    1    2    0    0 -0.12277785219E-01 -0.11929979414E-01 -0.15191821408E-01  0.22887984979E-01  0.00000000000E+00 0. -1.
     999901    1    3    3    0    0  0.45417207143E-01  0.88669618742E-01 -0.84108231495E-01  0.88960621547E+00  0.88000000000E+00 0. -1.
        -11    1    4    4    0    0 -0.27242185736E-01 -0.52789290226E-01  0.82193027195E-01  0.10141400636E+00  0.51100000000E-03 0. -1.
         11    1    4    4    0    0 -0.58972361881E-02 -0.23950349102E-01  0.17107025709E-01  0.30021793191E-01  0.51100000000E-03 0.  1.
</event>
<event>
 8    1  0.1092993E+005  0.1043930E+01  0.7957747E-01            NaN
         13   -1    0    0    0    0  0.00000000000E+00  0.00000000000E+00  0.74505805969E-08  0.10566000000E+00  0.10566000000E+00 0. -1.
     999900   -1    0    0    0    0 -0.00000000000E+00 -0.00000000000E+00 -0.74505805969E-08  0.93827000000E+00  0.93827000000E+00 0.  1.
     999902    2    1    2    0    0 -0.20535318983E-01  0.34733186406E-02 -0.93750326467E-02  0.10210902429E+01  0.10208347710E+01 0.  0.
     999903    2    3    3    0    0  0.11764857079E+00  0.25238728257E-01 -0.46330475257E-01  0.12927511339E+00  0.93467851096E-02 0.  0.
         14    1    1    2    0    0  0.20535318983E-01 -0.34733186406E-02  0.93750326467E-02  0.22839757119E-01  0.00000000000E+00 0.  1.
     999901    1    3    3    0    0 -0.13818388977E+00 -0.21765409616E-01  0.36955442610E-01  0.89181512949E+00  0.88000000000E+00 0.  1.
        -11    1    4    4    0    0  0.33122265581E-01  0.30534502858E-02 -0.14075625078E-01  0.36121909947E-01  0.51100000000E-03 0. -1.
         11    1    4    4    0    0  0.84526305209E-01  0.22185277971E-01 -0.32254850179E-01  0.93153203444E-01  0.51100000000E-03 0.  1.
</event>
<event>
 8    1  0.1092993E+005  0.1043930E+01  0.7957747E-01            NaN
         13   -1    0    0    0    0  0.00000000000E+00  0.00000000000E+00  0.74505805969E-08  0.10566000000E+00  0.10566000000E+00 0. -1.
     999900   -1    0    0    0    0 -0.00000000000E+00 -0.00000000000E+00 -0.74505805969E-08  0.93827000000E+00  0.93827000000E+00 0. -1.
     999902    2    1    2    0    0 -0.14618507815E-01 -0.17359617375E-02  0.18851560394E-01  0.10200114787E+01  0.10197310042E+01 0.  0.
     999903    2    3    3    0    0 -0.78389355506E-01  0.87157437388E-01 -0.53785309824E-01  0.13026720510E+00  0.18313252625E-01 0.  0.
         14    1    1    2    0    0  0.14618507815E-01  0.17359617375E-02 -0.18851560394E-01  0.23918521342E-01  0.00000000000E+00 0.  1.
     999901    1    3    3    0    0  0.63770847691E-01 -0.88893399125E-01  0.72636870218E-01  0.88974427356E+00  0.88000000000E+00 0.  1.
        -11    1    4    4    0    0 -0.18985326390E-01  0.13425970656E-01 -0.16442152214E-01  0.28483412657E-01  0.51100000000E-03 0.  1.
         11    1    4    4    0    0 -0.59404029116E-01  0.73731466732E-01 -0.37343157610E-01  0.10178379244E+00  0.51100000000E-03 0. -1.
</event>
<event>
 8    1  0.1092993E+005  0.1043930E+01  0.7957747E-01            NaN
         13   -1    0    0    0    0  0.00000000000E+00  0.00000000000E+00  0.74505805969E-08  0.10566000000E+00  0.10566000000E+00 0.  1.
     999900   -1    0    0    0    0 -0.00000000000E+00 -0.00000000000E+00 -0.74505805969E-08  0.93827000000E+00  0.93827000000E+00 0. -1.
     999902    2    1    2    0    0 -0.19205938818E-01 -0.59144621667E-02 -0.14393548756E-01  0.10192111166E+01  0.10189113195E+01 0.  0.
     999903    2    3    3    0    0  0.54685251482E-01 -0.35486521566E-02 -0.11642370760E+00  0.13023661849E+00  0.20100433877E-01 0.  0.
         14    1    1    2    0    0  0.19205938818E-01  0.59144621667E-02  0.14393548756E-01  0.24718883356E-01  0.00000000000E+00 0.  1.
     999901    1    3    3    0    0 -0.73891190300E-01 -0.23658100101E-02  0.10203015884E+00  0.88897449816E+00  0.88000000000E+00 0.  1.
        -11    1    4    4    0    0  0.27594113720E-01  0.82445229475E-02 -0.55979080272E-01  0.62954950717E-01  0.51100000000E-03 0. -1.
         11    1    4    4    0    0  0.27091137762E-01 -0.11793175104E-01 -0.60444627326E-01  0.67281667770E-01  0.51100000000E-03 0.  1.
</event>
<event>
 8    1  0.1092993E+005  0.1043930E+01  0.7957747E-01            NaN
         13   -1    0    0    0    0  0.00000000000E+00  0.00000000000E+00  0.74505805969E-08  0.10566000000E+00  0.10566000000E+00 0.  1.
     999900   -1    0    0    0    0 -0.00000000000E+00 -0.00000000000E+00 -0.74505805969E-08  0.93827000000E+00  0.93827000000E+00 0. -1.
     999902    2    1    2    0    0  0.37529419008E-02  0.15924668915E-01 -0.17064931730E-01  0.10202891128E+01  0.10200151872E+01 0.  0.
     999903    2    3    3    0    0  0.11863109850E+00 -0.13327968884E-02 -0.53895021213E-01  0.13189096642E+00  0.20382341210E-01 0.  0.
         14    1    1    2    0    0 -0.37529419008E-02 -0.15924668915E-01  0.17064931730E-01  0.23640887207E-01  0.00000000000E+00 0.  1.
     999901    1    3    3    0    0 -0.11487815660E+00  0.17257465804E-01  0.36830089483E-01  0.88839814637E+00  0.88000000000E+00 0.  1.
        -11    1    4    4    0    0  0.40352647726E-01  0.89372738528E-02 -0.16082918335E-01  0.44352366629E-01  0.51100000000E-03 0. -1.
         11    1    4    4    0    0  0.78278450772E-01 -0.10270070741E-01 -0.37812102878E-01  0.87538599791E-01  0.51100000000E-03 0.  1.
</event>
<event>
 8    1  0.1092993E+005  0.1043930E+01  0.7957747E-01            NaN
         13   -1    0    0    0    0  0.00000000000E+00  0.00000000000E+00  0.74505805969E-08  0.10566000000E+00  0.10566000000E+00 0.  1.
     999900   -1    0    0    0    0 -0.00000000000E+00 -0.00000000000E+00 -0.74505805969E-08  0.93827000000E+00  0.93827000000E+00 0.  1.
     999902    2    1    2    0    0  0.10977369960E-01  0.16617910815E-01 -0.12385991796E-01  0.10204764202E+01  0.10202068682E+01 0.  0.
     999903    2    3    3    0    0  0.66493187487E-01 -0.28155588230E-01  0.10591062556E+00  0.12970104906E+00  0.19779291922E-01 0.  0.
         14    1    1    2    0    0 -0.10977369960E-01 -0.16617910815E-01  0.12385991796E-01  0.23453579767E-01  0.00000000000E+00 0.  1.
     999901    1    3    3    0    0 -0.55515817527E-01  0.44773499045E-01 -0.11829661736E+00  0.89077537117E+00  0.88000000000E+00 0.  1.
        -11    1    4    4    0    0  0.21635569488E-01 -0.14805573430E-03  0.25340054466E-01  0.33324154437E-01  0.51100000000E-03 0.  1.
         11    1    4    4    0    0  0.44857617999E-01 -0.28007532496E-01  0.80570571098E-01  0.96376894622E-01  0.51100000000E-03 0. -1.
</event>
<event>
 8    1  0.1092993E+005  0.1043930E+01  0.7957747E-01            NaN
         13   -1    0    0    0    0  0.00000000000E+00  0.00000000000E+00  0.74505805969E-08  0.10566000000E+00  0.10566000000E+00 0. -1.
     999900   -1    0    0    0    0 -0.00000000000E+00 -0.00000000000E+00 -0.74505805969E-08  0.93827000000E+00  0.93827000000E+00 0. -1.
     999902    2    1    2    0    0 -0.67498763948E-02 -0.87789305699E-02  0.20703592057E-01  0.10204508778E+01  0.10201807315E+01 0.  0.
     999903    2    3    3    0    0  0.72755246570E-01 -0.47529491280E-01  0.98121848311E-01  0.13263543703E+00  0.20294915537E-01 0.  0.
         14    1    1    2    0    0  0.67498763948E-02  0.87789305699E-02 -0.20703592057E-01  0.23479122159E-01  0.00000000000E+00 0.  1.
     999901    1    3    3    0    0 -0.79505122964E-01  0.38750560710E-01 -0.77418256253E-01  0.88781544081E+00  0.88000000000E+00 0. -1.
        -11    1    4    4    0    0  0.22661129293E-01 -0.66163132128E-02  0.35289775144E-01  0.42460943609E-01  0.51100000000E-03 0.  1.
         11    1    4    4    0    0  0.50094117276E-01 -0.40913178067E-01  0.62832073166E-01  0.90174493426E-01  0.51100000000E-03 0. -1.
</event>
<event>
 8    1  0.1092993E+005  0.1043930E+01  0.7957747E-01            NaN
         13   -1    0    0    0    0  0.00000000000E+00  0.00000000000E+00  0.74505805969E-08  0.10566000000E+00  0.10566000000E+00 0.  1.
     999900   -1    0    0    0    0 -0.00000000000E+00 -0.00000000000E+00 -0.74505805969E-08  0.93827000000E+00  0.93827000000E+00 0.  1.
     999902    2    1    2    0    0 -0.69408607457E-02 -0.83836986702E-02  0.19938475760E-01  0.10212142617E+01  0.10209615877E+01 0.  0.
     999903    2    3    3    0    0 -0.38024750509E-01 -0.12435422515E+00  0.21434682958E-01  0.13306021545E+00  0.18322672817E-01 0.  0.
         14    1    1    2    0    0  0.69408607457E-02  0.83836986702E-02 -0.19938475760E-01  0.22715738308E-01  0.00000000000E+00 0. -1.
     999901    1    3    3    0    0  0.31083889763E-01  0.11597052648E+00 -0.14962071987E-02  0.88815404624E+00  0.88000000000E+00 0.  1.
        -11    1    4    4    0    0 -0.32673303714E-01 -0.11049350290E+00  0.12968077724E-01  0.11595167579E+00  0.51100000000E-03 0. -1.
         11    1    4    4    0    0 -0.53514467949E-02 -0.13860722253E-01  0.84666052346E-02  0.17108539662E-01  0.51100000000E-03 0.  1.
</event>
<event>
 8    1  0.1092993E+005  0.1043930E+01  0.7957747E-01            NaN
         13   -1    0    0    0    0  0.00000000000E+00  0.00000000000E+00  0.74505805969E-08  0.10566000000E+00  0.10566000000E+00 0. -1.
     999900   -1    0    0    0    0 -0.00000000000E+00 -0.00000000000E+00 -0.74505805969E-08  0.93827000000E+00  0.93827000000E+00 0. -1.
     999902    2    1    2    0    0  0.46466557152E-02  0.49154645819E-02 -0.22445718506E-01  0.10204872297E+01  0.10202179289E+01 0.  0.
     999903    2    3    3    0    0 -0.10376743020E+00 -0.74883035362E-01  0.10004492444E-01  0.12965928287E+00  0.18338244452E-01 0.  0.
         14    1    1    2    0    0 -0.46466557152E-02 -0.49154645819E-02  0.22445718506E-01  0.23442770328E-01  0.00000000000E+00 0. -1.
     999901    1    3    3    0    0  0.10841408591E+00  0.79798499944E-01 -0.32450210950E-01  0.89082794680E+00  0.88000000000E+00 0. -1.
        -11    1    4    4    0    0 -0.39304800997E-02 -0.84497300238E-02  0.12918532387E-02  0.94221344227E-02  0.51100000000E-03 0. -1.
         11    1    4    4    0    0 -0.99836950098E-01 -0.66433305339E-01  0.87126392055E-02  0.12023714844E+00  0.51100000000E-03 0.  1.
</event>
<event>
 8    1  0.1092993E+005  0.1043930E+01  0.7957747E-01            NaN
         13   -1    0    0    0    0  0.00000000000E+00  0.00000000000E+00  0.74505805969E-08  0.10566000000E+00  0.10566000000E+00 0. -1.
     999900   -1    0    0    0    0 -0.00000000000E+00 -0.00000000000E+00 -0.74505805969E-08  0.93827000000E+00  0.93827000000E+00 0. -1.
     999902    2    1    2    0    0  0.79825554755E-02  0.19696713175E-01 -0.85375065590E-02  0.10210264911E+01  0.10207695748E+01 0.  0.
     999903    2    3    3    0    0 -0.30993297164E-01 -0.10091425710E+00 -0.72548717639E-01  0.12964354400E+00  0.19996507528E-01 0.  0.
         14    1    1    2    0    0 -0.79825554755E-02 -0.19696713175E-01  0.85375065590E-02  0.22903508902E-01  0.00000000000E+00 0. -1.
     999901    1    3    3    0    0  0.38975852640E-01  0.12061097028E+00  0.64011211080E-01  0.89138294710E+00  0.88000000000E+00 0. -1.
        -11    1    4    4    0    0 -0.10442526533E-01 -0.64773528059E-01 -0.48707075549E-01  0.81714727113E-01  0.51100000000E-03 0.  1.
         11    1    4    4    0    0 -0.20550770632E-01 -0.36140729042E-01 -0.23841642090E-01  0.47928816883E-01  0.51100000000E-03 0. -1.
</event>
<event>
 8    1  0.1092993E+005  0.1043930E+01  0.7957747E-01            NaN
         13   -1    0    0    0    0  0.00000000000E+00  0.00000000000E+00  0.74505805969E-08  0.10566000000E+00  0.10566000000E+00 0.  1.
     999900   -1    0    0    0    0 -0.00000000000E+00 -0.00000000000E+00 -0.74505805969E-08  0.93827000000E+00  0.93827000000E+00 0.  1.
     999902    2    1    2    0    0 -0.16662685182E-01  0.99016143001E-02 -0.14961301542E-01  0.10194447476E+01  0.10191506590E+01 0.  0.
     999903    2    3    3    0    0 -0.51850641535E-01 -0.84375895921E-01  0.79898318103E-01  0.12864466413E+00  0.18918972823E-01 0.  0.
         14    1    1    2    0    0  0.16662685182E-01 -0.99016143001E-02  0.14961301542E-01  0.24485252440E-01  0.00000000000E+00 0.  1.
     999901    1    3    3    0    0  0.35187956353E-01  0.94277510221E-01 -0.94859619644E-01  0.89080008343E+00  0.88000000000E+00 0. -1.
        -11    1    4    4    0    0 -0.45616993346E-01 -0.66723479703E-01  0.72260187907E-01  0.10841922663E+00  0.51100000000E-03 0. -1.
         11    1    4    4    0    0 -0.62336481889E-02 -0.17652416218E-01  0.76381301956E-02  0.20225437498E-01  0.51100000000E-03 0.  1.
</event>
<event>
 8    1  0.1092993E+005  0.1043930E+01  0.7957747E-01            NaN
         13   -1    0    0    0    0  0.00000000000E+00  0.00000000000E+00  0.74505805969E-08  0.10566000000E+00  0.10566000000E+00 0. -1.
     999900   -1    0    0    0    0 -0.00000000000E+00 -0.00000000000E+00 -0.74505805969E-08  0.93827000000E+00  0.93827000000E+00 0. -1.
     999902    2    1    2    0    0 -0.37274887680E-02 -0.19562444651E-01 -0.21067381279E-02  0.10239044723E+01  0.10237086239E+01 0.  0.
     999903    2    3    3    0    0  0.73342995590E-01 -0.10000085497E+00  0.50142457659E-01  0.13534373952E+00  0.20598440982E-01 0.  0.
         14    1    1    2    0    0  0.37274887680E-02  0.19562444651E-01  0.21067381279E-02  0.20025527678E-01  0.00000000000E+00 0. -1.
     999901    1    3    3    0    0 -0.77070484358E-01  0.80438410319E-01 -0.52249195787E-01  0.88856073280E+00  0.88000000000E+00 0.  1.
        -11    1    4    4    0    0  0.97788608237E-02 -0.27981057405E-01  0.11192236967E-01  0.31687426242E-01  0.51100000000E-03 0.  1.
         11    1    4    4    0    0  0.63564134766E-01 -0.72019797565E-01  0.38950220692E-01  0.10365631328E+00  0.51100000000E-03 0. -1.
</event>
<event>
 8    1  0.1092993E+005  0.1043930E+01  0.7957747E-01            NaN
         13   -1    0    0    0    0  0.00000000000E+00  0.00000000000E+00  0.74505805969E-08  0.10566000000E+00  0.10566000000E+00 0. -1.
     999900   -1    0    0    0    0 -0.00000000000E+00 -0.00000000000E+00 -0.74505805969E-08  0.93827000000E+00  0.93827000000E+00 0. -1.
     999902    2    1    2    0    0 -0.21727646761E-01  0.24363493912E-02 -0.82916421962E-02  0.10205467205E+01  0.10202788006E+01 0.  0.
     999903    2    3    3    0    0  0.32968767067E-01 -0.10565082109E+00 -0.65753772752E-01  0.13039143593E+00  0.20720336237E-01 0.  0.
         14    1    1    2    0    0  0.21727646761E-01 -0.24363493912E-02  0.82916421962E-02  0.23383279548E-01  0.00000000000E+00 0. -1.
     999901    1    3    3    0    0 -0.54696413828E-01  0.10808717048E+00  0.57462130556E-01  0.89015528452E+00  0.88000000000E+00 0. -1.
        -11    1    4    4    0    0  0.20444301867E-01 -0.67383279851E-01 -0.30004788556E-01  0.76544263923E-01  0.51100000000E-03 0. -1.
         11    1    4    4    0    0  0.12524465201E-01 -0.38267541242E-01 -0.35748984197E-01  0.53847172009E-01  0.51100000000E-03 0.  1.
</event>
<event>
 8    1  0.1092993E+005  0.1043930E+01  0.7957747E-01            NaN
         13   -1    0    0    0    0  0.00000000000E+00  0.00000000000E+00  0.74505805969E-08  0.10566000000E+00  0.10566000000E+00 0. -1.
     999900   -1    0    0    0    0 -0.00000000000E+00 -0.00000000000E+00 -0.74505805969E-08  0.93827000000E+00  0.93827000000E+00 0.  1.
     999902    2    1    2    0    0 -0.58148223009E-02  0.25421540821E-02  0.23982064246E-01  0.10191224586E+01  0.10188204805E+01 0.  0.
     999903    2    3    3    0    0 -0.11425247303E+00  0.41075549894E-01  0.46037399666E-01  0.13135560602E+00  0.19850054713E-01 0.  0.
         14    1    1    2    0    0  0.58148223009E-02 -0.25421540821E-02 -0.23982064246E-01  0.24807541419E-01  0.00000000000E+00 0.  1.
     999901    1    3    3    0    0  0.10843765073E+00 -0.38533395812E-01 -0.22055335420E-01  0.88776685256E+00  0.88000000000E+00 0.  1.
        -11    1    4    4    0    0 -0.11039184931E+00  0.36048912846E-01  0.40705273424E-01  0.12305716118E+00  0.51100000000E-03 0. -1.
         11    1    4    4    0    0 -0.38606237174E-02  0.50266370480E-02  0.53321262419E-02  0.82984448398E-02  0.51100000000E-03 0.  1.
</event>
<event>
 8    1  0.1092993E+005  0.1043930E+01  0.7957747E-01            NaN
         13   -1    0    0    0    0  0.00000000000E+00  0.00000000000E+00  0.74505805969E-08  0.10566000000E+00  0.10566000000E+00 0.  1.
     999900   -1    0    0    0    0 -0.00000000000E+00 -0.00000000000E+00 -0.74505805969E-08  0.93827000000E+00  0.93827000000E+00 0.  1.
     999902    2    1    2    0    0  0.19700217329E-01 -0.11540612588E-01 -0.12106969087E-01  0.10180869545E+01  0.10177589026E+01 0.  0.
     999903    2    3    3    0    0 -0.10884119206E+00 -0.13428329692E-01 -0.61646019379E-01  0.12736782090E+00  0.19889820741E-01 0.  0.
         14    1    1    2    0    0 -0.19700217329E-01  0.11540612588E-01  0.12106969087E-01  0.25843045529E-01  0.00000000000E+00 0.  1.
     999901    1    3    3    0    0  0.12854140939E+00  0.18877171038E-02  0.49539050292E-01  0.89071913357E+00  0.88000000000E+00 0.  1.
        -11    1    4    4    0    0 -0.15260660977E-01 -0.84071650246E-03 -0.13902657433E-02  0.15355407436E-01  0.51100000000E-03 0.  1.
         11    1    4    4    0    0 -0.93580531080E-01 -0.12587613190E-01 -0.60255753636E-01  0.11201241347E+00  0.51100000000E-03 0. -1.
</event>
<event>
 8    1  0.1092993E+005  0.1043930E+01  0.7957747E-01            NaN
         13   -1    0    0    0    0  0.00000000000E+00  0.00000000000E+00  0.74505805969E-08  0.10566000000E+00  0.10566000000E+00 0. -1.
     999900   -1    0    0    0    0 -0.00000000000E+00 -0.00000000000E+00 -0.74505805969E-08  0.93827000000E+00  0.93827000000E+00 0. -1.
     999902    2    1    2    0    0  0.76795777755E-02  0.20355785728E-01 -0.88948515584E-02  0.10204256959E+01  0.10201549630E+01 0.  0.
     999903    2    3    3    0    0  0.80604690926E-02  0.13041149819E+00 -0.19619213618E-01  0.13350550959E+00  0.19148825724E-01 0.  0.
         14    1    1    2    0    0 -0.76795777755E-02 -0.20355785728E-01  0.88948515584E-02  0.23504304109E-01  0.00000000000E+00 0. -1.
     999901    1    3    3    0    0 -0.38089131711E-03 -0.11005571246E+00  0.10724362060E-01  0.88692018630E+00  0.88000000000E+00 0. -1.
        -11    1    4    4    0    0  0.64881035478E-02  0.51323702270E-01  0.10476248815E-02  0.51745304533E-01  0.51100000000E-03 0.  1.
         11    1    4    4    0    0  0.15723655448E-02  0.79087795919E-01 -0.20666838500E-01  0.81760205059E-01  0.51100000000E-03 0. -1.
</event>
<event>
 8    1  0.1092993E+005  0.1043930E+01  0.7957747E-01            NaN
         13   -1    0    0    0    0  0.00000000000E+00  0.00000000000E+00  0.74505805969E-08  0.10566000000E+00  0.10566000000E+00 0.  1.
     999900   -1    0    0    0    0 -0.00000000000E+00 -0.00000000000E+00 -0.74505805969E-08  0.93827000000E+00  0.93827000000E+00 0.  1.
     999902    2    1    2    0    0 -0.16814451180E-01 -0.95522902919E-02  0.13182818621E-01  0.10205257541E+01  0.10202573480E+01 0.  0.
     999903    2    3    3    0    0  0.35173311104E-01  0.11476530063E+00  0.44873385270E-01  0.12970485021E+00  0.20037250795E-01 0.  0.
         14    1    1    2    0    0  0.16814451180E-01  0.95522902919E-02 -0.13182818621E-01  0.23404245878E-01  0.00000000000E+00 0. -1.
     999901    1    3    3    0    0 -0.51987762283E-01 -0.12431759092E+00 -0.31690566649E-01  0.89082090392E+00  0.88000000000E+00 0.  1.
        -11    1    4    4    0    0  0.21327132291E-01  0.43720247630E-01  0.24721374565E-01  0.54568435070E-01  0.51100000000E-03 0.  1.
         11    1    4    4    0    0  0.13846178812E-01  0.71045052997E-01  0.20152010705E-01  0.75136415136E-01  0.51100000000E-03 0. -1.
</event>
<event>
 8    1  0.1092993E+005  0.1043930E+01  0.7957747E-01            NaN
         13   -1    0    0    0    0  0.00000000000E+00  0.00000000000E+00  0.74505805969E-08  0.10566000000E+00  0.10566000000E+00 0.  1.
     999900   -1    0    0    0    0 -0.00000000000E+00 -0.00000000000E+00 -0.74505805969E-08  0.93827000000E+00  0.93827000000E+00 0. -1.
     999902    2    1    2    0    0  0.19593512841E-01 -0.12982785358E-01  0.21777293645E-02  0.10203248953E+01  0.10200518080E+01 0.  0.
     999903    2    3    3    0    0  0.12933028874E+00 -0.24709209950E-01  0.79852646816E-02  0.13341261304E+00  0.19957259931E-01 0.  0.
         14    1    1    2    0    0 -0.19593512841E-01  0.12982785358E-01 -0.21777293645E-02  0.23605104666E-01  0.00000000000E+00 0. -1.
     999901    1    3    3    0    0 -0.10973677590E+00  0.11726424593E-01 -0.58075353172E-02  0.88691228229E+00  0.88000000000E+00 0.  1.
        -11    1    4    4    0    0  0.92157667361E-01 -0.88558188637E-02  0.24133040306E-02  0.92615043803E-01  0.51100000000E-03 0.  1.
         11    1    4    4    0    0  0.37172621379E-01 -0.15853391087E-01  0.55719606510E-02  0.40797569237E-01  0.51100000000E-03 0. -1.
</event>
<event>
 8    1  0.1092993E+005  0.1043930E+01  0.7957747E-01            NaN
         13   -1    0    0    0    0  0.00000000000E+00  0.00000000000E+00  0.74505805969E-08  0.10566000000E+00  0.10566000000E+00 0.  1.
     999900   -1    0    0    0    0 -0.00000000000E+00 -0.00000000000E+00 -0.74505805969E-08  0.93827000000E+00  0.93827000000E+00 0. -1.
     999902    2    1    2    0    0 -0.19458695749E-03 -0.12431007268E-02  0.25288640369E-01  0.10186100771E+01  0.10182953357E+01 0.  0.
     999903    2    3    3    0    0 -0.10025822386E+00  0.36746973569E-03 -0.75805471760E-01  0.12718686400E+00  0.19446910760E-01 0.  0.
         14    1    1    2    0    0  0.19458695749E-03  0.12431007268E-02 -0.25288640369E-01  0.25319922891E-01  0.00000000000E+00 0. -1.
     999901    1    3    3    0    0  0.10006363691E+00 -0.16105704625E-02  0.10109411213E+00  0.89142321311E+00  0.88000000000E+00 0. -1.
        -11    1    4    4    0    0 -0.78710649148E-01 -0.60095467538E-02 -0.64945619204E-01  0.10222365439E+00  0.51100000000E-03 0. -1.
         11    1    4    4    0    0 -0.21547574717E-01  0.63770164895E-02 -0.10859852556E-01  0.24963209610E-01  0.51100000000E-03 0.  1.
</event>
<event>
 8    1  0.1092993E+005  0.1043930E+01  0.7957747E-01            NaN
         13   -1    0    0    0    0  0.00000000000E+00  0.00000000000E+00  0.74505805969E-08  0.10566000000E+00  0.10566000000E+00 0. -1.
     999900   -1    0    0    0    0 -0.00000000000E+00 -0.00000000000E+00 -0.74505805969E-08  0.93827000000E+00  0.93827000000E+00 0.  1.
     999902    2    1    2    0    0 -0.81595263566E-02  0.77284138019E-02 -0.20747342027E-01  0.10203342705E+01  0.10200614026E+01 0.  0.
     999903    2    3    3    0    0 -0.27072361726E-01 -0.96575252661E-01 -0.83626147176E-01  0.13174511102E+00  0.17428413301E-01 0.  0.
         14    1    1    2    0    0  0.81595263566E-02 -0.77284138019E-02  0.20747342027E-01  0.23595729517E-01  0.00000000000E+00 0. -1.
     999901    1    3    3    0    0  0.18912835369E-01  0.10430366646E+00  0.62878805149E-01  0.88858915946E+00  0.88000000000E+00 0. -1.
        -11    1    4    4    0    0 -0.20184116632E-01 -0.71973598942E-01 -0.71574385105E-01  0.10349275933E+00  0.51100000000E-03 0.  1.
         11    1    4    4    0    0 -0.68882450936E-02 -0.24601653719E-01 -0.12051762071E-01  0.28252351693E-01  0.51100000000E-03 0. -1.
</event>
<event>
 8    1  0.1092993E+005  0.1043930E+01  0.7957747E-01            NaN
         13   -1    0    0    0    0  0.00000000000E+00  0.00000000000E+00  0.74505805969E-08  0.10566000000E+00  0.10566000000E+00 0. -1.
     999900   -1    0    0    0    0 -0.00000000000E+00 -0.00000000000E+00 -0.74505805969E-08  0.93827000000E+00  0.93827000000E+00 0. -1.
     999902    2    1    2    0    0  0.13710095588E-01  0.18504816510E-01 -0.55202438556E-03  0.10208930799E+01  0.10206331275E+01 0.  0.
     999903    2    3    3    0    0  0.11948734424E+00 -0.44919698601E-01  0.26314198020E-01  0.13188616806E+00  0.20162330087E-01 0.  0.
         14    1    1    2    0    0 -0.13710095588E-01 -0.18504816510E-01  0.55202438556E-03  0.23036920064E-01  0.00000000000E+00 0. -1.
     999901    1    3    3    0    0 -0.10577724865E+00  0.63424515111E-01 -0.26866222406E-01  0.88900691187E+00  0.88000000000E+00 0. -1.
        -11    1    4    4    0    0  0.50704282053E-01 -0.29245513526E-01  0.87733893634E-02  0.59190014038E-01  0.51100000000E-03 0.  1.
         11    1    4    4    0    0  0.68783062182E-01 -0.15674185075E-01  0.17540808657E-01  0.72696154026E-01  0.51100000000E-03 0. -1.
</event>
<event>
 8    1  0.1092993E+005  0.1043930E+01  0.7957747E-01            NaN
         13   -1    0    0    0    0  0.00000000000E+00  0.00000000000E+00  0.74505805969E-08  0.10566000000E+00  0.10566000000E+00 0.  1.
     999900   -1    0    0    0    0 -0.00000000000E+00 -0.00000000000E+00 -0.74505805969E-08  0.93827000000E+00  0.93827000000E+00 0.  1.
     999902    2    1    2    0    0  0.14362755379E-01 -0.16446775017E-01 -0.10170343648E-01  0.10198422222E+01  0.10195577164E+01 0.  0.
     999903    2    3    3    0    0  0.40851729186E-01 -0.89306662853E-01  0.85055011940E-01  0.13131642214E+00  0.19107691100E-01 0.  0.
         14    1    1    2    0    0 -0.14362755379E-01  0.16446775017E-01  0.10170343648E-01  0.24087777824E-01  0.00000000000E+00 0. -1.
     999901    1    3    3    0    0 -0.26488973807E-01  0.72859887836E-01 -0.95225355589E-01  0.88852580004E+00  0.88000000000E+00 0.  1.
        -11    1    4    4    0    0  0.24943431054E-01 -0.48639966260E-01  0.35098045165E-01  0.64962719817E-01  0.51100000000E-03 0. -1.
         11    1    4    4    0    0  0.15908298132E-01 -0.40666696593E-01  0.49956966775E-01  0.66353702320E-01  0.51100000000E-03 0.  1.
</event>
<event>
 8    1  0.1092993E+005  0.1043930E+01  0.7957747E-01            NaN
         13   -1    0    0    0    0  0.00000000000E+00  0.00000000000E+00  0.74505805969E-08  0.10566000000E+00  0.10566000000E+00 0. -1.
     999900   -1    0    0    0    0 -0.00000000000E+00 -0.00000000000E+00 -0.74505805969E-08  0.93827000000E+00  0.93827000000E+00 0.  1.
     999902    2    1    2    0    0  0.10353676031E-01 -0.20725333917E-01  0.48205652181E-02  0.10202661896E+01  0.10199917263E+01 0.  0.
     999903    2    3    3    0    0 -0.31474555884E-01  0.20397997485E-01  0.12316351779E+00  0.13040901916E+00  0.20749317898E-01 0.  0.
         14    1    1    2    0    0 -0.10353676031E-01  0.20725333917E-01 -0.48205652181E-02  0.23663810393E-01  0.00000000000E+00 0. -1.
     999901    1    3    3    0    0  0.41828231915E-01 -0.41123331402E-01 -0.11834295258E+00  0.88985717045E+00  0.88000000000E+00 0.  1.
        -11    1    4    4    0    0 -0.43831709047E-02 -0.33063555565E-02  0.30560981921E-01  0.31054450748E-01  0.51100000000E-03 0. -1.
         11    1    4    4    0    0 -0.27091384979E-01  0.23704353042E-01  0.92602535873E-01  0.99354568412E-01  0.51100000000E-03 0.  1.
</event>
<event>
 8    1  0.1092993E+005  0.1043930E+01  0.7957747E-01            NaN
         13   -1    0    0    0    0  0.00000000000E+00  0.00000000000E+00  0.74505805969E-08  0.10566000000E+00  0.10566000000E+00 0. -1.
     999900   -1    0    0    0    0 -0.00000000000E+00 -0.00000000000E+00 -0.74505805969E-08  0.93827000000E+00  0.93827000000E+00 0. -1.
     999902    2    1    2    0    0 -0.13266471669E-01  0.18233387746E-01 -0.42292922205E-02  0.10209878420E+01  0.10207300480E+01 0.  0.
     999903    2    3    3    0    0 -0.75638377702E-01  0.47399235326E-01  0.95230926567E-01  0.13271241378E+00  0.23995910184E-01 0.  0.
         14    1    1    2    0    0  0.13266471669E-01 -0.18233387746E-01  0.42292922205E-02  0.22942157961E-01  0.00000000000E+00 0. -1.
     999901    1    3    3    0    0  0.62371906033E-01 -0.29165847580E-01 -0.99460218788E-01  0.88827542826E+00  0.88000000000E+00 0. -1.
        -11    1    4    4    0    0 -0.10401606035E-01  0.16862618202E-01  0.27016445545E-01  0.33506577736E-01  0.51100000000E-03 0.  1.
         11    1    4    4    0    0 -0.65236771667E-01  0.30536617124E-01  0.68214481023E-01  0.99205836044E-01  0.51100000000E-03 0. -1.
</event>
<event>
 8    1  0.1092993E+005  0.1043930E+01  0.7957747E-01            NaN
         13   -1    0    0    0    0  0.00000000000E+00  0.00000000000E+00  0.74505805969E-08  0.10566000000E+00  0.10566000000E+00 0.  1.
     999900   -1    0    0    0    0 -0.00000000000E+00 -0.00000000000E+00 -0.74505805969E-08  0.93827000000E+00  0.93827000000E+00 0.  1.
     999902    2    1    2    0    0 -0.83705113357E-02  0.20141988979E-01 -0.92178994990E-02  0.10202501594E+01  0.10199753197E+01 0.  0.
     999903    2    3    3    0    0  0.11019506168E+00 -0.31731575370E-01  0.54197043614E-01  0.12852704273E+00  0.20785492116E-01 0.  0.
         14    1    1    2    0    0  0.83705113357E-02 -0.20141988979E-01  0.92178994990E-02  0.23679840608E-01  0.00000000000E+00 0.  1.
     999901    1    3    3    0    0 -0.11856557301E+00  0.51873564349E-01 -0.63414943113E-01  0.89172311666E+00  0.88000000000E+00 0. -1.
        -11    1    4    4    0    0  0.50746622344E-01 -0.12594745743E-01  0.35972715548E-01  0.63467666450E-01  0.51100000000E-03 0. -1.
         11    1    4    4    0    0  0.59448439333E-01 -0.19136829627E-01  0.18224328065E-01  0.65059376279E-01  0.51100000000E-03 0.  1.
</event>
<event>
 8    1  0.1092993E+005  0.1043930E+01  0.7957747E-01            NaN
         13   -1    0    0    0    0  0.00000000000E+00  0.00000000000E+00  0.74505805969E-08  0.10566000000E+00  0.10566000000E+00 0.  1.
     999900   -1    0    0    0    0 -0.00000000000E+00 -0.00000000000E+00 -0.74505805969E-08  0.93827000000E+00  0.93827000000E+00 0.  1.
     999902    2    1    2    0    0 -0.74362175631E-02  0.34517549261E-02 -0.22186187754E-01  0.10202775399E+01  0.10200033429E+01 0.  0.
     999903    2    3    3    0    0 -0.61974719236E-01  0.11305289828E+00 -0.15048930342E-01  0.13177441705E+00  0.22720102396E-01 0.  0.
         14    1    1    2    0    0  0.74362175631E-02 -0.34517549261E-02  0.22186187754E-01  0.23652460142E-01  0.00000000000E+00 0.  1.
     999901    1    3    3    0    0  0.54538501673E-01 -0.10960114335E+00 -0.71372574117E-02  0.88850312280E+00  0.88000000000E+00 0.  1.
        -11    1    4    4    0    0 -0.20399232399E-01  0.31848835343E-01 -0.14595685885E-01  0.40543460171E-01  0.51100000000E-03 0. -1.
         11    1    4    4    0    0 -0.41575486837E-01  0.81204062932E-01 -0.45324445714E-03  0.91230956883E-01  0.51100000000E-03 0.  1.
</event>
<event>
 8    1  0.1092993E+005  0.1043930E+01  0.7957747E-01            NaN
         13   -1    0    0    0    0  0.00000000000E+00  0.00000000000E+00  0.74505805969E-08  0.10566000000E+00  0.10566000000E+00 0. -1.
     999900   -1    0    0    0    0 -0.00000000000E+00 -0.00000000000E+00 -0.74505805969E-08  0.93827000000E+00  0.93827000000E+00 0. -1.
     999902    2    1    2    0    0  0.63144979856E-02 -0.91074912076E-03  0.23429999938E-01  0.10196469350E+01  0.10193577413E+01 0.  0.
     999903    2    3    3    0    0  0.12384340788E+00  0.35953854074E-01 -0.48502399119E-02  0.13061835526E+00  0.20193083104E-01 0.  0.
         14    1    1    2    0    0 -0.63144979856E-02  0.91074912076E-03 -0.23429999938E-01  0.24283065002E-01  0.00000000000E+00 0.  1.
     999901    1    3    3    0    0 -0.11752890989E+00 -0.36864603195E-01  0.28280239850E-01  0.88902857974E+00  0.88000000000E+00 0.  1.
        -11    1    4    4    0    0  0.35272121853E-01  0.18411604599E-01 -0.64500719375E-02  0.40310970132E-01  0.51100000000E-03 0. -1.
         11    1    4    4    0    0  0.88571286025E-01  0.17542249475E-01  0.15998320256E-02  0.90307385126E-01  0.51100000000E-03 0.  1.
</event>
<event>
 8    1  0.1092993E+005  0.1043930E+01  0.7957747E-01            NaN
         13   -1    0    0    0    0  0.00000000000E+00  0.00000000000E+00  0.74505805969E-08  0.10566000000E+00  0.10566000000E+00 0. -1.
     999900   -1    0    0    0    0 -0.00000000000E+00 -0.00000000000E+00 -0.74505805969E-08  0.93827000000E+00  0.93827000000E+00 0.  1.
     999902    2    1    2    0    0  0.12406281386E-01 -0.20421816577E-02 -0.23075989595E-01  0.10176509662E+01  0.10173116048E+01 0.  0.
     999903    2    3    3    0    0  0.10717585306E+00 -0.30305173044E-02  0.67264140447E-01  0.12796361230E+00  0.18824823225E-01 0.  0.
         14    1    1    2    0    0 -0.12406281386E-01  0.20421816577E-02  0.23075989595E-01  0.26279033840E-01  0.00000000000E+00 0. -1.
     999901    1    3    3    0    0 -0.94769571671E-01  0.98833564671E-03 -0.90340130042E-01  0.88968735386E+00  0.88000000000E+00 0.  1.
        -11    1    4    4    0    0  0.50803475511E-01 -0.10778371722E-01  0.33238308090E-01  0.61662084515E-01  0.51100000000E-03 0. -1.
         11    1    4    4    0    0  0.56372377545E-01  0.77478544177E-02  0.34025832357E-01  0.66301527786E-01  0.51100000000E-03 0.  1.
</event>
<event>
 8    1  0.1092993E+005  0.1043930E+01  0.7957747E-01            NaN
         13   -1    0    0    0    0  0.00000000000E+00  0.00000000000E+00  0.74505805969E-08  0.10566000000E+00  0.10566000000E+00 0. -1.
     999900   -1    0    0    0    0 -0.00000000000E+00 -0.00000000000E+00 -0.74505805969E-08  0.93827000000E+00  0.93827000000E+00 0.  1.
     999902    2    1    2    0    0 -0.21386841593E-01  0.17713096307E-01  0.72332786956E-02  0.10152338139E+01  0.10148281755E+01 0.  0.
     999903    2    3    3    0    0  0.44347084265E-01  0.59501155261E-01  0.98849321401E-01  0.12705551530E+00  0.29408574712E-01 0.  0.
         14    1    1    2    0    0  0.21386841593E-01 -0.17713096307E-01 -0.72332786956E-02  0.28696186068E-01  0.00000000000E+00 0. -1.
     999901    1    3    3    0    0 -0.65733925859E-01 -0.41788058954E-01 -0.91616042705E-01  0.88817829863E+00  0.88000000000E+00 0.  1.
        -11    1    4    4    0    0  0.23022066679E-01  0.13116586832E-01  0.20345617455E-01  0.33410562326E-01  0.51100000000E-03 0.  1.
         11    1    4    4    0    0  0.21325017586E-01  0.46384568429E-01  0.78503703945E-01  0.93644952974E-01  0.51100000000E-03 0. -1.
</event>
<event>
 8    1  0.1092993E+005  0.1043930E+01  0.7957747E-01            NaN
         13   -1    0    0    0    0  0.00000000000E+00  0.00000000000E+00  0.74505805969E-08  0.10566000000E+00  0.10566000000E+00 0.  1.
     999900   -1    0    0    0    0 -0.00000000000E+00 -0.00000000000E+00 -0.74505805969E-08  0.93827000000E+00  0.93827000000E+00 0. -1.
     999902    2    1    2    0    0  0.12278003799E-01 -0.11942143852E-01  0.17428057984E-01  0.10194943420E+01  0.10192014580E+01 0.  0.
     999903    2    3    3    0    0 -0.40188752327E-01 -0.10275209105E+00 -0.64785680160E-01  0.12946158656E+00  0.19748164785E-01 0.  0.
         14    1    1    2    0    0 -0.12278003799E-01  0.11942143852E-01 -0.17428057984E-01  0.24435658006E-01  0.00000000000E+00 0.  1.
     999901    1    3    3    0    0  0.52466756126E-01  0.90809947196E-01  0.82213738144E-01  0.89003275544E+00  0.88000000000E+00 0.  1.
        -11    1    4    4    0    0 -0.35311463822E-01 -0.80565073207E-01 -0.42727268941E-01  0.97793205952E-01  0.51100000000E-03 0.  1.
         11    1    4    4    0    0 -0.48772885050E-02 -0.22187017841E-01 -0.22058411218E-01  0.31668380607E-01  0.51100000000E-03 0. -1.
</event>
<event>
 8    1  0.1092993E+005  0.1043930E+01  0.7957747E-01            NaN
         13   -1    0    0    0    0  0.00000000000E+00  0.00000000000E+00  0.74505805969E-08  0.10566000000E+00  0.10566000000E+00 0. -1.
     999900   -1    0    0    0    0 -0.00000000000E+00 -0.00000000000E+00 -0.74505805969E-08  0.93827000000E+00  0.93827000000E+00 0.  1.
     999902    2    1    2    0    0  0.19913740214E-01  0.10541790553E-01 -0.93116468500E-02  0.10195498203E+01  0.10192582807E+01 0.  0.
     999903    2    3    3    0    0  0.71413287748E-01  0.65418373801E-01  0.86039658386E-01  0.13120556593E+00  0.20800394645E-01 0.  0.
         14    1    1    2    0    0 -0.19913740214E-01 -0.10541790553E-01  0.93116468500E-02  0.24380179746E-01  0.00000000000E+00 0. -1.
     999901    1    3    3    0    0 -0.51499547533E-01 -0.54876583248E-01 -0.95351305236E-01  0.88834425433E+00  0.88000000000E+00 0. -1.
        -11    1    4    4    0    0  0.50578726113E-01  0.34435533076E-01  0.46773509870E-01  0.77019710594E-01  0.51100000000E-03 0.  1.
         11    1    4    4    0    0  0.20834561635E-01  0.30982840726E-01  0.39266148516E-01  0.54185855334E-01  0.51100000000E-03 0. -1.
</event>
<event>
 8    1  0.1092993E+005  0.1043930E+01  0.7957747E-01            NaN
         13   -1    0    0    0    0  0.00000000000E+00  0.00000000000E+00  0.74505805969E-08  0.10566000000E+00  0.10566000000E+00 0. -1.
     999900   -1    0    0    0    0 -0.00000000000E+00 -0.00000000000E+00 -0.74505805969E-08  0.93827000000E+00  0.93827000000E+00 0.  1.
     999902    2    1    2    0    0 -0.24187238816E-02 -0.87398394801E-02  0.22030001655E-01  0.10201065663E+01  0.10198283437E+01 0.  0.
     999903    2    3    3    0    0 -0.16157156076E-02  0.80220956286E-01  0.10286862773E+00  0.13193453824E+00  0.19666098831E-01 0.  0.
         14    1    1    2    0    0  0.24187238816E-02  0.87398394801E-02 -0.22030001655E-01  0.23823433680E-01  0.00000000000E+00 0.  1.
     999901    1    3    3    0    0 -0.80300827398E-03 -0.88960795766E-01 -0.80838626079E-01  0.88817202808E+00  0.88000000000E+00 0.  1.
        -11    1    4    4    0    0  0.38492927547E-02  0.61914689874E-01  0.88250965386E-01  0.10787372196E+00  0.51100000000E-03 0.  1.
         11    1    4    4    0    0 -0.54650083623E-02  0.18306266412E-01  0.14617662348E-01  0.24060816276E-01  0.51100000000E-03 0. -1.
</event>
<event>
 8    1  0.1092993E+005  0.1043930E+01  0.7957747E-01            NaN
         13   -1    0    0    0    0  0.00000000000E+00  0.00000000000E+00  0.74505805969E-08  0.10566000000E+00  0.10566000000E+00 0. -1.
     999900   -1    0    0    0    0 -0.00000000000E+00 -0.00000000000E+00 -0.74505805969E-08  0.93827000000E+00  0.93827000000E+00 0.  1.
     999902    2    1    2    0    0 -0.10013413204E-01 -0.21703607492E-01 -0.63749883379E-03  0.10200193031E+01  0.10197390143E+01 0.  0.
     999903    2    3    3    0    0  0.67258290467E-01 -0.17171555138E-01  0.10807455167E+00  0.12995763915E+00  0.19757006630E-01 0.  0.
         14    1    1    2    0    0  0.10013413204E-01  0.21703607492E-01  0.63749883379E-03  0.23910696914E-01  0.00000000000E+00 0.  1.
     999901    1    3    3    0    0 -0.77271703670E-01 -0.45320523546E-02 -0.10871205051E+00  0.89006166394E+00  0.88000000000E+00 0.  1.
        -11    1    4    4    0    0  0.14679371962E-01  0.41557358172E-02  0.26655036762E-01  0.30716546146E-01  0.51100000000E-03 0. -1.
         11    1    4    4    0    0  0.52578918505E-01 -0.21327290955E-01  0.81419514912E-01  0.99241093001E-01  0.51100000000E-03 0.  1.
</event>
<event>
 8    1  0.1092993E+005  0.1043930E+01  0.7957747E-01            NaN
         13   -1    0    0    0    0  0.00000000000E+00  0.00000000000E+00  0.74505805969E-08  0.10566000000E+00  0.10566000000E+00 0.  1.
     999900   -1    0    0    0    0 -0.00000000000E+00 -0.00000000000E+00 -0.74505805969E-08  0.93827000000E+00  0.93827000000E+00 0. -1.
     999902    2    1    2    0    0  0.78345872648E-02 -0.43130058185E-02 -0.20409634263E-01  0.10216469134E+01  0.10214038769E+01 0.  0.
     999903    2    3    3    0    0 -0.23117213346E-01 -0.72614119048E-01  0.10305132381E+00  0.12987022377E+00  0.20963869987E-01 0.  0.
         14    1    1    2    0    0 -0.78345872648E-02  0.43130058185E-02  0.20409634263E-01  0.22283086580E-01  0.00000000000E+00 0.  1.
     999901    1    3    3    0    0  0.30951800611E-01  0.68301113230E-01 -0.12346095808E+00  0.89177668965E+00  0.88000000000E+00 0. -1.
        -11    1    4    4    0    0 -0.14680709993E-01 -0.64157338223E-01  0.77619265013E-01  0.10176786681E+00  0.51100000000E-03 0.  1.
         11    1    4    4    0    0 -0.84365033526E-02 -0.84567808250E-02  0.25432058800E-01  0.28102356958E-01  0.51100000000E-03 0. -1.
</event>
<event>
 8    1  0.1341265E+005  0.1043930E+01  0.7957747E-01            NaN
         13   -1    0    0    0    0  0.00000000000E+00  0.00000000000E+00  0.74505805969E-08  0.10566000000E+00  0.10566000000E+00 0. -1.
     999900   -1    0    0    0    0 -0.00000000000E+00 -0.00000000000E+00 -0.74505805969E-08  0.93827000000E+00  0.93827000000E+00 0.  1.
     999902    2    1    2    0    0 -0.11977055942E-01 -0.12389023199E-01 -0.17143431502E-01  0.10196229021E+01  0.10193331288E+01 0.  0.
     999903    2    3    3    0    0  0.17967644037E-01  0.56191113575E-01 -0.11346196618E+00  0.13121017124E+00  0.29363477183E-01 0.  0.
         14    1    1    2    0    0  0.11977055942E-01  0.12389023199E-01  0.17143431502E-01  0.24307097904E-01  0.00000000000E+00 0. -1.
     999901    1    3    3    0    0 -0.29944699978E-01 -0.68580136773E-01  0.96318534675E-01  0.88841273085E+00  0.88000000000E+00 0. -1.
        -11    1    4    4    0    0 -0.15073356734E-02  0.37660341113E-01 -0.52977823139E-01  0.65019106570E-01  0.51100000000E-03 0.  1.
         11    1    4    4    0    0  0.19474979710E-01  0.18530772461E-01 -0.60484143038E-01  0.66191064675E-01  0.51100000000E-03 0. -1.
</event>
<event>
 8    1  0.1092993E+005  0.1043930E+01  0.7957747E-01            NaN
         13   -1    0    0    0    0  0.00000000000E+00  0.00000000000E+00  0.74505805969E-08  0.10566000000E+00  0.10566000000E+00 0. -1.
     999900   -1    0    0    0    0 -0.00000000000E+00 -0.00000000000E+00 -0.74505805969E-08  0.93827000000E+00  0.93827000000E+00 0. -1.
     999902    2    1    2    0    0  0.49225797601E-02 -0.10631522643E-01 -0.19499498965E-01  0.10211815599E+01  0.10209281497E+01 0.  0.
     999903    2    3    3    0    0  0.33655547770E-01  0.12327693417E+00 -0.18655237046E-01  0.13058750481E+00  0.19369567628E-01 0.  0.
         14    1    1    2    0    0 -0.49225797601E-02  0.10631522643E-01  0.19499498965E-01  0.22748440058E-01  0.00000000000E+00 0. -1.
     999901    1    3    3    0    0 -0.28732968010E-01 -0.13390845681E+00 -0.84426191912E-03  0.89059405513E+00  0.88000000000E+00 0. -1.
        -11    1    4    4    0    0  0.13602310222E-01  0.30361592756E-01 -0.11726778693E-01  0.35279280287E-01  0.51100000000E-03 0. -1.
         11    1    4    4    0    0  0.20053237548E-01  0.92915341412E-01 -0.69284583529E-02  0.95308224524E-01  0.51100000000E-03 0.  1.
</event>
<event>
 8    1  0.1092993E+005  0.1043930E+01  0.7957747E-01            NaN
         13   -1    0    0    0    0  0.00000000000E+00  0.00000000000E+00  0.74505805969E-08  0.10566000000E+00  0.10566000000E+00 0. -1.
     999900   -1    0    0    0    0 -0.00000000000E+00 -0.00000000000E+00 -0.74505805969E-08  0.93827000000E+00  0.93827000000E+00 0.  1.
     999902    2    1    2    0    0 -0.43673900691E-02  0.22810863701E-01 -0.70764410713E-02  0.10196506751E+01  0.10193615716E+01 0.  0.
     999903    2    3    3    0    0  0.68608830791E-01 -0.10447750239E+00  0.13313914959E-01  0.12726980151E+00  0.19940458305E-01 0.  0.
         14    1    1    2    0    0  0.43673900691E-02 -0.22810863701E-01  0.70764410713E-02  0.24279324889E-01  0.00000000000E+00 0. -1.
     999901    1    3    3    0    0 -0.72976220860E-01  0.12728836609E+00 -0.20390356030E-01  0.89238087360E+00  0.88000000000E+00 0.  1.
        -11    1    4    4    0    0  0.79161630069E-02 -0.12621268072E-01 -0.48666638076E-02  0.15681440690E-01  0.51100000000E-03 0. -1.
         11    1    4    4    0    0  0.60692667784E-01 -0.91856234313E-01  0.18180578767E-01  0.11158836082E+00  0.51100000000E-03 0.  1.
</event>
<event>
 8    1  0.1092993E+005  0.1043930E+01  0.7957747E-01            NaN
         13   -1    0    0    0    0  0.00000000000E+00  0.00000000000E+00  0.74505805969E-08  0.10566000000E+00  0.10566000000E+00 0. -1.
     999900   -1    0    0    0    0 -0.00000000000E+00 -0.00000000000E+00 -0.74505805969E-08  0.93827000000E+00  0.93827000000E+00 0. -1.
     999902    2    1    2    0    0 -0.10091264193E-01  0.13897250334E-01 -0.15065813891E-01  0.10210838640E+01  0.10208282478E+01 0.  0.
     999903    2    3    3    0    0 -0.27621166646E-01  0.11936816208E+00 -0.50424691789E-01  0.13390763524E+00  0.19414383060E-01 0.  0.
         14    1    1    2    0    0  0.10091264193E-01 -0.13897250334E-01  0.15065813891E-01  0.22846135955E-01  0.00000000000E+00 0. -1.
     999901    1    3    3    0    0  0.17529902454E-01 -0.10547091174E+00  0.35358877898E-01  0.88717622880E+00  0.88000000000E+00 0.  1.
        -11    1    4    4    0    0 -0.27416059186E-01  0.82171242331E-01 -0.38929047393E-01  0.94970970403E-01  0.51100000000E-03 0.  1.
         11    1    4    4    0    0 -0.20510746081E-03  0.37196919748E-01 -0.11495644397E-01  0.38936664841E-01  0.51100000000E-03 0. -1.
</event>
<event>
 8    1  0.1092993E+005  0.1043930E+01  0.7957747E-01            NaN
         13   -1    0    0    0    0  0.00000000000E+00  0.00000000000E+00  0.74505805969E-08  0.10566000000E+00  0.10566000000E+00 0.  1.
     999900   -1    0    0    0    0 -0.00000000000E+00 -0.00000000000E+00 -0.74505805969E-08  0.93827000000E+00  0.93827000000E+00 0. -1.
     999902    2    1    2    0    0 -0.20273424679E-01 -0.97898314926E-02  0.42757865456E-02  0.10210141780E+01  0.10207569822E+01 0.  0.
     999903    2    3    3    0    0  0.10841175840E+00  0.65932175815E-01  0.38402241583E-02  0.12843707292E+00  0.19523657784E-01 0.  0.
         14    1    1    2    0    0  0.20273424679E-01  0.97898314926E-02 -0.42757865456E-02  0.22915822033E-01  0.00000000000E+00 0. -1.
     999901    1    3    3    0    0 -0.12868518307E+00 -0.75722007308E-01  0.43556238729E-03  0.89257710504E+00  0.88000000000E+00 0.  1.
        -11    1    4    4    0    0  0.37793048380E-01  0.12454801551E-01  0.12753895163E-02  0.39816131491E-01  0.51100000000E-03 0. -1.
         11    1    4    4    0    0  0.70618710016E-01  0.53477374264E-01  0.25648346420E-02  0.88620941432E-01  0.51100000000E-03 0.  1.
</event>
<event>
 8    1  0.1092993E+005  0.1043930E+01  0.7957747E-01            NaN
         13   -1    0    0    0    0  0.00000000000E+00  0.00000000000E+00  0.74505805969E-08  0.10566000000E+00  0.10566000000E+00 0.  1.
     999900   -1    0    0    0    0 -0.00000000000E+00 -0.00000000000E+00 -0.74505805969E-08  0.93827000000E+00  0.93827000000E+00 0.  1.
     999902    2    1    2    0    0  0.59311792172E-02  0.15717747649E-01  0.11940405715E-01  0.10233193288E+01  0.10231117480E+01 0.  0.
     999903    2    3    3    0    0 -0.10999883815E+00 -0.42007484302E-01 -0.54591192243E-01  0.13135608694E+00  0.20244756702E-01 0.  0.
         14    1    1    2    0    0 -0.59311792172E-02 -0.15717747649E-01 -0.11940405715E-01  0.20610671185E-01  0.00000000000E+00 0.  1.
     999901    1    3    3    0    0  0.11593001737E+00  0.57725231950E-01  0.66531597958E-01  0.89196324188E+00  0.88000000000E+00 0. -1.
        -11    1    4    4    0    0 -0.22119721106E-01 -0.89622055275E-02 -0.20513110816E-01  0.31474625114E-01  0.51100000000E-03 0.  1.
         11    1    4    4    0    0 -0.87879117044E-01 -0.33045278774E-01 -0.34078081427E-01  0.99881461826E-01  0.51100000000E-03 0. -1.
</event>
<event>
 8    1  0.1092993E+005  0.1043930E+01  0.7957747E-01            NaN
         13   -1    0    0    0    0  0.00000000000E+00  0.00000000000E+00  0.74505805969E-08  0.10566000000E+00  0.10566000000E+00 0. -1.
     999900   -1    0    0    0    0 -0.00000000000E+00 -0.00000000000E+00 -0.74505805969E-08  0.93827000000E+00  0.93827000000E+00 0. -1.
     999902    2    1    2    0    0  0.14774020497E-01  0.24107058734E-02  0.17546386078E-01  0.10208657669E+01  0.10206051906E+01 0.  0.
     999903    2    3    3    0    0 -0.49529436823E-01 -0.40824184213E-01  0.11386689837E+00  0.13222532699E+00  0.19952128328E-01 0.  0.
         14    1    1    2    0    0 -0.14774020497E-01 -0.24107058734E-02 -0.17546386078E-01  0.23064233108E-01  0.00000000000E+00 0.  1.
     999901    1    3    3    0    0  0.64303457320E-01  0.43234890087E-01 -0.96320512289E-01  0.88864043990E+00  0.88000000000E+00 0. -1.
        -11    1    4    4    0    0 -0.27881523457E-01 -0.26867234907E-01  0.49166595154E-01  0.62584685522E-01  0.51100000000E-03 0. -1.
         11    1    4    4    0    0 -0.21647913366E-01 -0.13956949307E-01  0.64700303213E-01  0.69640641467E-01  0.51100000000E-03 0.  1.
</event>
<event>
 8    1  0.1092993E+005  0.1043930E+01  0.7957747E-01            NaN
         13   -1    0    0    0    0  0.00000000000E+00  0.00000000000E+00  0.74505805969E-08  0.10566000000E+00  0.10566000000E+00 0. -1.
     999900   -1    0    0    0    0 -0.00000000000E+00 -0.00000000000E+00 -0.74505805969E-08  0.93827000000E+00  0.93827000000E+00 0. -1.
     999902    2    1    2    0    0 -0.12789122281E-01 -0.64451021046E-02 -0.19144567128E-01  0.10200215195E+01  0.10197412833E+01 0.  0.
     999903    2    3    3    0    0  0.10366437736E+00 -0.64070417366E-01  0.36350593253E-01  0.12875174699E+00  0.20107839514E-01 0.  0.
         14    1    1    2    0    0  0.12789122281E-01  0.64451021046E-02  0.19144567128E-01  0.23908480511E-01  0.00000000000E+00 0. -1.
     999901    1    3    3    0    0 -0.11645349964E+00  0.57625315262E-01 -0.55495160381E-01  0.89126977249E+00  0.88000000000E+00 0. -1.
        -11    1    4    4    0    0  0.17494662701E-01 -0.32833246323E-02  0.82019647374E-02  0.19605529582E-01  0.51100000000E-03 0. -1.
         11    1    4    4    0    0  0.86169714656E-01 -0.60787092734E-01  0.28148628515E-01  0.10914621741E+00  0.51100000000E-03 0.  1.
</event>
<event>
 8    1  0.1092993E+005  0.1043930E+01  0.7957747E-01            NaN
         13   -1    0    0    0    0  0.00000000000E+00  0.00000000000E+00  0.74505805969E-08  0.10566000000E+00  0.10566000000E+00 0. -1.
     999900   -1    0    0    0    0 -0.00000000000E+00 -0.00000000000E+00 -0.74505805969E-08  0.93827000000E+00  0.93827000000E+00 0.  1.
     999902    2    1    2    0    0  0.50463249569E-02 -0.22294764191E-01 -0.59648862831E-02  0.10203058223E+01  0.10200322883E+01 0.  0.
     999903    2    3    3    0    0 -0.12013136762E+00 -0.25580480145E-01 -0.40170392363E-01  0.13078332827E+00  0.20117457149E-01 0.  0.
         14    1    1    2    0    0 -0.50463249569E-02  0.22294764191E-01  0.59648862831E-02  0.23624177748E-01  0.00000000000E+00 0.  1.
     999901    1    3    3    0    0  0.12517769257E+00  0.32857159540E-02  0.34205506080E-01  0.88952249398E+00  0.88000000000E+00 0. -1.
        -11    1    4    4    0    0 -0.98638018381E-01 -0.22841802987E-01 -0.24886686932E-01  0.10426320032E+00  0.51100000000E-03 0.  1.
         11    1    4    4    0    0 -0.21493349234E-01 -0.27386771577E-02 -0.15283705431E-01  0.26520127952E-01  0.51100000000E-03 0. -1.
</event>
<event>
 8    1  0.1092993E+005  0.1043930E+01  0.7957747E-01            NaN
         13   -1    0    0    0    0  0.00000000000E+00  0.00000000000E+00  0.74505805969E-08  0.10566000000E+00  0.10566000000E+00 0.  1.
     999900   -1    0    0    0    0 -0.00000000000E+00 -0.00000000000E+00 -0.74505805969E-08  0.93827000000E+00  0.93827000000E+00 0.  1.
     999902    2    1    2    0    0  0.98328843967E-02 -0.11783330854E-01 -0.19173942456E-01  0.10193704281E+01  0.10190745297E+01 0.  0.
     999903    2    3    3    0    0  0.24670140555E-01 -0.11649141013E+00  0.49179329075E-01  0.13040693294E+00  0.20211315654E-01 0.  0.
         14    1    1    2    0    0 -0.98328843967E-02  0.11783330854E-01  0.19173942456E-01  0.24559571878E-01  0.00000000000E+00 0.  1.
     999901    1    3    3    0    0 -0.14837256158E-01  0.10470807928E+00 -0.68353271531E-01  0.88896349518E+00  0.88000000000E+00 0.  1.
        -11    1    4    4    0    0  0.57461318518E-02 -0.49796786077E-01  0.30211393537E-01  0.58529713439E-01  0.51100000000E-03 0.  1.
         11    1    4    4    0    0  0.18924008703E-01 -0.66694624057E-01  0.18967935538E-01  0.71877219500E-01  0.51100000000E-03 0. -1.
</event>
<event>
 8    1  0.1092993E+005  0.1043930E+01  0.7957747E-01            NaN
         13   -1    0    0    0    0  0.00000000000E+00  0.00000000000E+00  0.74505805969E-08  0.10566000000E+00  0.10566000000E+00 0.  1.
     999900   -1    0    0    0    0 -0.00000000000E+00 -0.00000000000E+00 -0.74505805969E-08  0.93827000000E+00  0.93827000000E+00 0.  1.
     999902    2    1    2    0    0 -0.15030396685E-01  0.15894647490E-01  0.90677195853E-02  0.10202492867E+01  0.10199744266E+01 0.  0.
     999903    2    3    3    0    0  0.43041112060E-01  0.23887784598E-01 -0.11786827524E+00  0.12921116342E+00  0.19478985213E-01 0.  0.
         14    1    1    2    0    0  0.15030396685E-01 -0.15894647490E-01 -0.90677195853E-02  0.23680713288E-01  0.00000000000E+00 0. -1.
     999901    1    3    3    0    0 -0.58071508746E-01 -0.79931371075E-02  0.12693599483E+00  0.89103812329E+00  0.88000000000E+00 0. -1.
        -11    1    4    4    0    0  0.48346742141E-02 -0.22288585259E-02 -0.23544644825E-01  0.24144425982E-01  0.51100000000E-03 0.  1.
         11    1    4    4    0    0  0.38206437846E-01  0.26116643123E-01 -0.94323630416E-01  0.10506673744E+00  0.51100000000E-03 0. -1.
</event>
<event>
 8    1  0.1092993E+005  0.1043930E+01  0.7957747E-01            NaN
         13   -1    0    0    0    0  0.00000000000E+00  0.00000000000E+00  0.74505805969E-08  0.10566000000E+00  0.10566000000E+00 0. -1.
     999900   -1    0    0    0    0 -0.00000000000E+00 -0.00000000000E+00 -0.74505805969E-08  0.93827000000E+00  0.93827000000E+00 0.  1.
     999902    2    1    2    0    0  0.22932877490E-01 -0.42117011236E-02 -0.37881099572E-02  0.10203078690E+01  0.10200343830E+01 0.  0.
     999903    2    3    3    0    0 -0.24705292187E-01  0.33073386574E-01  0.12102651361E+00  0.12944409533E+00  0.20103642893E-01 0.  0.
         14    1    1    2    0    0 -0.22932877490E-01  0.42117011236E-02  0.37881099572E-02  0.23622131008E-01  0.00000000000E+00 0. -1.
     999901    1    3    3    0    0  0.47638169677E-01 -0.37285087698E-01 -0.12481462356E+00  0.89086377367E+00  0.88000000000E+00 0.  1.
        -11    1    4    4    0    0 -0.46048104208E-02  0.13964318293E-01  0.68293858973E-01  0.69860709693E-01  0.51100000000E-03 0.  1.
         11    1    4    4    0    0 -0.20100481766E-01  0.19109068281E-01  0.52732654633E-01  0.59583385633E-01  0.51100000000E-03 0. -1.
</event>
<event>
 8    1  0.1092993E+005  0.1043930E+01  0.7957747E-01            NaN
         13   -1    0    0    0    0  0.00000000000E+00  0.00000000000E+00  0.74505805969E-08  0.10566000000E+00  0.10566000000E+00 0.  1.
     999900   -1    0    0    0    0 -0.00000000000E+00 -0.00000000000E+00 -0.74505805969E-08  0.93827000000E+00  0.93827000000E+00 0. -1.
     999902    2    1    2    0    0 -0.10352359926E-02 -0.23302468464E-01 -0.25166150050E-02  0.10204691794E+01  0.10201994590E+01 0.  0.
     999903    2    3    3    0    0 -0.11915102327E+00  0.40290005451E-01 -0.26280786490E-01  0.12998612077E+00  0.19633159926E-01 0.  0.
         14    1    1    2    0    0  0.10352359926E-02  0.23302468464E-01  0.25166150050E-02  0.23460820556E-01  0.00000000000E+00 0. -1.
     999901    1    3    3    0    0  0.11811578728E+00 -0.63592473916E-01  0.23764171485E-01  0.89048305868E+00  0.88000000000E+00 0.  1.
        -11    1    4    4    0    0 -0.96376099684E-01  0.40067968761E-01 -0.19169900835E-01  0.10612040770E+00  0.51100000000E-03 0. -1.
         11    1    4    4    0    0 -0.22774923584E-01  0.22203669067E-03 -0.71108856555E-02  0.23865713070E-01  0.51100000000E-03 0.  1.
</event>
<event>
 8    1  0.1092993E+005  0.1043930E+01  0.7957747E-01            NaN
         13   -1    0    0    0    0  0.00000000000E+00  0.00000000000E+00  0.74505805969E-08  0.10566000000E+00  0.10566000000E+00 0.  1.
     999900   -1    0    0    0    0 -0.00000000000E+00 -0.00000000000E+00 -0.74505805969E-08  0.93827000000E+00  0.93827000000E+00 0. -1.
     999902    2    1    2    0    0  0.17609468249E-01 -0.15372033923E-01  0.33909392487E-02  0.10203102780E+01  0.10200368484E+01 0.  0.
     999903    2    3    3    0    0 -0.29315106399E-02  0.10103951521E+00 -0.76638751189E-01  0.12880686693E+00  0.22363662397E-01 0.  0.
         14    1    1    2    0    0 -0.17609468249E-01  0.15372033923E-01 -0.33909392487E-02  0.23619722012E-01  0.00000000000E+00 0. -1.
     999901    1    3    3    0    0  0.20540978889E-01 -0.11641154913E+00  0.80029690438E-01  0.89150341106E+00  0.88000000000E+00 0. -1.
        -11    1    4    4    0    0  0.90768914670E-02  0.26472838550E-01 -0.21381849309E-01  0.35222801428E-01  0.51100000000E-03 0.  1.
         11    1    4    4    0    0 -0.12008402107E-01  0.74566676655E-01 -0.55256901881E-01  0.93584065497E-01  0.51100000000E-03 0. -1.
</event>
<event>
 7    1  0.1092993E+005  0.1043930E+01  0.7957747E-01            NaN
         13   -1    0    0    0    0  0.00000000000E+00  0.00000000000E+00  0.74505805969E-08  0.10566000000E+00  0.10566000000E+00 0. -1.
     999900   -1    0    0    0    0 -0.00000000000E+00 -0.00000000000E+00 -0.74505805969E-08  0.93827000000E+00  0.93827000000E+00 0. -1.
     999903    2    1    2    0    0  0.82444270456E-01 -0.19055632307E-01  0.73313114417E-01  0.11363858765E+00  0.19461269343E-01 0.  0.
         14    1    1    2    0    0  0.21660515519E-01 -0.33289856140E-01 -0.33477139339E-02  0.39857240784E-01  0.00000000000E+00 0.  1.
     999901    1    1    2    0    0 -0.10410478597E+00  0.52345488447E-01 -0.69965400483E-01  0.89043417156E+00  0.88000000000E+00 0. -1.
        -11    1    3    3    0    0  0.47476136949E-01 -0.10466458218E-02  0.40172940514E-01  0.62202936567E-01  0.51100000000E-03 0.  1.
         11    1    3    3    0    0  0.34968133507E-01 -0.18008986486E-01  0.33140173903E-01  0.51435651085E-01  0.51100000000E-03 0. -1.
</event>
<event>
 8    1  0.1092993E+005  0.1043930E+01  0.7957747E-01            NaN
         13   -1    0    0    0    0  0.00000000000E+00  0.00000000000E+00  0.74505805969E-08  0.10566000000E+00  0.10566000000E+00 0. -1.
     999900   -1    0    0    0    0 -0.00000000000E+00 -0.00000000000E+00 -0.74505805969E-08  0.93827000000E+00  0.93827000000E+00 0.  1.
     999902    2    1    2    0    0  0.77820105419E-02 -0.22341376432E-01 -0.68522093187E-02  0.10192997430E+01  0.10190021180E+01 0.  0.
     999903    2    3    3    0    0  0.12217134539E+00 -0.42909542150E-01  0.11162680769E-01  0.13147515126E+00  0.19850529382E-01 0.  0.
         14    1    1    2    0    0 -0.77820105419E-02  0.22341376432E-01  0.68522093187E-02  0.24630257032E-01  0.00000000000E+00 0. -1.
     999901    1    3    3    0    0 -0.11438933485E+00  0.20568165719E-01 -0.18014890087E-01  0.88782459170E+00  0.88000000000E+00 0.  1.
        -11    1    4    4    0    0  0.44167610766E-01 -0.65095091654E-02 -0.20087192922E-03  0.44648102097E-01  0.51100000000E-03 0. -1.
         11    1    4    4    0    0  0.78003734622E-01 -0.36400032985E-01  0.11363552698E-01  0.86827049168E-01  0.51100000000E-03 0.  1.
</event>
<event>
 8    1  0.1092993E+005  0.1043930E+01  0.7957747E-01            NaN
         13   -1    0    0    0    0  0.00000000000E+00  0.00000000000E+00  0.74505805969E-08  0.10566000000E+00  0.10566000000E+00 0.  1.
     999900   -1    0    0    0    0 -0.00000000000E+00 -0.00000000000E+00 -0.74505805969E-08  0.93827000000E+00  0.93827000000E+00 0. -1.
     999902    2    1    2    0    0 -0.21745689389E-01 -0.23599493404E-03 -0.10029069442E-01  0.10199818699E+01  0.10197006924E+01 0.  0.
     999903    2    3    3    0    0  0.22074381167E-02 -0.12732738333E-02  0.12812322312E+00  0.12888093051E+00  0.13720056087E-01 0.  0.
         14    1    1    2    0    0  0.21745689389E-01  0.23599493404E-03  0.10029069442E-01  0.23948130083E-01  0.00000000000E+00 0. -1.
     999901    1    3    3    0    0 -0.23953127506E-01  0.10372788992E-02 -0.13815229256E+00  0.89110093940E+00  0.88000000000E+00 0. -1.
        -11    1    4    4    0    0  0.30974018949E-02 -0.71953399671E-02  0.79854896197E-01  0.80239842868E-01  0.51100000000E-03 0. -1.
         11    1    4    4    0    0 -0.88996377815E-03  0.59220661338E-02  0.48268326920E-01  0.48641087647E-01  0.51100000000E-03 0.  1.
</event>
<event>
 8    1  0.1092993E+005  0.1043930E+01  0.7957747E-01            NaN
         13   -1    0    0    0    0  0.00000000000E+00  0.00000000000E+00  0.74505805969E-08  0.10566000000E+00  0.10566000000E+00 0. -1.
     999900   -1    0    0    0    0 -0.00000000000E+00 -0.00000000000E+00 -0.74505805969E-08  0.93827000000E+00  0.93827000000E+00 0.  1.
     999902    2    1    2    0    0  0.17417675069E-01 -0.33155858183E-02  0.17989472624E-01  0.10186715432E+01  0.10183583472E+01 0.  0.
     999903    2    3    3    0    0 -0.64254640759E-01  0.10813432827E+00  0.15043381048E-01  0.12788530063E+00  0.17511567443E-01 0.  0.
         14    1    1    2    0    0 -0.17417675069E-01  0.33155858183E-02 -0.17989472624E-01  0.25258456790E-01  0.00000000000E+00 0. -1.
     999901    1    3    3    0    0  0.81672315828E-01 -0.11144991408E+00  0.29460915765E-02  0.89078624258E+00  0.88000000000E+00 0. -1.
        -11    1    4    4    0    0 -0.30057256448E-01  0.64298157819E-01  0.13582073064E-01  0.72266351740E-01  0.51100000000E-03 0. -1.
         11    1    4    4    0    0 -0.34197384311E-01  0.43836170446E-01  0.14613079834E-02  0.55618948885E-01  0.51100000000E-03 0.  1.
</event>
<event>
 8    1  0.1092993E+005  0.1043930E+01  0.7957747E-01            NaN
         13   -1    0    0    0    0  0.00000000000E+00  0.00000000000E+00  0.74505805969E-08  0.10566000000E+00  0.10566000000E+00 0. -1.
     999900   -1    0    0    0    0 -0.00000000000E+00 -0.00000000000E+00 -0.74505805969E-08  0.93827000000E+00  0.93827000000E+00 0.  1.
     999902    2    1    2    0    0 -0.23856881674E-01  0.40021266061E-03  0.58424823133E-03  0.10200626097E+01  0.10197833473E+01 0.  0.
     999903    2    3    3    0    0 -0.88153648590E-01 -0.38273455327E-01 -0.88886154304E-01  0.13234943544E+00  0.19485930640E-01 0.  0.
         14    1    1    2    0    0  0.23856881674E-01 -0.40021266061E-03 -0.58424823133E-03  0.23867390293E-01  0.00000000000E+00 0.  1.
     999901    1    3    3    0    0  0.64296766916E-01  0.38673667988E-01  0.89470402536E-01  0.88771317426E+00  0.88000000000E+00 0. -1.
        -11    1    4    4    0    0 -0.24831222427E-01 -0.10008151501E-01 -0.37317241924E-01  0.45930277263E-01  0.51100000000E-03 0.  1.
         11    1    4    4    0    0 -0.63322426163E-01 -0.28265303826E-01 -0.51568912381E-01  0.86419158181E-01  0.51100000000E-03 0. -1.
</event>
<event>
 8    1  0.1092993E+005  0.1043930E+01  0.7957747E-01            NaN
         13   -1    0    0    0    0  0.00000000000E+00  0.00000000000E+00  0.74505805969E-08  0.10566000000E+00  0.10566000000E+00 0. -1.
     999900   -1    0    0    0    0 -0.00000000000E+00 -0.00000000000E+00 -0.74505805969E-08  0.93827000000E+00  0.93827000000E+00 0.  1.
     999902    2    1    2    0    0 -0.15065311755E-01 -0.11743117447E-01 -0.13861928012E-01  0.10203287824E+01  0.10200557860E+01 0.  0.
     999903    2    3    3    0    0  0.38029939524E-01  0.61336437307E-01 -0.10722095227E+00  0.13079202964E+00  0.20044639449E-01 0.  0.
         14    1    1    2    0    0  0.15065311755E-01  0.11743117447E-01  0.13861928012E-01  0.23601217636E-01  0.00000000000E+00 0. -1.
     999901    1    3    3    0    0 -0.53095251279E-01 -0.73079554754E-01  0.93359024258E-01  0.88953675272E+00  0.88000000000E+00 0.  1.
        -11    1    4    4    0    0  0.35919381273E-01  0.44627889805E-01 -0.90095999287E-01  0.10676797604E+00  0.51100000000E-03 0. -1.
         11    1    4    4    0    0  0.21105582506E-02  0.16708547502E-01 -0.17124952983E-01  0.24024053601E-01  0.51100000000E-03 0.  1.
</event>
<event>
 8    1  0.1092993E+005  0.1043930E+01  0.7957747E-01            NaN
         13   -1    0    0    0    0  0.00000000000E+00  0.00000000000E+00  0.74505805969E-08  0.10566000000E+00  0.10566000000E+00 0. -1.
     999900   -1    0    0    0    0 -0.00000000000E+00 -0.00000000000E+00 -0.74505805969E-08  0.93827000000E+00  0.93827000000E+00 0.  1.
     999902    2    1    2    0    0 -0.84010547120E-03 -0.18400377591E-01 -0.13833047994E-01  0.10208945298E+01  0.10206346104E+01 0.  0.
     999903    2    3    3    0    0  0.12061360179E+00 -0.45153786670E-01  0.19859433193E-01  0.13151163628E+00  0.17731553905E-01 0.  0.
         14    1    1    2    0    0  0.84010547120E-03  0.18400377591E-01  0.13833047994E-01  0.23035470247E-01  0.00000000000E+00 0. -1.
     999901    1    3    3    0    0 -0.12145370726E+00  0.26753409079E-01 -0.33692481187E-01  0.88938289347E+00  0.88000000000E+00 0. -1.
        -11    1    4    4    0    0  0.29689753518E-01 -0.59808494755E-02 -0.11092635120E-02  0.30310783740E-01  0.51100000000E-03 0.  1.
         11    1    4    4    0    0  0.90923848274E-01 -0.39172937195E-01  0.20968696705E-01  0.10120085255E+00  0.51100000000E-03 0. -1.
</event>
<event>
 8    1  0.1092993E+005  0.1043930E+01  0.7957747E-01            NaN
         13   -1    0    0    0    0  0.00000000000E+00  0.00000000000E+00  0.74505805969E-08  0.10566000000E+00  0.10566000000E+00 0. -1.
     999900   -1    0    0    0    0 -0.00000000000E+00 -0.00000000000E+00 -0.74505805969E-08  0.93827000000E+00  0.93827000000E+00 0. -1.
     999902    2    1    2    0    0  0.17117297642E-01  0.15816333766E-01  0.23204890774E-02  0.10205090060E+01  0.10202402111E+01 0.  0.
     999903    2    3    3    0    0 -0.12667281024E+00  0.78090113447E-02 -0.76429695972E-02  0.12874727610E+00  0.20259926089E-01 0.  0.
         14    1    1    2    0    0 -0.17117297642E-01 -0.15816333766E-01 -0.23204890774E-02  0.23420994042E-01  0.00000000000E+00 0.  1.
     999901    1    3    3    0    0  0.14379010788E+00  0.80073224209E-02  0.99634586747E-02  0.89176172986E+00  0.88000000000E+00 0.  1.
        -11    1    4    4    0    0 -0.11510969487E+00  0.12234643177E-01 -0.97843862895E-02  0.11617195738E+00  0.51100000000E-03 0. -1.
         11    1    4    4    0    0 -0.11563115374E-01 -0.44256318328E-02  0.21414166922E-02  0.12575318713E-01  0.51100000000E-03 0.  1.
</event>
<event>
 8    1  0.1092993E+005  0.1043930E+01  0.7957747E-01            NaN
         13   -1    0    0    0    0  0.00000000000E+00  0.00000000000E+00  0.74505805969E-08  0.10566000000E+00  0.10566000000E+00 0.  1.
     999900   -1    0    0    0    0 -0.00000000000E+00 -0.00000000000E+00 -0.74505805969E-08  0.93827000000E+00  0.93827000000E+00 0.  1.
     999902    2    1    2    0    0 -0.11675815322E-01  0.20111601075E-01 -0.24674620020E-02  0.10205443307E+01  0.10202763554E+01 0.  0.
     999903    2    3    3    0    0  0.12480229972E+00  0.30408719072E-01 -0.18002246288E-02  0.12996432207E+00  0.19676889774E-01 0.  0.
         14    1    1    2    0    0  0.11675815322E-01 -0.20111601075E-01  0.24674620020E-02  0.23385669329E-01  0.00000000000E+00 0.  1.
     999901    1    3    3    0    0 -0.13647811504E+00 -0.10297117998E-01 -0.66723737319E-03  0.89058000861E+00  0.88000000000E+00 0.  1.
        -11    1    4    4    0    0  0.64470574876E-01  0.19786030800E-01  0.80372505218E-02  0.67917601229E-01  0.51100000000E-03 0. -1.
         11    1    4    4    0    0  0.60331724839E-01  0.10622688272E-01 -0.98374751505E-02  0.62046720836E-01  0.51100000000E-03 0.  1.
</event>
<event>
 8    1  0.1092993E+005  0.1043930E+01  0.7957747E-01            NaN
         13   -1    0    0    0    0  0.00000000000E+00  0.00000000000E+00  0.74505805969E-08  0.10566000000E+00  0.10566000000E+00 0. -1.
     999900   -1    0    0    0    0 -0.00000000000E+00 -0.00000000000E+00 -0.74505805969E-08  0.93827000000E+00  0.93827000000E+00 0.  1.
     999902    2    1    2    0    0  0.20348561859E-01  0.16419399649E-01 -0.62257830791E-02  0.10170521089E+01  0.10166968925E+01 0.  0.
     999903    2    3    3    0    0 -0.78280769806E-02  0.12783296606E+00 -0.16015384597E-02  0.12956786150E+00  0.19563225937E-01 0.  0.
         14    1    1    2    0    0 -0.20348561859E-01 -0.16419399649E-01  0.62257830791E-02  0.26877891091E-01  0.00000000000E+00 0.  1.
     999901    1    3    3    0    0  0.28176638840E-01 -0.11141356641E+00 -0.46242446194E-02  0.88748424741E+00  0.88000000000E+00 0. -1.
        -11    1    4    4    0    0 -0.91026753038E-02  0.33093884081E-01 -0.53683557090E-02  0.34743981138E-01  0.51100000000E-03 0.  1.
         11    1    4    4    0    0  0.12745983232E-02  0.94739081974E-01  0.37668172493E-02  0.94823880365E-01  0.51100000000E-03 0. -1.
</event>
<event>
 8    1  0.1223265E+005  0.1043930E+01  0.7957747E-01            NaN
         13   -1    0    0    0    0  0.00000000000E+00  0.00000000000E+00  0.74505805969E-08  0.10566000000E+00  0.10566000000E+00 0. -1.
     999900   -1    0    0    0    0 -0.00000000000E+00 -0.00000000000E+00 -0.74505805969E-08  0.93827000000E+00  0.93827000000E+00 0.  1.
     999902    2    1    2    0    0  0.11221949045E-01 -0.17413974288E-01 -0.38844711345E-02  0.10228523399E+01  0.10226351458E+01 0.  0.
     999903    2    3    3    0    0  0.74378395225E-01 -0.75466545160E-01 -0.81628680100E-01  0.13526966782E+00  0.20181588224E-01 0.  0.
         14    1    1    2    0    0 -0.11221949045E-01  0.17413974288E-01  0.38844711345E-02  0.21077660137E-01  0.00000000000E+00 0. -1.
     999901    1    3    3    0    0 -0.63156446180E-01  0.58052570872E-01  0.77744208965E-01  0.88758267204E+00  0.88000000000E+00 0.  1.
        -11    1    4    4    0    0  0.34162357948E-01 -0.48776858473E-01 -0.46960479135E-01  0.75840598261E-01  0.51100000000E-03 0. -1.
         11    1    4    4    0    0  0.40216037277E-01 -0.26689686687E-01 -0.34668200965E-01  0.59429069561E-01  0.51100000000E-03 0.  1.
</event>
<event>
 8    1  0.1092993E+005  0.1043930E+01  0.7957747E-01            NaN
         13   -1    0    0    0    0  0.00000000000E+00  0.00000000000E+00  0.74505805969E-08  0.10566000000E+00  0.10566000000E+00 0.  1.
     999900   -1    0    0    0    0 -0.00000000000E+00 -0.00000000000E+00 -0.74505805969E-08  0.93827000000E+00  0.93827000000E+00 0.  1.
     999902    2    1    2    0    0  0.13753525638E-01  0.11016030721E-01 -0.16169599045E-01  0.10200141405E+01  0.10197337293E+01 0.  0.
     999903    2    3    3    0    0  0.12239762062E-01  0.74953792323E-01  0.10379496130E+00  0.12957502158E+00  0.15761011006E-01 0.  0.
         14    1    1    2    0    0 -0.13753525638E-01 -0.11016030721E-01  0.16169599045E-01  0.23915859457E-01  0.00000000000E+00 0.  1.
     999901    1    3    3    0    0  0.15137635757E-02 -0.63937761602E-01 -0.11996456034E+00  0.89043911896E+00  0.88000000000E+00 0.  1.
        -11    1    4    4    0    0  0.95962858127E-02  0.44975827456E-01  0.50020353996E-01  0.67950060276E-01  0.51100000000E-03 0. -1.
         11    1    4    4    0    0  0.26434762492E-02  0.29977964868E-01  0.53774607302E-01  0.61624961305E-01  0.51100000000E-03 0.  1.
</event>
<event>
 7    1  0.1092993E+005  0.1043930E+01  0.7957747E-01            NaN
         13   -1    0    0    0    0  0.00000000000E+00  0.00000000000E+00  0.74505805969E-08  0.10566000000E+00  0.10566000000E+00 0. -1.
     999900   -1    0    0    0    0 -0.00000000000E+00 -0.00000000000E+00 -0.74505805969E-08  0.93827000000E+00  0.93827000000E+00 0. -1.
     999903    2    1    2    0    0  0.64853126965E-01 -0.99627663243E-01  0.11578747086E-01  0.12105043748E+00  0.19686078067E-01 0.  0.
         14    1    1    2    0    0 -0.25991041607E-01  0.21822256423E-01 -0.18320439057E-01  0.38566612587E-01  0.00000000000E+00 0.  1.
     999901    1    1    2    0    0 -0.38862085358E-01  0.77805406819E-01  0.67416919703E-02  0.88431294993E+00  0.88000000000E+00 0. -1.
        -11    1    3    3    0    0  0.53758449511E-01 -0.67244857304E-01  0.53991443197E-02  0.86262701141E-01  0.51100000000E-03 0. -1.
         11    1    3    3    0    0  0.11094677454E-01 -0.32382805938E-01  0.61796027667E-02  0.34787736339E-01  0.51100000000E-03 0.  1.
</event>
<event>
 8    1  0.1092993E+005  0.1043930E+01  0.7957747E-01            NaN
         13   -1    0    0    0    0  0.00000000000E+00  0.00000000000E+00  0.74505805969E-08  0.10566000000E+00  0.10566000000E+00 0. -1.
     999900   -1    0    0    0    0 -0.00000000000E+00 -0.00000000000E+00 -0.74505805969E-08  0.93827000000E+00  0.93827000000E+00 0. -1.
     999902    2    1    2    0    0 -0.10730379645E-01  0.14573015296E-01 -0.15575233377E-01  0.10200531971E+01  0.10197737118E+01 0.  0.
     999903    2    3    3    0    0 -0.64130519868E-01 -0.11064171743E+00 -0.21920705594E-02  0.12948629152E+00  0.20188642908E-01 0.  0.
         14    1    1    2    0    0  0.10730379645E-01 -0.14573015296E-01  0.15575233377E-01  0.23876802903E-01  0.00000000000E+00 0.  1.
     999901    1    3    3    0    0  0.53400140223E-01  0.12521473273E+00 -0.13383162817E-01  0.89056690558E+00  0.88000000000E+00 0. -1.
        -11    1    4    4    0    0 -0.31481093533E-01 -0.40428198213E-01  0.61203536482E-02  0.51606378585E-01  0.51100000000E-03 0.  1.
         11    1    4    4    0    0 -0.32649426334E-01 -0.70213519219E-01 -0.83124242075E-02  0.77879912932E-01  0.51100000000E-03 0. -1.
</event>
<event>
 8    1  0.1092993E+005  0.1043930E+01  0.7957747E-01            NaN
         13   -1    0    0    0    0  0.00000000000E+00  0.00000000000E+00  0.74505805969E-08  0.10566000000E+00  0.10566000000E+00 0.  1.
     999900   -1    0    0    0    0 -0.00000000000E+00 -0.00000000000E+00 -0.74505805969E-08  0.93827000000E+00  0.93827000000E+00 0. -1.
     999902    2    1    2    0    0 -0.70257073234E-02  0.63292975279E-02 -0.18245862621E-01  0.10233792805E+01  0.10231729177E+01 0.  0.
     999903    2    3    3    0    0  0.58845386344E-01 -0.68337209440E-02 -0.11983638749E+00  0.13499147057E+00  0.18773868061E-01 0.  0.
         14    1    1    2    0    0  0.70257073234E-02 -0.63292975279E-02  0.18245862621E-01  0.20550719534E-01  0.00000000000E+00 0.  1.
     999901    1    3    3    0    0 -0.65871093667E-01  0.13163018472E-01  0.10159052487E+00  0.88838780990E+00  0.88000000000E+00 0.  1.
        -11    1    4    4    0    0  0.20852051587E-01 -0.22719361727E-02 -0.63576751477E-01  0.66949489907E-01  0.51100000000E-03 0.  1.
         11    1    4    4    0    0  0.37993334757E-01 -0.45617847713E-02 -0.56259636016E-01  0.68041980659E-01  0.51100000000E-03 0. -1.
</event>
<event>
 8    1  0.1092993E+005  0.1043930E+01  0.7957747E-01            NaN
         13   -1    0    0    0    0  0.00000000000E+00  0.00000000000E+00  0.74505805969E-08  0.10566000000E+00  0.10566000000E+00 0.  1.
     999900   -1    0    0    0    0 -0.00000000000E+00 -0.00000000000E+00 -0.74505805969E-08  0.93827000000E+00  0.93827000000E+00 0.  1.
     999902    2    1    2    0    0  0.98118402740E-02 -0.17888682487E-01 -0.12402643869E-01  0.10200531756E+01  0.10197736897E+01 0.  0.
     999903    2    3    3    0    0  0.38876508813E-01  0.11984027563E+00 -0.18271050381E-01  0.12884699343E+00  0.19865594192E-01 0.  0.
         14    1    1    2    0    0 -0.98118402740E-02  0.17888682487E-01  0.12402643869E-01  0.23876824446E-01  0.00000000000E+00 0.  1.
     999901    1    3    3    0    0 -0.29064668539E-01 -0.13772895812E+00  0.58684065125E-02  0.89120618212E+00  0.88000000000E+00 0. -1.
        -11    1    4    4    0    0  0.30799277530E-01  0.65095268010E-01 -0.68495749795E-02  0.72340633202E-01  0.51100000000E-03 0. -1.
         11    1    4    4    0    0  0.80772312826E-02  0.54745007623E-01 -0.11421475402E-01  0.56506360227E-01  0.51100000000E-03 0.  1.
</event>
<event>
 8    1  0.1092993E+005  0.1043930E+01  0.7957747E-01            NaN
         13   -1    0    0    0    0  0.00000000000E+00  0.00000000000E+00  0.74505805969E-08  0.10566000000E+00  0.10566000000E+00 0. -1.
     999900   -1    0    0    0    0 -0.00000000000E+00 -0.00000000000E+00 -0.74505805969E-08  0.93827000000E+00  0.93827000000E+00 0. -1.
     999902    2    1    2    0    0  0.21289554579E-02 -0.22732983032E-01 -0.75441665300E-03  0.10210850856E+01  0.10208294970E+01 0.  0.
     999903    2    3    3    0    0  0.51559302199E-01  0.80959646315E-01  0.83807602433E-01  0.12959966474E+00  0.23654447782E-01 0.  0.
         14    1    1    2    0    0 -0.21289554579E-02  0.22732983032E-01  0.75441665300E-03  0.22844914387E-01  0.00000000000E+00 0. -1.
     999901    1    3    3    0    0 -0.49430346741E-01 -0.10369262935E+00 -0.84562019086E-01  0.89148542087E+00  0.88000000000E+00 0. -1.
        -11    1    4    4    0    0  0.46580597256E-01  0.54516224003E-01  0.64822569889E-01  0.96664354382E-01  0.51100000000E-03 0.  1.
         11    1    4    4    0    0  0.49787049435E-02  0.26443422312E-01  0.18985032545E-01  0.32935310356E-01  0.51100000000E-03 0. -1.
</event>
<event>
 8    1  0.1092993E+005  0.1043930E+01  0.7957747E-01            NaN
         13   -1    0    0    0    0  0.00000000000E+00  0.00000000000E+00  0.74505805969E-08  0.10566000000E+00  0.10566000000E+00 0. -1.
     999900   -1    0    0    0    0 -0.00000000000E+00 -0.00000000000E+00 -0.74505805969E-08  0.93827000000E+00  0.93827000000E+00 0. -1.
     999902    2    1    2    0    0 -0.85640045414E-02  0.61052653197E-02 -0.12732878324E-01  0.10274150786E+01  0.10272823376E+01 0.  0.
     999903    2    3    3    0    0 -0.33005533608E-01 -0.35818405248E-01  0.12473197096E+00  0.13542204764E+00  0.20217393594E-01 0.  0.
         14    1    1    2    0    0  0.85640045414E-02 -0.61052653197E-02  0.12732878324E-01  0.16514921399E-01  0.00000000000E+00 0. -1.
     999901    1    3    3    0    0  0.24441529067E-01  0.41923670568E-01 -0.13746484928E+00  0.89199303096E+00  0.88000000000E+00 0. -1.
        -11    1    4    4    0    0 -0.10770126024E-01 -0.14846037145E-01  0.24353839682E-01  0.30492147543E-01  0.51100000000E-03 0.  1.
         11    1    4    4    0    0 -0.22235407584E-01 -0.20972368103E-01  0.10037813128E+00  0.10492990010E+00  0.51100000000E-03 0. -1.
</event>
<event>
 8    1  0.1092993E+005  0.1043930E+01  0.7957747E-01            NaN
         13   -1    0    0    0    0  0.00000000000E+00  0.00000000000E+00  0.74505805969E-08  0.10566000000E+00  0.10566000000E+00 0. -1.
     999900   -1    0    0    0    0 -0.00000000000E+00 -0.00000000000E+00 -0.74505805969E-08  0.93827000000E+00  0.93827000000E+00 0. -1.
     999902    2    1    2    0    0  0.15918832636E-03  0.17447425095E-01  0.15243079210E-01  0.10207612830E+01  0.10204983133E+01 0.  0.
     999903    2    3    3    0    0  0.36690471289E-01  0.10920545569E+00 -0.61163925379E-01  0.13194628473E+00  0.19919187995E-01 0.  0.
         14    1    1    2    0    0 -0.15918832636E-03 -0.17447425095E-01 -0.15243079210E-01  0.23168716994E-01  0.00000000000E+00 0.  1.
     999901    1    3    3    0    0 -0.36531282963E-01 -0.91758030593E-01  0.76407004589E-01  0.88881499828E+00  0.88000000000E+00 0.  1.
        -11    1    4    4    0    0  0.35833208022E-01  0.82841727421E-01 -0.43498658800E-01  0.10019563383E+00  0.51100000000E-03 0.  1.
         11    1    4    4    0    0  0.85726326665E-03  0.26363728267E-01 -0.17665266579E-01  0.31750650903E-01  0.51100000000E-03 0. -1.
</event>
<event>
 8    1  0.1092993E+005  0.1043930E+01  0.7957747E-01            NaN
         13   -1    0    0    0    0  0.00000000000E+00  0.00000000000E+00  0.74505805969E-08  0.10566000000E+00  0.10566000000E+00 0. -1.
     999900   -1    0    0    0    0 -0.00000000000E+00 -0.00000000000E+00 -0.74505805969E-08  0.93827000000E+00  0.93827000000E+00 0.  1.
     999902    2    1    2    0    0  0.19088987652E-02  0.22878772089E-01 -0.41512183024E-02  0.10205994466E+01  0.10203327476E+01 0.  0.
     999903    2    3    3    0    0  0.10083663645E-01 -0.88800875681E-01 -0.91163117445E-01  0.12924640710E+00  0.20165415221E-01 0.  0.
         14    1    1    2    0    0 -0.19088987652E-02 -0.22878772089E-01  0.41512183024E-02  0.23330553362E-01  0.00000000000E+00 0. -1.
     999901    1    3    3    0    0 -0.81747648793E-02  0.11167964777E+00  0.87011899142E-01  0.89135303954E+00  0.88000000000E+00 0. -1.
        -11    1    4    4    0    0 -0.29147212860E-02 -0.59142158288E-01 -0.57768989370E-01  0.82727309523E-01  0.51100000000E-03 0.  1.
         11    1    4    4    0    0  0.12998384931E-01 -0.29658717393E-01 -0.33394128075E-01  0.46519097574E-01  0.51100000000E-03 0. -1.
</event>
<event>
 8    1  0.1092993E+005  0.1043930E+01  0.7957747E-01            NaN
         13   -1    0    0    0    0  0.00000000000E+00  0.00000000000E+00  0.74505805969E-08  0.10566000000E+00  0.10566000000E+00 0. -1.
     999900   -1    0    0    0    0 -0.00000000000E+00 -0.00000000000E+00 -0.74505805969E-08  0.93827000000E+00  0.93827000000E+00 0.  1.
     999902    2    1    2    0    0  0.71432969575E-02  0.32078802977E-02 -0.17564939605E-01  0.10246986638E+01  0.10245181830E+01 0.  0.
     999903    2    3    3    0    0  0.28356249417E-01  0.10451392715E+00  0.76157216585E-01  0.13368982715E+00  0.18595977958E-01 0.  0.
         14    1    1    2    0    0 -0.71432969575E-02 -0.32078802977E-02  0.17564939605E-01  0.19231336167E-01  0.00000000000E+00 0. -1.
     999901    1    3    3    0    0 -0.21212952460E-01 -0.10130604686E+00 -0.93722156190E-01  0.89100883668E+00  0.88000000000E+00 0.  1.
        -11    1    4    4    0    0  0.61444340017E-02  0.36367000050E-01  0.16388449214E-01  0.40362794136E-01  0.51100000000E-03 0.  1.
         11    1    4    4    0    0  0.22211815416E-01  0.68146927103E-01  0.59768767371E-01  0.93327033017E-01  0.51100000000E-03 0. -1.
</event>
<event>
 8    1  0.1092993E+005  0.1043930E+01  0.7957747E-01            NaN
         13   -1    0    0    0    0  0.00000000000E+00  0.00000000000E+00  0.74505805969E-08  0.10566000000E+00  0.10566000000E+00 0. -1.
     999900   -1    0    0    0    0 -0.00000000000E+00 -0.00000000000E+00 -0.74505805969E-08  0.93827000000E+00  0.93827000000E+00 0. -1.
     999902    2    1    2    0    0  0.19696446582E-01  0.10034801045E-01 -0.78214254048E-02  0.10204817179E+01  0.10202122890E+01 0.  0.
     999903    2    3    3    0    0  0.11554225022E+00  0.36038136760E-02  0.61654483006E-01  0.13253201347E+00  0.20011503194E-01 0.  0.
         14    1    1    2    0    0 -0.19696446582E-01 -0.10034801045E-01  0.78214254048E-02  0.23448282140E-01  0.00000000000E+00 0.  1.
     999901    1    3    3    0    0 -0.95845803642E-01  0.64309873694E-02 -0.69475908411E-01  0.88794970439E+00  0.88000000000E+00 0. -1.
        -11    1    4    4    0    0  0.37843794284E-01  0.80772725239E-02  0.27849448732E-01  0.47678590718E-01  0.51100000000E-03 0.  1.
         11    1    4    4    0    0  0.77698455940E-01 -0.44734588479E-02  0.33805034274E-01  0.84853422753E-01  0.51100000000E-03 0. -1.
</event>
<event>
 8    1  0.1092993E+005  0.1043930E+01  0.7957747E-01            NaN
         13   -1    0    0    0    0  0.00000000000E+00  0.00000000000E+00  0.74505805969E-08  0.10566000000E+00  0.10566000000E+00 0.  1.
     999900   -1    0    0    0    0 -0.00000000000E+00 -0.00000000000E+00 -0.74505805969E-08  0.93827000000E+00  0.93827000000E+00 0. -1.
     999902    2    1    2    0    0 -0.90564191860E-02 -0.40878454492E-03 -0.25362966070E-01  0.10169955262E+01  0.10166387925E+01 0.  0.
     999903    2    3    3    0    0 -0.32297458961E-01 -0.12377592317E-01 -0.12482754904E+00  0.13100647343E+00  0.19607356622E-01 0.  0.
         14    1    1    2    0    0  0.90564191860E-02  0.40878454492E-03  0.25362966070E-01  0.26934473842E-01  0.00000000000E+00 0.  1.
     999901    1    3    3    0    0  0.23241039775E-01  0.11968807772E-01  0.99464582971E-01  0.88598905273E+00  0.88000000000E+00 0.  1.
        -11    1    4    4    0    0 -0.11869642128E-01  0.43283169646E-02 -0.29573346938E-01  0.32163126436E-01  0.51100000000E-03 0. -1.
         11    1    4    4    0    0 -0.20427816833E-01 -0.16705909281E-01 -0.95254202104E-01  0.98843346994E-01  0.51100000000E-03 0.  1.
</event>
<event>
 8    1  0.1092993E+005  0.1043930E+01  0.7957747E-01            NaN
         13   -1    0    0    0    0  0.00000000000E+00  0.00000000000E+00  0.74505805969E-08  0.10566000000E+00  0.10566000000E+00 0.  1.
     999900   -1    0    0    0    0 -0.00000000000E+00 -0.00000000000E+00 -0.74505805969E-08  0.93827000000E+00  0.93827000000E+00 0. -1.
     999902    2    1    2    0    0 -0.15995233159E-01  0.31824811417E-02 -0.16595354667E-01  0.10206623945E+01  0.10203971492E+01 0.  0.
     999903    2    3    3    0    0  0.60235960072E-01  0.51417442901E-01 -0.10346857771E+00  0.13179527098E+00  0.19802084755E-01 0.  0.
         14    1    1    2    0    0  0.15995233159E-01 -0.31824811417E-02  0.16595354667E-01  0.23267605518E-01  0.00000000000E+00 0.  1.
     999901    1    3    3    0    0 -0.76231193231E-01 -0.48234961759E-01  0.86873223039E-01  0.88886712350E+00  0.88000000000E+00 0.  1.
        -11    1    4    4    0    0  0.17447052390E-01  0.16391990072E-01 -0.17827914783E-01  0.29852849816E-01  0.51100000000E-03 0.  1.
         11    1    4    4    0    0  0.42788907682E-01  0.35025452829E-01 -0.85640662922E-01  0.10194242117E+00  0.51100000000E-03 0. -1.
</event>
<event>
 8    1  0.1092993E+005  0.1043930E+01  0.7957747E-01            NaN
         13   -1    0    0    0    0  0.00000000000E+00  0.00000000000E+00  0.74505805969E-08  0.10566000000E+00  0.10566000000E+00 0. -1.
     999900   -1    0    0    0    0 -0.00000000000E+00 -0.00000000000E+00 -0.74505805969E-08  0.93827000000E+00  0.93827000000E+00 0. -1.
     999902    2    1    2    0    0  0.13391819995E-01  0.81184018744E-02  0.18525250722E-01  0.10196723372E+01  0.10193837555E+01 0.  0.
     999903    2    3    3    0    0  0.24996546032E-01 -0.50612884666E-01 -0.11275550762E+00  0.12792199587E+00  0.21534649338E-01 0.  0.
         14    1    1    2    0    0 -0.13391819995E-01 -0.81184018744E-02 -0.18525250722E-01  0.24257662833E-01  0.00000000000E+00 0.  1.
     999901    1    3    3    0    0 -0.11604726037E-01  0.58731286541E-01  0.13128075834E+00  0.89175034129E+00  0.88000000000E+00 0.  1.
        -11    1    4    4    0    0  0.10530052731E-01 -0.18829945857E-01 -0.22648297523E-01  0.31283468049E-01  0.51100000000E-03 0. -1.
         11    1    4    4    0    0  0.14466493301E-01 -0.31782938809E-01 -0.90107210097E-01  0.96638527825E-01  0.51100000000E-03 0.  1.
</event>
<event>
 8    1  0.1092993E+005  0.1043930E+01  0.7957747E-01            NaN
         13   -1    0    0    0    0  0.00000000000E+00  0.00000000000E+00  0.74505805969E-08  0.10566000000E+00  0.10566000000E+00 0.  1.
     999900   -1    0    0    0    0 -0.00000000000E+00 -0.00000000000E+00 -0.74505805969E-08  0.93827000000E+00  0.93827000000E+00 0. -1.
     999902    2    1    2    0    0 -0.17358339422E-01  0.13302621973E-01 -0.74137643201E-02  0.10208381053E+01  0.10205768965E+01 0.  0.
     999903    2    3    3    0    0 -0.12100414655E+00 -0.47892440374E-01  0.13170091895E-01  0.13240634984E+00  0.20549959396E-01 0.  0.
         14    1    1    2    0    0  0.17358339422E-01 -0.13302621973E-01  0.74137643201E-02  0.23091894687E-01  0.00000000000E+00 0.  1.
     999901    1    3    3    0    0  0.10364580713E+00  0.61195062347E-01 -0.20583856215E-01  0.88843175547E+00  0.88000000000E+00 0. -1.
        -11    1    4    4    0    0 -0.11284215020E+00 -0.43776469425E-01  0.67517612730E-02  0.12122531723E+00  0.51100000000E-03 0.  1.
         11    1    4    4    0    0 -0.81619963519E-02 -0.41159709486E-02  0.64183306219E-02  0.11181032612E-01  0.51100000000E-03 0. -1.
</event>
<event>
 8    1  0.1092993E+005  0.1043930E+01  0.7957747E-01            NaN
         13   -1    0    0    0    0  0.00000000000E+00  0.00000000000E+00  0.74505805969E-08  0.10566000000E+00  0.10566000000E+00 0.  1.
     999900   -1    0    0    0    0 -0.00000000000E+00 -0.00000000000E+00 -0.74505805969E-08  0.93827000000E+00  0.93827000000E+00 0.  1.
     999902    2    1    2    0    0 -0.20248716753E-01  0.15652269019E-01 -0.14586713194E-01  0.10144719577E+01  0.10140441690E+01 0.  0.
     999903    2    3    3    0    0 -0.20588858896E-01 -0.11969293568E+00  0.13938584592E-01  0.12366775206E+00  0.18684988530E-01 0.  0.
         14    1    1    2    0    0  0.20248716753E-01 -0.15652269019E-01  0.14586713194E-01  0.29458042321E-01  0.00000000000E+00 0.  1.
     999901    1    3    3    0    0  0.34014214365E-03  0.13534520470E+00 -0.28525297786E-01  0.89080420562E+00  0.88000000000E+00 0. -1.
        -11    1    4    4    0    0 -0.19287995408E-01 -0.64950003203E-01  0.29775913331E-02  0.67820770079E-01  0.51100000000E-03 0.  1.
         11    1    4    4    0    0 -0.13008634883E-02 -0.54742932480E-01  0.10960993259E-01  0.55846981982E-01  0.51100000000E-03 0. -1.
</event>
<event>
 8    1  0.1092993E+005  0.1043930E+01  0.7957747E-01            NaN
         13   -1    0    0    0    0  0.00000000000E+00  0.00000000000E+00  0.74505805969E-08  0.10566000000E+00  0.10566000000E+00 0.  1.
     999900   -1    0    0    0    0 -0.00000000000E+00 -0.00000000000E+00 -0.74505805969E-08  0.93827000000E+00  0.93827000000E+00 0. -1.
     999902    2    1    2    0    0 -0.12914584493E-01 -0.56762641166E-03 -0.19857001619E-01  0.10202359247E+01  0.10199607506E+01 0.  0.
     999903    2    3    3    0    0 -0.67159272484E-01  0.11087641607E+00  0.65122379111E-02  0.13115910146E+00  0.18877317890E-01 0.  0.
         14    1    1    2    0    0  0.12914584493E-01  0.56762641166E-03  0.19857001619E-01  0.23694075329E-01  0.00000000000E+00 0.  1.
     999901    1    3    3    0    0  0.54244687991E-01 -0.11144404249E+00 -0.26369239530E-01  0.88907682321E+00  0.88000000000E+00 0.  1.
        -11    1    4    4    0    0 -0.50605579801E-01  0.95041006227E-01  0.14126402161E-02  0.10768460542E+00  0.51100000000E-03 0. -1.
         11    1    4    4    0    0 -0.16553692683E-01  0.15835409846E-01  0.50995976951E-02  0.23474496035E-01  0.51100000000E-03 0.  1.
</event>
<event>
 8    1  0.1092993E+005  0.1043930E+01  0.7957747E-01            NaN
         13   -1    0    0    0    0  0.00000000000E+00  0.00000000000E+00  0.74505805969E-08  0.10566000000E+00  0.10566000000E+00 0.  1.
     999900   -1    0    0    0    0 -0.00000000000E+00 -0.00000000000E+00 -0.74505805969E-08  0.93827000000E+00  0.93827000000E+00 0. -1.
     999902    2    1    2    0    0 -0.16990759299E-01 -0.16030491520E-01  0.86789911520E-03  0.10205544613E+01  0.10202867208E+01 0.  0.
     999903    2    3    3    0    0  0.11245725596E+00  0.56633346496E-01 -0.54728031880E-02  0.12809884532E+00  0.22921436380E-01 0.  0.
         14    1    1    2    0    0  0.16990759299E-01  0.16030491520E-01 -0.86789911520E-03  0.23375538685E-01  0.00000000000E+00 0.  1.
     999901    1    3    3    0    0 -0.12944801526E+00 -0.72663838016E-01  0.63407023032E-02  0.89245561599E+00  0.88000000000E+00 0.  1.
        -11    1    4    4    0    0  0.31981964354E-01  0.73994595160E-02 -0.77332824307E-02  0.33729257674E-01  0.51100000000E-03 0.  1.
         11    1    4    4    0    0  0.80475291604E-01  0.49233886980E-01  0.22604792427E-02  0.94369587650E-01  0.51100000000E-03 0. -1.
</event>
<event>
 8    1  0.1092993E+005  0.1043930E+01  0.7957747E-01            NaN
         13   -1    0    0    0    0  0.00000000000E+00  0.00000000000E+00  0.74505805969E-08  0.10566000000E+00  0.10566000000E+00 0. -1.
     999900   -1    0    0    0    0 -0.00000000000E+00 -0.00000000000E+00 -0.74505805969E-08  0.93827000000E+00  0.93827000000E+00 0.  1.
     999902    2    1    2    0    0  0.17656386821E-01  0.14504139522E-01  0.83761612810E-02  0.10195932349E+01  0.10193027452E+01 0.  0.
     999903    2    3    3    0    0  0.43017847834E-01 -0.10441161511E+00  0.60561475856E-01  0.12970140580E+00  0.20060949805E-01 0.  0.
         14    1    1    2    0    0 -0.17656386821E-01 -0.14504139522E-01 -0.83761612810E-02  0.24336765123E-01  0.00000000000E+00 0. -1.
     999901    1    3    3    0    0 -0.25361461013E-01  0.11891575463E+00 -0.52185314575E-01  0.88989182908E+00  0.88000000000E+00 0.  1.
        -11    1    4    4    0    0  0.16591758625E-01 -0.60709578734E-01  0.40423374669E-01  0.74801402025E-01  0.51100000000E-03 0. -1.
         11    1    4    4    0    0  0.26426089209E-01 -0.43702036372E-01  0.20138101187E-01  0.54900003773E-01  0.51100000000E-03 0.  1.
</event>
<event>
 8    1  0.1092993E+005  0.1043930E+01  0.7957747E-01            NaN
         13   -1    0    0    0    0  0.00000000000E+00  0.00000000000E+00  0.74505805969E-08  0.10566000000E+00  0.10566000000E+00 0.  1.
     999900   -1    0    0    0    0 -0.00000000000E+00 -0.00000000000E+00 -0.74505805969E-08  0.93827000000E+00  0.93827000000E+00 0.  1.
     999902    2    1    2    0    0  0.16164855089E-01 -0.23183997379E-02 -0.17809153678E-01  0.10197671469E+01  0.10194808435E+01 0.  0.
     999903    2    3    3    0    0 -0.11782440332E+00  0.74091258780E-02 -0.48204339695E-01  0.12905304376E+00  0.19837957919E-01 0.  0.
         14    1    1    2    0    0 -0.16164855089E-01  0.23183997379E-02  0.17809153678E-01  0.24162853146E-01  0.00000000000E+00 0.  1.
     999901    1    3    3    0    0  0.13398925841E+00 -0.97275256159E-02  0.30395186017E-01  0.89071410310E+00  0.88000000000E+00 0. -1.
        -11    1    4    4    0    0 -0.40558750646E-01 -0.63633296995E-02 -0.13321501661E-01  0.43165121873E-01  0.51100000000E-03 0.  1.
         11    1    4    4    0    0 -0.77265652670E-01  0.13772455578E-01 -0.34882838035E-01  0.85887921884E-01  0.51100000000E-03 0. -1.
</event>
<event>
 8    1  0.1092993E+005  0.1043930E+01  0.7957747E-01            NaN
         13   -1    0    0    0    0  0.00000000000E+00  0.00000000000E+00  0.74505805969E-08  0.10566000000E+00  0.10566000000E+00 0. -1.
     999900   -1    0    0    0    0 -0.00000000000E+00 -0.00000000000E+00 -0.74505805969E-08  0.93827000000E+00  0.93827000000E+00 0. -1.
     999902    2    1    2    0    0 -0.17391576261E-01 -0.15978976666E-01 -0.31587132524E-02  0.10201020314E+01  0.10198237016E+01 0.  0.
     999903    2    3    3    0    0 -0.33466552135E-01 -0.12327687111E+00 -0.31292036186E-01  0.13299283466E+00  0.19766271305E-01 0.  0.
         14    1    1    2    0    0  0.17391576261E-01  0.15978976666E-01  0.31587132524E-02  0.23827968641E-01  0.00000000000E+00 0.  1.
     999901    1    3    3    0    0  0.16074975874E-01  0.10729789444E+00  0.28133322934E-01  0.88710919669E+00  0.88000000000E+00 0.  1.
        -11    1    4    4    0    0 -0.10370671943E-01 -0.44564963826E-01 -0.20898574743E-01  0.50305053271E-01  0.51100000000E-03 0. -1.
         11    1    4    4    0    0 -0.23095880192E-01 -0.78711907283E-01 -0.10393461443E-01  0.82687781393E-01  0.51100000000E-03 0.  1.
</event>
<event>
 8    1  0.1092993E+005  0.1043930E+01  0.7957747E-01            NaN
         13   -1    0    0    0    0  0.00000000000E+00  0.00000000000E+00  0.74505805969E-08  0.10566000000E+00  0.10566000000E+00 0. -1.
     999900   -1    0    0    0    0 -0.00000000000E+00 -0.00000000000E+00 -0.74505805969E-08  0.93827000000E+00  0.93827000000E+00 0. -1.
     999902    2    1    2    0    0  0.15267825768E-01 -0.12345368491E-01  0.13198522003E-01  0.10202716905E+01  0.10199973563E+01 0.  0.
     999903    2    3    3    0    0 -0.12656887419E-01 -0.12911408470E+00 -0.11808120155E-01  0.13176729833E+00  0.19812762108E-01 0.  0.
         14    1    1    2    0    0 -0.15267825768E-01  0.12345368491E-01 -0.13198522003E-01  0.23658309532E-01  0.00000000000E+00 0. -1.
     999901    1    3    3    0    0  0.27924713187E-01  0.11676871620E+00  0.25006642158E-01  0.88850439213E+00  0.88000000000E+00 0.  1.
        -11    1    4    4    0    0  0.81374369138E-03 -0.82541560866E-01 -0.38724145619E-02  0.82637934174E-01  0.51100000000E-03 0. -1.
         11    1    4    4    0    0 -0.13470631111E-01 -0.46572523830E-01 -0.79357055933E-02  0.49129364159E-01  0.51100000000E-03 0.  1.
</event>
<event>
 8    1  0.1092993E+005  0.1043930E+01  0.7957747E-01            NaN
         13   -1    0    0    0    0  0.00000000000E+00  0.00000000000E+00  0.74505805969E-08  0.10566000000E+00  0.10566000000E+00 0. -1.
     999900   -1    0    0    0    0 -0.00000000000E+00 -0.00000000000E+00 -0.74505805969E-08  0.93827000000E+00  0.93827000000E+00 0.  1.
     999902    2    1    2    0    0 -0.12884971529E-01 -0.85791750326E-03  0.20609234226E-01  0.10196092465E+01  0.10193191436E+01 0.  0.
     999903    2    3    3    0    0 -0.66674611984E-01  0.10976605687E+00 -0.11406771660E-01  0.13047707764E+00  0.20001555604E-01 0.  0.
         14    1    1    2    0    0  0.12884971529E-01  0.85791750326E-03 -0.20609234226E-01  0.24320753465E-01  0.00000000000E+00 0.  1.
     999901    1    3    3    0    0  0.53789640455E-01 -0.11062397437E+00  0.32016005886E-01  0.88913216889E+00  0.88000000000E+00 0. -1.
        -11    1    4    4    0    0 -0.21011011953E-01  0.53691836768E-01 -0.47242456392E-02  0.57852014457E-01  0.51100000000E-03 0.  1.
         11    1    4    4    0    0 -0.45663600031E-01  0.56074220101E-01 -0.66825260213E-02  0.72625063186E-01  0.51100000000E-03 0. -1.
</event>
<event>
 8    1  0.1092993E+005  0.1043930E+01  0.7957747E-01            NaN
         13   -1    0    0    0    0  0.00000000000E+00  0.00000000000E+00  0.74505805969E-08  0.10566000000E+00  0.10566000000E+00 0.  1.
     999900   -1    0    0    0    0 -0.00000000000E+00 -0.00000000000E+00 -0.74505805969E-08  0.93827000000E+00  0.93827000000E+00 0. -1.
     999902    2    1    2    0    0  0.22818199620E-01  0.16303538780E-02 -0.11080163735E-01  0.10185115359E+01  0.10181943088E+01 0.  0.
     999903    2    3    3    0    0  0.40145401508E-02  0.12389043154E+00  0.28596206676E-01  0.12897496075E+00  0.21256573180E-01 0.  0.
         14    1    1    2    0    0 -0.22818199620E-01 -0.16303538780E-02  0.11080163735E-01  0.25418464077E-01  0.00000000000E+00 0.  1.
     999901    1    3    3    0    0  0.18803659469E-01 -0.12226007767E+00 -0.39676370411E-01  0.88953657517E+00  0.88000000000E+00 0.  1.
        -11    1    4    4    0    0  0.80071677055E-02  0.20544771048E-01  0.17604116391E-02  0.22126059799E-01  0.51100000000E-03 0.  1.
         11    1    4    4    0    0 -0.39926275548E-02  0.10334566050E+00  0.26835795037E-01  0.10684890095E+00  0.51100000000E-03 0. -1.
</event>
<event>
 8    1  0.1092993E+005  0.1043930E+01  0.7957747E-01            NaN
         13   -1    0    0    0    0  0.00000000000E+00  0.00000000000E+00  0.74505805969E-08  0.10566000000E+00  0.10566000000E+00 0. -1.
     999900   -1    0    0    0    0 -0.00000000000E+00 -0.00000000000E+00 -0.74505805969E-08  0.93827000000E+00  0.93827000000E+00 0.  1.
     999902    2    1    2    0    0 -0.11012909398E-01  0.10643826481E-02 -0.22680307740E-01  0.10186948372E+01  0.10183822258E+01 0.  0.
     999903    2    3    3    0    0  0.11384896166E-01  0.12699935192E+00 -0.53334600922E-03  0.12917150072E+00  0.20652866407E-01 0.  0.
         14    1    1    2    0    0  0.11012909398E-01 -0.10643826481E-02  0.22680307740E-01  0.25235162829E-01  0.00000000000E+00 0. -1.
     999901    1    3    3    0    0 -0.22397805564E-01 -0.12593496927E+00 -0.22146961731E-01  0.88952333645E+00  0.88000000000E+00 0. -1.
        -11    1    4    4    0    0  0.31486652550E-02  0.23277382628E-01  0.78825735890E-02  0.24781983825E-01  0.51100000000E-03 0. -1.
         11    1    4    4    0    0  0.82362309114E-02  0.10372196929E+00 -0.84159195982E-02  0.10438951689E+00  0.51100000000E-03 0.  1.
</event>
<event>
 8    1  0.1092993E+005  0.1043930E+01  0.7957747E-01            NaN
         13   -1    0    0    0    0  0.00000000000E+00  0.00000000000E+00  0.74505805969E-08  0.10566000000E+00  0.10566000000E+00 0. -1.
     999900   -1    0    0    0    0 -0.00000000000E+00 -0.00000000000E+00 -0.74505805969E-08  0.93827000000E+00  0.93827000000E+00 0.  1.
     999902    2    1    2    0    0  0.22188236438E-01  0.11492587230E-01  0.25193607410E-01  0.10084459860E+01  0.10078215077E+01 0.  0.
     999903    2    3    3    0    0 -0.94451757105E-01 -0.60134885272E-02  0.70084288643E-01  0.11944287909E+00  0.19937336472E-01 0.  0.
         14    1    1    2    0    0 -0.22188236438E-01 -0.11492587230E-01 -0.25193607410E-01  0.35484014032E-01  0.00000000000E+00 0.  1.
     999901    1    3    3    0    0  0.11663999354E+00  0.17506075757E-01 -0.44890681233E-01  0.88900310688E+00  0.88000000000E+00 0.  1.
        -11    1    4    4    0    0 -0.18753370972E-01 -0.92738170513E-02  0.14114713952E-01  0.25242402351E-01  0.51100000000E-03 0.  1.
         11    1    4    4    0    0 -0.75698386133E-01  0.32603285241E-02  0.55969574691E-01  0.94200476736E-01  0.51100000000E-03 0. -1.
</event>
<event>
 8    1  0.1092993E+005  0.1043930E+01  0.7957747E-01            NaN
         13   -1    0    0    0    0  0.00000000000E+00  0.00000000000E+00  0.74505805969E-08  0.10566000000E+00  0.10566000000E+00 0. -1.
     999900   -1    0    0    0    0 -0.00000000000E+00 -0.00000000000E+00 -0.74505805969E-08  0.93827000000E+00  0.93827000000E+00 0.  1.
     999902    2    1    2    0    0 -0.68599848667E-02  0.18749827659E-01 -0.13479592197E-01  0.10198402753E+01  0.10195557230E+01 0.  0.
     999903    2    3    3    0    0 -0.51111049323E-01 -0.10640194496E-01 -0.11946294421E+00  0.13189072663E+00  0.19955340891E-01 0.  0.
         14    1    1    2    0    0  0.68599848667E-02 -0.18749827659E-01  0.13479592197E-01  0.24089724686E-01  0.00000000000E+00 0. -1.
     999901    1    3    3    0    0  0.44251064456E-01  0.29390022155E-01  0.10598335201E+00  0.88794954869E+00  0.88000000000E+00 0. -1.
        -11    1    4    4    0    0 -0.82245354425E-02 -0.30005776621E-02 -0.67966092026E-02  0.11095110058E-01  0.51100000000E-03 0.  1.
         11    1    4    4    0    0 -0.42886513880E-01 -0.76396168339E-02 -0.11266633501E+00  0.12079561657E+00  0.51100000000E-03 0. -1.
</event>
<event>
 8    1  0.1092993E+005  0.1043930E+01  0.7957747E-01            NaN
         13   -1    0    0    0    0  0.00000000000E+00  0.00000000000E+00  0.74505805969E-08  0.10566000000E+00  0.10566000000E+00 0.  1.
     999900   -1    0    0    0    0 -0.00000000000E+00 -0.00000000000E+00 -0.74505805969E-08  0.93827000000E+00  0.93827000000E+00 0. -1.
     999902    2    1    2    0    0 -0.17728491606E-01  0.12848032520E-01  0.37124935325E-02  0.10217229299E+01  0.10214815669E+01 0.  0.
     999903    2    3    3    0    0 -0.33405850619E-01  0.74756002254E-01  0.10220585684E+00  0.13392829209E+00  0.28041746039E-01 0.  0.
         14    1    1    2    0    0  0.17728491606E-01 -0.12848032520E-01 -0.37124935325E-02  0.22207070101E-01  0.00000000000E+00 0. -1.
     999901    1    3    3    0    0  0.15677359013E-01 -0.61907969734E-01 -0.98493363311E-01  0.88779463781E+00  0.88000000000E+00 0. -1.
        -11    1    4    4    0    0 -0.25833151877E-01  0.35366038979E-01  0.36828179196E-01  0.57224857823E-01  0.51100000000E-03 0. -1.
         11    1    4    4    0    0 -0.75726987419E-02  0.39389963275E-01  0.65377677648E-01  0.76703434269E-01  0.51100000000E-03 0.  1.
</event>
<event>
 8    1  0.1092993E+005  0.1043930E+01  0.7957747E-01            NaN
         13   -1    0    0    0    0  0.00000000000E+00  0.00000000000E+00  0.74505805969E-08  0.10566000000E+00  0.10566000000E+00 0.  1.
     999900   -1    0    0    0    0 -0.00000000000E+00 -0.00000000000E+00 -0.74505805969E-08  0.93827000000E+00  0.93827000000E+00 0.  1.
     999902    2    1    2    0    0 -0.17249997720E-02  0.52815080125E-02 -0.23272956836E-01  0.10200030179E+01  0.10197223427E+01 0.  0.
     999903    2    3    3    0    0  0.21913261593E-01 -0.40530091975E-02 -0.12985661568E+00  0.13320767686E+00  0.19619546927E-01 0.  0.
         14    1    1    2    0    0  0.17249997720E-02 -0.52815080125E-02  0.23272956836E-01  0.23926982070E-01  0.00000000000E+00 0.  1.
     999901    1    3    3    0    0 -0.23638261365E-01  0.93345172100E-02  0.10658365884E+00  0.88679534107E+00  0.88000000000E+00 0. -1.
        -11    1    4    4    0    0  0.19561559522E-01  0.49129732117E-02 -0.96290666483E-01  0.98381631870E-01  0.51100000000E-03 0.  1.
         11    1    4    4    0    0  0.23517020703E-02 -0.89659824092E-02 -0.33565949196E-01  0.34826044990E-01  0.51100000000E-03 0. -1.
</event>
<event>
 8    1  0.1092993E+005  0.1043930E+01  0.7957747E-01            NaN
         13   -1    0    0    0    0  0.00000000000E+00  0.00000000000E+00  0.74505805969E-08  0.10566000000E+00  0.10566000000E+00 0. -1.
     999900   -1    0    0    0    0 -0.00000000000E+00 -0.00000000000E+00 -0.74505805969E-08  0.93827000000E+00  0.93827000000E+00 0. -1.
     999902    2    1    2    0    0  0.68887705083E-02  0.11830561575E-01  0.18931516770E-01  0.10205672161E+01  0.10202997711E+01 0.  0.
     999903    2    3    3    0    0  0.65884161841E-01  0.10701099538E+00  0.39066570295E-01  0.13324247756E+00  0.20863484753E-01 0.  0.
         14    1    1    2    0    0 -0.68887705083E-02 -0.11830561575E-01 -0.18931516770E-01  0.23362783942E-01  0.00000000000E+00 0.  1.
     999901    1    3    3    0    0 -0.58995391333E-01 -0.95180433808E-01 -0.20135053525E-01  0.88732473850E+00  0.88000000000E+00 0. -1.
        -11    1    4    4    0    0  0.23589120162E-01  0.21221773592E-01  0.10076943822E-01  0.33295888368E-01  0.51100000000E-03 0. -1.
         11    1    4    4    0    0  0.42295041680E-01  0.85789221791E-01  0.28989626473E-01  0.99946589188E-01  0.51100000000E-03 0.  1.
</event>
<event>
 8    1  0.1092993E+005  0.1043930E+01  0.7957747E-01            NaN
         13   -1    0    0    0    0  0.00000000000E+00  0.00000000000E+00  0.74505805969E-08  0.10566000000E+00  0.10566000000E+00 0.  1.
     999900   -1    0    0    0    0 -0.00000000000E+00 -0.00000000000E+00 -0.74505805969E-08  0.93827000000E+00  0.93827000000E+00 0.  1.
     999902    2    1    2    0    0  0.18633796472E-01 -0.12477727086E-01 -0.66509933553E-02  0.10205388103E+01  0.10202707070E+01 0.  0.
     999903    2    3    3    0    0  0.10929969360E-01 -0.12861929074E+00 -0.23669406522E-01  0.13271121544E+00  0.19739293781E-01 0.  0.
         14    1    1    2    0    0 -0.18633796472E-01  0.12477727086E-01  0.66509933553E-02  0.23391189726E-01  0.00000000000E+00 0.  1.
     999901    1    3    3    0    0  0.77038271124E-02  0.11614156365E+00  0.17018413167E-01  0.88782759483E+00  0.88000000000E+00 0. -1.
        -11    1    4    4    0    0  0.30005652244E-02 -0.82230952443E-01 -0.62397843927E-02  0.82523505510E-01  0.51100000000E-03 0.  1.
         11    1    4    4    0    0  0.79294041357E-02 -0.46388338293E-01 -0.17429622130E-01  0.50187709931E-01  0.51100000000E-03 0. -1.
</event>
<event>
 8    1  0.1092993E+005  0.1043930E+01  0.7957747E-01            NaN
         13   -1    0    0    0    0  0.00000000000E+00  0.00000000000E+00  0.74505805969E-08  0.10566000000E+00  0.10566000000E+00 0.  1.
     999900   -1    0    0    0    0 -0.00000000000E+00 -0.00000000000E+00 -0.74505805969E-08  0.93827000000E+00  0.93827000000E+00 0.  1.
     999902    2    1    2    0    0 -0.18005443397E-02 -0.23555992833E-01  0.99213634592E-02  0.10183065691E+01  0.10179841396E+01 0.  0.
     999903    2    3    3    0    0  0.12526943247E+00  0.16788576339E-01  0.37708926559E-02  0.12824348619E+00  0.21398250208E-01 0.  0.
         14    1    1    2    0    0  0.18005443397E-02  0.23555992833E-01 -0.99213634592E-02  0.25623430901E-01  0.00000000000E+00 0. -1.
     999901    1    3    3    0    0 -0.12706997681E+00 -0.40344569171E-01  0.61504708034E-02  0.89006308291E+00  0.88000000000E+00 0. -1.
        -11    1    4    4    0    0  0.63068029297E-01  0.15355704816E-01 -0.62851514221E-02  0.65216088806E-01  0.51100000000E-03 0.  1.
         11    1    4    4    0    0  0.62201403172E-01  0.14328715225E-02  0.10056044078E-01  0.63027397383E-01  0.51100000000E-03 0. -1.
</event>
<event>
 8    1  0.1092993E+005  0.1043930E+01  0.7957747E-01            NaN
         13   -1    0    0    0    0  0.00000000000E+00  0.00000000000E+00  0.74505805969E-08  0.10566000000E+00  0.10566000000E+00 0.  1.
     999900   -1    0    0    0    0 -0.00000000000E+00 -0.00000000000E+00 -0.74505805969E-08  0.93827000000E+00  0.93827000000E+00 0.  1.
     999902    2    1    2    0    0 -0.20592967543E-01 -0.10475720253E-01  0.27967418468E-02  0.10206569943E+01  0.10203916245E+01 0.  0.
     999903    2    3    3    0    0 -0.11384118946E+00  0.64135172666E-01 -0.10331923486E-01  0.13249350822E+00  0.19355730102E-01 0.  0.
         14    1    1    2    0    0  0.20592967543E-01  0.10475720253E-01 -0.27967418468E-02  0.23273005650E-01  0.00000000000E+00 0. -1.
     999901    1    3    3    0    0  0.93248221918E-01 -0.74610892920E-01  0.13128665333E-01  0.88816348613E+00  0.88000000000E+00 0. -1.
        -11    1    4    4    0    0 -0.42822450620E-01  0.28152874890E-01  0.47207305373E-02  0.51467398025E-01  0.51100000000E-03 0. -1.
         11    1    4    4    0    0 -0.71018738841E-01  0.35982297776E-01 -0.15052654023E-01  0.81026110199E-01  0.51100000000E-03 0.  1.
</event>
<event>
 8    1  0.1092993E+005  0.1043930E+01  0.7957747E-01            NaN
         13   -1    0    0    0    0  0.00000000000E+00  0.00000000000E+00  0.74505805969E-08  0.10566000000E+00  0.10566000000E+00 0.  1.
     999900   -1    0    0    0    0 -0.00000000000E+00 -0.00000000000E+00 -0.74505805969E-08  0.93827000000E+00  0.93827000000E+00 0. -1.
     999902    2    1    2    0    0  0.12372604503E-02 -0.23200262073E-01 -0.58179945348E-02  0.10199793834E+01  0.10196981468E+01 0.  0.
     999903    2    3    3    0    0 -0.64107019741E-01 -0.59872520219E-01 -0.96814063223E-01  0.13211958933E+00  0.19702649274E-01 0.  0.
         14    1    1    2    0    0 -0.12372604503E-02  0.23200262073E-01  0.58179945348E-02  0.23950616570E-01  0.00000000000E+00 0. -1.
     999901    1    3    3    0    0  0.65344280191E-01  0.36672258146E-01  0.90996068688E-01  0.88785979410E+00  0.88000000000E+00 0.  1.
        -11    1    4    4    0    0 -0.24340567272E-01 -0.35760111372E-01 -0.50263611329E-01  0.66316970116E-01  0.51100000000E-03 0. -1.
         11    1    4    4    0    0 -0.39766452469E-01 -0.24112408847E-01 -0.46550451893E-01  0.65802619210E-01  0.51100000000E-03 0.  1.
</event>
<event>
 8    1  0.1092993E+005  0.1043930E+01  0.7957747E-01            NaN
         13   -1    0    0    0    0  0.00000000000E+00  0.00000000000E+00  0.74505805969E-08  0.10566000000E+00  0.10566000000E+00 0.  1.
     999900   -1    0    0    0    0 -0.00000000000E+00 -0.00000000000E+00 -0.74505805969E-08  0.93827000000E+00  0.93827000000E+00 0. -1.
     999902    2    1    2    0    0 -0.10743912887E-01 -0.13402675797E-01 -0.13617238531E-01  0.10220098593E+01  0.10217747599E+01 0.  0.
     999903    2    3    3    0    0 -0.50924757105E-01 -0.11362608708E+00  0.43955176828E-01  0.13354274376E+00  0.19934600292E-01 0.  0.
         14    1    1    2    0    0  0.10743912887E-01  0.13402675797E-01  0.13617238531E-01  0.21920140689E-01  0.00000000000E+00 0.  1.
     999901    1    3    3    0    0  0.40180844218E-01  0.10022341128E+00 -0.57572415359E-01  0.88846711555E+00  0.88000000000E+00 0.  1.
        -11    1    4    4    0    0 -0.16539392177E-01 -0.30385981636E-01  0.21451716729E-01  0.40709908440E-01  0.51100000000E-03 0. -1.
         11    1    4    4    0    0 -0.34385364928E-01 -0.83240105443E-01  0.22503460099E-01  0.92832835316E-01  0.51100000000E-03 0.  1.
</event>
<event>
 8    1  0.1092993E+005  0.1043930E+01  0.7957747E-01            NaN
         13   -1    0    0    0    0  0.00000000000E+00  0.00000000000E+00  0.74505805969E-08  0.10566000000E+00  0.10566000000E+00 0.  1.
     999900   -1    0    0    0    0 -0.00000000000E+00 -0.00000000000E+00 -0.74505805969E-08  0.93827000000E+00  0.93827000000E+00 0. -1.
     999902    2    1    2    0    0  0.14369319547E-01 -0.24972657037E-03 -0.20829829001E-01  0.10186234498E+01  0.10183090449E+01 0.  0.
     999903    2    3    3    0    0  0.82384352058E-01 -0.74453779961E-01  0.61589626573E-01  0.12905880748E+00  0.23072643355E-01 0.  0.
         14    1    1    2    0    0 -0.14369319547E-01  0.24972657037E-03  0.20829829001E-01  0.25306550216E-01  0.00000000000E+00 0.  1.
     999901    1    3    3    0    0 -0.68015032510E-01  0.74204053390E-01 -0.82419455574E-01  0.88956464231E+00  0.88000000000E+00 0. -1.
        -11    1    4    4    0    0  0.24697095134E-01 -0.34092035630E-01  0.31056859861E-01  0.52316374749E-01  0.51100000000E-03 0.  1.
         11    1    4    4    0    0  0.57687256924E-01 -0.40361744330E-01  0.30532766712E-01  0.76742432727E-01  0.51100000000E-03 0. -1.
</event>
<event>
 8    1  0.1092993E+005  0.1043930E+01  0.7957747E-01            NaN
         13   -1    0    0    0    0  0.00000000000E+00  0.00000000000E+00  0.74505805969E-08  0.10566000000E+00  0.10566000000E+00 0.  1.
     999900   -1    0    0    0    0 -0.00000000000E+00 -0.00000000000E+00 -0.74505805969E-08  0.93827000000E+00  0.93827000000E+00 0.  1.
     999902    2    1    2    0    0 -0.35774607263E-02  0.11511365402E-01  0.21364648118E-01  0.10193992449E+01  0.10191040489E+01 0.  0.
     999903    2    3    3    0    0 -0.25869784897E-02 -0.11415349049E+00  0.58164758629E-01  0.12971003778E+00  0.20095842995E-01 0.  0.
         14    1    1    2    0    0  0.35774607263E-02 -0.11511365402E-01 -0.21364648118E-01  0.24530755143E-01  0.00000000000E+00 0. -1.
     999901    1    3    3    0    0 -0.99048223659E-03  0.12566485589E+00 -0.36800110511E-01  0.88968920708E+00  0.88000000000E+00 0. -1.
        -11    1    4    4    0    0  0.64617635438E-02 -0.73580968365E-01  0.31373386920E-01  0.80252500406E-01  0.51100000000E-03 0.  1.
         11    1    4    4    0    0 -0.90487420335E-02 -0.40572522122E-01  0.26791371709E-01  0.49457537371E-01  0.51100000000E-03 0. -1.
</event>
<event>
 8    1  0.1092993E+005  0.1043930E+01  0.7957747E-01            NaN
         13   -1    0    0    0    0  0.00000000000E+00  0.00000000000E+00  0.74505805969E-08  0.10566000000E+00  0.10566000000E+00 0. -1.
     999900   -1    0    0    0    0 -0.00000000000E+00 -0.00000000000E+00 -0.74505805969E-08  0.93827000000E+00  0.93827000000E+00 0. -1.
     999902    2    1    2    0    0 -0.19546611542E-01  0.12673605838E-01 -0.26582166617E-03  0.10206327691E+01  0.10203668401E+01 0.  0.
     999903    2    3    3    0    0  0.58478303045E-01 -0.46800320443E-01 -0.10357278020E+00  0.12917477069E+00  0.18676687709E-01 0.  0.
         14    1    1    2    0    0  0.19546611542E-01 -0.12673605838E-01  0.26582166617E-03  0.23297230927E-01  0.00000000000E+00 0.  1.
     999901    1    3    3    0    0 -0.78024914587E-01  0.59473926281E-01  0.10330695853E+00  0.89145799839E+00  0.88000000000E+00 0.  1.
        -11    1    4    4    0    0  0.48243078390E-02 -0.11049220772E-01 -0.10782545028E-01  0.16182818793E-01  0.51100000000E-03 0. -1.
         11    1    4    4    0    0  0.53653995206E-01 -0.35751099671E-01 -0.92790235170E-01  0.11299195190E+00  0.51100000000E-03 0.  1.
</event>
<event>
 8    1  0.1092993E+005  0.1043930E+01  0.7957747E-01            NaN
         13   -1    0    0    0    0  0.00000000000E+00  0.00000000000E+00  0.74505805969E-08  0.10566000000E+00  0.10566000000E+00 0. -1.
     999900   -1    0    0    0    0 -0.00000000000E+00 -0.00000000000E+00 -0.74505805969E-08  0.93827000000E+00  0.93827000000E+00 0.  1.
     999902    2    1    2    0    0  0.12946488208E-01 -0.15093659608E-01 -0.96853084326E-02  0.10218113356E+01  0.10215719114E+01 0.  0.
     999903    2    3    3    0    0  0.61355316017E-01 -0.74829602041E-01 -0.91415700795E-01  0.13468583459E+00  0.20481687983E-01 0.  0.
         14    1    1    2    0    0 -0.12946488208E-01  0.15093659608E-01  0.96853084326E-02  0.22118664442E-01  0.00000000000E+00 0. -1.
     999901    1    3    3    0    0 -0.48408827809E-01  0.59735942434E-01  0.81730392363E-01  0.88712550097E+00  0.88000000000E+00 0.  1.
        -11    1    4    4    0    0  0.83571881880E-02 -0.76285862010E-02 -0.31891609401E-02  0.11767318740E-01  0.51100000000E-03 0.  1.
         11    1    4    4    0    0  0.52998127829E-01 -0.67201015840E-01 -0.88226539855E-01  0.12291851585E+00  0.51100000000E-03 0. -1.
</event>
<event>
 8    1  0.1122879E+005  0.1043930E+01  0.7957747E-01            NaN
         13   -1    0    0    0    0  0.00000000000E+00  0.00000000000E+00  0.74505805969E-08  0.10566000000E+00  0.10566000000E+00 0.  1.
     999900   -1    0    0    0    0 -0.00000000000E+00 -0.00000000000E+00 -0.74505805969E-08  0.93827000000E+00  0.93827000000E+00 0.  1.
     999902    2    1    2    0    0  0.20601845396E-01  0.38317834960E-02  0.18308676894E-01  0.10161032818E+01  0.10157221830E+01 0.  0.
     999903    2    3    3    0    0 -0.15478161320E-01 -0.10225849588E+00 -0.66708859873E-01  0.12493276170E+00  0.21488357402E-01 0.  0.
         14    1    1    2    0    0 -0.20601845396E-01 -0.38317834960E-02 -0.18308676894E-01  0.27826718242E-01  0.00000000000E+00 0. -1.
     999901    1    3    3    0    0  0.36080006716E-01  0.10609027937E+00  0.85017536767E-01  0.89117052006E+00  0.88000000000E+00 0. -1.
        -11    1    4    4    0    0 -0.11710415322E-01 -0.26392644527E-01 -0.25435786314E-01  0.38483059371E-01  0.51100000000E-03 0.  1.
         11    1    4    4    0    0 -0.37677459976E-02 -0.75865851349E-01 -0.41273073560E-01  0.86449702330E-01  0.51100000000E-03 0. -1.
</event>
<event>
 8    1  0.1092993E+005  0.1043930E+01  0.7957747E-01            NaN
         13   -1    0    0    0    0  0.00000000000E+00  0.00000000000E+00  0.74505805969E-08  0.10566000000E+00  0.10566000000E+00 0.  1.
     999900   -1    0    0    0    0 -0.00000000000E+00 -0.00000000000E+00 -0.74505805969E-08  0.93827000000E+00  0.93827000000E+00 0. -1.
     999902    2    1    2    0    0  0.11132989802E-01  0.15375205576E-01  0.13705906467E-01  0.10205164936E+01  0.10202478726E+01 0.  0.
     999903    2    3    3    0    0  0.10281413619E+00 -0.78037423545E-01 -0.29408385269E-02  0.13068029185E+00  0.20201585889E-01 0.  0.
         14    1    1    2    0    0 -0.11132989802E-01 -0.15375205576E-01 -0.13705906467E-01  0.23413506369E-01  0.00000000000E+00 0. -1.
     999901    1    3    3    0    0 -0.91681146388E-01  0.93412629121E-01  0.16646744993E-01  0.88983620178E+00  0.88000000000E+00 0. -1.
        -11    1    4    4    0    0  0.37287622576E-01 -0.17341688288E-01 -0.43015234763E-02  0.41350516021E-01  0.51100000000E-03 0.  1.
         11    1    4    4    0    0  0.65526513614E-01 -0.60695735257E-01  0.13606849494E-02  0.89329775828E-01  0.51100000000E-03 0. -1.
</event>
<event>
 8    1  0.1092993E+005  0.1043930E+01  0.7957747E-01            NaN
         13   -1    0    0    0    0  0.00000000000E+00  0.00000000000E+00  0.74505805969E-08  0.10566000000E+00  0.10566000000E+00 0. -1.
     999900   -1    0    0    0    0 -0.00000000000E+00 -0.00000000000E+00 -0.74505805969E-08  0.93827000000E+00  0.93827000000E+00 0. -1.
     999902    2    1    2    0    0  0.39665012693E-02  0.20776994063E-01  0.64491752492E-02  0.10218164640E+01  0.10215771520E+01 0.  0.
     999903    2    3    3    0    0 -0.14630353723E-01 -0.12189412858E+00  0.35784183280E-01  0.12964975592E+00  0.21361779030E-01 0.  0.
         14    1    1    2    0    0 -0.39665012693E-02 -0.20776994063E-01 -0.64491752492E-02  0.22113536036E-01  0.00000000000E+00 0.  1.
     999901    1    3    3    0    0  0.18596854992E-01  0.14267112265E+00 -0.29335008031E-01  0.89216670805E+00  0.88000000000E+00 0. -1.
        -11    1    4    4    0    0 -0.54056782781E-02 -0.28274196070E-01 -0.56619363095E-03  0.28796409799E-01  0.51100000000E-03 0.  1.
         11    1    4    4    0    0 -0.92246754447E-02 -0.93619932511E-01  0.36350376911E-01  0.10085334612E+00  0.51100000000E-03 0. -1.
</event>
<event>
 8    1  0.1092993E+005  0.1043930E+01  0.7957747E-01            NaN
         13   -1    0    0    0    0  0.00000000000E+00  0.00000000000E+00  0.74505805969E-08  0.10566000000E+00  0.10566000000E+00 0.  1.
     999900   -1    0    0    0    0 -0.00000000000E+00 -0.00000000000E+00 -0.74505805969E-08  0.93827000000E+00  0.93827000000E+00 0.  1.
     999902    2    1    2    0    0  0.43878751084E-02  0.21648807088E-01 -0.94308567552E-02  0.10199119785E+01  0.10196291378E+01 0.  0.
     999903    2    3    3    0    0  0.48195158021E-01 -0.57721967019E-01 -0.10452404819E+00  0.13015835371E+00  0.19008462756E-01 0.  0.
         14    1    1    2    0    0 -0.43878751084E-02 -0.21648807088E-01  0.94308567552E-02  0.24018021472E-01  0.00000000000E+00 0. -1.
     999901    1    3    3    0    0 -0.43807282912E-01  0.79370774107E-01  0.95093191439E-01  0.88975362482E+00  0.88000000000E+00 0. -1.
        -11    1    4    4    0    0  0.41495447301E-01 -0.39424227654E-01 -0.69129063701E-01  0.89750935605E-01  0.51100000000E-03 0.  1.
         11    1    4    4    0    0  0.66997107196E-02 -0.18297739366E-01 -0.35394984493E-01  0.40407418105E-01  0.51100000000E-03 0. -1.
</event>
<event>
 8    1  0.1092993E+005  0.1043930E+01  0.7957747E-01            NaN
         13   -1    0    0    0    0  0.00000000000E+00  0.00000000000E+00  0.74505805969E-08  0.10566000000E+00  0.10566000000E+00 0. -1.
     999900   -1    0    0    0    0 -0.00000000000E+00 -0.00000000000E+00 -0.74505805969E-08  0.93827000000E+00  0.93827000000E+00 0.  1.
     999902    2    1    2    0    0  0.18816171915E-01 -0.12715971392E-01 -0.58123605476E-02  0.10204879909E+01  0.10202187079E+01 0.  0.
     999903    2    3    3    0    0  0.12283340296E+00  0.42175666980E-01  0.16874431623E-01  0.13237348995E+00  0.19265581535E-01 0.  0.
         14    1    1    2    0    0 -0.18816171915E-01  0.12715971392E-01  0.58123605476E-02  0.23442009068E-01  0.00000000000E+00 0.  1.
     999901    1    3    3    0    0 -0.10401723104E+00 -0.54891638372E-01 -0.22686792171E-01  0.88811450098E+00  0.88000000000E+00 0.  1.
        -11    1    4    4    0    0  0.20842967779E-01  0.32059836446E-02  0.89146281903E-02  0.22900640902E-01  0.51100000000E-03 0. -1.
         11    1    4    4    0    0  0.10199043518E+00  0.38969683335E-01  0.79598034332E-02  0.10947284905E+00  0.51100000000E-03 0.  1.
</event>
<event>
 8    1  0.1092993E+005  0.1043930E+01  0.7957747E-01            NaN
         13   -1    0    0    0    0  0.00000000000E+00  0.00000000000E+00  0.74505805969E-08  0.10566000000E+00  0.10566000000E+00 0.  1.
     999900   -1    0    0    0    0 -0.00000000000E+00 -0.00000000000E+00 -0.74505805969E-08  0.93827000000E+00  0.93827000000E+00 0. -1.
     999902    2    1    2    0    0  0.63157113381E-02 -0.96140311393E-02 -0.23632271900E-01  0.10176468860E+01  0.10173074179E+01 0.  0.
     999903    2    3    3    0    0 -0.96246093265E-01  0.77462629300E-01 -0.24411100059E-01  0.12742114212E+00  0.19402995814E-01 0.  0.
         14    1    1    2    0    0 -0.63157113381E-02  0.96140311393E-02  0.23632271900E-01  0.26283113963E-01  0.00000000000E+00 0.  1.
     999901    1    3    3    0    0  0.10256180460E+00 -0.87076660439E-01  0.77882815879E-03  0.89022574392E+00  0.88000000000E+00 0.  1.
        -11    1    4    4    0    0 -0.50602822178E-01  0.28927602694E-01 -0.14438273026E-01  0.60051450099E-01  0.51100000000E-03 0.  1.
         11    1    4    4    0    0 -0.45643271087E-01  0.48535026606E-01 -0.99728270325E-02  0.67369692022E-01  0.51100000000E-03 0. -1.
</event>
<event>
 8    1  0.1092993E+005  0.1043930E+01  0.7957747E-01            NaN
         13   -1    0    0    0    0  0.00000000000E+00  0.00000000000E+00  0.74505805969E-08  0.10566000000E+00  0.10566000000E+00 0.  1.
     999900   -1    0    0    0    0 -0.00000000000E+00 -0.00000000000E+00 -0.74505805969E-08  0.93827000000E+00  0.93827000000E+00 0.  1.
     999902    2    1    2    0    0 -0.17087588484E-02 -0.23067283821E-01  0.46988206209E-02  0.10203270689E+01  0.10200540325E+01 0.  0.
     999903    2    3    3    0    0  0.13349327113E-01  0.33356443592E-01 -0.12267544485E+00  0.12924088541E+00  0.19054784893E-01 0.  0.
         14    1    1    2    0    0  0.17087588484E-02  0.23067283821E-01 -0.46988206209E-02  0.23602931066E-01  0.00000000000E+00 0.  1.
     999901    1    3    3    0    0 -0.15058085962E-01 -0.56423727412E-01  0.12737426547E+00  0.89108618353E+00  0.88000000000E+00 0. -1.
        -11    1    4    4    0    0  0.34425122391E-02  0.24511015305E-01 -0.99413604058E-01  0.10244982457E+00  0.51100000000E-03 0. -1.
         11    1    4    4    0    0  0.99068148743E-02  0.88454282870E-02 -0.23261840796E-01  0.26791060837E-01  0.51100000000E-03 0.  1.
</event>
<event>
 8    1  0.1092993E+005  0.1043930E+01  0.7957747E-01            NaN
         13   -1    0    0    0    0  0.00000000000E+00  0.00000000000E+00  0.74505805969E-08  0.10566000000E+00  0.10566000000E+00 0. -1.
     999900   -1    0    0    0    0 -0.00000000000E+00 -0.00000000000E+00 -0.74505805969E-08  0.93827000000E+00  0.93827000000E+00 0. -1.
     999902    2    1    2    0    0  0.32271222886E-02  0.20799258030E-01  0.76796652180E-02  0.10215246276E+01  0.10212788866E+01 0.  0.
     999903    2    3    3    0    0  0.98435385392E-01 -0.35559982450E-01  0.77157149369E-01  0.13187969950E+00  0.22022533758E-01 0.  0.
         14    1    1    2    0    0 -0.32271222886E-02 -0.20799258030E-01 -0.76796652180E-02  0.22405372363E-01  0.00000000000E+00 0.  1.
     999901    1    3    3    0    0 -0.95208263103E-01  0.56359240480E-01 -0.69477484151E-01  0.88964492813E+00  0.88000000000E+00 0. -1.
        -11    1    4    4    0    0  0.48983539664E-01 -0.15433512994E-01  0.24555982897E-01  0.56928357594E-01  0.51100000000E-03 0.  1.
         11    1    4    4    0    0  0.49451845728E-01 -0.20126469455E-01  0.52601166472E-01  0.74951341908E-01  0.51100000000E-03 0. -1.
</event>
<event>
 8    1  0.1092993E+005  0.1043930E+01  0.7957747E-01            NaN
         13   -1    0    0    0    0  0.00000000000E+00  0.00000000000E+00  0.74505805969E-08  0.10566000000E+00  0.10566000000E+00 0. -1.
     999900   -1    0    0    0    0 -0.00000000000E+00 -0.00000000000E+00 -0.74505805969E-08  0.93827000000E+00  0.93827000000E+00 0. -1.
     999902    2    1    2    0    0  0.11793036724E-01  0.49164657642E-02 -0.21761299011E-01  0.10186950741E+01  0.10183824687E+01 0.  0.
     999903    2    3    3    0    0 -0.29786158690E-01  0.81802554198E-01  0.90609393261E-01  0.12725384072E+00  0.20114788271E-01 0.  0.
         14    1    1    2    0    0 -0.11793036724E-01 -0.49164657642E-02  0.21761299011E-01  0.25234925905E-01  0.00000000000E+00 0. -1.
     999901    1    3    3    0    0  0.41579195414E-01 -0.76886088433E-01 -0.11237069227E+00  0.89144123338E+00  0.88000000000E+00 0. -1.
        -11    1    4    4    0    0 -0.46810335439E-02  0.17209919316E-01  0.31343650619E-01  0.36066313272E-01  0.51100000000E-03 0.  1.
         11    1    4    4    0    0 -0.25105125147E-01  0.64592634882E-01  0.59265742642E-01  0.91187527445E-01  0.51100000000E-03 0. -1.
</event>
<event>
 8    1  0.1092993E+005  0.1043930E+01  0.7957747E-01            NaN
         13   -1    0    0    0    0  0.00000000000E+00  0.00000000000E+00  0.74505805969E-08  0.10566000000E+00  0.10566000000E+00 0.  1.
     999900   -1    0    0    0    0 -0.00000000000E+00 -0.00000000000E+00 -0.74505805969E-08  0.93827000000E+00  0.93827000000E+00 0.  1.
     999902    2    1    2    0    0 -0.17543593763E-01  0.15017776628E-01 -0.39062076536E-02  0.10205084340E+01  0.10202396258E+01 0.  0.
     999903    2    3    3    0    0  0.49644785919E-01  0.91178393159E-01  0.77204670939E-01  0.13096153105E+00  0.20304119084E-01 0.  0.
         14    1    1    2    0    0  0.17543593763E-01 -0.15017776628E-01  0.39062076536E-02  0.23421566028E-01  0.00000000000E+00 0.  1.
     999901    1    3    3    0    0 -0.67188379682E-01 -0.76160616531E-01 -0.81110878593E-01  0.88954690292E+00  0.88000000000E+00 0.  1.
        -11    1    4    4    0    0  0.47828560363E-01  0.74518219446E-01  0.69207088928E-01  0.11238513467E+00  0.51100000000E-03 0.  1.
         11    1    4    4    0    0  0.18162255564E-02  0.16660173713E-01  0.79975820116E-02  0.18576396379E-01  0.51100000000E-03 0. -1.
</event>
<event>
 8    1  0.1092993E+005  0.1043930E+01  0.7957747E-01            NaN
         13   -1    0    0    0    0  0.00000000000E+00  0.00000000000E+00  0.74505805969E-08  0.10566000000E+00  0.10566000000E+00 0.  1.
     999900   -1    0    0    0    0 -0.00000000000E+00 -0.00000000000E+00 -0.74505805969E-08  0.93827000000E+00  0.93827000000E+00 0. -1.
     999902    2    1    2    0    0 -0.20686236743E-01 -0.10561318620E-01 -0.31406156676E-02  0.10204923101E+01  0.10202231274E+01 0.  0.
     999903    2    3    3    0    0 -0.59660963616E-01  0.10923861163E+00  0.34747928225E-01  0.13071335193E+00  0.19648333431E-01 0.  0.
         14    1    1    2    0    0  0.20686236743E-01  0.10561318620E-01  0.31406156676E-02  0.23437689911E-01  0.00000000000E+00 0.  1.
     999901    1    3    3    0    0  0.38974726873E-01 -0.11979993025E+00 -0.37888543892E-01  0.88977895816E+00  0.88000000000E+00 0. -1.
        -11    1    4    4    0    0 -0.28019429809E-01  0.32007313936E-01  0.11185750070E-01  0.43987938322E-01  0.51100000000E-03 0.  1.
         11    1    4    4    0    0 -0.31641533807E-01  0.77231297694E-01  0.23562178154E-01  0.86725413609E-01  0.51100000000E-03 0. -1.
</event>
<event>
 8    1  0.1092993E+005  0.1043930E+01  0.7957747E-01            NaN
         13   -1    0    0    0    0  0.00000000000E+00  0.00000000000E+00  0.74505805969E-08  0.10566000000E+00  0.10566000000E+00 0. -1.
     999900   -1    0    0    0    0 -0.00000000000E+00 -0.00000000000E+00 -0.74505805969E-08  0.93827000000E+00  0.93827000000E+00 0.  1.
     999902    2    1    2    0    0  0.51781919221E-02 -0.28291544396E-02 -0.23814686403E-01  0.10193951865E+01  0.10190998916E+01 0.  0.
     999903    2    3    3    0    0 -0.14354139912E-01  0.11086151200E+00  0.59239450925E-01  0.12798895509E+00  0.19378955157E-01 0.  0.
         14    1    1    2    0    0 -0.51781919221E-02  0.28291544396E-02  0.23814686403E-01  0.24534813529E-01  0.00000000000E+00 0. -1.
     999901    1    3    3    0    0  0.19532331834E-01 -0.11369066644E+00 -0.83054137327E-01  0.89140623138E+00  0.88000000000E+00 0. -1.
        -11    1    4    4    0    0 -0.12106637236E-01  0.94729323902E-01  0.42193740147E-01  0.10440684030E+00  0.51100000000E-03 0.  1.
         11    1    4    4    0    0 -0.22475026762E-02  0.16132188098E-01  0.17045710777E-01  0.23582114791E-01  0.51100000000E-03 0. -1.
</event>
<event>
 8    1  0.1092993E+005  0.1043930E+01  0.7957747E-01            NaN
         13   -1    0    0    0    0  0.00000000000E+00  0.00000000000E+00  0.74505805969E-08  0.10566000000E+00  0.10566000000E+00 0.  1.
     999900   -1    0    0    0    0 -0.00000000000E+00 -0.00000000000E+00 -0.74505805969E-08  0.93827000000E+00  0.93827000000E+00 0.  1.
     999902    2    1    2    0    0 -0.22786263649E-01  0.41081135966E-02  0.46156617223E-02  0.10203207912E+01  0.10200476078E+01 0.  0.
     999903    2    3    3    0    0  0.10105358410E+00  0.41869558127E-01  0.65063556430E-01  0.12879615183E+00  0.19755900217E-01 0.  0.
         14    1    1    2    0    0  0.22786263649E-01 -0.41081135966E-02 -0.46156617223E-02  0.23609208829E-01  0.00000000000E+00 0.  1.
     999901    1    3    3    0    0 -0.12383984775E+00 -0.37761444531E-01 -0.60447894708E-01  0.89152463934E+00  0.88000000000E+00 0.  1.
        -11    1    4    4    0    0  0.35697568731E-01  0.20225929378E-01  0.33892646921E-01  0.53220083323E-01  0.51100000000E-03 0.  1.
         11    1    4    4    0    0  0.65356015366E-01  0.21643628749E-01  0.31170909509E-01  0.75576068504E-01  0.51100000000E-03 0. -1.
</event>
<event>
 8    1  0.1092993E+005  0.1043930E+01  0.7957747E-01            NaN
         13   -1    0    0    0    0  0.00000000000E+00  0.00000000000E+00  0.74505805969E-08  0.10566000000E+00  0.10566000000E+00 0.  1.
     999900   -1    0    0    0    0 -0.00000000000E+00 -0.00000000000E+00 -0.74505805969E-08  0.93827000000E+00  0.93827000000E+00 0.  1.
     999902    2    1    2    0    0 -0.20808002922E-01 -0.10073024027E-01  0.49191554907E-02  0.10202944994E+01  0.10200207001E+01 0.  0.
     999903    2    3    3    0    0 -0.18393121002E-02 -0.12791579017E+00 -0.24320498386E-01  0.13175542533E+00  0.20054251884E-01 0.  0.
         14    1    1    2    0    0  0.20808002922E-01  0.10073024027E-01 -0.49191554907E-02  0.23635500617E-01  0.00000000000E+00 0. -1.
     999901    1    3    3    0    0 -0.18968690822E-01  0.11784276614E+00  0.29239653876E-01  0.88853907405E+00  0.88000000000E+00 0.  1.
        -11    1    4    4    0    0  0.68118238741E-02 -0.90479228639E-01 -0.12773158096E-01  0.91631361707E-01  0.51100000000E-03 0. -1.
         11    1    4    4    0    0 -0.86511359743E-02 -0.37436561529E-01 -0.11547340289E-01  0.40124063621E-01  0.51100000000E-03 0.  1.
</event>
<event>
 8    1  0.1092993E+005  0.1043930E+01  0.7957747E-01            NaN
         13   -1    0    0    0    0  0.00000000000E+00  0.00000000000E+00  0.74505805969E-08  0.10566000000E+00  0.10566000000E+00 0. -1.
     999900   -1    0    0    0    0 -0.00000000000E+00 -0.00000000000E+00 -0.74505805969E-08  0.93827000000E+00  0.93827000000E+00 0. -1.
     999902    2    1    2    0    0 -0.21252387927E-02  0.13080142662E-01 -0.20164674359E-01  0.10198007467E+01  0.10195152486E+01 0.  0.
     999903    2    3    3    0    0  0.36368036008E-01  0.72519277327E-01  0.98396447464E-01  0.12903058414E+00  0.19630362762E-01 0.  0.
         14    1    1    2    0    0  0.21252387927E-02 -0.13080142662E-01  0.20164674359E-01  0.24129253283E-01  0.00000000000E+00 0. -1.
     999901    1    3    3    0    0 -0.38493274801E-01 -0.59439134664E-01 -0.11856112182E+00  0.89077016258E+00  0.88000000000E+00 0. -1.
        -11    1    4    4    0    0  0.10856631775E-01  0.34215294822E-01  0.31081173751E-01  0.47485295998E-01  0.51100000000E-03 0. -1.
         11    1    4    4    0    0  0.25511404233E-01  0.38303982504E-01  0.67315273713E-01  0.81545288139E-01  0.51100000000E-03 0.  1.
</event>
<event>
 8    1  0.1092993E+005  0.1043930E+01  0.7957747E-01            NaN
         13   -1    0    0    0    0  0.00000000000E+00  0.00000000000E+00  0.74505805969E-08  0.10566000000E+00  0.10566000000E+00 0.  1.
     999900   -1    0    0    0    0 -0.00000000000E+00 -0.00000000000E+00 -0.74505805969E-08  0.93827000000E+00  0.93827000000E+00 0. -1.
     999902    2    1    2    0    0 -0.93731263503E-02  0.18502812810E-01 -0.10367813539E-01  0.10207416163E+01  0.10204781949E+01 0.  0.
     999903    2    3    3    0    0 -0.11641734552E-01  0.12884448440E+00  0.25033233922E-01  0.13314166972E+00  0.19068567592E-01 0.  0.
         14    1    1    2    0    0  0.93731263503E-02 -0.18502812810E-01  0.10367813539E-01  0.23188383666E-01  0.00000000000E+00 0.  1.
     999901    1    3    3    0    0  0.22686082019E-02 -0.11034167159E+00 -0.35401047461E-01  0.88759994662E+00  0.88000000000E+00 0. -1.
        -11    1    4    4    0    0 -0.16520856336E-01  0.10140003560E+00  0.17065989748E-01  0.10414612350E+00  0.51100000000E-03 0.  1.
         11    1    4    4    0    0  0.48791217842E-02  0.27444448805E-01  0.79672441745E-02  0.28995546215E-01  0.51100000000E-03 0. -1.
</event>
<event>
 8    1  0.1092993E+005  0.1043930E+01  0.7957747E-01            NaN
         13   -1    0    0    0    0  0.00000000000E+00  0.00000000000E+00  0.74505805969E-08  0.10566000000E+00  0.10566000000E+00 0.  1.
     999900   -1    0    0    0    0 -0.00000000000E+00 -0.00000000000E+00 -0.74505805969E-08  0.93827000000E+00  0.93827000000E+00 0.  1.
     999902    2    1    2    0    0  0.20229483993E-01  0.66377248856E-02 -0.84062600865E-02  0.10210399012E+01  0.10207832891E+01 0.  0.
     999903    2    3    3    0    0 -0.57617103954E-01 -0.75156270680E-01 -0.87394454181E-01  0.13031576671E+00  0.19396204285E-01 0.  0.
         14    1    1    2    0    0 -0.20229483993E-01 -0.66377248856E-02  0.84062600865E-02  0.22890098796E-01  0.00000000000E+00 0. -1.
     999901    1    3    3    0    0  0.77846587947E-01  0.81793995566E-01  0.78988194095E-01  0.89072413449E+00  0.88000000000E+00 0. -1.
        -11    1    4    4    0    0 -0.43194007999E-01 -0.48729078303E-01 -0.48856974873E-01  0.81409523485E-01  0.51100000000E-03 0. -1.
         11    1    4    4    0    0 -0.14423095955E-01 -0.26427192377E-01 -0.38537479308E-01  0.48906243224E-01  0.51100000000E-03 0.  1.
</event>
<event>
 8    1  0.1092993E+005  0.1043930E+01  0.7957747E-01            NaN
         13   -1    0    0    0    0  0.00000000000E+00  0.00000000000E+00  0.74505805969E-08  0.10566000000E+00  0.10566000000E+00 0. -1.
     999900   -1    0    0    0    0 -0.00000000000E+00 -0.00000000000E+00 -0.74505805969E-08  0.93827000000E+00  0.93827000000E+00 0.  1.
     999902    2    1    2    0    0 -0.18600500801E-01 -0.11632490328E-01 -0.61812228161E-02  0.10211374359E+01  0.10208830306E+01 0.  0.
     999903    2    3    3    0    0  0.70659295493E-01 -0.66756103674E-02  0.10606482723E+00  0.12951472556E+00  0.22068455996E-01 0.  0.
         14    1    1    2    0    0  0.18600500801E-01  0.11632490328E-01  0.61812228161E-02  0.22792564068E-01  0.00000000000E+00 0. -1.
     999901    1    3    3    0    0 -0.89259796294E-01 -0.49568799609E-02 -0.11224605004E+00  0.89162271037E+00  0.88000000000E+00 0.  1.
        -11    1    4    4    0    0  0.16475560855E-02  0.13134299244E-02  0.14056670736E-01  0.14222891844E-01  0.51100000000E-03 0. -1.
         11    1    4    4    0    0  0.69011739407E-01 -0.79890402918E-02  0.92008156491E-01  0.11529183372E+00  0.51100000000E-03 0.  1.
</event>
<event>
 8    1  0.1092993E+005  0.1043930E+01  0.7957747E-01            NaN
         13   -1    0    0    0    0  0.00000000000E+00  0.00000000000E+00  0.74505805969E-08  0.10566000000E+00  0.10566000000E+00 0.  1.
     999900   -1    0    0    0    0 -0.00000000000E+00 -0.00000000000E+00 -0.74505805969E-08  0.93827000000E+00  0.93827000000E+00 0. -1.
     999902    2    1    2    0    0 -0.16577286426E-01 -0.49059643302E-02 -0.15246031520E-01  0.10208796987E+01  0.10206194408E+01 0.  0.
     999903    2    3    3    0    0  0.97181106762E-01 -0.54708151700E-02 -0.83755981054E-01  0.13091627013E+00  0.25493295024E-01 0.  0.
         14    1    1    2    0    0  0.16577286426E-01  0.49059643302E-02  0.15246031520E-01  0.23050301265E-01  0.00000000000E+00 0.  1.
     999901    1    3    3    0    0 -0.11375839319E+00  0.56485083976E-03  0.68509949534E-01  0.88996342861E+00  0.88000000000E+00 0. -1.
        -11    1    4    4    0    0  0.56408052344E-01 -0.11195521390E-01 -0.61140455937E-01  0.83938218600E-01  0.51100000000E-03 0. -1.
         11    1    4    4    0    0  0.40773054418E-01  0.57247062202E-02 -0.22615525117E-01  0.46978051526E-01  0.51100000000E-03 0.  1.
</event>
<event>
 8    1  0.1092993E+005  0.1043930E+01  0.7957747E-01            NaN
         13   -1    0    0    0    0  0.00000000000E+00  0.00000000000E+00  0.74505805969E-08  0.10566000000E+00  0.10566000000E+00 0.  1.
     999900   -1    0    0    0    0 -0.00000000000E+00 -0.00000000000E+00 -0.74505805969E-08  0.93827000000E+00  0.93827000000E+00 0. -1.
     999902    2    1    2    0    0 -0.83806208703E-02  0.18732754938E-01  0.10226188363E-01  0.10210012878E+01  0.10207437993E+01 0.  0.
     999903    2    3    3    0    0 -0.19825812713E-01 -0.12087852021E+00 -0.34200313436E-01  0.12881520038E+00  0.20469853752E-01 0.  0.
         14    1    1    2    0    0  0.83806208703E-02 -0.18732754938E-01 -0.10226188363E-01  0.22928712178E-01  0.00000000000E+00 0. -1.
     999901    1    3    3    0    0  0.11445191842E-01  0.13961127514E+00  0.44426501799E-01  0.89218608744E+00  0.88000000000E+00 0. -1.
        -11    1    4    4    0    0 -0.12802918674E-01 -0.45371090149E-01 -0.44568429569E-02  0.47355835100E-01  0.51100000000E-03 0. -1.
         11    1    4    4    0    0 -0.70228940387E-02 -0.75507430058E-01 -0.29743470479E-01  0.81459365279E-01  0.51100000000E-03 0.  1.
</event>
<event>
 8    1  0.1092993E+005  0.1043930E+01  0.7957747E-01            NaN
         13   -1    0    0    0    0  0.00000000000E+00  0.00000000000E+00  0.74505805969E-08  0.10566000000E+00  0.10566000000E+00 0.  1.
     999900   -1    0    0    0    0 -0.00000000000E+00 -0.00000000000E+00 -0.74505805969E-08  0.93827000000E+00  0.93827000000E+00 0.  1.
     999902    2    1    2    0    0 -0.91106408285E-02 -0.17517541770E-01  0.12786432859E-01  0.10204063755E+01  0.10201351921E+01 0.  0.
     999903    2    3    3    0    0  0.79437467589E-02  0.12631132518E+00 -0.71921734372E-02  0.12834318274E+00  0.20064675807E-01 0.  0.
         14    1    1    2    0    0  0.91106408285E-02  0.17517541770E-01 -0.12786432859E-01  0.23523624534E-01  0.00000000000E+00 0.  1.
     999901    1    3    3    0    0 -0.17054387587E-01 -0.14382886695E+00  0.19978606296E-01  0.89206319272E+00  0.88000000000E+00 0.  1.
        -11    1    4    4    0    0 -0.14364170280E-03  0.91448876838E-01  0.16886403629E-02  0.91466006446E-01  0.51100000000E-03 0. -1.
         11    1    4    4    0    0  0.80873884617E-02  0.34862448345E-01 -0.88808138001E-02  0.36877176295E-01  0.51100000000E-03 0.  1.
</event>
<event>
 8    1  0.1092993E+005  0.1043930E+01  0.7957747E-01            NaN
         13   -1    0    0    0    0  0.00000000000E+00  0.00000000000E+00  0.74505805969E-08  0.10566000000E+00  0.10566000000E+00 0.  1.
     999900   -1    0    0    0    0 -0.00000000000E+00 -0.00000000000E+00 -0.74505805969E-08  0.93827000000E+00  0.93827000000E+00 0. -1.
     999902    2    1    2    0    0  0.20793052734E-01  0.99387813682E-02 -0.68540058965E-02  0.10198861273E+01  0.10196026701E+01 0.  0.
     999903    2    3    3    0    0 -0.32404502348E-01  0.96815257582E-01 -0.79682948786E-01  0.13102080742E+00  0.19845245683E-01 0.  0.
         14    1    1    2    0    0 -0.20793052734E-01 -0.99387813682E-02  0.68540058965E-02  0.24043872689E-01  0.00000000000E+00 0.  1.
     999901    1    3    3    0    0  0.53197555081E-01 -0.86876476213E-01  0.72828942889E-01  0.88886531989E+00  0.88000000000E+00 0.  1.
        -11    1    4    4    0    0 -0.25462898783E-01  0.46376604888E-01 -0.36761390504E-01  0.64426777416E-01  0.51100000000E-03 0.  1.
         11    1    4    4    0    0 -0.69416035645E-02  0.50438652694E-01 -0.42921558282E-01  0.66594030002E-01  0.51100000000E-03 0. -1.
</event>
<event>
 8    1  0.1092993E+005  0.1043930E+01  0.7957747E-01            NaN
         13   -1    0    0    0    0  0.00000000000E+00  0.00000000000E+00  0.74505805969E-08  0.10566000000E+00  0.10566000000E+00 0. -1.
     999900   -1    0    0    0    0 -0.00000000000E+00 -0.00000000000E+00 -0.74505805969E-08  0.93827000000E+00  0.93827000000E+00 0.  1.
     999902    2    1    2    0    0  0.67950079147E-02 -0.18686350580E-01 -0.11729807975E-01  0.10208445018E+01  0.10205834394E+01 0.  0.
     999903    2    3    3    0    0  0.99265100104E-01  0.57944380629E-01 -0.60294072385E-01  0.13136067697E+00  0.20227232724E-01 0.  0.
         14    1    1    2    0    0 -0.67950079147E-02  0.18686350580E-01  0.11729807975E-01  0.23085498169E-01  0.00000000000E+00 0. -1.
     999901    1    3    3    0    0 -0.92470092189E-01 -0.76630731209E-01  0.48564264410E-01  0.88948382486E+00  0.88000000000E+00 0.  1.
        -11    1    4    4    0    0  0.51400318491E-02  0.95647067093E-02 -0.53169518511E-02  0.12101018132E-01  0.51100000000E-03 0. -1.
         11    1    4    4    0    0  0.94125068255E-01  0.48379673920E-01 -0.54977120534E-01  0.11925965884E+00  0.51100000000E-03 0.  1.
</event>
<event>
 8    1  0.1092993E+005  0.1043930E+01  0.7957747E-01            NaN
         13   -1    0    0    0    0  0.00000000000E+00  0.00000000000E+00  0.74505805969E-08  0.10566000000E+00  0.10566000000E+00 0. -1.
     999900   -1    0    0    0    0 -0.00000000000E+00 -0.00000000000E+00 -0.74505805969E-08  0.93827000000E+00  0.93827000000E+00 0.  1.
     999902    2    1    2    0    0  0.11681631582E-01 -0.11565673025E-01 -0.16934392506E-01  0.10203291746E+01  0.10200561875E+01 0.  0.
     999903    2    3    3    0    0  0.76680870905E-01 -0.29703871790E-01 -0.10313528455E+00  0.13354594905E+00  0.20865225299E-01 0.  0.
         14    1    1    2    0    0 -0.11681631582E-01  0.11565673025E-01  0.16934392506E-01  0.23600825377E-01  0.00000000000E+00 0.  1.
     999901    1    3    3    0    0 -0.64999239323E-01  0.18138198765E-01  0.86200892043E-01  0.88678322557E+00  0.88000000000E+00 0. -1.
        -11    1    4    4    0    0  0.11606132523E-01 -0.91850721398E-02 -0.30392145868E-01  0.33808453289E-01  0.51100000000E-03 0.  1.
         11    1    4    4    0    0  0.65074738382E-01 -0.20518799650E-01 -0.72743138681E-01  0.99737495762E-01  0.51100000000E-03 0. -1.
</event>
<event>
 8    1  0.1092993E+005  0.1043930E+01  0.7957747E-01            NaN
         13   -1    0    0    0    0  0.00000000000E+00  0.00000000000E+00  0.74505805969E-08  0.10566000000E+00  0.10566000000E+00 0.  1.
     999900   -1    0    0    0    0 -0.00000000000E+00 -0.00000000000E+00 -0.74505805969E-08  0.93827000000E+00  0.93827000000E+00 0.  1.
     999902    2    1    2    0    0 -0.13277907017E-01  0.19633094693E-01 -0.97820208996E-02  0.10182892287E+01  0.10179663570E+01 0.  0.
     999903    2    3    3    0    0 -0.43330695100E-01  0.12079166201E+00 -0.22224167581E-01  0.13189708473E+00  0.20850721455E-01 0.  0.
         14    1    1    2    0    0  0.13277907017E-01 -0.19633094693E-01  0.97820208996E-02  0.25640771339E-01  0.00000000000E+00 0.  1.
     999901    1    3    3    0    0  0.30052788084E-01 -0.10115856732E+00  0.12442146681E-01  0.88639214393E+00  0.88000000000E+00 0.  1.
        -11    1    4    4    0    0 -0.23979852850E-01  0.37642387297E-01 -0.71463172203E-02  0.45203026834E-01  0.51100000000E-03 0.  1.
         11    1    4    4    0    0 -0.19350842251E-01  0.83149274716E-01 -0.15077850360E-01  0.86694057894E-01  0.51100000000E-03 0. -1.
</event>
<event>
 8    1  0.1092993E+005  0.1043930E+01  0.7957747E-01            NaN
         13   -1    0    0    0    0  0.00000000000E+00  0.00000000000E+00  0.74505805969E-08  0.10566000000E+00  0.10566000000E+00 0. -1.
     999900   -1    0    0    0    0 -0.00000000000E+00 -0.00000000000E+00 -0.74505805969E-08  0.93827000000E+00  0.93827000000E+00 0.  1.
     999902    2    1    2    0    0 -0.22748369756E-01 -0.12598703034E-01 -0.20100635462E-03  0.10179250765E+01  0.10175928485E+01 0.  0.
     999903    2    3    3    0    0  0.11072138071E+00 -0.17351674877E-02 -0.57264153801E-01  0.12596745780E+00  0.18066049935E-01 0.  0.
         14    1    1    2    0    0  0.22748369756E-01  0.12598703034E-01  0.20100635462E-03  0.26004923538E-01  0.00000000000E+00 0.  1.
     999901    1    3    3    0    0 -0.13346975047E+00 -0.10863535546E-01  0.57063147446E-01  0.89195761866E+00  0.88000000000E+00 0. -1.
        -11    1    4    4    0    0  0.88299232316E-01 -0.58214604179E-02 -0.38773337011E-01  0.96614060121E-01  0.51100000000E-03 0. -1.
         11    1    4    4    0    0  0.22422148398E-01  0.40862929302E-02 -0.18490816789E-01  0.29353397678E-01  0.51100000000E-03 0.  1.
</event>
<event>
 8    1  0.1092993E+005  0.1043930E+01  0.7957747E-01            NaN
         13   -1    0    0    0    0  0.00000000000E+00  0.00000000000E+00  0.74505805969E-08  0.10566000000E+00  0.10566000000E+00 0. -1.
     999900   -1    0    0    0    0 -0.00000000000E+00 -0.00000000000E+00 -0.74505805969E-08  0.93827000000E+00  0.93827000000E+00 0.  1.
     999902    2    1    2    0    0  0.64682212576E-02  0.15628314568E-01  0.15300841929E-01  0.10211221534E+01  0.10208674029E+01 0.  0.
     999903    2    3    3    0    0 -0.99862934370E-02 -0.12716114311E+00 -0.47569770647E-02  0.12923544738E+00  0.20235850746E-01 0.  0.
         14    1    1    2    0    0 -0.64682212576E-02 -0.15628314568E-01 -0.15300841929E-01  0.22807846593E-01  0.00000000000E+00 0.  1.
     999901    1    3    3    0    0  0.16454514695E-01  0.14278945768E+00  0.20057818994E-01  0.89188670602E+00  0.88000000000E+00 0. -1.
        -11    1    4    4    0    0 -0.11702161252E-01 -0.73430636835E-01 -0.10789597443E-01  0.75137710492E-01  0.51100000000E-03 0. -1.
         11    1    4    4    0    0  0.17158678154E-02 -0.53730506278E-01  0.60326203785E-02  0.54097736892E-01  0.51100000000E-03 0.  1.
</event>
<event>
 8    1  0.1092993E+005  0.1043930E+01  0.7957747E-01            NaN
         13   -1    0    0    0    0  0.00000000000E+00  0.00000000000E+00  0.74505805969E-08  0.10566000000E+00  0.10566000000E+00 0.  1.
     999900   -1    0    0    0    0 -0.00000000000E+00 -0.00000000000E+00 -0.74505805969E-08  0.93827000000E+00  0.93827000000E+00 0. -1.
     999902    2    1    2    0    0 -0.23679897273E-01  0.26953588668E-02 -0.56389250198E-02  0.10194391860E+01  0.10191449622E+01 0.  0.
     999903    2    3    3    0    0  0.93955215876E-01 -0.76146765823E-01 -0.35552028738E-01  0.12761583229E+00  0.19898275515E-01 0.  0.
         14    1    1    2    0    0  0.23679897273E-01 -0.26953588668E-02  0.56389250198E-02  0.24490813986E-01  0.00000000000E+00 0. -1.
     999901    1    3    3    0    0 -0.11763511315E+00  0.78842124690E-01  0.29913103719E-01  0.89182335372E+00  0.88000000000E+00 0.  1.
        -11    1    4    4    0    0  0.20976630499E-01 -0.18754306940E-01  0.15257175101E-03  0.28142982340E-01  0.51100000000E-03 0.  1.
         11    1    4    4    0    0  0.72978585377E-01 -0.57392458884E-01 -0.35704600489E-01  0.99472849951E-01  0.51100000000E-03 0. -1.
</event>
<event>
 8    1  0.1092993E+005  0.1043930E+01  0.7957747E-01            NaN
         13   -1    0    0    0    0  0.00000000000E+00  0.00000000000E+00  0.74505805969E-08  0.10566000000E+00  0.10566000000E+00 0. -1.
     999900   -1    0    0    0    0 -0.00000000000E+00 -0.00000000000E+00 -0.74505805969E-08  0.93827000000E+00  0.93827000000E+00 0.  1.
     999902    2    1    2    0    0 -0.15787860570E-01 -0.19778253630E-02  0.17690000994E-01  0.10201370500E+01  0.10198595473E+01 0.  0.
     999903    2    3    3    0    0  0.11971867748E+00  0.40389937447E-01 -0.92461948847E-02  0.12835086047E+00  0.20604428630E-01 0.  0.
         14    1    1    2    0    0  0.15787860570E-01  0.19778253630E-02 -0.17690000994E-01  0.23792950001E-01  0.00000000000E+00 0.  1.
     999901    1    3    3    0    0 -0.13550653805E+00 -0.42367762810E-01  0.26936195879E-01  0.89178618953E+00  0.88000000000E+00 0.  1.
        -11    1    4    4    0    0  0.72412894288E-01  0.33055060232E-01 -0.11475535588E-01  0.80425203165E-01  0.51100000000E-03 0.  1.
         11    1    4    4    0    0  0.47305783195E-01  0.73348772146E-02  0.22293407038E-02  0.47925657309E-01  0.51100000000E-03 0. -1.
</event>
<event>
 8    1  0.1092993E+005  0.1043930E+01  0.7957747E-01            NaN
         13   -1    0    0    0    0  0.00000000000E+00  0.00000000000E+00  0.74505805969E-08  0.10566000000E+00  0.10566000000E+00 0.  1.
     999900   -1    0    0    0    0 -0.00000000000E+00 -0.00000000000E+00 -0.74505805969E-08  0.93827000000E+00  0.93827000000E+00 0.  1.
     999902    2    1    2    0    0  0.20623356680E-01 -0.11060933069E-02  0.11089593803E-01  0.10204880424E+01  0.10202187606E+01 0.  0.
     999903    2    3    3    0    0 -0.75398577990E-01  0.84600720554E-01  0.59549641586E-01  0.12980614294E+00  0.21476672245E-01 0.  0.
         14    1    1    2    0    0 -0.20623356680E-01  0.11060933069E-02 -0.11089593803E-01  0.23441957552E-01  0.00000000000E+00 0. -1.
     999901    1    3    3    0    0  0.96021934670E-01 -0.85706813861E-01 -0.48460047783E-01  0.89068189951E+00  0.88000000000E+00 0.  1.
        -11    1    4    4    0    0 -0.39228072425E-01  0.45235140537E-01  0.19384148757E-01  0.62936999846E-01  0.51100000000E-03 0.  1.
         11    1    4    4    0    0 -0.36170505565E-01  0.39365580017E-01  0.40165492829E-01  0.66869143094E-01  0.51100000000E-03 0. -1.
</event>
<event>
 8    1  0.1092993E+005  0.1043930E+01  0.7957747E-01            NaN
         13   -1    0    0    0    0  0.00000000000E+00  0.00000000000E+00  0.74505805969E-08  0.10566000000E+00  0.10566000000E+00 0. -1.
     999900   -1    0    0    0    0 -0.00000000000E+00 -0.00000000000E+00 -0.74505805969E-08  0.93827000000E+00  0.93827000000E+00 0.  1.
     999902    2    1    2    0    0 -0.94526231679E-02  0.21699205468E-01  0.93481103396E-02  0.10184821166E+01  0.10181641454E+01 0.  0.
     999903    2    3    3    0    0  0.85073049933E-01 -0.88272101550E-01  0.23780504105E-01  0.12649720348E+00  0.20165375665E-01 0.  0.
         14    1    1    2    0    0  0.94526231679E-02 -0.21699205468E-01 -0.93481103396E-02  0.25447883402E-01  0.00000000000E+00 0.  1.
     999901    1    3    3    0    0 -0.94525673101E-01  0.10997130702E+00 -0.14432393765E-01  0.89198491312E+00  0.88000000000E+00 0. -1.
        -11    1    4    4    0    0  0.53570228732E-01 -0.63440940884E-01  0.81122334756E-02  0.83430161450E-01  0.51100000000E-03 0. -1.
         11    1    4    4    0    0  0.31502821201E-01 -0.24831160666E-01  0.15668270629E-01  0.43067042029E-01  0.51100000000E-03 0.  1.
</event>
<event>
 8    1  0.1092993E+005  0.1043930E+01  0.7957747E-01            NaN
         13   -1    0    0    0    0  0.00000000000E+00  0.00000000000E+00  0.74505805969E-08  0.10566000000E+00  0.10566000000E+00 0. -1.
     999900   -1    0    0    0    0 -0.00000000000E+00 -0.00000000000E+00 -0.74505805969E-08  0.93827000000E+00  0.93827000000E+00 0. -1.
     999902    2    1    2    0    0  0.14358443744E-01 -0.16898576153E-01 -0.65358626310E-02  0.10208119490E+01  0.10205501413E+01 0.  0.
     999903    2    3    3    0    0  0.44346266389E-01 -0.12516171470E+00 -0.42832675114E-02  0.13366751268E+00  0.14717723859E-01 0.  0.
         14    1    1    2    0    0 -0.14358443744E-01  0.16898576153E-01  0.65358626310E-02  0.23118051022E-01  0.00000000000E+00 0. -1.
     999901    1    3    3    0    0 -0.29987822646E-01  0.10826313855E+00 -0.22525951196E-02  0.88714443630E+00  0.88000000000E+00 0. -1.
        -11    1    4    4    0    0  0.13249862132E-01 -0.43756701376E-01 -0.81305350645E-02  0.46438932839E-01  0.51100000000E-03 0. -1.
         11    1    4    4    0    0  0.31096404257E-01 -0.81405013323E-01  0.38472675530E-02  0.87228579838E-01  0.51100000000E-03 0.  1.
</event>
<event>
 8    1  0.1092993E+005  0.1043930E+01  0.7957747E-01            NaN
         13   -1    0    0    0    0  0.00000000000E+00  0.00000000000E+00  0.74505805969E-08  0.10566000000E+00  0.10566000000E+00 0. -1.
     999900   -1    0    0    0    0 -0.00000000000E+00 -0.00000000000E+00 -0.74505805969E-08  0.93827000000E+00  0.93827000000E+00 0. -1.
     999902    2    1    2    0    0 -0.16461561478E-01  0.12448055300E-01  0.16410927510E-01  0.10175622995E+01  0.10172206141E+01 0.  0.
     999903    2    3    3    0    0  0.80636003791E-01  0.37900606950E-01 -0.86600377618E-01  0.12588573341E+00  0.20223040250E-01 0.  0.
         14    1    1    2    0    0  0.16461561478E-01 -0.12448055300E-01 -0.16410927510E-01  0.26367700484E-01  0.00000000000E+00 0.  1.
     999901    1    3    3    0    0 -0.97097565269E-01 -0.25452551650E-01  0.10301130513E+00  0.89167656611E+00  0.88000000000E+00 0. -1.
        -11    1    4    4    0    0  0.42306270894E-01  0.98845986220E-02 -0.35257857565E-01  0.55954476925E-01  0.51100000000E-03 0.  1.
         11    1    4    4    0    0  0.38329732897E-01  0.28016008328E-01 -0.51342520052E-01  0.69931256481E-01  0.51100000000E-03 0. -1.
</event>
<event>
 8    1  0.1092993E+005  0.1043930E+01  0.7957747E-01            NaN
         13   -1    0    0    0    0  0.00000000000E+00  0.00000000000E+00  0.74505805969E-08  0.10566000000E+00  0.10566000000E+00 0. -1.
     999900   -1    0    0    0    0 -0.00000000000E+00 -0.00000000000E+00 -0.74505805969E-08  0.93827000000E+00  0.93827000000E+00 0. -1.
     999902    2    1    2    0    0  0.16566901417E-01  0.17502395981E-02  0.16860314436E-01  0.10202277688E+01  0.10199524030E+01 0.  0.
     999903    2    3    3    0    0 -0.82041647756E-01  0.52172371172E-02 -0.95450689676E-01  0.12761955256E+00  0.20441734443E-01 0.  0.
         14    1    1    2    0    0 -0.16566901417E-01 -0.17502395981E-02 -0.16860314436E-01  0.23702231205E-01  0.00000000000E+00 0.  1.
     999901    1    3    3    0    0  0.98608549173E-01 -0.34669975190E-02  0.11231100411E+00  0.89260821623E+00  0.88000000000E+00 0.  1.
        -11    1    4    4    0    0 -0.32744296037E-01  0.10954219121E-01 -0.32153230763E-01  0.47183420912E-01  0.51100000000E-03 0. -1.
         11    1    4    4    0    0 -0.49297351719E-01 -0.57369820034E-02 -0.63297458913E-01  0.80436131651E-01  0.51100000000E-03 0.  1.
</event>
<event>
 8    1  0.1092993E+005  0.1043930E+01  0.7957747E-01            NaN
         13   -1    0    0    0    0  0.00000000000E+00  0.00000000000E+00  0.74505805969E-08  0.10566000000E+00  0.10566000000E+00 0. -1.
     999900   -1    0    0    0    0 -0.00000000000E+00 -0.00000000000E+00 -0.74505805969E-08  0.93827000000E+00  0.93827000000E+00 0.  1.
     999902    2    1    2    0    0 -0.21524945296E-01 -0.37529880920E-02 -0.88484361156E-02  0.10203566462E+01  0.10200843016E+01 0.  0.
     999903    2    3    3    0    0 -0.37975268738E-01  0.10251363793E+00  0.68470972367E-01  0.13044569563E+00  0.19407175343E-01 0.  0.
         14    1    1    2    0    0  0.21524945296E-01  0.37529880920E-02  0.88484361156E-02  0.23573353841E-01  0.00000000000E+00 0. -1.
     999901    1    3    3    0    0  0.16450323442E-01 -0.10626662602E+00 -0.77319408483E-01  0.88991095053E+00  0.88000000000E+00 0.  1.
        -11    1    4    4    0    0 -0.23477422536E-01  0.83302476340E-01  0.48808676555E-01  0.99363172057E-01  0.51100000000E-03 0. -1.
         11    1    4    4    0    0 -0.14497846201E-01  0.19211161585E-01  0.19662295812E-01  0.31082523571E-01  0.51100000000E-03 0.  1.
</event>
<event>
 8    1  0.1092993E+005  0.1043930E+01  0.7957747E-01            NaN
         13   -1    0    0    0    0  0.00000000000E+00  0.00000000000E+00  0.74505805969E-08  0.10566000000E+00  0.10566000000E+00 0.  1.
     999900   -1    0    0    0    0 -0.00000000000E+00 -0.00000000000E+00 -0.74505805969E-08  0.93827000000E+00  0.93827000000E+00 0. -1.
     999902    2    1    2    0    0 -0.22223832798E-01 -0.75899578718E-02 -0.49370002816E-02  0.10199324965E+01  0.10196501445E+01 0.  0.
     999903    2    3    3    0    0  0.66339195375E-01  0.26564383359E-01  0.10460486884E+00  0.12807524887E+00  0.18829112614E-01 0.  0.
         14    1    1    2    0    0  0.22223832798E-01  0.75899578718E-02  0.49370002816E-02  0.23997503547E-01  0.00000000000E+00 0.  1.
     999901    1    3    3    0    0 -0.88563028172E-01 -0.34154341231E-01 -0.10954186912E+00  0.89185724759E+00  0.88000000000E+00 0. -1.
        -11    1    4    4    0    0  0.12525500202E-01 -0.24067029573E-02  0.17091636235E-01  0.21332264874E-01  0.51100000000E-03 0. -1.
         11    1    4    4    0    0  0.53813695172E-01  0.28971086317E-01  0.87513232600E-01  0.10674298399E+00  0.51100000000E-03 0.  1.
</event>
<event>
 8    1  0.1092993E+005  0.1043930E+01  0.7957747E-01            NaN
         13   -1    0    0    0    0  0.00000000000E+00  0.00000000000E+00  0.74505805969E-08  0.10566000000E+00  0.10566000000E+00 0.  1.
     999900   -1    0    0    0    0 -0.00000000000E+00 -0.00000000000E+00 -0.74505805969E-08  0.93827000000E+00  0.93827000000E+00 0.  1.
     999902    2    1    2    0    0 -0.17559148924E-01  0.14786037509E-01 -0.59633633838E-02  0.10202126578E+01  0.10199369367E+01 0.  0.
     999903    2    3    3    0    0  0.87360225398E-01 -0.79465806008E-01 -0.45230874199E-01  0.12811769512E+00  0.20535055763E-01 0.  0.
         14    1    1    2    0    0  0.17559148924E-01 -0.14786037509E-01  0.59633633838E-02  0.23717342157E-01  0.00000000000E+00 0. -1.
     999901    1    3    3    0    0 -0.10491937432E+00  0.94251843517E-01  0.39267510815E-01  0.89209496273E+00  0.88000000000E+00 0.  1.
        -11    1    4    4    0    0  0.55225443517E-01 -0.62098272011E-01 -0.35059046130E-01  0.90196689712E-01  0.51100000000E-03 0.  1.
         11    1    4    4    0    0  0.32134781881E-01 -0.17367533997E-01 -0.10171828069E-01  0.37921005405E-01  0.51100000000E-03 0. -1.
</event>
<event>
 8    1  0.1092993E+005  0.1043930E+01  0.7957747E-01            NaN
         13   -1    0    0    0    0  0.00000000000E+00  0.00000000000E+00  0.74505805969E-08  0.10566000000E+00  0.10566000000E+00 0.  1.
     999900   -1    0    0    0    0 -0.00000000000E+00 -0.00000000000E+00 -0.74505805969E-08  0.93827000000E+00  0.93827000000E+00 0. -1.
     999902    2    1    2    0    0 -0.26430100144E-02  0.14929966632E-01  0.17585242847E-01  0.10207108232E+01  0.10204466936E+01 0.  0.
     999903    2    3    3    0    0 -0.10646290284E+00  0.57016773991E-01 -0.47076967623E-01  0.13125533192E+00  0.20650885665E-01 0.  0.
         14    1    1    2    0    0  0.26430100144E-02 -0.14929966632E-01 -0.17585242847E-01  0.23219176807E-01  0.00000000000E+00 0. -1.
     999901    1    3    3    0    0  0.10381989282E+00 -0.42086807358E-01  0.64662210470E-01  0.88945549128E+00  0.88000000000E+00 0. -1.
        -11    1    4    4    0    0 -0.39789263307E-01  0.21849482896E-01 -0.28558765011E-01  0.53632541962E-01  0.51100000000E-03 0. -1.
         11    1    4    4    0    0 -0.66673639532E-01  0.35167291095E-01 -0.18518202612E-01  0.77622789955E-01  0.51100000000E-03 0.  1.
</event>
<event>
 8    1  0.1092993E+005  0.1043930E+01  0.7957747E-01            NaN
         13   -1    0    0    0    0  0.00000000000E+00  0.00000000000E+00  0.74505805969E-08  0.10566000000E+00  0.10566000000E+00 0. -1.
     999900   -1    0    0    0    0 -0.00000000000E+00 -0.00000000000E+00 -0.74505805969E-08  0.93827000000E+00  0.93827000000E+00 0.  1.
     999902    2    1    2    0    0  0.13305259479E-01  0.61521505440E-02  0.17134252065E-01  0.10213809096E+01  0.10211319704E+01 0.  0.
     999903    2    3    3    0    0  0.34659710331E-01 -0.34235832237E-01 -0.11988087929E+00  0.12960720062E+00  0.72947586389E-02 0.  0.
         14    1    1    2    0    0 -0.13305259479E-01 -0.61521505440E-02 -0.17134252065E-01  0.22549090446E-01  0.00000000000E+00 0.  1.
     999901    1    3    3    0    0 -0.21354450852E-01  0.40387982781E-01  0.13701513136E+00  0.89177370893E+00  0.88000000000E+00 0. -1.
        -11    1    4    4    0    0  0.20115764374E-01 -0.20880468521E-01 -0.80209933490E-01  0.85290869931E-01  0.51100000000E-03 0.  1.
         11    1    4    4    0    0  0.14543945957E-01 -0.13355363716E-01 -0.39670945802E-01  0.44316330690E-01  0.51100000000E-03 0. -1.
</event>
<event>
 7    1  0.1092993E+005  0.1043930E+01  0.7957747E-01            NaN
         13   -1    0    0    0    0  0.00000000000E+00  0.00000000000E+00  0.74505805969E-08  0.10566000000E+00  0.10566000000E+00 0.  1.
     999900   -1    0    0    0    0 -0.00000000000E+00 -0.00000000000E+00 -0.74505805969E-08  0.93827000000E+00  0.93827000000E+00 0. -1.
     999903    2    1    2    0    0  0.41743971359E-01 -0.53557245444E-01  0.74183573004E-01  0.10247474024E+00  0.19670592240E-01 0.  0.
         14    1    1    2    0    0  0.26887347184E-01  0.15946329688E-01  0.39855382128E-01  0.50652407185E-01  0.00000000000E+00 0.  1.
     999901    1    1    2    0    0 -0.68631318543E-01  0.37610915756E-01 -0.11403895513E+00  0.89080285258E+00  0.88000000000E+00 0. -1.
        -11    1    3    3    0    0  0.57315926594E-02 -0.10085876093E-02  0.12505923730E-01  0.13803175458E-01  0.51100000000E-03 0. -1.
         11    1    3    3    0    0  0.36012378699E-01 -0.52548657834E-01  0.61677649275E-01  0.88671564781E-01  0.51100000000E-03 0.  1.
</event>
<event>
 8    1  0.1092993E+005  0.1043930E+01  0.7957747E-01            NaN
         13   -1    0    0    0    0  0.00000000000E+00  0.00000000000E+00  0.74505805969E-08  0.10566000000E+00  0.10566000000E+00 0. -1.
     999900   -1    0    0    0    0 -0.00000000000E+00 -0.00000000000E+00 -0.74505805969E-08  0.93827000000E+00  0.93827000000E+00 0.  1.
     999902    2    1    2    0    0 -0.11611626715E-01  0.71047375569E-02 -0.18393585145E-01  0.10210470119E+01  0.10207905610E+01 0.  0.
     999903    2    3    3    0    0  0.95909172863E-01 -0.30220902986E-01 -0.82251656661E-01  0.13142249610E+00  0.19866178316E-01 0.  0.
         14    1    1    2    0    0  0.11611626715E-01 -0.71047375569E-02  0.18393585145E-01  0.22882988118E-01  0.00000000000E+00 0. -1.
     999901    1    3    3    0    0 -0.10752079958E+00  0.37325640543E-01  0.63858071515E-01  0.88962451578E+00  0.88000000000E+00 0. -1.
        -11    1    4    4    0    0  0.45895200873E-01 -0.68682016764E-02 -0.29008260883E-01  0.54729169351E-01  0.51100000000E-03 0.  1.
         11    1    4    4    0    0  0.50013971990E-01 -0.23352701309E-01 -0.53243395777E-01  0.76693326748E-01  0.51100000000E-03 0. -1.
</event>
<event>
 8    1  0.1092993E+005  0.1043930E+01  0.7957747E-01            NaN
         13   -1    0    0    0    0  0.00000000000E+00  0.00000000000E+00  0.74505805969E-08  0.10566000000E+00  0.10566000000E+00 0.  1.
     999900   -1    0    0    0    0 -0.00000000000E+00 -0.00000000000E+00 -0.74505805969E-08  0.93827000000E+00  0.93827000000E+00 0. -1.
     999902    2    1    2    0    0  0.10114597529E-01  0.20960760192E-01 -0.76213761497E-03  0.10206439655E+01  0.10203782950E+01 0.  0.
     999903    2    3    3    0    0 -0.50586288384E-01  0.10256952425E+00  0.64174855576E-01  0.13240897346E+00  0.18282349103E-01 0.  0.
         14    1    1    2    0    0 -0.10114597529E-01 -0.20960760192E-01  0.76213761497E-03  0.23286034543E-01  0.00000000000E+00 0.  1.
     999901    1    3    3    0    0  0.60700885913E-01 -0.81608764054E-01 -0.64936993191E-01  0.88823499200E+00  0.88000000000E+00 0. -1.
        -11    1    4    4    0    0 -0.48210894177E-01  0.82848407300E-01  0.51140358104E-01  0.10864504709E+00  0.51100000000E-03 0. -1.
         11    1    4    4    0    0 -0.23753942070E-02  0.19721116945E-01  0.13034497472E-01  0.23763926371E-01  0.51100000000E-03 0.  1.
</event>
<event>
 8    1  0.1092993E+005  0.1043930E+01  0.7957747E-01            NaN
         13   -1    0    0    0    0  0.00000000000E+00  0.00000000000E+00  0.74505805969E-08  0.10566000000E+00  0.10566000000E+00 0.  1.
     999900   -1    0    0    0    0 -0.00000000000E+00 -0.00000000000E+00 -0.74505805969E-08  0.93827000000E+00  0.93827000000E+00 0.  1.
     999902    2    1    2    0    0 -0.97991445446E-02  0.51159615174E-02  0.17593695618E-01  0.10231517801E+01  0.10229407758E+01 0.  0.
     999903    2    3    3    0    0 -0.92375716223E-01 -0.86009760517E-01 -0.36369321409E-01  0.13296371313E+00  0.20631762321E-01 0.  0.
         14    1    1    2    0    0  0.97991445446E-02 -0.51159615174E-02 -0.17593695618E-01  0.20778219884E-01  0.00000000000E+00 0. -1.
     999901    1    3    3    0    0  0.82576571678E-01  0.91125722035E-01  0.53963017026E-01  0.89018806699E+00  0.88000000000E+00 0. -1.
        -11    1    4    4    0    0 -0.45400086482E-01 -0.38725815559E-01 -0.27554368049E-01  0.65729452781E-01  0.51100000000E-03 0. -1.
         11    1    4    4    0    0 -0.46975629740E-01 -0.47283944958E-01 -0.88149533594E-02  0.67234260344E-01  0.51100000000E-03 0.  1.
</event>
<event>
 8    1  0.1092993E+005  0.1043930E+01  0.7957747E-01            NaN
         13   -1    0    0    0    0  0.00000000000E+00  0.00000000000E+00  0.74505805969E-08  0.10566000000E+00  0.10566000000E+00 0.  1.
     999900   -1    0    0    0    0 -0.00000000000E+00 -0.00000000000E+00 -0.74505805969E-08  0.93827000000E+00  0.93827000000E+00 0.  1.
     999902    2    1    2    0    0  0.67154289385E-02 -0.19659800929E-01  0.11439830573E-01  0.10202134555E+01  0.10199377532E+01 0.  0.
     999903    2    3    3    0    0 -0.58827272178E-03 -0.35879651405E-01  0.12609213149E+00  0.13259778548E+00  0.19880936607E-01 0.  0.
         14    1    1    2    0    0 -0.67154289385E-02  0.19659800929E-01 -0.11439830573E-01  0.23716544477E-01  0.00000000000E+00 0. -1.
     999901    1    3    3    0    0  0.73037016603E-02  0.16219850477E-01 -0.11465230091E+00  0.88761567005E+00  0.88000000000E+00 0.  1.
        -11    1    4    4    0    0 -0.71096221396E-02 -0.37263673149E-02  0.29923717052E-01  0.30985843599E-01  0.51100000000E-03 0.  1.
         11    1    4    4    0    0  0.65213494178E-02 -0.32153284090E-01  0.96168414435E-01  0.10161194188E+00  0.51100000000E-03 0. -1.
</event>
<event>
 8    1  0.1092993E+005  0.1043930E+01  0.7957747E-01            NaN
         13   -1    0    0    0    0  0.00000000000E+00  0.00000000000E+00  0.74505805969E-08  0.10566000000E+00  0.10566000000E+00 0. -1.
     999900   -1    0    0    0    0 -0.00000000000E+00 -0.00000000000E+00 -0.74505805969E-08  0.93827000000E+00  0.93827000000E+00 0.  1.
     999902    2    1    2    0    0 -0.20033529109E-01  0.52754475740E-02 -0.11198023122E-01  0.10203807249E+01  0.10201089429E+01 0.  0.
     999903    2    3    3    0    0 -0.69323544291E-02 -0.11185937265E+00  0.61589500496E-01  0.12954391017E+00  0.20682874681E-01 0.  0.
         14    1    1    2    0    0  0.20033529109E-01 -0.52754475740E-02  0.11198023122E-01  0.23549275096E-01  0.00000000000E+00 0.  1.
     999901    1    3    3    0    0 -0.13101174680E-01  0.11713482022E+00 -0.72787523618E-01  0.89083681473E+00  0.88000000000E+00 0.  1.
        -11    1    4    4    0    0 -0.11171888585E-01 -0.94640486926E-01  0.45540292325E-01  0.10562107842E+00  0.51100000000E-03 0.  1.
         11    1    4    4    0    0  0.42395341556E-02 -0.17218885719E-01  0.16049208171E-01  0.23922831755E-01  0.51100000000E-03 0. -1.
</event>
<event>
 8    1  0.1092993E+005  0.1043930E+01  0.7957747E-01            NaN
         13   -1    0    0    0    0  0.00000000000E+00  0.00000000000E+00  0.74505805969E-08  0.10566000000E+00  0.10566000000E+00 0. -1.
     999900   -1    0    0    0    0 -0.00000000000E+00 -0.00000000000E+00 -0.74505805969E-08  0.93827000000E+00  0.93827000000E+00 0. -1.
     999902    2    1    2    0    0 -0.11716067656E-01 -0.14737527576E-01  0.15194802886E-01  0.10197361372E+01  0.10194490898E+01 0.  0.
     999903    2    3    3    0    0 -0.23656217290E-01  0.10106116237E+00 -0.72228076036E-01  0.12777500383E+00  0.18346157086E-01 0.  0.
         14    1    1    2    0    0  0.11716067656E-01  0.14737527576E-01 -0.15194802886E-01  0.24193862757E-01  0.00000000000E+00 0.  1.
     999901    1    3    3    0    0  0.11940149634E-01 -0.11579868994E+00  0.87422878922E-01  0.89196113342E+00  0.88000000000E+00 0.  1.
        -11    1    4    4    0    0 -0.17800203667E-01  0.44372480480E-01 -0.26222948256E-01  0.54531352548E-01  0.51100000000E-03 0.  1.
         11    1    4    4    0    0 -0.58560136234E-02  0.56688681887E-01 -0.46005127780E-01  0.73243651279E-01  0.51100000000E-03 0. -1.
</event>
<event>
 8    1  0.1092993E+005  0.1043930E+01  0.7957747E-01            NaN
         13   -1    0    0    0    0  0.00000000000E+00  0.00000000000E+00  0.74505805969E-08  0.10566000000E+00  0.10566000000E+00 0. -1.
     999900   -1    0    0    0    0 -0.00000000000E+00 -0.00000000000E+00 -0.74505805969E-08  0.93827000000E+00  0.93827000000E+00 0. -1.
     999902    2    1    2    0    0  0.19235612335E-01  0.47234241995E-02  0.12291053406E-01  0.10206192833E+01  0.10203530428E+01 0.  0.
     999903    2    3    3    0    0 -0.10409932682E+00  0.62609928513E-01 -0.36625294686E-01  0.12879241464E+00  0.22122406413E-01 0.  0.
         14    1    1    2    0    0 -0.19235612335E-01 -0.47234241995E-02 -0.12291053406E-01  0.23310716675E-01  0.00000000000E+00 0.  1.
     999901    1    3    3    0    0  0.12333493915E+00 -0.57886504313E-01  0.48916348092E-01  0.89182686868E+00  0.88000000000E+00 0.  1.
        -11    1    4    4    0    0 -0.31614931399E-01  0.30261193668E-01 -0.17561539282E-01  0.47158376907E-01  0.51100000000E-03 0.  1.
         11    1    4    4    0    0 -0.72484395421E-01  0.32348734845E-01 -0.19063755403E-01  0.81634037733E-01  0.51100000000E-03 0. -1.
</event>
<event>
 8    1  0.1092993E+005  0.1043930E+01  0.7957747E-01            NaN
         13   -1    0    0    0    0  0.00000000000E+00  0.00000000000E+00  0.74505805969E-08  0.10566000000E+00  0.10566000000E+00 0.  1.
     999900   -1    0    0    0    0 -0.00000000000E+00 -0.00000000000E+00 -0.74505805969E-08  0.93827000000E+00  0.93827000000E+00 0.  1.
     999902    2    1    2    0    0 -0.17469653486E-01  0.25335195169E-02  0.17052216674E-01  0.10193864549E+01  0.10190909472E+01 0.  0.
     999903    2    3    3    0    0  0.22768601992E-01  0.10124310516E+00  0.77721614282E-01  0.13088013789E+00  0.17899318116E-01 0.  0.
         14    1    1    2    0    0  0.17469653486E-01 -0.25335195169E-02 -0.17052216674E-01  0.24543545130E-01  0.00000000000E+00 0. -1.
     999901    1    3    3    0    0 -0.40238255478E-01 -0.98709585643E-01 -0.60669397608E-01  0.88850631698E+00  0.88000000000E+00 0.  1.
        -11    1    4    4    0    0  0.13002814404E-01  0.43497961690E-01  0.23762056868E-01  0.51244924834E-01  0.51100000000E-03 0.  1.
         11    1    4    4    0    0  0.97657875876E-02  0.57745143470E-01  0.53959557414E-01  0.79635213059E-01  0.51100000000E-03 0. -1.
</event>
<event>
 8    1  0.1092993E+005  0.1043930E+01  0.7957747E-01            NaN
         13   -1    0    0    0    0  0.00000000000E+00  0.00000000000E+00  0.74505805969E-08  0.10566000000E+00  0.10566000000E+00 0. -1.
     999900   -1    0    0    0    0 -0.00000000000E+00 -0.00000000000E+00 -0.74505805969E-08  0.93827000000E+00  0.93827000000E+00 0. -1.
     999902    2    1    2    0    0  0.31235905593E-02  0.10089826510E-01 -0.20817764406E-01  0.10205860344E+01  0.10203190250E+01 0.  0.
     999903    2    3    3    0    0  0.22195833480E-02 -0.11871495306E+00 -0.50870466382E-01  0.13070140511E+00  0.19922005879E-01 0.  0.
         14    1    1    2    0    0 -0.31235905593E-02 -0.10089826510E-01  0.20817764406E-01  0.23343965641E-01  0.00000000000E+00 0. -1.
     999901    1    3    3    0    0  0.90400721127E-03  0.12880477957E+00  0.30052701977E-01  0.88988462924E+00  0.88000000000E+00 0.  1.
        -11    1    4    4    0    0 -0.75416782110E-02 -0.36182736088E-01 -0.11297528903E-01  0.38651812136E-01  0.51100000000E-03 0.  1.
         11    1    4    4    0    0  0.97612615590E-02 -0.82532216974E-01 -0.39572937479E-01  0.92049592979E-01  0.51100000000E-03 0. -1.
</event>
<event>
 8    1  0.1092993E+005  0.1043930E+01  0.7957747E-01            NaN
         13   -1    0    0    0    0  0.00000000000E+00  0.00000000000E+00  0.74505805969E-08  0.10566000000E+00  0.10566000000E+00 0.  1.
     999900   -1    0    0    0    0 -0.00000000000E+00 -0.00000000000E+00 -0.74505805969E-08  0.93827000000E+00  0.93827000000E+00 0.  1.
     999902    2    1    2    0    0 -0.90440954521E-02 -0.20308862579E-01  0.99518319929E-02  0.10195725674E+01  0.10192815782E+01 0.  0.
     999903    2    3    3    0    0  0.69845324808E-01 -0.75187024806E-01 -0.77323787322E-01  0.13004899435E+00  0.20057785261E-01 0.  0.
         14    1    1    2    0    0  0.90440954521E-02  0.20308862579E-01 -0.99518319929E-02  0.24357432578E-01  0.00000000000E+00 0. -1.
     999901    1    3    3    0    0 -0.78889420260E-01  0.54878162228E-01  0.87275619315E-01  0.88952357307E+00  0.88000000000E+00 0. -1.
        -11    1    4    4    0    0  0.55426001051E-01 -0.49909920457E-01 -0.47792641584E-01  0.88585774609E-01  0.51100000000E-03 0.  1.
         11    1    4    4    0    0  0.14419323757E-01 -0.25277104350E-01 -0.29531145738E-01  0.41463219744E-01  0.51100000000E-03 0. -1.
</event>
<event>
 8    1  0.1092993E+005  0.1043930E+01  0.7957747E-01            NaN
         13   -1    0    0    0    0  0.00000000000E+00  0.00000000000E+00  0.74505805969E-08  0.10566000000E+00  0.10566000000E+00 0.  1.
     999900   -1    0    0    0    0 -0.00000000000E+00 -0.00000000000E+00 -0.74505805969E-08  0.93827000000E+00  0.93827000000E+00 0. -1.
     999902    2    1    2    0    0  0.22423274311E-01  0.79527806905E-02 -0.21129624334E-02  0.10200445533E+01  0.10197648632E+01 0.  0.
     999903    2    3    3    0    0 -0.49489344508E-01 -0.11638514872E+00  0.73312617877E-02  0.12834923610E+00  0.20617491228E-01 0.  0.
         14    1    1    2    0    0 -0.22423274311E-01 -0.79527806905E-02  0.21129624334E-02  0.23885446652E-01  0.00000000000E+00 0.  1.
     999901    1    3    3    0    0  0.71912618819E-01  0.12433792941E+00 -0.94442242211E-02  0.89169531725E+00  0.88000000000E+00 0.  1.
        -11    1    4    4    0    0 -0.50481818396E-01 -0.10593694922E+00  0.90594333564E-02  0.11770040633E+00  0.51100000000E-03 0.  1.
         11    1    4    4    0    0  0.99247388771E-03 -0.10448199506E-01 -0.17281715688E-02  0.10648829762E-01  0.51100000000E-03 0. -1.
</event>
<event>
 8    1  0.1092993E+005  0.1043930E+01  0.7957747E-01            NaN
         13   -1    0    0    0    0  0.00000000000E+00  0.00000000000E+00  0.74505805969E-08  0.10566000000E+00  0.10566000000E+00 0. -1.
     999900   -1    0    0    0    0 -0.00000000000E+00 -0.00000000000E+00 -0.74505805969E-08  0.93827000000E+00  0.93827000000E+00 0. -1.
     999902    2    1    2    0    0  0.82831288580E-02  0.20381947798E-01 -0.12080807631E-01  0.10188305990E+01  0.10185213839E+01 0.  0.
     999903    2    3    3    0    0  0.39128627519E-01  0.92176878732E-01  0.81310536319E-01  0.13044560357E+00  0.19417149916E-01 0.  0.
         14    1    1    2    0    0 -0.82831288580E-02 -0.20381947798E-01  0.12080807631E-01  0.25099401044E-01  0.00000000000E+00 0.  1.
     999901    1    3    3    0    0 -0.30845498661E-01 -0.71794930934E-01 -0.93391343951E-01  0.88838499538E+00  0.88000000000E+00 0. -1.
        -11    1    4    4    0    0  0.41070061755E-01  0.85600987331E-01  0.77663000787E-01  0.12266247110E+00  0.51100000000E-03 0.  1.
         11    1    4    4    0    0 -0.19414342360E-02  0.65758914018E-02  0.36475355323E-02  0.77831324723E-02  0.51100000000E-03 0. -1.
</event>
<event>
 8    1  0.1092993E+005  0.1043930E+01  0.7957747E-01            NaN
         13   -1    0    0    0    0  0.00000000000E+00  0.00000000000E+00  0.74505805969E-08  0.10566000000E+00  0.10566000000E+00 0.  1.
     999900   -1    0    0    0    0 -0.00000000000E+00 -0.00000000000E+00 -0.74505805969E-08  0.93827000000E+00  0.93827000000E+00 0.  1.
     999902    2    1    2    0    0 -0.21077531145E-01 -0.45893885220E-02  0.12088743930E-01  0.10192022315E+01  0.10189022162E+01 0.  0.
     999903    2    3    3    0    0  0.62407250855E-01 -0.87079477656E-01  0.70323911001E-01  0.12950247408E+00  0.18653094820E-01 0.  0.
         14    1    1    2    0    0  0.21077531145E-01  0.45893885220E-02 -0.12088743930E-01  0.24727768520E-01  0.00000000000E+00 0.  1.
     999901    1    3    3    0    0 -0.83484782001E-01  0.82490089134E-01 -0.58235167071E-01  0.88969975740E+00  0.88000000000E+00 0. -1.
        -11    1    4    4    0    0  0.13230690851E-01 -0.15662890069E-01  0.22624761219E-01  0.30537161737E-01  0.51100000000E-03 0. -1.
         11    1    4    4    0    0  0.49176560005E-01 -0.71416587587E-01  0.47699149782E-01  0.98965312345E-01  0.51100000000E-03 0.  1.
</event>
<event>
 8    1  0.1092993E+005  0.1043930E+01  0.7957747E-01            NaN
         13   -1    0    0    0    0  0.00000000000E+00  0.00000000000E+00  0.74505805969E-08  0.10566000000E+00  0.10566000000E+00 0.  1.
     999900   -1    0    0    0    0 -0.00000000000E+00 -0.00000000000E+00 -0.74505805969E-08  0.93827000000E+00  0.93827000000E+00 0. -1.
     999902    2    1    2    0    0 -0.17046233575E-04  0.97660745759E-03  0.35037376803E-01  0.10088790111E+01  0.10082699475E+01 0.  0.
     999903    2    3    3    0    0 -0.30022137979E-01 -0.96177906732E-01 -0.58540017968E-01  0.11809506757E+00  0.19183137624E-01 0.  0.
         14    1    1    2    0    0  0.17046233575E-04 -0.97660745759E-03 -0.35037376803E-01  0.35050988943E-01  0.00000000000E+00 0. -1.
     999901    1    3    3    0    0  0.30005091745E-01  0.97154514189E-01  0.93577394770E-01  0.89078394348E+00  0.88000000000E+00 0.  1.
        -11    1    4    4    0    0 -0.29362153917E-01 -0.71568328971E-01 -0.38847233097E-01  0.86565180267E-01  0.51100000000E-03 0. -1.
         11    1    4    4    0    0 -0.65998406146E-03 -0.24609577761E-01 -0.19692784870E-01  0.31529887305E-01  0.51100000000E-03 0.  1.
</event>
<event>
 8    1  0.1092993E+005  0.1043930E+01  0.7957747E-01            NaN
         13   -1    0    0    0    0  0.00000000000E+00  0.00000000000E+00  0.74505805969E-08  0.10566000000E+00  0.10566000000E+00 0.  1.
     999900   -1    0    0    0    0 -0.00000000000E+00 -0.00000000000E+00 -0.74505805969E-08  0.93827000000E+00  0.93827000000E+00 0.  1.
     999902    2    1    2    0    0 -0.10564858097E-01  0.19786946019E-01  0.39917224694E-02  0.10211468196E+01  0.10208926261E+01 0.  0.
     999903    2    3    3    0    0  0.59461610874E-01 -0.30844145044E-01 -0.10918269824E+00  0.12970099220E+00  0.20357832232E-01 0.  0.
         14    1    1    2    0    0  0.10564858097E-01 -0.19786946019E-01 -0.39917224694E-02  0.22783180367E-01  0.00000000000E+00 0. -1.
     999901    1    3    3    0    0 -0.70026468972E-01  0.50631091063E-01  0.11317442071E+00  0.89144582743E+00  0.88000000000E+00 0. -1.
        -11    1    4    4    0    0  0.19981184024E-01 -0.19980576275E-03 -0.29201784250E-01  0.35387751578E-01  0.51100000000E-03 0.  1.
         11    1    4    4    0    0  0.39480426850E-01 -0.30644339281E-01 -0.79980913986E-01  0.94313240626E-01  0.51100000000E-03 0. -1.
</event>
<event>
 8    1  0.1092993E+005  0.1043930E+01  0.7957747E-01            NaN
         13   -1    0    0    0    0  0.00000000000E+00  0.00000000000E+00  0.74505805969E-08  0.10566000000E+00  0.10566000000E+00 0. -1.
     999900   -1    0    0    0    0 -0.00000000000E+00 -0.00000000000E+00 -0.74505805969E-08  0.93827000000E+00  0.93827000000E+00 0. -1.
     999902    2    1    2    0    0 -0.21049314815E-01 -0.16839852086E-02  0.11051032343E-01  0.10200965198E+01  0.10198180598E+01 0.  0.
     999903    2    3    3    0    0  0.42527388032E-01 -0.12099151497E+00  0.12151742872E-02  0.12971849456E+00  0.19439283803E-01 0.  0.
         14    1    1    2    0    0  0.21049314815E-01  0.16839852086E-02 -0.11051032343E-01  0.23833480153E-01  0.00000000000E+00 0. -1.
     999901    1    3    3    0    0 -0.63576702847E-01  0.11930752977E+00  0.98358580557E-02  0.89037802528E+00  0.88000000000E+00 0.  1.
        -11    1    4    4    0    0  0.68564472818E-03 -0.23962160976E-01  0.18510892830E-02  0.24048761296E-01  0.51100000000E-03 0.  1.
         11    1    4    4    0    0  0.41841743304E-01 -0.97029353998E-01 -0.63591499584E-03  0.10566973327E+00  0.51100000000E-03 0. -1.
</event>
<event>
 8    1  0.1092993E+005  0.1043930E+01  0.7957747E-01            NaN
         13   -1    0    0    0    0  0.00000000000E+00  0.00000000000E+00  0.74505805969E-08  0.10566000000E+00  0.10566000000E+00 0. -1.
     999900   -1    0    0    0    0 -0.00000000000E+00 -0.00000000000E+00 -0.74505805969E-08  0.93827000000E+00  0.93827000000E+00 0. -1.
     999902    2    1    2    0    0 -0.99812724400E-02 -0.21475519567E-03  0.21849765005E-01  0.10199074242E+01  0.10196244748E+01 0.  0.
     999903    2    3    3    0    0  0.63137866299E-01 -0.69936640177E-01  0.89004362668E-01  0.13158468456E+00  0.22698652764E-01 0.  0.
         14    1    1    2    0    0  0.99812724400E-02  0.21475519567E-03 -0.21849765005E-01  0.24022575843E-01  0.00000000000E+00 0.  1.
     999901    1    3    3    0    0 -0.73119138739E-01  0.69721884982E-01 -0.67154597662E-01  0.88832273960E+00  0.88000000000E+00 0. -1.
        -11    1    4    4    0    0  0.35073678159E-01 -0.28334724645E-01  0.54234317515E-01  0.70531140907E-01  0.51100000000E-03 0.  1.
         11    1    4    4    0    0  0.28064188140E-01 -0.41601915533E-01  0.34770045153E-01  0.61053543655E-01  0.51100000000E-03 0. -1.
</event>
<event>
 8    1  0.1092993E+005  0.1043930E+01  0.7957747E-01            NaN
         13   -1    0    0    0    0  0.00000000000E+00  0.00000000000E+00  0.74505805969E-08  0.10566000000E+00  0.10566000000E+00 0.  1.
     999900   -1    0    0    0    0 -0.00000000000E+00 -0.00000000000E+00 -0.74505805969E-08  0.93827000000E+00  0.93827000000E+00 0.  1.
     999902    2    1    2    0    0 -0.21109531362E-01 -0.11082475053E-01  0.34672375201E-02  0.10198373600E+01  0.10195527380E+01 0.  0.
     999903    2    3    3    0    0 -0.71711819736E-01 -0.72161035883E-01  0.82921918727E-01  0.13270477205E+00  0.19614069697E-01 0.  0.
         14    1    1    2    0    0  0.21109531362E-01  0.11082475053E-01 -0.34672375201E-02  0.24092640031E-01  0.00000000000E+00 0. -1.
     999901    1    3    3    0    0  0.50602288374E-01  0.61078560830E-01 -0.79454681207E-01  0.88713258792E+00  0.88000000000E+00 0.  1.
        -11    1    4    4    0    0 -0.19854759294E-01 -0.30629877192E-01  0.36728032044E-01  0.51784266937E-01  0.51100000000E-03 0. -1.
         11    1    4    4    0    0 -0.51857060442E-01 -0.41531158691E-01  0.46193886684E-01  0.80920505114E-01  0.51100000000E-03 0.  1.
</event>
<event>
 8    1  0.1092993E+005  0.1043930E+01  0.7957747E-01            NaN
         13   -1    0    0    0    0  0.00000000000E+00  0.00000000000E+00  0.74505805969E-08  0.10566000000E+00  0.10566000000E+00 0.  1.
     999900   -1    0    0    0    0 -0.00000000000E+00 -0.00000000000E+00 -0.74505805969E-08  0.93827000000E+00  0.93827000000E+00 0.  1.
     999902    2    1    2    0    0  0.14889207204E-01  0.12077712231E-01  0.21659326290E-02  0.10246361956E+01  0.10244545292E+01 0.  0.
     999903    2    3    3    0    0 -0.10587333969E+00 -0.26691325012E-01 -0.72138373777E-01  0.13244352531E+00  0.20389986199E-01 0.  0.
         14    1    1    2    0    0 -0.14889207204E-01 -0.12077712231E-01 -0.21659326290E-02  0.19293804395E-01  0.00000000000E+00 0. -1.
     999901    1    3    3    0    0  0.12076254689E+00  0.38769037243E-01  0.74304306406E-01  0.89219267030E+00  0.88000000000E+00 0. -1.
        -11    1    4    4    0    0 -0.55371406713E-01 -0.18426625133E-01 -0.27409986068E-01  0.64475589585E-01  0.51100000000E-03 0.  1.
         11    1    4    4    0    0 -0.50501932975E-01 -0.82646998799E-02 -0.44728387709E-01  0.67967935722E-01  0.51100000000E-03 0. -1.
</event>
<event>
 8    1  0.1092993E+005  0.1043930E+01  0.7957747E-01            NaN
         13   -1    0    0    0    0  0.00000000000E+00  0.00000000000E+00  0.74505805969E-08  0.10566000000E+00  0.10566000000E+00 0. -1.
     999900   -1    0    0    0    0 -0.00000000000E+00 -0.00000000000E+00 -0.74505805969E-08  0.93827000000E+00  0.93827000000E+00 0.  1.
     999902    2    1    2    0    0 -0.49813527667E-02  0.94474374796E-02  0.21038359449E-01  0.10203359220E+01  0.10200630927E+01 0.  0.
     999903    2    3    3    0    0  0.29088717010E-01  0.12382936155E+00  0.32272871205E-01  0.13220856146E+00  0.16053076576E-01 0.  0.
         14    1    1    2    0    0  0.49813527667E-02 -0.94474374796E-02 -0.21038359449E-01  0.23594078041E-01  0.00000000000E+00 0.  1.
     999901    1    3    3    0    0 -0.34070069777E-01 -0.11438192408E+00 -0.11234511756E-01  0.88812736050E+00  0.88000000000E+00 0.  1.
        -11    1    4    4    0    0  0.21499846027E-01  0.79566267836E-01  0.28200947236E-01  0.87112507153E-01  0.51100000000E-03 0. -1.
         11    1    4    4    0    0  0.75888709833E-02  0.44263093719E-01  0.40719239689E-02  0.45096054308E-01  0.51100000000E-03 0.  1.
</event>
<event>
 8    1  0.1092993E+005  0.1043930E+01  0.7957747E-01            NaN
         13   -1    0    0    0    0  0.00000000000E+00  0.00000000000E+00  0.74505805969E-08  0.10566000000E+00  0.10566000000E+00 0. -1.
     999900   -1    0    0    0    0 -0.00000000000E+00 -0.00000000000E+00 -0.74505805969E-08  0.93827000000E+00  0.93827000000E+00 0. -1.
     999902    2    1    2    0    0  0.17349998968E-01 -0.60155522511E-02  0.38197403489E-02  0.10251736744E+01  0.10250020795E+01 0.  0.
     999903    2    3    3    0    0  0.23398578755E-01  0.12495932359E+00 -0.38031641694E-01  0.13447589088E+00  0.21795261377E-01 0.  0.
         14    1    1    2    0    0 -0.17349998968E-01  0.60155522511E-02 -0.38197403489E-02  0.18756325584E-01  0.00000000000E+00 0. -1.
     999901    1    3    3    0    0 -0.60485797866E-02 -0.13097487584E+00  0.41851382043E-01  0.89069778354E+00  0.88000000000E+00 0. -1.
        -11    1    4    4    0    0  0.22120970240E-01  0.84593846810E-01 -0.34257202441E-01  0.93910985952E-01  0.51100000000E-03 0.  1.
         11    1    4    4    0    0  0.12776085142E-02  0.40365476778E-01 -0.37744392530E-02  0.40564904927E-01  0.51100000000E-03 0. -1.
</event>
<event>
 8    1  0.1092993E+005  0.1043930E+01  0.7957747E-01            NaN
         13   -1    0    0    0    0  0.00000000000E+00  0.00000000000E+00  0.74505805969E-08  0.10566000000E+00  0.10566000000E+00 0.  1.
     999900   -1    0    0    0    0 -0.00000000000E+00 -0.00000000000E+00 -0.74505805969E-08  0.93827000000E+00  0.93827000000E+00 0. -1.
     999902    2    1    2    0    0  0.69455601137E-02  0.63481636576E-02 -0.19825664246E-01  0.10219846827E+01  0.10217490371E+01 0.  0.
     999903    2    3    3    0    0 -0.57113377599E-01  0.53590891321E-01 -0.10678301509E+00  0.13412376813E+00  0.21275604174E-01 0.  0.
         14    1    1    2    0    0 -0.69455601137E-02 -0.63481636576E-02  0.19825664246E-01  0.21945317266E-01  0.00000000000E+00 0.  1.
     999901    1    3    3    0    0  0.64058937713E-01 -0.47242727663E-01  0.86957350840E-01  0.88786091460E+00  0.88000000000E+00 0.  1.
        -11    1    4    4    0    0 -0.54934421838E-01  0.43851651601E-01 -0.99197375444E-01  0.12157770547E+00  0.51100000000E-03 0. -1.
         11    1    4    4    0    0 -0.21789557607E-02  0.97392397193E-02 -0.75856396415E-02  0.12546062661E-01  0.51100000000E-03 0.  1.
</event>
<event>
 8    1  0.1092993E+005  0.1043930E+01  0.7957747E-01            NaN
         13   -1    0    0    0    0  0.00000000000E+00  0.00000000000E+00  0.74505805969E-08  0.10566000000E+00  0.10566000000E+00 0.  1.
     999900   -1    0    0    0    0 -0.00000000000E+00 -0.00000000000E+00 -0.74505805969E-08  0.93827000000E+00  0.93827000000E+00 0. -1.
     999902    2    1    2    0    0  0.17237298529E-01 -0.32553904580E-03 -0.16872032541E-01  0.10198074811E+01  0.10195221442E+01 0.  0.
     999903    2    3    3    0    0 -0.14678094260E-01 -0.12245989829E+00 -0.37945754113E-01  0.13054964686E+00  0.19785269773E-01 0.  0.
         14    1    1    2    0    0 -0.17237298529E-01  0.32553904580E-03  0.16872032541E-01  0.24122518905E-01  0.00000000000E+00 0.  1.
     999901    1    3    3    0    0  0.31915392789E-01  0.12213435925E+00  0.21073721572E-01  0.88925783423E+00  0.88000000000E+00 0.  1.
        -11    1    4    4    0    0 -0.10244849288E-01 -0.29366502212E-01 -0.40124380314E-02  0.31364138264E-01  0.51100000000E-03 0.  1.
         11    1    4    4    0    0 -0.44332449725E-02 -0.93093396079E-01 -0.33933316081E-01  0.99185508598E-01  0.51100000000E-03 0. -1.
</event>
<event>
 8    1  0.1092993E+005  0.1043930E+01  0.7957747E-01            NaN
         13   -1    0    0    0    0  0.00000000000E+00  0.00000000000E+00  0.74505805969E-08  0.10566000000E+00  0.10566000000E+00 0. -1.
     999900   -1    0    0    0    0 -0.00000000000E+00 -0.00000000000E+00 -0.74505805969E-08  0.93827000000E+00  0.93827000000E+00 0.  1.
     999902    2    1    2    0    0 -0.20108273236E-01  0.14328795286E-01 -0.31271199212E-02  0.10190415307E+01  0.10187375547E+01 0.  0.
     999903    2    3    3    0    0 -0.27286923198E-01 -0.11932676205E+00  0.32485455203E-01  0.12820843938E+00  0.19966141578E-01 0.  0.
         14    1    1    2    0    0  0.20108273236E-01 -0.14328795286E-01  0.31271199212E-02  0.24888469336E-01  0.00000000000E+00 0.  1.
     999901    1    3    3    0    0  0.71786499621E-02  0.13365555733E+00 -0.35612575124E-01  0.89083309129E+00  0.88000000000E+00 0.  1.
        -11    1    4    4    0    0 -0.24105975106E-01 -0.61200036731E-01  0.18644990392E-01  0.68369871430E-01  0.51100000000E-03 0. -1.
         11    1    4    4    0    0 -0.31809480927E-02 -0.58126725318E-01  0.13840464811E-01  0.59838567949E-01  0.51100000000E-03 0.  1.
</event>
<event>
 8    1  0.1092993E+005  0.1043930E+01  0.7957747E-01            NaN
         13   -1    0    0    0    0  0.00000000000E+00  0.00000000000E+00  0.74505805969E-08  0.10566000000E+00  0.10566000000E+00 0.  1.
     999900   -1    0    0    0    0 -0.00000000000E+00 -0.00000000000E+00 -0.74505805969E-08  0.93827000000E+00  0.93827000000E+00 0. -1.
     999902    2    1    2    0    0  0.16302315856E-01 -0.17001728902E-01  0.80916856356E-03  0.10203613971E+01  0.10200891636E+01 0.  0.
     999903    2    3    3    0    0  0.19089432532E-01  0.10946993381E+00 -0.62772604824E-01  0.12904467934E+00  0.19080264837E-01 0.  0.
         14    1    1    2    0    0 -0.16302315856E-01  0.17001728902E-01 -0.80916856356E-03  0.23568602879E-01  0.00000000000E+00 0.  1.
     999901    1    3    3    0    0 -0.27871166761E-02 -0.12647166271E+00  0.63581773387E-01  0.89131671778E+00  0.88000000000E+00 0.  1.
        -11    1    4    4    0    0  0.12976506596E-02  0.47822705907E-01 -0.19571265115E-01  0.51691301364E-01  0.51100000000E-03 0.  1.
         11    1    4    4    0    0  0.17791781872E-01  0.61647227905E-01 -0.43201339709E-01  0.77353377975E-01  0.51100000000E-03 0. -1.
</event>
<event>
 8    1  0.1092993E+005  0.1043930E+01  0.7957747E-01            NaN
         13   -1    0    0    0    0  0.00000000000E+00  0.00000000000E+00  0.74505805969E-08  0.10566000000E+00  0.10566000000E+00 0. -1.
     999900   -1    0    0    0    0 -0.00000000000E+00 -0.00000000000E+00 -0.74505805969E-08  0.93827000000E+00  0.93827000000E+00 0.  1.
     999902    2    1    2    0    0  0.18672415211E-01 -0.10385246757E-01 -0.11126203532E-01  0.10198404827E+01  0.10195559353E+01 0.  0.
     999903    2    3    3    0    0 -0.12419762919E+00 -0.24629656088E-01 -0.21327967904E-02  0.12815913031E+00  0.19711489128E-01 0.  0.
         14    1    1    2    0    0 -0.18672415211E-01  0.10385246757E-01  0.11126203532E-01  0.24089517327E-01  0.00000000000E+00 0.  1.
     999901    1    3    3    0    0  0.14287004440E+00  0.14244409332E-01 -0.89934067418E-02  0.89168135236E+00  0.88000000000E+00 0.  1.
        -11    1    4    4    0    0 -0.90163933884E-01 -0.19320755104E-01 -0.10210312437E-01  0.92775741184E-01  0.51100000000E-03 0. -1.
         11    1    4    4    0    0 -0.34033695310E-01 -0.53089009836E-02  0.80775156465E-02  0.35383389127E-01  0.51100000000E-03 0.  1.
</event>
<event>
 8    1  0.1092993E+005  0.1043930E+01  0.7957747E-01            NaN
         13   -1    0    0    0    0  0.00000000000E+00  0.00000000000E+00  0.74505805969E-08  0.10566000000E+00  0.10566000000E+00 0.  1.
     999900   -1    0    0    0    0 -0.00000000000E+00 -0.00000000000E+00 -0.74505805969E-08  0.93827000000E+00  0.93827000000E+00 0.  1.
     999902    2    1    2    0    0  0.22478744182E-01  0.12558671399E-02 -0.66375467202E-02  0.10204581409E+01  0.10201881636E+01 0.  0.
     999903    2    3    3    0    0 -0.53860277982E-01 -0.11554896255E+00  0.86440619483E-02  0.12933270524E+00  0.19993412584E-01 0.  0.
         14    1    1    2    0    0 -0.22478744182E-01 -0.12558671399E-02  0.66375467202E-02  0.23471859081E-01  0.00000000000E+00 0.  1.
     999901    1    3    3    0    0  0.76339022164E-01  0.11680482969E+00 -0.15281608669E-01  0.89112543568E+00  0.88000000000E+00 0.  1.
        -11    1    4    4    0    0 -0.39370617489E-01 -0.86185026468E-01  0.15115049618E-01  0.95951186312E-01  0.51100000000E-03 0. -1.
         11    1    4    4    0    0 -0.14489660493E-01 -0.29363936086E-01 -0.64709876700E-02  0.33381518931E-01  0.51100000000E-03 0.  1.
</event>
<event>
 8    1  0.1092993E+005  0.1043930E+01  0.7957747E-01            NaN
         13   -1    0    0    0    0  0.00000000000E+00  0.00000000000E+00  0.74505805969E-08  0.10566000000E+00  0.10566000000E+00 0.  1.
     999900   -1    0    0    0    0 -0.00000000000E+00 -0.00000000000E+00 -0.74505805969E-08  0.93827000000E+00  0.93827000000E+00 0. -1.
     999902    2    1    2    0    0 -0.96063351227E-02 -0.18482028223E-01  0.12731121265E-01  0.10195179437E+01  0.10192256321E+01 0.  0.
     999903    2    3    3    0    0  0.59725546073E-01 -0.17997215557E-01  0.11345015684E+00  0.13106340416E+00  0.20387182292E-01 0.  0.
         14    1    1    2    0    0  0.96063351227E-02  0.18482028223E-01 -0.12731121265E-01  0.24412056251E-01  0.00000000000E+00 0. -1.
     999901    1    3    3    0    0 -0.69331881196E-01 -0.48481266673E-03 -0.10071903557E+00  0.88845453959E+00  0.88000000000E+00 0. -1.
        -11    1    4    4    0    0  0.19938779050E-01  0.28153766101E-02  0.27475055832E-01  0.34067889125E-01  0.51100000000E-03 0.  1.
         11    1    4    4    0    0  0.39786767023E-01 -0.20812592167E-01  0.85975101004E-01  0.96995515033E-01  0.51100000000E-03 0. -1.
</event>
<event>
 8    1  0.1092993E+005  0.1043930E+01  0.7957747E-01            NaN
         13   -1    0    0    0    0  0.00000000000E+00  0.00000000000E+00  0.74505805969E-08  0.10566000000E+00  0.10566000000E+00 0. -1.
     999900   -1    0    0    0    0 -0.00000000000E+00 -0.00000000000E+00 -0.74505805969E-08  0.93827000000E+00  0.93827000000E+00 0.  1.
     999902    2    1    2    0    0 -0.17054776426E-02  0.17787593025E-01 -0.15995988531E-01  0.10199471151E+01  0.10196651111E+01 0.  0.
     999903    2    3    3    0    0 -0.54672999015E-01  0.11652708451E+00 -0.25583694585E-01  0.13279043805E+00  0.20275028118E-01 0.  0.
         14    1    1    2    0    0  0.17054776426E-02 -0.17787593025E-01  0.15995988531E-01  0.23982884912E-01  0.00000000000E+00 0. -1.
     999901    1    3    3    0    0  0.52967521373E-01 -0.98739491480E-01  0.95877060544E-02  0.88715667703E+00  0.88000000000E+00 0.  1.
        -11    1    4    4    0    0 -0.16711816201E-01  0.17959321985E-01 -0.72392381328E-02  0.25582997023E-01  0.51100000000E-03 0.  1.
         11    1    4    4    0    0 -0.37961182814E-01  0.98567762521E-01 -0.18344456453E-01  0.10720744103E+00  0.51100000000E-03 0. -1.
</event>
<event>
 8    1  0.1092993E+005  0.1043930E+01  0.7957747E-01            NaN
         13   -1    0    0    0    0  0.00000000000E+00  0.00000000000E+00  0.74505805969E-08  0.10566000000E+00  0.10566000000E+00 0. -1.
     999900   -1    0    0    0    0 -0.00000000000E+00 -0.00000000000E+00 -0.74505805969E-08  0.93827000000E+00  0.93827000000E+00 0. -1.
     999902    2    1    2    0    0 -0.67642195725E-02  0.16411902651E-01 -0.15470921525E-01  0.10203831397E+01  0.10201114141E+01 0.  0.
     999903    2    3    3    0    0 -0.54886982792E-01  0.17628065774E-01  0.11431962027E+00  0.12956168506E+00  0.19847545751E-01 0.  0.
         14    1    1    2    0    0  0.67642195725E-02 -0.16411902651E-01  0.15470921525E-01  0.23546860255E-01  0.00000000000E+00 0. -1.
     999901    1    3    3    0    0  0.48122763219E-01 -0.12161631226E-02 -0.12979054180E+00  0.89082145469E+00  0.88000000000E+00 0. -1.
        -11    1    4    4    0    0 -0.35964086842E-01  0.16936329956E-02  0.62301070068E-01  0.71958101613E-01  0.51100000000E-03 0.  1.
         11    1    4    4    0    0 -0.18922895949E-01  0.15934432778E-01  0.52018550206E-01  0.57603583444E-01  0.51100000000E-03 0. -1.
</event>
<event>
 8    1  0.1092993E+005  0.1043930E+01  0.7957747E-01            NaN
         13   -1    0    0    0    0  0.00000000000E+00  0.00000000000E+00  0.74505805969E-08  0.10566000000E+00  0.10566000000E+00 0. -1.
     999900   -1    0    0    0    0 -0.00000000000E+00 -0.00000000000E+00 -0.74505805969E-08  0.93827000000E+00  0.93827000000E+00 0. -1.
     999902    2    1    2    0    0  0.78579567615E-02 -0.13140517624E-01 -0.11423496160E-01  0.10248272004E+01  0.10246491467E+01 0.  0.
     999903    2    3    3    0    0  0.10217609067E-01 -0.11268387272E+00 -0.74465079960E-01  0.13697096835E+00  0.20345597348E-01 0.  0.
         14    1    1    2    0    0 -0.78579567615E-02  0.13140517624E-01  0.11423496160E-01  0.19102799596E-01  0.00000000000E+00 0. -1.
     999901    1    3    3    0    0 -0.23596523057E-02  0.99543355098E-01  0.63041583801E-01  0.88785623205E+00  0.88000000000E+00 0.  1.
        -11    1    4    4    0    0 -0.87110159098E-03 -0.84881771168E-01 -0.52074280390E-01  0.99587477595E-01  0.51100000000E-03 0.  1.
         11    1    4    4    0    0  0.11088710658E-01 -0.27802101554E-01 -0.22390799570E-01  0.37383490758E-01  0.51100000000E-03 0. -1.
</event>
<event>
 8    1  0.1092993E+005  0.1043930E+01  0.7957747E-01            NaN
         13   -1    0    0    0    0  0.00000000000E+00  0.00000000000E+00  0.74505805969E-08  0.10566000000E+00  0.10566000000E+00 0. -1.
     999900   -1    0    0    0    0 -0.00000000000E+00 -0.00000000000E+00 -0.74505805969E-08  0.93827000000E+00  0.93827000000E+00 0.  1.
     999902    2    1    2    0    0  0.11445758162E-01  0.12770803851E-01 -0.16651412871E-01  0.10200266872E+01  0.10197465736E+01 0.  0.
     999903    2    3    3    0    0 -0.57851678277E-01  0.11543748048E+00 -0.12720909994E-01  0.13134337466E+00  0.20411563784E-01 0.  0.
         14    1    1    2    0    0 -0.11445758162E-01 -0.12770803851E-01  0.16651412871E-01  0.23903312773E-01  0.00000000000E+00 0. -1.
     999901    1    3    3    0    0  0.69297436439E-01 -0.10266667663E+00 -0.39305028772E-02  0.88868331257E+00  0.88000000000E+00 0. -1.
        -11    1    4    4    0    0 -0.42873237021E-01  0.63567389251E-01 -0.55344733906E-02  0.76875346800E-01  0.51100000000E-03 0. -1.
         11    1    4    4    0    0 -0.14978441255E-01  0.51870091230E-01 -0.71864366035E-02  0.54468027858E-01  0.51100000000E-03 0.  1.
</event>
<event>
 8    1  0.1092993E+005  0.1043930E+01  0.7957747E-01            NaN
         13   -1    0    0    0    0  0.00000000000E+00  0.00000000000E+00  0.74505805969E-08  0.10566000000E+00  0.10566000000E+00 0.  1.
     999900   -1    0    0    0    0 -0.00000000000E+00 -0.00000000000E+00 -0.74505805969E-08  0.93827000000E+00  0.93827000000E+00 0. -1.
     999902    2    1    2    0    0  0.73896939887E-02 -0.22122295464E-01  0.10022037505E-02  0.10205845948E+01  0.10203175521E+01 0.  0.
     999903    2    3    3    0    0  0.73525030437E-01 -0.10858817089E+00  0.14209299539E-01  0.13377872100E+00  0.22305179687E-01 0.  0.
         14    1    1    2    0    0 -0.73896939887E-02  0.22122295464E-01 -0.10022037505E-02  0.23345405248E-01  0.00000000000E+00 0. -1.
     999901    1    3    3    0    0 -0.66135336448E-01  0.86465875428E-01 -0.13207095788E-01  0.88680587375E+00  0.88000000000E+00 0. -1.
        -11    1    4    4    0    0  0.30533317350E-01 -0.58814803575E-01  0.15235476156E-01  0.67998863539E-01  0.51100000000E-03 0.  1.
         11    1    4    4    0    0  0.42991713087E-01 -0.49773367317E-01 -0.10261766173E-02  0.65779857462E-01  0.51100000000E-03 0. -1.
</event>
<event>
 8    1  0.1092993E+005  0.1043930E+01  0.7957747E-01            NaN
         13   -1    0    0    0    0  0.00000000000E+00  0.00000000000E+00  0.74505805969E-08  0.10566000000E+00  0.10566000000E+00 0.  1.
     999900   -1    0    0    0    0 -0.00000000000E+00 -0.00000000000E+00 -0.74505805969E-08  0.93827000000E+00  0.93827000000E+00 0. -1.
     999902    2    1    2    0    0  0.39388684964E-03  0.65138543636E-02  0.15784581930E-01  0.10268496466E+01  0.10267075817E+01 0.  0.
     999903    2    3    3    0    0 -0.17153723567E-01 -0.84131721338E-01  0.10552042583E+00  0.13748073512E+00  0.19849319768E-01 0.  0.
         14    1    1    2    0    0 -0.39388684964E-03 -0.65138543636E-02 -0.15784581930E-01  0.17080353399E-01  0.00000000000E+00 0. -1.
     999901    1    3    3    0    0  0.17547610417E-01  0.90645575701E-01 -0.89735843898E-01  0.88936891148E+00  0.88000000000E+00 0. -1.
        -11    1    4    4    0    0 -0.18893011202E-02 -0.40909879875E-02  0.15076347617E-01  0.15743666025E-01  0.51100000000E-03 0. -1.
         11    1    4    4    0    0 -0.15264422447E-01 -0.80040733350E-01  0.90444078211E-01  0.12173706910E+00  0.51100000000E-03 0.  1.
</event>
<event>
 8    1  0.1092993E+005  0.1043930E+01  0.7957747E-01            NaN
         13   -1    0    0    0    0  0.00000000000E+00  0.00000000000E+00  0.74505805969E-08  0.10566000000E+00  0.10566000000E+00 0. -1.
     999900   -1    0    0    0    0 -0.00000000000E+00 -0.00000000000E+00 -0.74505805969E-08  0.93827000000E+00  0.93827000000E+00 0. -1.
     999902    2    1    2    0    0 -0.23916826858E-01  0.31421629888E-02 -0.44128775872E-02  0.10194073312E+01  0.10191123322E+01 0.  0.
     999903    2    3    3    0    0  0.67436549767E-01  0.38050925956E-02 -0.10769469907E+00  0.12866998860E+00  0.19890972433E-01 0.  0.
         14    1    1    2    0    0  0.23916826858E-01 -0.31421629888E-02  0.44128775872E-02  0.24522668774E-01  0.00000000000E+00 0. -1.
     999901    1    3    3    0    0 -0.91353376625E-01 -0.66292960674E-03  0.10328182148E+00  0.89073734262E+00  0.88000000000E+00 0.  1.
        -11    1    4    4    0    0  0.53107319070E-01  0.10442202489E-01 -0.76630761791E-01  0.93818770538E-01  0.51100000000E-03 0. -1.
         11    1    4    4    0    0  0.14329230697E-01 -0.66371098930E-02 -0.31063937281E-01  0.34851218064E-01  0.51100000000E-03 0.  1.
</event>
<event>
 8    1  0.1092993E+005  0.1043930E+01  0.7957747E-01            NaN
         13   -1    0    0    0    0  0.00000000000E+00  0.00000000000E+00  0.74505805969E-08  0.10566000000E+00  0.10566000000E+00 0.  1.
     999900   -1    0    0    0    0 -0.00000000000E+00 -0.00000000000E+00 -0.74505805969E-08  0.93827000000E+00  0.93827000000E+00 0.  1.
     999902    2    1    2    0    0 -0.14426373577E-01 -0.11713960363E-01 -0.15250009553E-01  0.10198904511E+01  0.10196070970E+01 0.  0.
     999903    2    3    3    0    0 -0.38835779031E-01  0.11738568596E+00  0.30524316530E-01  0.12895957457E+00  0.20278584070E-01 0.  0.
         14    1    1    2    0    0  0.14426373577E-01  0.11713960363E-01  0.15250009553E-01  0.24039548942E-01  0.00000000000E+00 0.  1.
     999901    1    3    3    0    0  0.24409405454E-01 -0.12909964632E+00 -0.45774326083E-01  0.89093087649E+00  0.88000000000E+00 0.  1.
        -11    1    4    4    0    0 -0.75494072803E-02  0.16745311467E-01  0.12012617361E-01  0.21953658084E-01  0.51100000000E-03 0. -1.
         11    1    4    4    0    0 -0.31286371751E-01  0.10064037449E+00  0.18511699169E-01  0.10700591648E+00  0.51100000000E-03 0.  1.
</event>
<event>
 8    1  0.1092993E+005  0.1043930E+01  0.7957747E-01            NaN
         13   -1    0    0    0    0  0.00000000000E+00  0.00000000000E+00  0.74505805969E-08  0.10566000000E+00  0.10566000000E+00 0.  1.
     999900   -1    0    0    0    0 -0.00000000000E+00 -0.00000000000E+00 -0.74505805969E-08  0.93827000000E+00  0.93827000000E+00 0.  1.
     999902    2    1    2    0    0  0.80807518543E-02 -0.21116321369E-01 -0.88703001254E-02  0.10196425587E+01  0.10193532596E+01 0.  0.
     999903    2    3    3    0    0 -0.99093294677E-01  0.72149061118E-01  0.28790575911E-01  0.12745252887E+00  0.19755550685E-01 0.  0.
         14    1    1    2    0    0 -0.80807518543E-02  0.21116321369E-01  0.88703001254E-02  0.24287441261E-01  0.00000000000E+00 0.  1.
     999901    1    3    3    0    0  0.10717404653E+00 -0.93265382487E-01 -0.37660876036E-01  0.89219002987E+00  0.88000000000E+00 0.  1.
        -11    1    4    4    0    0 -0.54377227110E-01  0.48407109904E-01  0.10191168839E-01  0.73513618880E-01  0.51100000000E-03 0.  1.
         11    1    4    4    0    0 -0.44716067567E-01  0.23741951213E-01  0.18599407072E-01  0.53938909986E-01  0.51100000000E-03 0. -1.
</event>
<event>
 8    1  0.1092993E+005  0.1043930E+01  0.7957747E-01            NaN
         13   -1    0    0    0    0  0.00000000000E+00  0.00000000000E+00  0.74505805969E-08  0.10566000000E+00  0.10566000000E+00 0.  1.
     999900   -1    0    0    0    0 -0.00000000000E+00 -0.00000000000E+00 -0.74505805969E-08  0.93827000000E+00  0.93827000000E+00 0.  1.
     999902    2    1    2    0    0 -0.22412001365E-01  0.35016547766E-02 -0.71686463206E-02  0.10201403199E+01  0.10198628944E+01 0.  0.
     999903    2    3    3    0    0 -0.61454711052E-01  0.61988735469E-01 -0.98064908627E-01  0.13266795280E+00  0.19099072230E-01 0.  0.
         14    1    1    2    0    0  0.22412001365E-01 -0.35016547766E-02  0.71686463206E-02  0.23789680145E-01  0.00000000000E+00 0.  1.
     999901    1    3    3    0    0  0.39042709688E-01 -0.58487080692E-01  0.90896262307E-01  0.88747236706E+00  0.88000000000E+00 0. -1.
        -11    1    4    4    0    0 -0.42749342309E-02  0.14034324952E-01 -0.17716776642E-01  0.23008316651E-01  0.51100000000E-03 0.  1.
         11    1    4    4    0    0 -0.57179776821E-01  0.47954410516E-01 -0.80348131986E-01  0.10965963615E+00  0.51100000000E-03 0. -1.
</event>
<event>
 8    1  0.1092993E+005  0.1043930E+01  0.7957747E-01            NaN
         13   -1    0    0    0    0  0.00000000000E+00  0.00000000000E+00  0.74505805969E-08  0.10566000000E+00  0.10566000000E+00 0. -1.
     999900   -1    0    0    0    0 -0.00000000000E+00 -0.00000000000E+00 -0.74505805969E-08  0.93827000000E+00  0.93827000000E+00 0. -1.
     999902    2    1    2    0    0 -0.17589903875E-01 -0.17942254256E-01 -0.21798840712E-02  0.10187093517E+01  0.10183971043E+01 0.  0.
     999903    2    3    3    0    0  0.11651981115E+00 -0.44935442757E-01  0.18932807133E-01  0.12788962043E+00  0.20031061426E-01 0.  0.
         14    1    1    2    0    0  0.17589903875E-01  0.17942254256E-01  0.21798840712E-02  0.25220648300E-01  0.00000000000E+00 0. -1.
     999901    1    3    3    0    0 -0.13410971502E+00  0.26993188502E-01 -0.21112691204E-01  0.89081973127E+00  0.88000000000E+00 0. -1.
        -11    1    4    4    0    0  0.64801342852E-01 -0.31060450213E-01  0.19030900529E-01  0.74339773330E-01  0.51100000000E-03 0. -1.
         11    1    4    4    0    0  0.51718468298E-01 -0.13874992545E-01 -0.98093396744E-04  0.53549847100E-01  0.51100000000E-03 0.  1.
</event>
<event>
 8    1  0.1092993E+005  0.1043930E+01  0.7957747E-01            NaN
         13   -1    0    0    0    0  0.00000000000E+00  0.00000000000E+00  0.74505805969E-08  0.10566000000E+00  0.10566000000E+00 0.  1.
     999900   -1    0    0    0    0 -0.00000000000E+00 -0.00000000000E+00 -0.74505805969E-08  0.93827000000E+00  0.93827000000E+00 0.  1.
     999902    2    1    2    0    0 -0.10473929108E-01  0.43533803202E-02 -0.20554139608E-01  0.10204538895E+01  0.10201838132E+01 0.  0.
     999903    2    3    3    0    0 -0.12631454004E+00  0.23856999869E-01 -0.25407217485E-01  0.13263465635E+00  0.20540348018E-01 0.  0.
         14    1    1    2    0    0  0.10473929108E-01 -0.43533803202E-02  0.20554139608E-01  0.23476110542E-01  0.00000000000E+00 0.  1.
     999901    1    3    3    0    0  0.11584061093E+00 -0.19503619549E-01  0.48530778776E-02  0.88781923311E+00  0.88000000000E+00 0. -1.
        -11    1    4    4    0    0 -0.81360116970E-01  0.20035401223E-01 -0.76285958249E-02  0.84138828912E-01  0.51100000000E-03 0. -1.
         11    1    4    4    0    0 -0.44954423067E-01  0.38215986464E-02 -0.17778621660E-01  0.48495827435E-01  0.51100000000E-03 0.  1.
</event>
<event>
 8    1  0.1092993E+005  0.1043930E+01  0.7957747E-01            NaN
         13   -1    0    0    0    0  0.00000000000E+00  0.00000000000E+00  0.74505805969E-08  0.10566000000E+00  0.10566000000E+00 0.  1.
     999900   -1    0    0    0    0 -0.00000000000E+00 -0.00000000000E+00 -0.74505805969E-08  0.93827000000E+00  0.93827000000E+00 0.  1.
     999902    2    1    2    0    0 -0.21170286477E-01  0.34822329894E-03  0.11029068636E-01  0.10200565284E+01  0.10197771220E+01 0.  0.
     999903    2    3    3    0    0 -0.46941308449E-01  0.11448358643E+00  0.40386816122E-01  0.13182631953E+00  0.20907070663E-01 0.  0.
         14    1    1    2    0    0  0.21170286477E-01 -0.34822329894E-03 -0.11029068636E-01  0.23873471553E-01  0.00000000000E+00 0.  1.
     999901    1    3    3    0    0  0.25771021972E-01 -0.11413536313E+00 -0.29357747486E-01  0.88823020891E+00  0.88000000000E+00 0. -1.
        -11    1    4    4    0    0 -0.32523188095E-01  0.54649427904E-01  0.25380591445E-01  0.68474471719E-01  0.51100000000E-03 0. -1.
         11    1    4    4    0    0 -0.14418120354E-01  0.59834158528E-01  0.15006224677E-01  0.63351847813E-01  0.51100000000E-03 0.  1.
</event>
<event>
 8    1  0.1092993E+005  0.1043930E+01  0.7957747E-01            NaN
         13   -1    0    0    0    0  0.00000000000E+00  0.00000000000E+00  0.74505805969E-08  0.10566000000E+00  0.10566000000E+00 0.  1.
     999900   -1    0    0    0    0 -0.00000000000E+00 -0.00000000000E+00 -0.74505805969E-08  0.93827000000E+00  0.93827000000E+00 0.  1.
     999902    2    1    2    0    0  0.67057176915E-02  0.74429226142E-02  0.20611005465E-01  0.10210132530E+01  0.10207560362E+01 0.  0.
     999903    2    3    3    0    0 -0.99795064828E-01 -0.76699379708E-01 -0.23234863104E-01  0.12952864634E+00  0.19898782576E-01 0.  0.
         14    1    1    2    0    0 -0.67057176915E-02 -0.74429226142E-02 -0.20611005465E-01  0.22916747001E-01  0.00000000000E+00 0. -1.
     999901    1    3    3    0    0  0.10650078252E+00  0.84142302322E-01  0.43845868569E-01  0.89148460666E+00  0.88000000000E+00 0.  1.
        -11    1    4    4    0    0 -0.35550028460E-01 -0.20748213261E-01  0.21346860670E-03  0.41165514291E-01  0.51100000000E-03 0. -1.
         11    1    4    4    0    0 -0.64245036369E-01 -0.55951166447E-01 -0.23448331711E-01  0.88363132051E-01  0.51100000000E-03 0.  1.
</event>
<event>
 8    1  0.1092993E+005  0.1043930E+01  0.7957747E-01            NaN
         13   -1    0    0    0    0  0.00000000000E+00  0.00000000000E+00  0.74505805969E-08  0.10566000000E+00  0.10566000000E+00 0. -1.
     999900   -1    0    0    0    0 -0.00000000000E+00 -0.00000000000E+00 -0.74505805969E-08  0.93827000000E+00  0.93827000000E+00 0. -1.
     999902    2    1    2    0    0  0.68785510884E-02  0.21667172570E-01 -0.38703630038E-02  0.10208700663E+01  0.10206095883E+01 0.  0.
     999903    2    3    3    0    0 -0.12115172333E+00 -0.34890229874E-01  0.21623379297E-01  0.12944400553E+00  0.19827047919E-01 0.  0.
         14    1    1    2    0    0 -0.68785510884E-02 -0.21667172570E-01  0.38703630038E-02  0.23059933695E-01  0.00000000000E+00 0. -1.
     999901    1    3    3    0    0  0.12803027441E+00  0.56557402443E-01 -0.25493742301E-01  0.89142606078E+00  0.88000000000E+00 0.  1.
        -11    1    4    4    0    0 -0.34258142412E-01 -0.50749600356E-02 -0.16463767083E-02  0.34674878776E-01  0.51100000000E-03 0. -1.
         11    1    4    4    0    0 -0.86893580914E-01 -0.29815269838E-01  0.23269756005E-01  0.94769126751E-01  0.51100000000E-03 0.  1.
</event>
<event>
 8    1  0.1092993E+005  0.1043930E+01  0.7957747E-01            NaN
         13   -1    0    0    0    0  0.00000000000E+00  0.00000000000E+00  0.74505805969E-08  0.10566000000E+00  0.10566000000E+00 0. -1.
     999900   -1    0    0    0    0 -0.00000000000E+00 -0.00000000000E+00 -0.74505805969E-08  0.93827000000E+00  0.93827000000E+00 0.  1.
     999902    2    1    2    0    0  0.20281197244E-01  0.60782752108E-02  0.11013040886E-01  0.10200645551E+01  0.10197853387E+01 0.  0.
     999903    2    3    3    0    0  0.67657236460E-01 -0.87161716824E-01  0.69366707001E-01  0.13195232369E+00  0.20615750362E-01 0.  0.
         14    1    1    2    0    0 -0.20281197244E-01 -0.60782752108E-02 -0.11013040886E-01  0.23865444910E-01  0.00000000000E+00 0.  1.
     999901    1    3    3    0    0 -0.47376039216E-01  0.93239992034E-01 -0.58353666115E-01  0.88811223140E+00  0.88000000000E+00 0.  1.
        -11    1    4    4    0    0  0.49316702233E-01 -0.61841672421E-01  0.60091919722E-01  0.99336949338E-01  0.51100000000E-03 0. -1.
         11    1    4    4    0    0  0.18340534227E-01 -0.25320044403E-01  0.92747872793E-02  0.32615374356E-01  0.51100000000E-03 0.  1.
</event>
<event>
 8    1  0.1092993E+005  0.1043930E+01  0.7957747E-01            NaN
         13   -1    0    0    0    0  0.00000000000E+00  0.00000000000E+00  0.74505805969E-08  0.10566000000E+00  0.10566000000E+00 0. -1.
     999900   -1    0    0    0    0 -0.00000000000E+00 -0.00000000000E+00 -0.74505805969E-08  0.93827000000E+00  0.93827000000E+00 0. -1.
     999902    2    1    2    0    0  0.24851701987E-01  0.26242577974E-02  0.23412030640E-02  0.10188306962E+01  0.10185214835E+01 0.  0.
     999903    2    3    3    0    0 -0.10519882592E+00  0.10086929056E-01 -0.67245920355E-01  0.12652402299E+00  0.17826258029E-01 0.  0.
         14    1    1    2    0    0 -0.24851701987E-01 -0.26242577974E-02 -0.23412030640E-02  0.25099303824E-01  0.00000000000E+00 0.  1.
     999901    1    3    3    0    0  0.13005052791E+00 -0.74626712587E-02  0.69587123419E-01  0.89230667319E+00  0.88000000000E+00 0. -1.
        -11    1    4    4    0    0 -0.47139858371E-01 -0.43423177961E-02 -0.30295677719E-01  0.56205971040E-01  0.51100000000E-03 0. -1.
         11    1    4    4    0    0 -0.58058967551E-01  0.14429246852E-01 -0.36950242636E-01  0.70318051947E-01  0.51100000000E-03 0.  1.
</event>
<event>
 8    1  0.1092993E+005  0.1043930E+01  0.7957747E-01            NaN
         13   -1    0    0    0    0  0.00000000000E+00  0.00000000000E+00  0.74505805969E-08  0.10566000000E+00  0.10566000000E+00 0.  1.
     999900   -1    0    0    0    0 -0.00000000000E+00 -0.00000000000E+00 -0.74505805969E-08  0.93827000000E+00  0.93827000000E+00 0. -1.
     999902    2    1    2    0    0  0.11697143073E-02 -0.12307326259E-01  0.21192978917E-01  0.10193947016E+01  0.10190993950E+01 0.  0.
     999903    2    3    3    0    0 -0.54588656874E-01  0.10881772078E+00  0.37644194914E-01  0.12919757992E+00  0.21300503064E-01 0.  0.
         14    1    1    2    0    0 -0.11697143073E-02  0.12307326259E-01 -0.21192978917E-01  0.24535298380E-01  0.00000000000E+00 0. -1.
     999901    1    3    3    0    0  0.55758371181E-01 -0.12112504704E+00 -0.16451215997E-01  0.89019712170E+00  0.88000000000E+00 0. -1.
        -11    1    4    4    0    0 -0.88307986230E-02  0.21637580732E-01  0.16167845076E-01  0.28422319393E-01  0.51100000000E-03 0. -1.
         11    1    4    4    0    0 -0.45757858251E-01  0.87180140050E-01  0.21476349838E-01  0.10077526053E+00  0.51100000000E-03 0.  1.
</event>
<event>
 8    1  0.1092993E+005  0.1043930E+01  0.7957747E-01            NaN
         13   -1    0    0    0    0  0.00000000000E+00  0.00000000000E+00  0.74505805969E-08  0.10566000000E+00  0.10566000000E+00 0. -1.
     999900   -1    0    0    0    0 -0.00000000000E+00 -0.00000000000E+00 -0.74505805969E-08  0.93827000000E+00  0.93827000000E+00 0.  1.
     999902    2    1    2    0    0 -0.13921674874E-01  0.10268162842E-01  0.16256865263E-01  0.10201911317E+01  0.10199149040E+01 0.  0.
     999903    2    3    3    0    0 -0.25589913444E-02  0.60094155746E-01  0.11700942215E+00  0.13296916520E+00  0.19280509074E-01 0.  0.
         14    1    1    2    0    0  0.13921674874E-01 -0.10268162842E-01 -0.16256865263E-01  0.23738868289E-01  0.00000000000E+00 0. -1.
     999901    1    3    3    0    0 -0.11362683530E-01 -0.49825992905E-01 -0.10075255689E+00  0.88722196651E+00  0.88000000000E+00 0.  1.
        -11    1    4    4    0    0  0.45822520345E-03  0.29590841108E-02  0.38076909376E-03  0.30614139241E-02  0.51100000000E-03 0.  1.
         11    1    4    4    0    0 -0.30172165478E-02  0.57135071636E-01  0.11662865305E+00  0.12990775127E+00  0.51100000000E-03 0. -1.
</event>
<event>
 8    1  0.1092993E+005  0.1043930E+01  0.7957747E-01            NaN
         13   -1    0    0    0    0  0.00000000000E+00  0.00000000000E+00  0.74505805969E-08  0.10566000000E+00  0.10566000000E+00 0.  1.
     999900   -1    0    0    0    0 -0.00000000000E+00 -0.00000000000E+00 -0.74505805969E-08  0.93827000000E+00  0.93827000000E+00 0.  1.
     999902    2    1    2    0    0 -0.11110055534E-01  0.96429927290E-02 -0.18321646793E-01  0.10204331197E+01  0.10201625598E+01 0.  0.
     999903    2    3    3    0    0  0.21891828676E-01 -0.46148794850E-01 -0.12022793139E+00  0.13218386483E+00  0.20220168336E-01 0.  0.
         14    1    1    2    0    0  0.11110055534E-01 -0.96429927290E-02  0.18321646793E-01  0.23496880303E-01  0.00000000000E+00 0.  1.
     999901    1    3    3    0    0 -0.33001884211E-01  0.55791787579E-01  0.10190628460E+00  0.88824925486E+00  0.88000000000E+00 0. -1.
        -11    1    4    4    0    0  0.19918328303E-01 -0.25450829639E-01 -0.55839190185E-01  0.64519460732E-01  0.51100000000E-03 0.  1.
         11    1    4    4    0    0  0.19735003733E-02 -0.20697965211E-01 -0.64388741205E-01  0.67664404103E-01  0.51100000000E-03 0. -1.
</event>
<event>
 8    1  0.1092993E+005  0.1043930E+01  0.7957747E-01            NaN
         13   -1    0    0    0    0  0.00000000000E+00  0.00000000000E+00  0.74505805969E-08  0.10566000000E+00  0.10566000000E+00 0.  1.
     999900   -1    0    0    0    0 -0.00000000000E+00 -0.00000000000E+00 -0.74505805969E-08  0.93827000000E+00  0.93827000000E+00 0.  1.
     999902    2    1    2    0    0  0.20136219112E-01  0.10975483850E-01 -0.39316691719E-02  0.10206622844E+01  0.10203970366E+01 0.  0.
     999903    2    3    3    0    0 -0.43748197308E-01 -0.11884928571E+00  0.75326968264E-02  0.12877264935E+00  0.22058926051E-01 0.  0.
         14    1    1    2    0    0 -0.20136219112E-01 -0.10975483850E-01  0.39316691719E-02  0.23267715581E-01  0.00000000000E+00 0. -1.
     999901    1    3    3    0    0  0.63884416420E-01  0.12982476956E+00 -0.11464365998E-01  0.89188963507E+00  0.88000000000E+00 0. -1.
        -11    1    4    4    0    0 -0.38400354061E-01 -0.75710444309E-01  0.16960674478E-02  0.84910519580E-01  0.51100000000E-03 0.  1.
         11    1    4    4    0    0 -0.53478432474E-02 -0.43138841399E-01  0.58366293786E-02  0.43862129772E-01  0.51100000000E-03 0. -1.
</event>
<event>
 8    1  0.1092993E+005  0.1043930E+01  0.7957747E-01            NaN
         13   -1    0    0    0    0  0.00000000000E+00  0.00000000000E+00  0.74505805969E-08  0.10566000000E+00  0.10566000000E+00 0.  1.
     999900   -1    0    0    0    0 -0.00000000000E+00 -0.00000000000E+00 -0.74505805969E-08  0.93827000000E+00  0.93827000000E+00 0. -1.
     999902    2    1    2    0    0  0.41590117243E-02  0.18415739504E-01  0.14185950833E-01  0.10203147922E+01  0.10200414683E+01 0.  0.
     999903    2    3    3    0    0 -0.84680976020E-01  0.86635672029E-01  0.49933862718E-01  0.13249475645E+00  0.19617912047E-01 0.  0.
         14    1    1    2    0    0 -0.41590117243E-02 -0.18415739504E-01 -0.14185950833E-01  0.23615207834E-01  0.00000000000E+00 0. -1.
     999901    1    3    3    0    0  0.88839987744E-01 -0.68219932525E-01 -0.35747911885E-01  0.88782003572E+00  0.88000000000E+00 0.  1.
        -11    1    4    4    0    0 -0.77022558201E-01  0.71390741173E-01  0.38068570513E-01  0.11170760753E+00  0.51100000000E-03 0. -1.
         11    1    4    4    0    0 -0.76584178181E-02  0.15244930856E-01  0.11865292205E-01  0.20787148924E-01  0.51100000000E-03 0.  1.
</event>
<event>
 8    1  0.1092993E+005  0.1043930E+01  0.7957747E-01            NaN
         13   -1    0    0    0    0  0.00000000000E+00  0.00000000000E+00  0.74505805969E-08  0.10566000000E+00  0.10566000000E+00 0. -1.
     999900   -1    0    0    0    0 -0.00000000000E+00 -0.00000000000E+00 -0.74505805969E-08  0.93827000000E+00  0.93827000000E+00 0.  1.
     999902    2    1    2    0    0  0.37338320268E-02 -0.22372435203E-01  0.78483219870E-03  0.10212345529E+01  0.10209823351E+01 0.  0.
     999903    2    3    3    0    0  0.39151083123E-01 -0.10229463195E+00 -0.74754164415E-01  0.13368281961E+00  0.16908936302E-01 0.  0.
         14    1    1    2    0    0 -0.37338320268E-02  0.22372435203E-01 -0.78483219870E-03  0.22695447123E-01  0.00000000000E+00 0.  1.
     999901    1    3    3    0    0 -0.35417251096E-01  0.79922196749E-01  0.75538996613E-01  0.88755173326E+00  0.88000000000E+00 0. -1.
        -11    1    4    4    0    0  0.12819384749E-01 -0.48093713164E-01 -0.25925257953E-01  0.56122384056E-01  0.51100000000E-03 0.  1.
         11    1    4    4    0    0  0.26331698374E-01 -0.54200918788E-01 -0.48828906462E-01  0.77560435558E-01  0.51100000000E-03 0. -1.
</event>
<event>
 8    1  0.1092993E+005  0.1043930E+01  0.7957747E-01            NaN
         13   -1    0    0    0    0  0.00000000000E+00  0.00000000000E+00  0.74505805969E-08  0.10566000000E+00  0.10566000000E+00 0. -1.
     999900   -1    0    0    0    0 -0.00000000000E+00 -0.00000000000E+00 -0.74505805969E-08  0.93827000000E+00  0.93827000000E+00 0.  1.
     999902    2    1    2    0    0  0.45524255678E-02  0.17115443533E-01 -0.17523587187E-01  0.10190153639E+01  0.10187107404E+01 0.  0.
     999903    2    3    3    0    0  0.78201643415E-01 -0.40429077526E-01  0.90069781164E-01  0.12754920516E+00  0.20155071741E-01 0.  0.
         14    1    1    2    0    0 -0.45524255678E-02 -0.17115443533E-01  0.17523587187E-01  0.24914636136E-01  0.00000000000E+00 0. -1.
     999901    1    3    3    0    0 -0.73649217847E-01  0.57544521060E-01 -0.10759336835E+00  0.89146615870E+00  0.88000000000E+00 0.  1.
        -11    1    4    4    0    0  0.67094301265E-01 -0.26365732056E-01  0.76065351497E-01  0.10479978964E+00  0.51100000000E-03 0.  1.
         11    1    4    4    0    0  0.11107342149E-01 -0.14063345471E-01  0.14004429666E-01  0.22749415525E-01  0.51100000000E-03 0. -1.
</event>
<event>
 8    1  0.1195773E+005  0.1043930E+01  0.7957747E-01            NaN
         13   -1    0    0    0    0  0.00000000000E+00  0.00000000000E+00  0.74505805969E-08  0.10566000000E+00  0.10566000000E+00 0. -1.
     999900   -1    0    0    0    0 -0.00000000000E+00 -0.00000000000E+00 -0.74505805969E-08  0.93827000000E+00  0.93827000000E+00 0. -1.
     999902    2    1    2    0    0 -0.26074579210E-02 -0.17424623890E-01  0.15645416282E-01  0.10203674151E+01  0.10200953223E+01 0.  0.
     999903    2    3    3    0    0  0.22179145169E-01  0.11474363454E+00  0.53186650658E-01  0.12936114776E+00  0.15731198128E-01 0.  0.
         14    1    1    2    0    0  0.26074579210E-02  0.17424623890E-01 -0.15645416282E-01  0.23562584857E-01  0.00000000000E+00 0.  1.
     999901    1    3    3    0    0 -0.24786603090E-01 -0.13216825843E+00 -0.37541234376E-01  0.89100626738E+00  0.88000000000E+00 0. -1.
        -11    1    4    4    0    0  0.60624051950E-02  0.71479654398E-01  0.33266729652E-01  0.79076103674E-01  0.51100000000E-03 0. -1.
         11    1    4    4    0    0  0.16116739974E-01  0.43263980143E-01  0.19919921006E-01  0.50285044090E-01  0.51100000000E-03 0.  1.
</event>
<event>
 8    1  0.1092993E+005  0.1043930E+01  0.7957747E-01            NaN
         13   -1    0    0    0    0  0.00000000000E+00  0.00000000000E+00  0.74505805969E-08  0.10566000000E+00  0.10566000000E+00 0.  1.
     999900   -1    0    0    0    0 -0.00000000000E+00 -0.00000000000E+00 -0.74505805969E-08  0.93827000000E+00  0.93827000000E+00 0. -1.
     999902    2    1    2    0    0  0.18618412768E-02 -0.13340036472E-01  0.19700063153E-01  0.10200654758E+01  0.10197862813E+01 0.  0.
     999903    2    3    3    0    0  0.24819891665E-01  0.52012771187E-01  0.11659541532E+00  0.13204139348E+00  0.22783400317E-01 0.  0.
         14    1    1    2    0    0 -0.18618412768E-02  0.13340036472E-01 -0.19700063153E-01  0.23864524178E-01  0.00000000000E+00 0. -1.
     999901    1    3    3    0    0 -0.22958050388E-01 -0.65352807658E-01 -0.96895352167E-01  0.88802408234E+00  0.88000000000E+00 0. -1.
        -11    1    4    4    0    0  0.12784303451E-01  0.68176392431E-02  0.36729901701E-01  0.39487534989E-01  0.51100000000E-03 0. -1.
         11    1    4    4    0    0  0.12035588214E-01  0.45195131944E-01  0.79865513619E-01  0.92553858492E-01  0.51100000000E-03 0.  1.
</event>
<event>
 8    1  0.1092993E+005  0.1043930E+01  0.7957747E-01            NaN
         13   -1    0    0    0    0  0.00000000000E+00  0.00000000000E+00  0.74505805969E-08  0.10566000000E+00  0.10566000000E+00 0. -1.
     999900   -1    0    0    0    0 -0.00000000000E+00 -0.00000000000E+00 -0.74505805969E-08  0.93827000000E+00  0.93827000000E+00 0. -1.
     999902    2    1    2    0    0 -0.22146600944E-01 -0.19145251907E-02  0.82553884238E-02  0.10202173709E+01  0.10199417607E+01 0.  0.
     999903    2    3    3    0    0  0.57821162092E-01  0.10455575957E+00 -0.43265431547E-01  0.12871013059E+00  0.20474533104E-01 0.  0.
         14    1    1    2    0    0  0.22146600944E-01  0.19145251907E-02 -0.82553884238E-02  0.23712629085E-01  0.00000000000E+00 0.  1.
     999901    1    3    3    0    0 -0.79967763036E-01 -0.10647028476E+00  0.51520819971E-01  0.89150724032E+00  0.88000000000E+00 0.  1.
        -11    1    4    4    0    0  0.42333973945E-01  0.91371156190E-01 -0.38516037997E-01  0.10781743754E+00  0.51100000000E-03 0. -1.
         11    1    4    4    0    0  0.15487188147E-01  0.13184603376E-01 -0.47493935499E-02  0.20892693052E-01  0.51100000000E-03 0.  1.
</event>
<event>
 8    1  0.1092993E+005  0.1043930E+01  0.7957747E-01            NaN
         13   -1    0    0    0    0  0.00000000000E+00  0.00000000000E+00  0.74505805969E-08  0.10566000000E+00  0.10566000000E+00 0. -1.
     999900   -1    0    0    0    0 -0.00000000000E+00 -0.00000000000E+00 -0.74505805969E-08  0.93827000000E+00  0.93827000000E+00 0. -1.
     999902    2    1    2    0    0 -0.13197063048E-02  0.99791535906E-02  0.20769854308E-01  0.10208494459E+01  0.10205884965E+01 0.  0.
     999903    2    3    3    0    0  0.32915128943E-01  0.96932069693E-01 -0.77271005805E-01  0.13048724776E+00  0.24018360520E-01 0.  0.
         14    1    1    2    0    0  0.13197063048E-02 -0.99791535906E-02 -0.20769854308E-01  0.23080554133E-01  0.00000000000E+00 0.  1.
     999901    1    3    3    0    0 -0.34234835248E-01 -0.86952916102E-01  0.98040860113E-01  0.89036219811E+00  0.88000000000E+00 0.  1.
        -11    1    4    4    0    0 -0.24722873700E-02  0.16279639776E-01 -0.73872871388E-02  0.18054694912E-01  0.51100000000E-03 0. -1.
         11    1    4    4    0    0  0.35387416313E-01  0.80652429917E-01 -0.69883718666E-01  0.11243255285E+00  0.51100000000E-03 0.  1.
</event>
<event>
 8    1  0.1092993E+005  0.1043930E+01  0.7957747E-01            NaN
         13   -1    0    0    0    0  0.00000000000E+00  0.00000000000E+00  0.74505805969E-08  0.10566000000E+00  0.10566000000E+00 0. -1.
     999900   -1    0    0    0    0 -0.00000000000E+00 -0.00000000000E+00 -0.74505805969E-08  0.93827000000E+00  0.93827000000E+00 0. -1.
     999902    2    1    2    0    0 -0.42608153023E-02 -0.22315215142E-01  0.59402193862E-02  0.10204478881E+01  0.10201776721E+01 0.  0.
     999903    2    3    3    0    0  0.58199643089E-01  0.11107276570E+00  0.17740916907E-01  0.12812904442E+00  0.19441043006E-01 0.  0.
         14    1    1    2    0    0  0.42608153023E-02  0.22315215142E-01 -0.59402193862E-02  0.23482111920E-01  0.00000000000E+00 0. -1.
     999901    1    3    3    0    0 -0.62460458391E-01 -0.13338798085E+00 -0.11800697521E-01  0.89231884366E+00  0.88000000000E+00 0. -1.
        -11    1    4    4    0    0  0.25970119686E-01  0.66572920869E-01  0.44643231963E-02  0.71600224944E-01  0.51100000000E-03 0. -1.
         11    1    4    4    0    0  0.32229523403E-01  0.44499844836E-01  0.13276593711E-01  0.56528819471E-01  0.51100000000E-03 0.  1.
</event>
<event>
 8    1  0.1092993E+005  0.1043930E+01  0.7957747E-01            NaN
         13   -1    0    0    0    0  0.00000000000E+00  0.00000000000E+00  0.74505805969E-08  0.10566000000E+00  0.10566000000E+00 0.  1.
     999900   -1    0    0    0    0 -0.00000000000E+00 -0.00000000000E+00 -0.74505805969E-08  0.93827000000E+00  0.93827000000E+00 0.  1.
     999902    2    1    2    0    0 -0.13523097194E-01  0.15125352754E-01 -0.38757178763E-02  0.10232739684E+01  0.10230654635E+01 0.  0.
     999903    2    3    3    0    0 -0.48294050981E-01  0.12282024917E+00 -0.21352632910E-01  0.13585487206E+00  0.24155379574E-01 0.  0.
         14    1    1    2    0    0  0.13523097194E-01 -0.15125352754E-01  0.38757178763E-02  0.20656031630E-01  0.00000000000E+00 0.  1.
     999901    1    3    3    0    0  0.34770953788E-01 -0.10769489642E+00  0.17476915034E-01  0.88741909631E+00  0.88000000000E+00 0.  1.
        -11    1    4    4    0    0 -0.10513287044E-01  0.46208466325E-01 -0.16903940376E-01  0.50316556776E-01  0.51100000000E-03 0. -1.
         11    1    4    4    0    0 -0.37780763938E-01  0.76611782848E-01 -0.44486925343E-02  0.85538315281E-01  0.51100000000E-03 0.  1.
</event>
<event>
 8    1  0.1092993E+005  0.1043930E+01  0.7957747E-01            NaN
         13   -1    0    0    0    0  0.00000000000E+00  0.00000000000E+00  0.74505805969E-08  0.10566000000E+00  0.10566000000E+00 0. -1.
     999900   -1    0    0    0    0 -0.00000000000E+00 -0.00000000000E+00 -0.74505805969E-08  0.93827000000E+00  0.93827000000E+00 0.  1.
     999902    2    1    2    0    0 -0.15250964645E-01  0.39522548852E-02  0.18634769932E-01  0.10195278097E+01  0.10192357371E+01 0.  0.
     999903    2    3    3    0    0 -0.74858485991E-01 -0.87505643758E-01  0.60743035062E-01  0.13178307734E+00  0.20396876017E-01 0.  0.
         14    1    1    2    0    0  0.15250964645E-01 -0.39522548852E-02 -0.18634769932E-01  0.24402190305E-01  0.00000000000E+00 0.  1.
     999901    1    3    3    0    0  0.59607521347E-01  0.91457898643E-01 -0.42108265131E-01  0.88774473235E+00  0.88000000000E+00 0.  1.
        -11    1    4    4    0    0 -0.63874809210E-01 -0.63471678997E-01  0.41876744582E-01  0.99310463417E-01  0.51100000000E-03 0. -1.
         11    1    4    4    0    0 -0.10983676782E-01 -0.24033964761E-01  0.18866290481E-01  0.32472613927E-01  0.51100000000E-03 0.  1.
</event>
<event>
 8    1  0.1092993E+005  0.1043930E+01  0.7957747E-01            NaN
         13   -1    0    0    0    0  0.00000000000E+00  0.00000000000E+00  0.74505805969E-08  0.10566000000E+00  0.10566000000E+00 0.  1.
     999900   -1    0    0    0    0 -0.00000000000E+00 -0.00000000000E+00 -0.74505805969E-08  0.93827000000E+00  0.93827000000E+00 0.  1.
     999902    2    1    2    0    0  0.19530736504E-01  0.73986730254E-02 -0.10944303238E-01  0.10203510305E+01  0.10200785546E+01 0.  0.
     999903    2    3    3    0    0 -0.10308354259E+00  0.45620874573E-03  0.73065505546E-01  0.12786007409E+00  0.19575637030E-01 0.  0.
         14    1    1    2    0    0 -0.19530736504E-01 -0.73986730254E-02  0.10944303238E-01  0.23578969534E-01  0.00000000000E+00 0. -1.
     999901    1    3    3    0    0  0.12261427909E+00  0.69424642797E-02 -0.84009808784E-01  0.89249095638E+00  0.88000000000E+00 0.  1.
        -11    1    4    4    0    0 -0.18040418967E-01  0.58306125409E-02  0.77283260204E-02  0.20480256424E-01  0.51100000000E-03 0.  1.
         11    1    4    4    0    0 -0.85043123623E-01 -0.53744037951E-02  0.65337179526E-01  0.10737981766E+00  0.51100000000E-03 0. -1.
</event>
<event>
 8    1  0.1092993E+005  0.1043930E+01  0.7957747E-01            NaN
         13   -1    0    0    0    0  0.00000000000E+00  0.00000000000E+00  0.74505805969E-08  0.10566000000E+00  0.10566000000E+00 0. -1.
     999900   -1    0    0    0    0 -0.00000000000E+00 -0.00000000000E+00 -0.74505805969E-08  0.93827000000E+00  0.93827000000E+00 0. -1.
     999902    2    1    2    0    0 -0.22881741030E-01  0.76833418935E-02 -0.17232943814E-02  0.10197312901E+01  0.10194441262E+01 0.  0.
     999903    2    3    3    0    0  0.80895285879E-01 -0.48029674772E-01 -0.84740957499E-01  0.12801073754E+00  0.18836722438E-01 0.  0.
         14    1    1    2    0    0  0.22881741030E-01 -0.76833418935E-02  0.17232943814E-02  0.24198709857E-01  0.00000000000E+00 0.  1.
     999901    1    3    3    0    0 -0.10377702691E+00  0.55713016666E-01  0.83017663118E-01  0.89172055260E+00  0.88000000000E+00 0.  1.
        -11    1    4    4    0    0  0.15294212080E-01 -0.18205652605E-01 -0.23590594489E-01  0.33498298154E-01  0.51100000000E-03 0.  1.
         11    1    4    4    0    0  0.65601073799E-01 -0.29824022168E-01 -0.61150363010E-01  0.94512439389E-01  0.51100000000E-03 0. -1.
</event>
<event>
 8    1  0.1092993E+005  0.1043930E+01  0.7957747E-01            NaN
         13   -1    0    0    0    0  0.00000000000E+00  0.00000000000E+00  0.74505805969E-08  0.10566000000E+00  0.10566000000E+00 0. -1.
     999900   -1    0    0    0    0 -0.00000000000E+00 -0.00000000000E+00 -0.74505805969E-08  0.93827000000E+00  0.93827000000E+00 0. -1.
     999902    2    1    2    0    0  0.25956339044E-01 -0.26832083261E-02  0.72155063544E-03  0.10178253686E+01  0.10174905549E+01 0.  0.
     999903    2    3    3    0    0 -0.49808522113E-01  0.10713813319E+00  0.42834892912E-01  0.12677285905E+00  0.16645157894E-01 0.  0.
         14    1    1    2    0    0 -0.25956339044E-01  0.26832083261E-02 -0.72155063544E-03  0.26104631367E-01  0.00000000000E+00 0. -1.
     999901    1    3    3    0    0  0.75764861157E-01 -0.10982134152E+00 -0.42113342277E-01  0.89105250958E+00  0.88000000000E+00 0. -1.
        -11    1    4    4    0    0 -0.43178433706E-01  0.75418095631E-01  0.31532664939E-01  0.92449101483E-01  0.51100000000E-03 0.  1.
         11    1    4    4    0    0 -0.66300884072E-02  0.31720037562E-01  0.11302227973E-01  0.34323757565E-01  0.51100000000E-03 0. -1.
</event>
<event>
 8    1  0.1092993E+005  0.1043930E+01  0.7957747E-01            NaN
         13   -1    0    0    0    0  0.00000000000E+00  0.00000000000E+00  0.74505805969E-08  0.10566000000E+00  0.10566000000E+00 0.  1.
     999900   -1    0    0    0    0 -0.00000000000E+00 -0.00000000000E+00 -0.74505805969E-08  0.93827000000E+00  0.93827000000E+00 0.  1.
     999902    2    1    2    0    0  0.48812738943E-02  0.22829812175E-01  0.49452728736E-03  0.10205789461E+01  0.10203117727E+01 0.  0.
     999903    2    3    3    0    0  0.43459018883E-01 -0.11430358809E+00 -0.33864196726E-01  0.12846105383E+00  0.20036515649E-01 0.  0.
         14    1    1    2    0    0 -0.48812738943E-02 -0.22829812175E-01 -0.49452728736E-03  0.23351053853E-01  0.00000000000E+00 0.  1.
     999901    1    3    3    0    0 -0.38577744989E-01  0.13713340026E+00  0.34358724013E-01  0.89211789232E+00  0.88000000000E+00 0.  1.
        -11    1    4    4    0    0  0.36849566500E-01 -0.69890033406E-01 -0.21438097195E-01  0.81867945211E-01  0.51100000000E-03 0. -1.
         11    1    4    4    0    0  0.66094523827E-02 -0.44413554682E-01 -0.12426099531E-01  0.46593108619E-01  0.51100000000E-03 0.  1.
</event>
<event>
 8    1  0.1092993E+005  0.1043930E+01  0.7957747E-01            NaN
         13   -1    0    0    0    0  0.00000000000E+00  0.00000000000E+00  0.74505805969E-08  0.10566000000E+00  0.10566000000E+00 0. -1.
     999900   -1    0    0    0    0 -0.00000000000E+00 -0.00000000000E+00 -0.74505805969E-08  0.93827000000E+00  0.93827000000E+00 0. -1.
     999902    2    1    2    0    0  0.15185037163E-01 -0.51342087673E-02  0.13697434717E-01  0.10228452858E+01  0.10226279449E+01 0.  0.
     999903    2    3    3    0    0 -0.10352413261E+00 -0.20018255951E-01 -0.73669585571E-01  0.13046285768E+00  0.21803045498E-01 0.  0.
         14    1    1    2    0    0 -0.15185037163E-01  0.51342087673E-02 -0.13697434717E-01  0.21084714158E-01  0.00000000000E+00 0.  1.
     999901    1    3    3    0    0  0.11870916977E+00  0.14884047184E-01  0.87367020289E-01  0.89238242816E+00  0.88000000000E+00 0.  1.
        -11    1    4    4    0    0 -0.43594378497E-01 -0.29841940349E-02 -0.41831405997E-01  0.60493825298E-01  0.51100000000E-03 0. -1.
         11    1    4    4    0    0 -0.59929754114E-01 -0.17034061917E-01 -0.31838179575E-01  0.69969032387E-01  0.51100000000E-03 0.  1.
</event>
<event>
 8    1  0.1092993E+005  0.1043930E+01  0.7957747E-01            NaN
         13   -1    0    0    0    0  0.00000000000E+00  0.00000000000E+00  0.74505805969E-08  0.10566000000E+00  0.10566000000E+00 0.  1.
     999900   -1    0    0    0    0 -0.00000000000E+00 -0.00000000000E+00 -0.74505805969E-08  0.93827000000E+00  0.93827000000E+00 0.  1.
     999902    2    1    2    0    0  0.19191272258E-01 -0.13118001782E-01 -0.12886663309E-02  0.10206480851E+01  0.10203825097E+01 0.  0.
     999903    2    3    3    0    0 -0.39376893192E-01 -0.87506104178E-01  0.87243877632E-01  0.13115281745E+00  0.19537383546E-01 0.  0.
         14    1    1    2    0    0 -0.19191272258E-01  0.13118001782E-01  0.12886663309E-02  0.23281914924E-01  0.00000000000E+00 0.  1.
     999901    1    3    3    0    0  0.58568165450E-01  0.74388102396E-01 -0.88532543963E-01  0.88949526762E+00  0.88000000000E+00 0.  1.
        -11    1    4    4    0    0 -0.33048821826E-01 -0.51866528294E-01  0.50597616251E-01  0.79641328923E-01  0.51100000000E-03 0.  1.
         11    1    4    4    0    0 -0.63280713661E-02 -0.35639575884E-01  0.36646261380E-01  0.51511488530E-01  0.51100000000E-03 0. -1.
</event>
