<event>
 8    1  0.1082757E+005  0.1043930E+01  0.7957747E-01            NaN
         13   -1    0    0    0    0  0.00000000000E+00  0.00000000000E+00  0.74505805969E-08  0.10566000000E+00  0.10566000000E+00 0. -1.
     999900   -1    0    0    0    0 -0.00000000000E+00 -0.00000000000E+00 -0.74505805969E-08  0.93827000000E+00  0.93827000000E+00 0.  1.
     999902    2    1    2    0    0 -0.95822969393E-02  0.18195143133E-01 -0.13425903101E-01  0.10193711213E+01  0.10190752398E+01 0.  0.
     999903    2    3    3    0    0  0.22396350338E-01  0.10571307619E+00  0.70205001991E-01  0.13050884246E+00  0.20663123407E-01 0.  0.
         14    1    1    2    0    0  0.95822969393E-02 -0.18195143133E-01  0.13425903101E-01  0.24558878686E-01  0.00000000000E+00 0. -1.
     999901    1    3    3    0    0 -0.31978647277E-01 -0.87517933057E-01 -0.83630905091E-01  0.88886227886E+00  0.88000000000E+00 0.  1.
        -11    1    4    4    0    0  0.44785700899E-03  0.36927015178E-01  0.31737992103E-01  0.48696676371E-01  0.51100000000E-03 0.  1.
         11    1    4    4    0    0  0.21948493329E-01  0.68786061012E-01  0.38467009888E-01  0.81812166086E-01  0.51100000000E-03 0. -1.
</event>
<event>
 8    1  0.1082757E+005  0.1043930E+01  0.7957747E-01            NaN
         13   -1    0    0    0    0  0.00000000000E+00  0.00000000000E+00  0.74505805969E-08  0.10566000000E+00  0.10566000000E+00 0. -1.
     999900   -1    0    0    0    0 -0.00000000000E+00 -0.00000000000E+00 -0.74505805969E-08  0.93827000000E+00  0.93827000000E+00 0. -1.
     999902    2    1    2    0    0  0.21803975253E-01  0.60005951160E-03  0.67577673929E-02  0.10210949211E+01  0.10208395550E+01 0.  0.
     999903    2    3    3    0    0  0.10700323979E+00 -0.25413947868E-01 -0.72155287034E-01  0.13308427172E+00  0.20235509868E-01 0.  0.
         14    1    1    2    0    0 -0.21803975253E-01 -0.60005951160E-03 -0.67577673929E-02  0.22835078901E-01  0.00000000000E+00 0.  1.
     999901    1    3    3    0    0 -0.85199264537E-01  0.26014007380E-01  0.78913054427E-01  0.88801064938E+00  0.88000000000E+00 0.  1.
        -11    1    4    4    0    0  0.12631965875E-01  0.34837558168E-02 -0.77797491247E-02  0.15247581248E-01  0.51100000000E-03 0.  1.
         11    1    4    4    0    0  0.94371273915E-01 -0.28897703685E-01 -0.64375537910E-01  0.11783669047E+00  0.51100000000E-03 0. -1.
</event>
<event>
 8    1  0.1082757E+005  0.1043930E+01  0.7957747E-01            NaN
         13   -1    0    0    0    0  0.00000000000E+00  0.00000000000E+00  0.74505805969E-08  0.10566000000E+00  0.10566000000E+00 0. -1.
     999900   -1    0    0    0    0 -0.00000000000E+00 -0.00000000000E+00 -0.74505805969E-08  0.93827000000E+00  0.93827000000E+00 0. -1.
     999902    2    1    2    0    0  0.10849955227E-01 -0.12155242419E-01 -0.16625933395E-01  0.10206514024E+01  0.10203859035E+01 0.  0.
     999903    2    3    3    0    0  0.27202417603E-01  0.10691648088E+00 -0.67821683904E-01  0.13100738188E+00  0.19800199280E-01 0.  0.
         14    1    1    2    0    0 -0.10849955227E-01  0.12155242419E-01  0.16625933395E-01  0.23278597637E-01  0.00000000000E+00 0. -1.
     999901    1    3    3    0    0 -0.16352462376E-01 -0.11907172330E+00  0.51195750509E-01  0.88964402049E+00  0.88000000000E+00 0. -1.
        -11    1    4    4    0    0  0.17866049613E-01  0.32635122187E-01 -0.21738660887E-01  0.43093821218E-01  0.51100000000E-03 0. -1.
         11    1    4    4    0    0  0.93363679896E-02  0.74281358693E-01 -0.46083023017E-01  0.87913560660E-01  0.51100000000E-03 0.  1.
</event>
<event>
 8    1  0.1082757E+005  0.1043930E+01  0.7957747E-01            NaN
         13   -1    0    0    0    0  0.00000000000E+00  0.00000000000E+00  0.74505805969E-08  0.10566000000E+00  0.10566000000E+00 0.  1.
     999900   -1    0    0    0    0 -0.00000000000E+00 -0.00000000000E+00 -0.74505805969E-08  0.93827000000E+00  0.93827000000E+00 0.  1.
     999902    2    1    2    0    0  0.20265152442E-01 -0.67156356975E-02 -0.92705451323E-02  0.10206551386E+01  0.10203897259E+01 0.  0.
     999903    2    3    3    0    0  0.37303128709E-01 -0.79237016853E-01 -0.97823411566E-01  0.13307908354E+00  0.21693187264E-01 0.  0.
         14    1    1    2    0    0 -0.20265152442E-01  0.67156356975E-02  0.92705451323E-02  0.23274861404E-01  0.00000000000E+00 0.  1.
     999901    1    3    3    0    0 -0.17037976267E-01  0.72521381155E-01  0.88552866433E-01  0.88757605506E+00  0.88000000000E+00 0.  1.
        -11    1    4    4    0    0  0.11333885963E-01 -0.37417621881E-01 -0.57020270346E-01  0.69138323306E-01  0.51100000000E-03 0.  1.
         11    1    4    4    0    0  0.25969242746E-01 -0.41819394972E-01 -0.40803141220E-01  0.63940760232E-01  0.51100000000E-03 0. -1.
</event>
<event>
 8    1  0.1082757E+005  0.1043930E+01  0.7957747E-01            NaN
         13   -1    0    0    0    0  0.00000000000E+00  0.00000000000E+00  0.74505805969E-08  0.10566000000E+00  0.10566000000E+00 0.  1.
     999900   -1    0    0    0    0 -0.00000000000E+00 -0.00000000000E+00 -0.74505805969E-08  0.93827000000E+00  0.93827000000E+00 0. -1.
     999902    2    1    2    0    0  0.12330113466E-01 -0.20702048159E-01 -0.12034418343E-02  0.10198041888E+01  0.10195187731E+01 0.  0.
     999903    2    3    3    0    0 -0.11600796057E+00 -0.17380591625E-01  0.50606239762E-01  0.12898100965E+00  0.17753238231E-01 0.  0.
         14    1    1    2    0    0 -0.12330113466E-01  0.20702048159E-01  0.12034418343E-02  0.24125811247E-01  0.00000000000E+00 0.  1.
     999901    1    3    3    0    0  0.12833807403E+00 -0.33214565346E-02 -0.51809681596E-01  0.89082317910E+00  0.88000000000E+00 0. -1.
        -11    1    4    4    0    0 -0.31671692716E-01 -0.32982748498E-03  0.66848665334E-02  0.32375198335E-01  0.51100000000E-03 0. -1.
         11    1    4    4    0    0 -0.84336267849E-01 -0.17050764140E-01  0.43921373228E-01  0.96605811315E-01  0.51100000000E-03 0.  1.
</event>
<event>
 8    1  0.1082757E+005  0.1043930E+01  0.7957747E-01            NaN
         13   -1    0    0    0    0  0.00000000000E+00  0.00000000000E+00  0.74505805969E-08  0.10566000000E+00  0.10566000000E+00 0. -1.
     999900   -1    0    0    0    0 -0.00000000000E+00 -0.00000000000E+00 -0.74505805969E-08  0.93827000000E+00  0.93827000000E+00 0. -1.
     999902    2    1    2    0    0  0.33865536879E-03 -0.21697995378E-01 -0.29781600015E-02  0.10220259564E+01  0.10217912058E+01 0.  0.
     999903    2    3    3    0    0  0.12550120114E+00 -0.26321453577E-01 -0.27740769477E-01  0.13281269394E+00  0.20646815111E-01 0.  0.
         14    1    1    2    0    0 -0.33865536879E-03  0.21697995378E-01  0.29781600015E-02  0.21904043642E-01  0.00000000000E+00 0. -1.
     999901    1    3    3    0    0 -0.12516254577E+00  0.46234581991E-02  0.24762609475E-01  0.88921326242E+00  0.88000000000E+00 0.  1.
        -11    1    4    4    0    0  0.10373516487E+00 -0.27158175627E-01 -0.17179840807E-01  0.10859999533E+00  0.51100000000E-03 0. -1.
         11    1    4    4    0    0  0.21766036273E-01  0.83672204999E-03 -0.10560928670E-01  0.24212698614E-01  0.51100000000E-03 0.  1.
</event>
<event>
 8    1  0.1082757E+005  0.1043930E+01  0.7957747E-01            NaN
         13   -1    0    0    0    0  0.00000000000E+00  0.00000000000E+00  0.74505805969E-08  0.10566000000E+00  0.10566000000E+00 0. -1.
     999900   -1    0    0    0    0 -0.00000000000E+00 -0.00000000000E+00 -0.74505805969E-08  0.93827000000E+00  0.93827000000E+00 0. -1.
     999902    2    1    2    0    0  0.17876120957E-01  0.28285945751E-02 -0.13964672839E-01  0.10210702376E+01  0.10208143129E+01 0.  0.
     999903    2    3    3    0    0 -0.20925109761E-01  0.46110889690E-01 -0.12097239827E+00  0.13268431594E+00  0.20167602391E-01 0.  0.
         14    1    1    2    0    0 -0.17876120957E-01 -0.28285945751E-02  0.13964672839E-01  0.22859762362E-01  0.00000000000E+00 0.  1.
     999901    1    3    3    0    0  0.38801230718E-01 -0.43282295115E-01  0.10700772543E+00  0.88838592170E+00  0.88000000000E+00 0.  1.
        -11    1    4    4    0    0 -0.13733145709E-01  0.17595633241E-01 -0.73710116138E-01  0.77017192511E-01  0.51100000000E-03 0.  1.
         11    1    4    4    0    0 -0.71919640522E-02  0.28515256449E-01 -0.47262282130E-01  0.55667123425E-01  0.51100000000E-03 0. -1.
</event>
<event>
 8    1  0.1082757E+005  0.1043930E+01  0.7957747E-01            NaN
         13   -1    0    0    0    0  0.00000000000E+00  0.00000000000E+00  0.74505805969E-08  0.10566000000E+00  0.10566000000E+00 0. -1.
     999900   -1    0    0    0    0 -0.00000000000E+00 -0.00000000000E+00 -0.74505805969E-08  0.93827000000E+00  0.93827000000E+00 0. -1.
     999902    2    1    2    0    0 -0.14623240565E-01 -0.15213409362E-02 -0.27512668815E-01  0.10127354398E+01  0.10122548940E+01 0.  0.
     999903    2    3    3    0    0 -0.12236027159E+00  0.18834756053E-01 -0.22304202643E-02  0.12557095072E+00  0.20887910113E-01 0.  0.
         14    1    1    2    0    0  0.14623240565E-01  0.15213409362E-02  0.27512668815E-01  0.31194560234E-01  0.00000000000E+00 0. -1.
     999901    1    3    3    0    0  0.10773703103E+00 -0.20356096989E-01 -0.25282248551E-01  0.88716448905E+00  0.88000000000E+00 0. -1.
        -11    1    4    4    0    0 -0.25970034994E-01  0.65476354508E-02  0.77553522480E-02  0.27887647034E-01  0.51100000000E-03 0.  1.
         11    1    4    4    0    0 -0.96390236601E-01  0.12287120602E-01 -0.99857725123E-02  0.97683303682E-01  0.51100000000E-03 0. -1.
</event>
<event>
 8    1  0.1082757E+005  0.1043930E+01  0.7957747E-01            NaN
         13   -1    0    0    0    0  0.00000000000E+00  0.00000000000E+00  0.74505805969E-08  0.10566000000E+00  0.10566000000E+00 0. -1.
     999900   -1    0    0    0    0 -0.00000000000E+00 -0.00000000000E+00 -0.74505805969E-08  0.93827000000E+00  0.93827000000E+00 0.  1.
     999902    2    1    2    0    0 -0.54289028563E-02 -0.21813587668E-01  0.54410167698E-02  0.10208018730E+01  0.10205398345E+01 0.  0.
     999903    2    3    3    0    0  0.10837584682E+00  0.49322696265E-01  0.47250839047E-01  0.12964534741E+00  0.19930423263E-01 0.  0.
         14    1    1    2    0    0  0.54289028563E-02  0.21813587668E-01 -0.54410167698E-02  0.23128126960E-01  0.00000000000E+00 0.  1.
     999901    1    3    3    0    0 -0.11380474968E+00 -0.71136283934E-01 -0.41809822277E-01  0.89115652563E+00  0.88000000000E+00 0.  1.
        -11    1    4    4    0    0  0.39607825086E-01  0.13768091739E-01  0.26086285139E-01  0.49387200280E-01  0.51100000000E-03 0. -1.
         11    1    4    4    0    0  0.68768021739E-01  0.35554604527E-01  0.21164553908E-01  0.80258147125E-01  0.51100000000E-03 0.  1.
</event>
<event>
 8    1  0.1082757E+005  0.1043930E+01  0.7957747E-01            NaN
         13   -1    0    0    0    0  0.00000000000E+00  0.00000000000E+00  0.74505805969E-08  0.10566000000E+00  0.10566000000E+00 0. -1.
     999900   -1    0    0    0    0 -0.00000000000E+00 -0.00000000000E+00 -0.74505805969E-08  0.93827000000E+00  0.93827000000E+00 0. -1.
     999902    2    1    2    0    0  0.22776709160E-02  0.12336847961E-01 -0.19677669837E-01  0.10205934130E+01  0.10203265744E+01 0.  0.
     999903    2    3    3    0    0 -0.95274537341E-01  0.29830121285E-01 -0.84907666522E-01  0.13263091356E+00  0.20361085348E-01 0.  0.
         14    1    1    2    0    0 -0.22776709160E-02 -0.12336847961E-01  0.19677669837E-01  0.23336586996E-01  0.00000000000E+00 0. -1.
     999901    1    3    3    0    0  0.97552208257E-01 -0.17493273324E-01  0.65229996685E-01  0.88796249944E+00  0.88000000000E+00 0.  1.
        -11    1    4    4    0    0 -0.54359711066E-01  0.12189206058E-01 -0.58733527717E-01  0.80953340453E-01  0.51100000000E-03 0. -1.
         11    1    4    4    0    0 -0.40914826275E-01  0.17640915227E-01 -0.26174138805E-01  0.51677573109E-01  0.51100000000E-03 0.  1.
</event>
<event>
 8    1  0.1082757E+005  0.1043930E+01  0.7957747E-01            NaN
         13   -1    0    0    0    0  0.00000000000E+00  0.00000000000E+00  0.74505805969E-08  0.10566000000E+00  0.10566000000E+00 0. -1.
     999900   -1    0    0    0    0 -0.00000000000E+00 -0.00000000000E+00 -0.74505805969E-08  0.93827000000E+00  0.93827000000E+00 0. -1.
     999902    2    1    2    0    0 -0.13591292945E-01 -0.18116414739E-01 -0.26104374841E-02  0.10211321468E+01  0.10208776220E+01 0.  0.
     999903    2    3    3    0    0 -0.42664470420E-01 -0.66115695365E-01  0.10514482457E+00  0.13278515542E+00  0.19619407610E-01 0.  0.
         14    1    1    2    0    0  0.13591292945E-01  0.18116414739E-01  0.26104374841E-02  0.22797853206E-01  0.00000000000E+00 0. -1.
     999901    1    3    3    0    0  0.29073177474E-01  0.47999280626E-01 -0.10775526206E+00  0.88834699138E+00  0.88000000000E+00 0. -1.
        -11    1    4    4    0    0 -0.26871063301E-01 -0.40323538339E-01  0.79616499698E-01  0.93204559611E-01  0.51100000000E-03 0. -1.
         11    1    4    4    0    0 -0.15793407119E-01 -0.25792157025E-01  0.25528324874E-01  0.39580595805E-01  0.51100000000E-03 0.  1.
</event>
<event>
 8    1  0.1082757E+005  0.1043930E+01  0.7957747E-01            NaN
         13   -1    0    0    0    0  0.00000000000E+00  0.00000000000E+00  0.74505805969E-08  0.10566000000E+00  0.10566000000E+00 0. -1.
     999900   -1    0    0    0    0 -0.00000000000E+00 -0.00000000000E+00 -0.74505805969E-08  0.93827000000E+00  0.93827000000E+00 0.  1.
     999902    2    1    2    0    0 -0.23487525835E-01 -0.48989768455E-02  0.52466407800E-02  0.10193700512E+01  0.10190741437E+01 0.  0.
     999903    2    3    3    0    0  0.56382596507E-02  0.94978750307E-01 -0.84322409391E-01  0.12872619058E+00  0.20184410693E-01 0.  0.
         14    1    1    2    0    0  0.23487525835E-01  0.48989768455E-02 -0.52466407800E-02  0.24559948767E-01  0.00000000000E+00 0. -1.
     999901    1    3    3    0    0 -0.29125785486E-01 -0.99877727153E-01  0.89569050171E-01  0.89064386065E+00  0.88000000000E+00 0.  1.
        -11    1    4    4    0    0 -0.47419255492E-02  0.46380023240E-01 -0.49770060166E-01  0.68197598371E-01  0.51100000000E-03 0. -1.
         11    1    4    4    0    0  0.10380185200E-01  0.48598727067E-01 -0.34552349225E-01  0.60528592213E-01  0.51100000000E-03 0.  1.
</event>
<event>
 8    1  0.1082757E+005  0.1043930E+01  0.7957747E-01            NaN
         13   -1    0    0    0    0  0.00000000000E+00  0.00000000000E+00  0.74505805969E-08  0.10566000000E+00  0.10566000000E+00 0.  1.
     999900   -1    0    0    0    0 -0.00000000000E+00 -0.00000000000E+00 -0.74505805969E-08  0.93827000000E+00  0.93827000000E+00 0. -1.
     999902    2    1    2    0    0 -0.13218451548E-02 -0.38381707797E-02  0.22784455743E-01  0.10207867450E+01  0.10205243596E+01 0.  0.
     999903    2    3    3    0    0  0.10231967883E+00  0.76791355302E-01 -0.13924800586E-01  0.13028674191E+00  0.20359423374E-01 0.  0.
         14    1    1    2    0    0  0.13218451548E-02  0.38381707797E-02 -0.22784455743E-01  0.23143255022E-01  0.00000000000E+00 0. -1.
     999901    1    3    3    0    0 -0.10364152399E+00 -0.80629526081E-01  0.36709256328E-01  0.89050000307E+00  0.88000000000E+00 0.  1.
        -11    1    4    4    0    0  0.76462520455E-01  0.61711144249E-01 -0.26484557029E-02  0.98295766936E-01  0.51100000000E-03 0. -1.
         11    1    4    4    0    0  0.25857158376E-01  0.15080211053E-01 -0.11276344883E-01  0.31990974971E-01  0.51100000000E-03 0.  1.
</event>
<event>
 8    1  0.1082757E+005  0.1043930E+01  0.7957747E-01            NaN
         13   -1    0    0    0    0  0.00000000000E+00  0.00000000000E+00  0.74505805969E-08  0.10566000000E+00  0.10566000000E+00 0. -1.
     999900   -1    0    0    0    0 -0.00000000000E+00 -0.00000000000E+00 -0.74505805969E-08  0.93827000000E+00  0.93827000000E+00 0.  1.
     999902    2    1    2    0    0 -0.16093421836E-01 -0.15240482248E-01  0.70930100382E-02  0.10206581003E+01  0.10203927559E+01 0.  0.
     999903    2    3    3    0    0 -0.58261161779E-01 -0.96333866439E-01 -0.67285852523E-01  0.13280311749E+00  0.20849586830E-01 0.  0.
         14    1    1    2    0    0  0.16093421836E-01  0.15240482248E-01 -0.70930100382E-02  0.23271899728E-01  0.00000000000E+00 0.  1.
     999901    1    3    3    0    0  0.42167739943E-01  0.81093384190E-01  0.74378862561E-01  0.88785498278E+00  0.88000000000E+00 0. -1.
        -11    1    4    4    0    0 -0.19629259360E-01 -0.35237460257E-01 -0.35883797164E-01  0.53989762440E-01  0.51100000000E-03 0. -1.
         11    1    4    4    0    0 -0.38631902419E-01 -0.61096406181E-01 -0.31402055359E-01  0.78813355052E-01  0.51100000000E-03 0.  1.
</event>
<event>
 8    1  0.1082757E+005  0.1043930E+01  0.7957747E-01            NaN
         13   -1    0    0    0    0  0.00000000000E+00  0.00000000000E+00  0.74505805969E-08  0.10566000000E+00  0.10566000000E+00 0.  1.
     999900   -1    0    0    0    0 -0.00000000000E+00 -0.00000000000E+00 -0.74505805969E-08  0.93827000000E+00  0.93827000000E+00 0.  1.
     999902    2    1    2    0    0  0.87042412125E-02  0.23855979745E-01  0.66706535953E-02  0.10176741587E+01  0.10173354039E+01 0.  0.
     999903    2    3    3    0    0  0.10720842559E-01  0.12359300536E+00 -0.37019009496E-01  0.13096094256E+00  0.19753328118E-01 0.  0.
         14    1    1    2    0    0 -0.87042412125E-02 -0.23855979745E-01 -0.66706535953E-02  0.26255841332E-01  0.00000000000E+00 0. -1.
     999901    1    3    3    0    0 -0.20166013470E-02 -0.99737025620E-01  0.43689663091E-01  0.88671321611E+00  0.88000000000E+00 0. -1.
        -11    1    4    4    0    0 -0.54352238579E-02  0.29050128521E-01 -0.60588017558E-02  0.30173197132E-01  0.51100000000E-03 0. -1.
         11    1    4    4    0    0  0.16156066417E-01  0.94542876844E-01 -0.30960207740E-01  0.10078774543E+00  0.51100000000E-03 0.  1.
</event>
<event>
 8    1  0.1082757E+005  0.1043930E+01  0.7957747E-01            NaN
         13   -1    0    0    0    0  0.00000000000E+00  0.00000000000E+00  0.74505805969E-08  0.10566000000E+00  0.10566000000E+00 0. -1.
     999900   -1    0    0    0    0 -0.00000000000E+00 -0.00000000000E+00 -0.74505805969E-08  0.93827000000E+00  0.93827000000E+00 0.  1.
     999902    2    1    2    0    0 -0.24402470282E-01  0.16449460843E-02  0.55015753179E-02  0.10188610205E+01  0.10185525638E+01 0.  0.
     999903    2    3    3    0    0  0.74406972706E-01 -0.42756490537E-01  0.93067018534E-01  0.12790507294E+00  0.18268078039E-01 0.  0.
         14    1    1    2    0    0  0.24402470282E-01 -0.16449460843E-02 -0.55015753179E-02  0.25068979525E-01  0.00000000000E+00 0. -1.
     999901    1    3    3    0    0 -0.98809442988E-01  0.44401436621E-01 -0.87565443216E-01  0.89095594753E+00  0.88000000000E+00 0.  1.
        -11    1    4    4    0    0  0.36203708177E-01 -0.14408104726E-01  0.31559333059E-01  0.50145334695E-01  0.51100000000E-03 0. -1.
         11    1    4    4    0    0  0.38203264529E-01 -0.28348385810E-01  0.61507685476E-01  0.77759738247E-01  0.51100000000E-03 0.  1.
</event>
<event>
 8    1  0.1082757E+005  0.1043930E+01  0.7957747E-01            NaN
         13   -1    0    0    0    0  0.00000000000E+00  0.00000000000E+00  0.74505805969E-08  0.10566000000E+00  0.10566000000E+00 0.  1.
     999900   -1    0    0    0    0 -0.00000000000E+00 -0.00000000000E+00 -0.74505805969E-08  0.93827000000E+00  0.93827000000E+00 0. -1.
     999902    2    1    2    0    0 -0.32521561937E-02 -0.12727515713E-01  0.19911233774E-01  0.10200757885E+01  0.10197968380E+01 0.  0.
     999903    2    3    3    0    0  0.68640847096E-01  0.10054997515E-01 -0.10563844520E+00  0.12797132784E+00  0.20112453375E-01 0.  0.
         14    1    1    2    0    0  0.32521561937E-02  0.12727515713E-01 -0.19911233774E-01  0.23854211505E-01  0.00000000000E+00 0.  1.
     999901    1    3    3    0    0 -0.71893003290E-01 -0.22782513228E-01  0.12554967897E+00  0.89210446065E+00  0.88000000000E+00 0.  1.
        -11    1    4    4    0    0  0.47617229848E-01  0.13558801925E-01 -0.61503842249E-01  0.78957111272E-01  0.51100000000E-03 0. -1.
         11    1    4    4    0    0  0.21023617247E-01 -0.35038044095E-02 -0.44134602946E-01  0.49014216568E-01  0.51100000000E-03 0.  1.
</event>
<event>
 8    1  0.1082757E+005  0.1043930E+01  0.7957747E-01            NaN
         13   -1    0    0    0    0  0.00000000000E+00  0.00000000000E+00  0.74505805969E-08  0.10566000000E+00  0.10566000000E+00 0. -1.
     999900   -1    0    0    0    0 -0.00000000000E+00 -0.00000000000E+00 -0.74505805969E-08  0.93827000000E+00  0.93827000000E+00 0. -1.
     999902    2    1    2    0    0 -0.18055121791E-01 -0.23188872516E-02  0.13499850487E-01  0.10212670208E+01  0.10210155323E+01 0.  0.
     999903    2    3    3    0    0 -0.66553051463E-02  0.48561132039E-01  0.12206237071E+00  0.13306402998E+00  0.20108135139E-01 0.  0.
         14    1    1    2    0    0  0.18055121791E-01  0.23188872516E-02 -0.13499850487E-01  0.22662979155E-01  0.00000000000E+00 0. -1.
     999901    1    3    3    0    0 -0.11399816645E-01 -0.50880019291E-01 -0.10856252023E+00  0.88820299086E+00  0.88000000000E+00 0. -1.
        -11    1    4    4    0    0 -0.98057014460E-02  0.47315949143E-01  0.10398802865E+00  0.11466787714E+00  0.51100000000E-03 0.  1.
         11    1    4    4    0    0  0.31503962997E-02  0.12451828957E-02  0.18074342066E-01  0.18396152842E-01  0.51100000000E-03 0. -1.
</event>
<event>
 7    1  0.1082757E+005  0.1043930E+01  0.7957747E-01            NaN
         13   -1    0    0    0    0  0.00000000000E+00  0.00000000000E+00  0.74505805969E-08  0.10566000000E+00  0.10566000000E+00 0.  1.
     999900   -1    0    0    0    0 -0.00000000000E+00 -0.00000000000E+00 -0.74505805969E-08  0.93827000000E+00  0.93827000000E+00 0. -1.
     999902    2    1    2    0    0  0.17507583754E-01 -0.11264035828E-01 -0.12181162395E-01  0.10198099936E+01  0.10195247169E+01 0.  0.
         14    1    1    2    0    0 -0.17507583754E-01  0.11264035828E-01  0.12181162395E-01  0.24120006412E-01  0.00000000000E+00 0.  1.
     999901    1    3    3    0    0  0.11687129363E+00  0.54317041679E-01  0.26631920148E-02  0.88939098988E+00  0.88000000000E+00 0.  1.
        -11    1    3    3    0    0 -0.63924429750E-02 -0.18950665608E-01  0.11563649839E-01  0.23107794633E-01  0.51100000000E-03 0. -1.
         11    1    3    3    0    0 -0.92971266902E-01 -0.46630411899E-01 -0.26408004249E-01  0.10731120907E+00  0.51100000000E-03 0.  1.
</event>
<event>
 8    1  0.1082757E+005  0.1043930E+01  0.7957747E-01            NaN
         13   -1    0    0    0    0  0.00000000000E+00  0.00000000000E+00  0.74505805969E-08  0.10566000000E+00  0.10566000000E+00 0.  1.
     999900   -1    0    0    0    0 -0.00000000000E+00 -0.00000000000E+00 -0.74505805969E-08  0.93827000000E+00  0.93827000000E+00 0.  1.
     999902    2    1    2    0    0 -0.57477428138E-02 -0.50666578382E-02  0.24029048467E-01  0.10187089227E+01  0.10183966646E+01 0.  0.
     999903    2    3    3    0    0 -0.78407023491E-01  0.75271948506E-01  0.70313588006E-01  0.13085988074E+00  0.19151505541E-01 0.  0.
         14    1    1    2    0    0  0.57477428138E-02  0.50666578382E-02 -0.24029048467E-01  0.25221077283E-01  0.00000000000E+00 0. -1.
     999901    1    3    3    0    0  0.72659280678E-01 -0.80338606345E-01 -0.46284539539E-01  0.88784904198E+00  0.88000000000E+00 0.  1.
        -11    1    4    4    0    0 -0.22784492194E-01  0.27447527283E-01  0.13774789842E-01  0.38242722114E-01  0.51100000000E-03 0. -1.
         11    1    4    4    0    0 -0.55622531297E-01  0.47824421223E-01  0.56538798164E-01  0.92617158626E-01  0.51100000000E-03 0.  1.
</event>
<event>
 8    1  0.1082757E+005  0.1043930E+01  0.7957747E-01            NaN
         13   -1    0    0    0    0  0.00000000000E+00  0.00000000000E+00  0.74505805969E-08  0.10566000000E+00  0.10566000000E+00 0. -1.
     999900   -1    0    0    0    0 -0.00000000000E+00 -0.00000000000E+00 -0.74505805969E-08  0.93827000000E+00  0.93827000000E+00 0.  1.
     999902    2    1    2    0    0  0.36183453900E-02 -0.54794625484E-02  0.22423617316E-01  0.10205647363E+01  0.10202972339E+01 0.  0.
     999903    2    3    3    0    0 -0.69528431495E-01  0.85056480293E-01 -0.64036660822E-01  0.12870006743E+00  0.19854616653E-01 0.  0.
         14    1    1    2    0    0 -0.36183453900E-02  0.54794625484E-02 -0.22423617316E-01  0.23365263677E-01  0.00000000000E+00 0.  1.
     999901    1    3    3    0    0  0.73146776885E-01 -0.90535942842E-01  0.86460278138E-01  0.89186466889E+00  0.88000000000E+00 0. -1.
        -11    1    4    4    0    0 -0.17603773355E-01  0.32233793725E-01 -0.13986625543E-01  0.39303907049E-01  0.51100000000E-03 0. -1.
         11    1    4    4    0    0 -0.51924658140E-01  0.52822686568E-01 -0.50050035279E-01  0.89396160385E-01  0.51100000000E-03 0.  1.
</event>
<event>
 8    1  0.1082757E+005  0.1043930E+01  0.7957747E-01            NaN
         13   -1    0    0    0    0  0.00000000000E+00  0.00000000000E+00  0.74505805969E-08  0.10566000000E+00  0.10566000000E+00 0. -1.
     999900   -1    0    0    0    0 -0.00000000000E+00 -0.00000000000E+00 -0.74505805969E-08  0.93827000000E+00  0.93827000000E+00 0.  1.
     999902    2    1    2    0    0 -0.77145062406E-02 -0.18528837681E-01  0.13712680642E-01  0.10196222020E+01  0.10193324118E+01 0.  0.
     999903    2    3    3    0    0 -0.11323413956E+00 -0.64913556120E-01  0.39081661112E-02  0.13205132393E+00  0.19660576283E-01 0.  0.
         14    1    1    2    0    0  0.77145062406E-02  0.18528837681E-01 -0.13712680642E-01  0.24307797982E-01  0.00000000000E+00 0. -1.
     999901    1    3    3    0    0  0.10551963332E+00  0.46384718439E-01  0.98045145306E-02  0.88757087809E+00  0.88000000000E+00 0. -1.
        -11    1    4    4    0    0 -0.76963007461E-01 -0.54141218892E-01  0.44772663731E-02  0.94206598154E-01  0.51100000000E-03 0. -1.
         11    1    4    4    0    0 -0.36271132100E-01 -0.10772337228E-01 -0.56910026188E-03  0.37844725779E-01  0.51100000000E-03 0.  1.
</event>
<event>
 8    1  0.1082757E+005  0.1043930E+01  0.7957747E-01            NaN
         13   -1    0    0    0    0  0.00000000000E+00  0.00000000000E+00  0.74505805969E-08  0.10566000000E+00  0.10566000000E+00 0. -1.
     999900   -1    0    0    0    0 -0.00000000000E+00 -0.00000000000E+00 -0.74505805969E-08  0.93827000000E+00  0.93827000000E+00 0.  1.
     999902    2    1    2    0    0  0.19635035055E-01 -0.96535681388E-02 -0.61403084682E-02  0.10212049177E+01  0.10209520334E+01 0.  0.
     999903    2    3    3    0    0  0.97802231625E-01 -0.33978274352E-01 -0.82542461813E-01  0.13410904291E+00  0.21264471549E-01 0.  0.
         14    1    1    2    0    0 -0.19635035055E-01  0.96535681388E-02  0.61403084682E-02  0.22725082343E-01  0.00000000000E+00 0. -1.
     999901    1    3    3    0    0 -0.78167196570E-01  0.24324706214E-01  0.76402153345E-01  0.88709587474E+00  0.88000000000E+00 0. -1.
        -11    1    4    4    0    0  0.57184213951E-01 -0.18715857766E-01 -0.60921601236E-01  0.85627216907E-01  0.51100000000E-03 0. -1.
         11    1    4    4    0    0  0.40618017674E-01 -0.15262416586E-01 -0.21620860577E-01  0.48481826006E-01  0.51100000000E-03 0.  1.
</event>
<event>
 8    1  0.1082757E+005  0.1043930E+01  0.7957747E-01            NaN
         13   -1    0    0    0    0  0.00000000000E+00  0.00000000000E+00  0.74505805969E-08  0.10566000000E+00  0.10566000000E+00 0.  1.
     999900   -1    0    0    0    0 -0.00000000000E+00 -0.00000000000E+00 -0.74505805969E-08  0.93827000000E+00  0.93827000000E+00 0. -1.
     999902    2    1    2    0    0 -0.24376412839E-01  0.16119717354E-02 -0.32928993389E-02  0.10192794190E+01  0.10189812967E+01 0.  0.
     999903    2    3    3    0    0  0.36357598989E-02  0.12771352704E+00  0.10201600492E-01  0.12974674083E+00  0.20153916863E-01 0.  0.
         14    1    1    2    0    0  0.24376412839E-01 -0.16119717354E-02  0.32928993389E-02  0.24650580963E-01  0.00000000000E+00 0. -1.
     999901    1    3    3    0    0 -0.28012172738E-01 -0.12610155530E+00 -0.13494499831E-01  0.88953267821E+00  0.88000000000E+00 0.  1.
        -11    1    4    4    0    0  0.35332675119E-02  0.59014267957E-01  0.14621931857E-01  0.60903446652E-01  0.51100000000E-03 0. -1.
         11    1    4    4    0    0  0.10249238702E-03  0.68699259081E-01 -0.44203313655E-02  0.68843294179E-01  0.51100000000E-03 0.  1.
</event>
<event>
 8    1  0.1082757E+005  0.1043930E+01  0.7957747E-01            NaN
         13   -1    0    0    0    0  0.00000000000E+00  0.00000000000E+00  0.74505805969E-08  0.10566000000E+00  0.10566000000E+00 0. -1.
     999900   -1    0    0    0    0 -0.00000000000E+00 -0.00000000000E+00 -0.74505805969E-08  0.93827000000E+00  0.93827000000E+00 0.  1.
     999902    2    1    2    0    0 -0.26407021507E-02 -0.69602030876E-02  0.21328307764E-01  0.10213398595E+01  0.10210900030E+01 0.  0.
     999903    2    3    3    0    0  0.28333357923E-01  0.12379091111E+00 -0.19994959567E-01  0.13018170370E+00  0.20506309398E-01 0.  0.
         14    1    1    2    0    0  0.26407021507E-02  0.69602030876E-02 -0.21328307764E-01  0.22590140481E-01  0.00000000000E+00 0.  1.
     999901    1    3    3    0    0 -0.30974060074E-01 -0.13075111420E+00  0.41323267332E-01  0.89115815582E+00  0.88000000000E+00 0. -1.
        -11    1    4    4    0    0  0.86605573484E-02  0.70685265323E-01 -0.39827487571E-02  0.71326961214E-01  0.51100000000E-03 0. -1.
         11    1    4    4    0    0  0.19672800575E-01  0.53105645788E-01 -0.16012210810E-01  0.58854742485E-01  0.51100000000E-03 0.  1.
</event>
<event>
 8    1  0.1082757E+005  0.1043930E+01  0.7957747E-01            NaN
         13   -1    0    0    0    0  0.00000000000E+00  0.00000000000E+00  0.74505805969E-08  0.10566000000E+00  0.10566000000E+00 0. -1.
     999900   -1    0    0    0    0 -0.00000000000E+00 -0.00000000000E+00 -0.74505805969E-08  0.93827000000E+00  0.93827000000E+00 0.  1.
     999902    2    1    2    0    0 -0.11399192440E-01  0.20446290276E-01  0.28673440726E-02  0.10203458096E+01  0.10200732117E+01 0.  0.
     999903    2    3    3    0    0 -0.41326915115E-01 -0.24803935409E-01 -0.11921658432E+00  0.13026281512E+00  0.20800430290E-01 0.  0.
         14    1    1    2    0    0  0.11399192440E-01 -0.20446290276E-01 -0.28673440726E-02  0.23584190390E-01  0.00000000000E+00 0.  1.
     999901    1    3    3    0    0  0.29927722675E-01  0.45250225686E-01  0.12208392840E+00  0.89008299449E+00  0.88000000000E+00 0. -1.
        -11    1    4    4    0    0 -0.10244663513E-01 -0.16296820950E-01 -0.57481827479E-01  0.60621457545E-01  0.51100000000E-03 0.  1.
         11    1    4    4    0    0 -0.31082251602E-01 -0.85071144589E-02 -0.61734756845E-01  0.69641357574E-01  0.51100000000E-03 0. -1.
</event>
<event>
 8    1  0.1082757E+005  0.1043930E+01  0.7957747E-01            NaN
         13   -1    0    0    0    0  0.00000000000E+00  0.00000000000E+00  0.74505805969E-08  0.10566000000E+00  0.10566000000E+00 0. -1.
     999900   -1    0    0    0    0 -0.00000000000E+00 -0.00000000000E+00 -0.74505805969E-08  0.93827000000E+00  0.93827000000E+00 0. -1.
     999902    2    1    2    0    0  0.75957422734E-02 -0.13577050387E-01  0.17974924300E-01  0.10201575474E+01  0.10198805283E+01 0.  0.
     999903    2    3    3    0    0 -0.20295959868E-01 -0.92820607242E-01 -0.86388888654E-01  0.13001750574E+00  0.20345038724E-01 0.  0.
         14    1    1    2    0    0 -0.75957422734E-02  0.13577050387E-01 -0.17974924300E-01  0.23772452576E-01  0.00000000000E+00 0.  1.
     999901    1    3    3    0    0  0.27891702141E-01  0.79243556855E-01  0.10436381295E+00  0.89014004168E+00  0.88000000000E+00 0.  1.
        -11    1    4    4    0    0 -0.21579485249E-01 -0.77305320310E-01 -0.79550404144E-01  0.11300581690E+00  0.51100000000E-03 0. -1.
         11    1    4    4    0    0  0.12835253816E-02 -0.15515286932E-01 -0.68384845100E-02  0.17011688845E-01  0.51100000000E-03 0.  1.
</event>
<event>
 8    1  0.1082757E+005  0.1043930E+01  0.7957747E-01            NaN
         13   -1    0    0    0    0  0.00000000000E+00  0.00000000000E+00  0.74505805969E-08  0.10566000000E+00  0.10566000000E+00 0.  1.
     999900   -1    0    0    0    0 -0.00000000000E+00 -0.00000000000E+00 -0.74505805969E-08  0.93827000000E+00  0.93827000000E+00 0.  1.
     999902    2    1    2    0    0  0.14163408166E-01  0.13581797201E-01  0.12850936234E-01  0.10204733611E+01  0.10202037379E+01 0.  0.
     999903    2    3    3    0    0 -0.24621756868E-01 -0.17998543873E-01 -0.12320680465E+00  0.12861389021E+00  0.20771074838E-01 0.  0.
         14    1    1    2    0    0 -0.14163408166E-01 -0.13581797201E-01 -0.12850936234E-01  0.23456638893E-01  0.00000000000E+00 0.  1.
     999901    1    3    3    0    0  0.38785165034E-01  0.31580341074E-01  0.13605774089E+00  0.89185947089E+00  0.88000000000E+00 0. -1.
        -11    1    4    4    0    0 -0.96369497470E-04 -0.89173894231E-03 -0.43008098407E-01  0.43020485062E-01  0.51100000000E-03 0.  1.
         11    1    4    4    0    0 -0.24525387370E-01 -0.17106804931E-01 -0.80198706246E-01  0.85593405150E-01  0.51100000000E-03 0. -1.
</event>
<event>
 8    1  0.1082757E+005  0.1043930E+01  0.7957747E-01            NaN
         13   -1    0    0    0    0  0.00000000000E+00  0.00000000000E+00  0.74505805969E-08  0.10566000000E+00  0.10566000000E+00 0. -1.
     999900   -1    0    0    0    0 -0.00000000000E+00 -0.00000000000E+00 -0.74505805969E-08  0.93827000000E+00  0.93827000000E+00 0. -1.
     999902    2    1    2    0    0  0.71159773740E-03  0.13918789409E-01 -0.18752865953E-01  0.10205653033E+01  0.10202978140E+01 0.  0.
     999903    2    3    3    0    0 -0.49878592513E-01  0.27110940137E-01  0.11404083711E+00  0.12906792936E+00  0.20744657006E-01 0.  0.
         14    1    1    2    0    0 -0.71159773740E-03 -0.13918789409E-01  0.18752865953E-01  0.23364696689E-01  0.00000000000E+00 0. -1.
     999901    1    3    3    0    0  0.50590190250E-01 -0.13192150729E-01 -0.13279370306E+00  0.89149737395E+00  0.88000000000E+00 0. -1.
        -11    1    4    4    0    0 -0.26231852200E-01  0.17372727752E-01  0.83489549309E-01  0.89222686040E-01  0.51100000000E-03 0. -1.
         11    1    4    4    0    0 -0.23646740313E-01  0.97382123853E-02  0.30551287799E-01  0.39845243318E-01  0.51100000000E-03 0.  1.
</event>
<event>
 8    1  0.1082757E+005  0.1043930E+01  0.7957747E-01            NaN
         13   -1    0    0    0    0  0.00000000000E+00  0.00000000000E+00  0.74505805969E-08  0.10566000000E+00  0.10566000000E+00 0.  1.
     999900   -1    0    0    0    0 -0.00000000000E+00 -0.00000000000E+00 -0.74505805969E-08  0.93827000000E+00  0.93827000000E+00 0. -1.
     999902    2    1    2    0    0 -0.77398204514E-04 -0.23235446021E-01  0.45775342847E-02  0.10202478176E+01  0.10199729230E+01 0.  0.
     999903    2    3    3    0    0  0.78354060891E-01 -0.46213435362E-01  0.93548822260E-01  0.13199370316E+00  0.19897614455E-01 0.  0.
         14    1    1    2    0    0  0.77398204514E-04  0.23235446021E-01 -0.45775342847E-02  0.23682182382E-01  0.00000000000E+00 0. -1.
     999901    1    3    3    0    0 -0.78431459096E-01  0.22977989342E-01 -0.88971287976E-01  0.88825411446E+00  0.88000000000E+00 0. -1.
        -11    1    4    4    0    0  0.55169499819E-01 -0.25285423674E-01  0.51399951558E-01  0.79531393184E-01  0.51100000000E-03 0. -1.
         11    1    4    4    0    0  0.23184561072E-01 -0.20928011689E-01  0.42148870702E-01  0.52462309974E-01  0.51100000000E-03 0.  1.
</event>
<event>
 8    1  0.1082757E+005  0.1043930E+01  0.7957747E-01            NaN
         13   -1    0    0    0    0  0.00000000000E+00  0.00000000000E+00  0.74505805969E-08  0.10566000000E+00  0.10566000000E+00 0.  1.
     999900   -1    0    0    0    0 -0.00000000000E+00 -0.00000000000E+00 -0.74505805969E-08  0.93827000000E+00  0.93827000000E+00 0. -1.
     999902    2    1    2    0    0  0.34839483670E-02 -0.19162956164E-01  0.11290717975E-01  0.10214169572E+01  0.10211688221E+01 0.  0.
     999903    2    3    3    0    0  0.26065501902E-02  0.12757454131E+00 -0.13188399998E-01  0.12893060421E+00  0.12927069053E-01 0.  0.
         14    1    1    2    0    0 -0.34839483670E-02  0.19162956164E-01 -0.11290717975E-01  0.22513042832E-01  0.00000000000E+00 0. -1.
     999901    1    3    3    0    0  0.87739817675E-03 -0.14673749747E+00  0.24479117973E-01  0.89248635295E+00  0.88000000000E+00 0.  1.
        -11    1    4    4    0    0 -0.18471179813E-02  0.91482526368E-01 -0.49293770341E-02  0.91635278984E-01  0.51100000000E-03 0.  1.
         11    1    4    4    0    0  0.44536681715E-02  0.36092014941E-01 -0.82590229637E-02  0.37295325230E-01  0.51100000000E-03 0. -1.
</event>
<event>
 8    1  0.1082757E+005  0.1043930E+01  0.7957747E-01            NaN
         13   -1    0    0    0    0  0.00000000000E+00  0.00000000000E+00  0.74505805969E-08  0.10566000000E+00  0.10566000000E+00 0. -1.
     999900   -1    0    0    0    0 -0.00000000000E+00 -0.00000000000E+00 -0.74505805969E-08  0.93827000000E+00  0.93827000000E+00 0. -1.
     999902    2    1    2    0    0 -0.20842399729E-01 -0.91797287017E-02  0.73569915874E-02  0.10199967936E+01  0.10197159705E+01 0.  0.
     999903    2    3    3    0    0 -0.88831416260E-01  0.87476277321E-01  0.37079960260E-01  0.13160029157E+00  0.20014836504E-01 0.  0.
         14    1    1    2    0    0  0.20842399729E-01  0.91797287017E-02 -0.73569915874E-02  0.23933206445E-01  0.00000000000E+00 0.  1.
     999901    1    3    3    0    0  0.67989016531E-01 -0.96656006022E-01 -0.29722968673E-01  0.88839650198E+00  0.88000000000E+00 0. -1.
        -11    1    4    4    0    0 -0.31691523956E-01  0.34656970086E-01  0.42945798166E-02  0.47161030555E-01  0.51100000000E-03 0.  1.
         11    1    4    4    0    0 -0.57139892304E-01  0.52819307234E-01  0.32785380444E-01  0.84439261017E-01  0.51100000000E-03 0. -1.
</event>
<event>
 8    1  0.1082757E+005  0.1043930E+01  0.7957747E-01            NaN
         13   -1    0    0    0    0  0.00000000000E+00  0.00000000000E+00  0.74505805969E-08  0.10566000000E+00  0.10566000000E+00 0.  1.
     999900   -1    0    0    0    0 -0.00000000000E+00 -0.00000000000E+00 -0.74505805969E-08  0.93827000000E+00  0.93827000000E+00 0. -1.
     999902    2    1    2    0    0 -0.22217363528E-02 -0.23279772249E-01  0.17865784780E-03  0.10205437684E+01  0.10202757801E+01 0.  0.
     999903    2    3    3    0    0  0.12283102224E+00 -0.41569931337E-01  0.99733566780E-02  0.13146072480E+00  0.19155550272E-01 0.  0.
         14    1    1    2    0    0  0.22217363528E-02  0.23279772249E-01 -0.17865784780E-03  0.23386231569E-01  0.00000000000E+00 0.  1.
     999901    1    3    3    0    0 -0.12505275859E+00  0.18290159088E-01 -0.97946988302E-02  0.88908304363E+00  0.88000000000E+00 0.  1.
        -11    1    4    4    0    0  0.70611934212E-01 -0.23196593115E-01 -0.37666217210E-02  0.74421608055E-01  0.51100000000E-03 0.  1.
         11    1    4    4    0    0  0.52219088024E-01 -0.18373338221E-01  0.13739978399E-01  0.57039116743E-01  0.51100000000E-03 0. -1.
</event>
<event>
 8    1  0.1082757E+005  0.1043930E+01  0.7957747E-01            NaN
         13   -1    0    0    0    0  0.00000000000E+00  0.00000000000E+00  0.74505805969E-08  0.10566000000E+00  0.10566000000E+00 0. -1.
     999900   -1    0    0    0    0 -0.00000000000E+00 -0.00000000000E+00 -0.74505805969E-08  0.93827000000E+00  0.93827000000E+00 0.  1.
     999902    2    1    2    0    0  0.16710163820E-01  0.34047954407E-02  0.12015478618E-01  0.10230686977E+01  0.10228559851E+01 0.  0.
     999903    2    3    3    0    0 -0.48679937848E-01 -0.11881425388E+00 -0.20660563727E-01  0.13161982920E+00  0.20257277004E-01 0.  0.
         14    1    1    2    0    0 -0.16710163820E-01 -0.34047954407E-02 -0.12015478618E-01  0.20861302292E-01  0.00000000000E+00 0.  1.
     999901    1    3    3    0    0  0.65390101668E-01  0.12221904932E+00  0.32676042345E-01  0.89144886850E+00  0.88000000000E+00 0. -1.
        -11    1    4    4    0    0 -0.39049008925E-01 -0.77755337354E-01 -0.20715646800E-01  0.89443371629E-01  0.51100000000E-03 0.  1.
         11    1    4    4    0    0 -0.96309289235E-02 -0.41058916529E-01  0.55083073084E-04  0.42176457575E-01  0.51100000000E-03 0. -1.
</event>
<event>
 8    1  0.1082757E+005  0.1043930E+01  0.7957747E-01            NaN
         13   -1    0    0    0    0  0.00000000000E+00  0.00000000000E+00  0.74505805969E-08  0.10566000000E+00  0.10566000000E+00 0. -1.
     999900   -1    0    0    0    0 -0.00000000000E+00 -0.00000000000E+00 -0.74505805969E-08  0.93827000000E+00  0.93827000000E+00 0. -1.
     999902    2    1    2    0    0 -0.72040490750E-02  0.20930036797E-01 -0.71292226430E-03  0.10217833745E+01  0.10215433380E+01 0.  0.
     999903    2    3    3    0    0 -0.12978369505E+00 -0.45401580787E-02  0.16852294095E-01  0.13274848358E+00  0.21765558556E-01 0.  0.
         14    1    1    2    0    0  0.72040490750E-02 -0.20930036797E-01  0.71292226430E-03  0.22146625512E-01  0.00000000000E+00 0. -1.
     999901    1    3    3    0    0  0.12257964597E+00  0.25470194876E-01 -0.17565216360E-01  0.88903489091E+00  0.88000000000E+00 0. -1.
        -11    1    4    4    0    0 -0.22066532397E-01 -0.89810779428E-02  0.18764093935E-02  0.23903423316E-01  0.51100000000E-03 0. -1.
         11    1    4    4    0    0 -0.10771716265E+00  0.44409198641E-02  0.14975884702E-01  0.10884506026E+00  0.51100000000E-03 0.  1.
</event>
<event>
 8    1  0.1082757E+005  0.1043930E+01  0.7957747E-01            NaN
         13   -1    0    0    0    0  0.00000000000E+00  0.00000000000E+00  0.74505805969E-08  0.10566000000E+00  0.10566000000E+00 0.  1.
     999900   -1    0    0    0    0 -0.00000000000E+00 -0.00000000000E+00 -0.74505805969E-08  0.93827000000E+00  0.93827000000E+00 0.  1.
     999902    2    1    2    0    0 -0.56497686042E-02  0.20817929787E-01 -0.97626797363E-02  0.10202526690E+01  0.10199778883E+01 0.  0.
     999903    2    3    3    0    0  0.11505634897E+00 -0.49737456499E-01  0.19625066892E-01  0.12873056106E+00  0.21786144280E-01 0.  0.
         14    1    1    2    0    0  0.56497686042E-02 -0.20817929787E-01  0.97626797363E-02  0.23677330963E-01  0.00000000000E+00 0. -1.
     999901    1    3    3    0    0 -0.12070611758E+00  0.70555386286E-01 -0.29387746628E-01  0.89152210797E+00  0.88000000000E+00 0.  1.
        -11    1    4    4    0    0  0.99271147588E-01 -0.34636341391E-01  0.19169592981E-01  0.10687455873E+00  0.51100000000E-03 0. -1.
         11    1    4    4    0    0  0.15785201387E-01 -0.15101115108E-01  0.45547391072E-03  0.21856002329E-01  0.51100000000E-03 0.  1.
</event>
<event>
 8    1  0.1082757E+005  0.1043930E+01  0.7957747E-01            NaN
         13   -1    0    0    0    0  0.00000000000E+00  0.00000000000E+00  0.74505805969E-08  0.10566000000E+00  0.10566000000E+00 0.  1.
     999900   -1    0    0    0    0 -0.00000000000E+00 -0.00000000000E+00 -0.74505805969E-08  0.93827000000E+00  0.93827000000E+00 0.  1.
     999902    2    1    2    0    0 -0.11669426964E-01 -0.74442747254E-02  0.19268555413E-01  0.10202051190E+01  0.10199292205E+01 0.  0.
     999903    2    3    3    0    0  0.30143670782E-01 -0.10456705979E+00  0.72450726508E-01  0.13228084639E+00  0.20154495045E-01 0.  0.
         14    1    1    2    0    0  0.11669426964E-01  0.74442747254E-02 -0.19268555413E-01  0.23724881023E-01  0.00000000000E+00 0. -1.
     999901    1    3    3    0    0 -0.41813097746E-01  0.97122785060E-01 -0.53182171095E-01  0.88792427258E+00  0.88000000000E+00 0.  1.
        -11    1    4    4    0    0  0.21293392062E-01 -0.58594980614E-01  0.30455663985E-01  0.69387238657E-01  0.51100000000E-03 0. -1.
         11    1    4    4    0    0  0.88502787204E-02 -0.45972079171E-01  0.41995062522E-01  0.62893607736E-01  0.51100000000E-03 0.  1.
</event>
<event>
 8    1  0.1082757E+005  0.1043930E+01  0.7957747E-01            NaN
         13   -1    0    0    0    0  0.00000000000E+00  0.00000000000E+00  0.74505805969E-08  0.10566000000E+00  0.10566000000E+00 0.  1.
     999900   -1    0    0    0    0 -0.00000000000E+00 -0.00000000000E+00 -0.74505805969E-08  0.93827000000E+00  0.93827000000E+00 0.  1.
     999902    2    1    2    0    0 -0.19860930013E-01 -0.29611141934E-02  0.11565251643E-01  0.10207571757E+01  0.10204941117E+01 0.  0.
     999903    2    3    3    0    0  0.74206861261E-01 -0.10280233834E+00  0.21251889201E-01  0.13007718252E+00  0.19835614205E-01 0.  0.
         14    1    1    2    0    0  0.19860930013E-01  0.29611141934E-02 -0.11565251643E-01  0.23172824252E-01  0.00000000000E+00 0. -1.
     999901    1    3    3    0    0 -0.94067791274E-01  0.99841224145E-01 -0.96866375578E-02  0.89067999323E+00  0.88000000000E+00 0.  1.
        -11    1    4    4    0    0  0.51809929241E-01 -0.77474227419E-01  0.23717335068E-01  0.96173269602E-01  0.51100000000E-03 0. -1.
         11    1    4    4    0    0  0.22396932020E-01 -0.25328110920E-01 -0.24654458670E-02  0.33903912915E-01  0.51100000000E-03 0.  1.
</event>
<event>
 8    1  0.1082757E+005  0.1043930E+01  0.7957747E-01            NaN
         13   -1    0    0    0    0  0.00000000000E+00  0.00000000000E+00  0.74505805969E-08  0.10566000000E+00  0.10566000000E+00 0. -1.
     999900   -1    0    0    0    0 -0.00000000000E+00 -0.00000000000E+00 -0.74505805969E-08  0.93827000000E+00  0.93827000000E+00 0.  1.
     999902    2    1    2    0    0  0.73702932052E-02  0.15712623618E-01 -0.16975330016E-01  0.10196530646E+01  0.10193640187E+01 0.  0.
     999903    2    3    3    0    0 -0.12215889062E-01  0.31470426177E-01  0.12156928418E+00  0.12845918166E+00  0.24146528272E-01 0.  0.
         14    1    1    2    0    0 -0.73702932052E-02 -0.15712623618E-01  0.16975330016E-01  0.24276935392E-01  0.00000000000E+00 0. -1.
     999901    1    3    3    0    0  0.19586182267E-01 -0.15757802559E-01 -0.13854461420E+00  0.89119388295E+00  0.88000000000E+00 0.  1.
        -11    1    4    4    0    0  0.11398102879E-02  0.17295916622E-01  0.87598413033E-01  0.89298325775E-01  0.51100000000E-03 0. -1.
         11    1    4    4    0    0 -0.13355699350E-01  0.14174509555E-01  0.33970871148E-01  0.39160855887E-01  0.51100000000E-03 0.  1.
</event>
<event>
 8    1  0.1082757E+005  0.1043930E+01  0.7957747E-01            NaN
         13   -1    0    0    0    0  0.00000000000E+00  0.00000000000E+00  0.74505805969E-08  0.10566000000E+00  0.10566000000E+00 0.  1.
     999900   -1    0    0    0    0 -0.00000000000E+00 -0.00000000000E+00 -0.74505805969E-08  0.93827000000E+00  0.93827000000E+00 0. -1.
     999902    2    1    2    0    0 -0.24812480471E-01  0.10094114451E-01  0.66255388293E-02  0.10163356510E+01  0.10159609773E+01 0.  0.
     999903    2    3    3    0    0  0.12579608753E-01  0.82426481978E-01  0.94800346890E-01  0.12818873941E+00  0.22200803013E-01 0.  0.
         14    1    1    2    0    0  0.24812480471E-01 -0.10094114451E-01 -0.66255388293E-02  0.27594349031E-01  0.00000000000E+00 0.  1.
     999901    1    3    3    0    0 -0.37392089224E-01 -0.72332367527E-01 -0.88174808061E-01  0.88814691156E+00  0.88000000000E+00 0. -1.
        -11    1    4    4    0    0 -0.12404236641E-02  0.15117609061E-01  0.30563579469E-01  0.34124393995E-01  0.51100000000E-03 0.  1.
         11    1    4    4    0    0  0.13820032418E-01  0.67308872916E-01  0.64236767421E-01  0.94064345419E-01  0.51100000000E-03 0. -1.
</event>
<event>
 8    1  0.1082757E+005  0.1043930E+01  0.7957747E-01            NaN
         13   -1    0    0    0    0  0.00000000000E+00  0.00000000000E+00  0.74505805969E-08  0.10566000000E+00  0.10566000000E+00 0. -1.
     999900   -1    0    0    0    0 -0.00000000000E+00 -0.00000000000E+00 -0.74505805969E-08  0.93827000000E+00  0.93827000000E+00 0.  1.
     999902    2    1    2    0    0  0.80595038791E-02 -0.15253017113E-01 -0.17895473921E-01  0.10190732480E+01  0.10187700558E+01 0.  0.
     999903    2    3    3    0    0  0.59346658096E-01 -0.88936250648E-01  0.71332708801E-01  0.13001686075E+00  0.19604750141E-01 0.  0.
         14    1    1    2    0    0 -0.80595038791E-02  0.15253017113E-01  0.17895473921E-01  0.24856752014E-01  0.00000000000E+00 0. -1.
     999901    1    3    3    0    0 -0.51287154217E-01  0.73683233535E-01 -0.89228182722E-01  0.88905638724E+00  0.88000000000E+00 0.  1.
        -11    1    4    4    0    0  0.53041206758E-01 -0.65371872101E-01  0.57788671013E-01  0.10211093426E+00  0.51100000000E-03 0. -1.
         11    1    4    4    0    0  0.63054513382E-02 -0.23564378547E-01  0.13544037788E-01  0.27905926495E-01  0.51100000000E-03 0.  1.
</event>
<event>
 8    1  0.1082757E+005  0.1043930E+01  0.7957747E-01            NaN
         13   -1    0    0    0    0  0.00000000000E+00  0.00000000000E+00  0.74505805969E-08  0.10566000000E+00  0.10566000000E+00 0. -1.
     999900   -1    0    0    0    0 -0.00000000000E+00 -0.00000000000E+00 -0.74505805969E-08  0.93827000000E+00  0.93827000000E+00 0. -1.
     999902    2    1    2    0    0 -0.23799630544E-01  0.23123536482E-02 -0.62069582045E-02  0.10192258359E+01  0.10189264001E+01 0.  0.
     999903    2    3    3    0    0 -0.12330460666E+00  0.29199119772E-01  0.32596903433E-01  0.13236063863E+00  0.20004147717E-01 0.  0.
         14    1    1    2    0    0  0.23799630544E-01 -0.23123536482E-02  0.62069582045E-02  0.24704164094E-01  0.00000000000E+00 0.  1.
     999901    1    3    3    0    0  0.99504976114E-01 -0.26886766124E-01 -0.38803861638E-01  0.88686519728E+00  0.88000000000E+00 0. -1.
        -11    1    4    4    0    0 -0.58439746615E-01  0.15419689735E-01  0.53887364619E-02  0.60681714030E-01  0.51100000000E-03 0.  1.
         11    1    4    4    0    0 -0.64864860044E-01  0.13779430038E-01  0.27208166971E-01  0.71678924599E-01  0.51100000000E-03 0. -1.
</event>
<event>
 8    1  0.1082757E+005  0.1043930E+01  0.7957747E-01            NaN
         13   -1    0    0    0    0  0.00000000000E+00  0.00000000000E+00  0.74505805969E-08  0.10566000000E+00  0.10566000000E+00 0.  1.
     999900   -1    0    0    0    0 -0.00000000000E+00 -0.00000000000E+00 -0.74505805969E-08  0.93827000000E+00  0.93827000000E+00 0.  1.
     999902    2    1    2    0    0  0.18838787632E-01 -0.12559827494E-01  0.68983846595E-02  0.10202606760E+01  0.10199860833E+01 0.  0.
     999903    2    3    3    0    0 -0.41073806464E-01 -0.14445084978E-01  0.12168304347E+00  0.13078409342E+00  0.20049886895E-01 0.  0.
         14    1    1    2    0    0 -0.18838787632E-01  0.12559827494E-01 -0.68983846595E-02  0.23669323967E-01  0.00000000000E+00 0. -1.
     999901    1    3    3    0    0  0.59912594097E-01  0.18852574846E-02 -0.11478465881E+00  0.88947658262E+00  0.88000000000E+00 0.  1.
        -11    1    4    4    0    0 -0.29689942947E-01 -0.24214339667E-02  0.61094422057E-01  0.67971652784E-01  0.51100000000E-03 0.  1.
         11    1    4    4    0    0 -0.11383863517E-01 -0.12023651012E-01  0.60588621414E-01  0.62812440631E-01  0.51100000000E-03 0. -1.
</event>
<event>
 8    1  0.1082757E+005  0.1043930E+01  0.7957747E-01            NaN
         13   -1    0    0    0    0  0.00000000000E+00  0.00000000000E+00  0.74505805969E-08  0.10566000000E+00  0.10566000000E+00 0. -1.
     999900   -1    0    0    0    0 -0.00000000000E+00 -0.00000000000E+00 -0.74505805969E-08  0.93827000000E+00  0.93827000000E+00 0. -1.
     999902    2    1    2    0    0  0.20408615563E-01  0.10755495251E-01 -0.36317268471E-02  0.10205765911E+01  0.10203093632E+01 0.  0.
     999903    2    3    3    0    0  0.52025173136E-03  0.12297392906E+00  0.43317902185E-01  0.13198625154E+00  0.20520040279E-01 0.  0.
         14    1    1    2    0    0 -0.20408615563E-01 -0.10755495251E-01  0.36317268471E-02  0.23353408899E-01  0.00000000000E+00 0.  1.
     999901    1    3    3    0    0  0.19888363832E-01 -0.11221843381E+00 -0.46949629032E-01  0.88859033957E+00  0.88000000000E+00 0. -1.
        -11    1    4    4    0    0  0.10106985544E-01  0.58221992321E-01  0.23452415489E-01  0.63578522001E-01  0.51100000000E-03 0.  1.
         11    1    4    4    0    0 -0.95867338128E-02  0.64751936744E-01  0.19865486696E-01  0.68407729534E-01  0.51100000000E-03 0. -1.
</event>
<event>
 8    1  0.1082757E+005  0.1043930E+01  0.7957747E-01            NaN
         13   -1    0    0    0    0  0.00000000000E+00  0.00000000000E+00  0.74505805969E-08  0.10566000000E+00  0.10566000000E+00 0.  1.
     999900   -1    0    0    0    0 -0.00000000000E+00 -0.00000000000E+00 -0.74505805969E-08  0.93827000000E+00  0.93827000000E+00 0. -1.
     999902    2    1    2    0    0  0.80614031542E-02 -0.16812963766E-01 -0.15476275172E-01  0.10196982633E+01  0.10194103056E+01 0.  0.
     999903    2    3    3    0    0 -0.28531586529E-01 -0.12653844757E+00 -0.15517761398E-01  0.13212926291E+00  0.19781583774E-01 0.  0.
         14    1    1    2    0    0 -0.80614031542E-02  0.16812963766E-01  0.15476275172E-01  0.24231736723E-01  0.00000000000E+00 0.  1.
     999901    1    3    3    0    0  0.36592989683E-01  0.10972548380E+00  0.41486225960E-04  0.88756900037E+00  0.88000000000E+00 0. -1.
        -11    1    4    4    0    0  0.17003576377E-02 -0.29988855883E-01 -0.36234247190E-02  0.30259098152E-01  0.51100000000E-03 0.  1.
         11    1    4    4    0    0 -0.30231944166E-01 -0.96549591682E-01 -0.11894336679E-01  0.10187016476E+00  0.51100000000E-03 0. -1.
</event>
<event>
 8    1  0.1082757E+005  0.1043930E+01  0.7957747E-01            NaN
         13   -1    0    0    0    0  0.00000000000E+00  0.00000000000E+00  0.74505805969E-08  0.10566000000E+00  0.10566000000E+00 0.  1.
     999900   -1    0    0    0    0 -0.00000000000E+00 -0.00000000000E+00 -0.74505805969E-08  0.93827000000E+00  0.93827000000E+00 0.  1.
     999902    2    1    2    0    0  0.18564588020E-01  0.46912713408E-02 -0.76536066094E-03  0.10247665522E+01  0.10245873554E+01 0.  0.
     999903    2    3    3    0    0 -0.19417773899E-01 -0.90215367215E-01 -0.94777061993E-01  0.13387479117E+00  0.20588972921E-01 0.  0.
         14    1    1    2    0    0 -0.18564588020E-01 -0.46912713408E-02  0.76536066094E-03  0.19163447813E-01  0.00000000000E+00 0.  1.
     999901    1    3    3    0    0  0.37982361919E-01  0.94906638556E-01  0.94011701332E-01  0.89089176102E+00  0.88000000000E+00 0. -1.
        -11    1    4    4    0    0 -0.27083933213E-02 -0.59425804862E-01 -0.58139842828E-01  0.83182114201E-01  0.51100000000E-03 0.  1.
         11    1    4    4    0    0 -0.16709380577E-01 -0.30789562354E-01 -0.36637219165E-01  0.50692676970E-01  0.51100000000E-03 0. -1.
</event>
<event>
 8    1  0.1082757E+005  0.1043930E+01  0.7957747E-01            NaN
         13   -1    0    0    0    0  0.00000000000E+00  0.00000000000E+00  0.74505805969E-08  0.10566000000E+00  0.10566000000E+00 0.  1.
     999900   -1    0    0    0    0 -0.00000000000E+00 -0.00000000000E+00 -0.74505805969E-08  0.93827000000E+00  0.93827000000E+00 0.  1.
     999902    2    1    2    0    0  0.98680398848E-02 -0.21037691291E-01  0.40642779510E-02  0.10203401500E+01  0.10200674197E+01 0.  0.
     999903    2    3    3    0    0 -0.25829660808E-01  0.31059489412E-01  0.12215999902E+00  0.13020811410E+00  0.19980599496E-01 0.  0.
         14    1    1    2    0    0 -0.98680398848E-02  0.21037691291E-01 -0.40642779510E-02  0.23589849963E-01  0.00000000000E+00 0.  1.
     999901    1    3    3    0    0  0.35697700692E-01 -0.52097180703E-01 -0.11809572107E+00  0.89013203594E+00  0.88000000000E+00 0.  1.
        -11    1    4    4    0    0 -0.90238127888E-02  0.45883115193E-02  0.57004152466E-01  0.57898327431E-01  0.51100000000E-03 0.  1.
         11    1    4    4    0    0 -0.16805848019E-01  0.26471177893E-01  0.65155846553E-01  0.72309786666E-01  0.51100000000E-03 0. -1.
</event>
<event>
 8    1  0.1082757E+005  0.1043930E+01  0.7957747E-01            NaN
         13   -1    0    0    0    0  0.00000000000E+00  0.00000000000E+00  0.74505805969E-08  0.10566000000E+00  0.10566000000E+00 0.  1.
     999900   -1    0    0    0    0 -0.00000000000E+00 -0.00000000000E+00 -0.74505805969E-08  0.93827000000E+00  0.93827000000E+00 0.  1.
     999902    2    1    2    0    0  0.17367271176E-01 -0.15991180130E-01  0.23965385002E-02  0.10202006227E+01  0.10199246184E+01 0.  0.
     999903    2    3    3    0    0 -0.12498098007E+00  0.12677259497E-01  0.15881107166E-01  0.12819908815E+00  0.20045906068E-01 0.  0.
         14    1    1    2    0    0 -0.17367271176E-01  0.15991180130E-01 -0.23965385002E-02  0.23729377296E-01  0.00000000000E+00 0. -1.
     999901    1    3    3    0    0  0.14234825124E+00 -0.28668439628E-01 -0.13484568666E-01  0.89200153456E+00  0.88000000000E+00 0. -1.
        -11    1    4    4    0    0 -0.59778872706E-01 -0.39738322120E-02  0.78399313108E-02  0.60423758642E-01  0.51100000000E-03 0.  1.
         11    1    4    4    0    0 -0.65202107359E-01  0.16651091709E-01  0.80411758551E-02  0.67775329504E-01  0.51100000000E-03 0. -1.
</event>
<event>
 8    1  0.1082757E+005  0.1043930E+01  0.7957747E-01            NaN
         13   -1    0    0    0    0  0.00000000000E+00  0.00000000000E+00  0.74505805969E-08  0.10566000000E+00  0.10566000000E+00 0. -1.
     999900   -1    0    0    0    0 -0.00000000000E+00 -0.00000000000E+00 -0.74505805969E-08  0.93827000000E+00  0.93827000000E+00 0.  1.
     999902    2    1    2    0    0 -0.22028966014E-01  0.93784327102E-02 -0.78427531050E-02  0.10187359705E+01  0.10184243902E+01 0.  0.
     999903    2    3    3    0    0  0.52670420199E-01 -0.81441230705E-01  0.78972507397E-01  0.12667930249E+00  0.20103271702E-01 0.  0.
         14    1    1    2    0    0  0.22028966014E-01 -0.93784327102E-02  0.78427531050E-02  0.25194029452E-01  0.00000000000E+00 0.  1.
     999901    1    3    3    0    0 -0.74699386213E-01  0.90819663415E-01 -0.86815260502E-01  0.89205666805E+00  0.88000000000E+00 0.  1.
        -11    1    4    4    0    0  0.19582639987E-01 -0.15004914421E-01  0.16716467365E-01  0.29804842691E-01  0.51100000000E-03 0.  1.
         11    1    4    4    0    0  0.33087780212E-01 -0.66436316284E-01  0.62256040032E-01  0.96874459803E-01  0.51100000000E-03 0. -1.
</event>
<event>
 8    1  0.1115307E+005  0.1043930E+01  0.7957747E-01            NaN
         13   -1    0    0    0    0  0.00000000000E+00  0.00000000000E+00  0.74505805969E-08  0.10566000000E+00  0.10566000000E+00 0. -1.
     999900   -1    0    0    0    0 -0.00000000000E+00 -0.00000000000E+00 -0.74505805969E-08  0.93827000000E+00  0.93827000000E+00 0. -1.
     999902    2    1    2    0    0 -0.14996515332E-01  0.15904075718E-01  0.81615014833E-02  0.10205966504E+01  0.10203298867E+01 0.  0.
     999903    2    3    3    0    0  0.95921806689E-01  0.57809606015E-02 -0.82740393505E-01  0.12893050990E+00  0.23295732701E-01 0.  0.
         14    1    1    2    0    0  0.14996515332E-01 -0.15904075718E-01 -0.81615014833E-02  0.23333349588E-01  0.00000000000E+00 0.  1.
     999901    1    3    3    0    0 -0.11091832202E+00  0.10123115117E-01  0.90901894989E-01  0.89166614051E+00  0.88000000000E+00 0. -1.
        -11    1    4    4    0    0  0.58753567620E-01  0.13758832073E-01 -0.44256926121E-01  0.74834643039E-01  0.51100000000E-03 0.  1.
         11    1    4    4    0    0  0.37168239069E-01 -0.79778714713E-02 -0.38483467384E-01  0.54095866863E-01  0.51100000000E-03 0. -1.
</event>
<event>
 8    1  0.1082757E+005  0.1043930E+01  0.7957747E-01            NaN
         13   -1    0    0    0    0  0.00000000000E+00  0.00000000000E+00  0.74505805969E-08  0.10566000000E+00  0.10566000000E+00 0.  1.
     999900   -1    0    0    0    0 -0.00000000000E+00 -0.00000000000E+00 -0.74505805969E-08  0.93827000000E+00  0.93827000000E+00 0.  1.
     999902    2    1    2    0    0 -0.13283602969E-01  0.66499424709E-02 -0.17860164682E-01  0.10206993882E+01  0.10204349953E+01 0.  0.
     999903    2    3    3    0    0 -0.84312478225E-01 -0.84891847028E-01  0.47877394969E-01  0.13067330593E+00  0.21634422995E-01 0.  0.
         14    1    1    2    0    0  0.13283602969E-01 -0.66499424709E-02  0.17860164682E-01  0.23230611812E-01  0.00000000000E+00 0.  1.
     999901    1    3    3    0    0  0.71028875257E-01  0.91541789499E-01 -0.65737559651E-01  0.89002608225E+00  0.88000000000E+00 0.  1.
        -11    1    4    4    0    0 -0.62217047121E-01 -0.72137636083E-01  0.43731404249E-01  0.10482125896E+00  0.51100000000E-03 0.  1.
         11    1    4    4    0    0 -0.22095431104E-01 -0.12754210945E-01  0.41459907207E-02  0.25852046970E-01  0.51100000000E-03 0. -1.
</event>
<event>
 8    1  0.1082757E+005  0.1043930E+01  0.7957747E-01            NaN
         13   -1    0    0    0    0  0.00000000000E+00  0.00000000000E+00  0.74505805969E-08  0.10566000000E+00  0.10566000000E+00 0. -1.
     999900   -1    0    0    0    0 -0.00000000000E+00 -0.00000000000E+00 -0.74505805969E-08  0.93827000000E+00  0.93827000000E+00 0.  1.
     999902    2    1    2    0    0  0.34922585805E-02  0.11487708648E-02 -0.24131867686E-01  0.10195197034E+01  0.10192274344E+01 0.  0.
     999903    2    3    3    0    0 -0.12580063061E+00  0.36250765067E-02 -0.28584846210E-01  0.13005772423E+00  0.16092804541E-01 0.  0.
         14    1    1    2    0    0 -0.34922585805E-02 -0.11487708648E-02  0.24131867686E-01  0.24410296649E-01  0.00000000000E+00 0. -1.
     999901    1    3    3    0    0  0.12929288919E+00 -0.24763056420E-02  0.44529785243E-02  0.88946197912E+00  0.88000000000E+00 0.  1.
        -11    1    4    4    0    0 -0.70264270143E-01 -0.39001938203E-02 -0.10421119478E-01  0.71141689766E-01  0.51100000000E-03 0. -1.
         11    1    4    4    0    0 -0.55536360464E-01  0.75252703270E-02 -0.18163726732E-01  0.58916034463E-01  0.51100000000E-03 0.  1.
</event>
<event>
 8    1  0.1082757E+005  0.1043930E+01  0.7957747E-01            NaN
         13   -1    0    0    0    0  0.00000000000E+00  0.00000000000E+00  0.74505805969E-08  0.10566000000E+00  0.10566000000E+00 0.  1.
     999900   -1    0    0    0    0 -0.00000000000E+00 -0.00000000000E+00 -0.74505805969E-08  0.93827000000E+00  0.93827000000E+00 0.  1.
     999902    2    1    2    0    0  0.47891895806E-02  0.18826713712E-01  0.10031421804E-01  0.10220665394E+01  0.10218326673E+01 0.  0.
     999903    2    3    3    0    0  0.87159414615E-02  0.10890572575E+00 -0.73940376196E-01  0.13348288512E+00  0.20348873457E-01 0.  0.
         14    1    1    2    0    0 -0.47891895806E-02 -0.18826713712E-01 -0.10031421804E-01  0.21863460600E-01  0.00000000000E+00 0. -1.
     999901    1    3    3    0    0 -0.39267518809E-02 -0.90079012042E-01  0.83971797999E-01  0.88858365428E+00  0.88000000000E+00 0. -1.
        -11    1    4    4    0    0  0.10973924736E-01  0.39679995186E-01 -0.20469449648E-01  0.45980305914E-01  0.51100000000E-03 0.  1.
         11    1    4    4    0    0 -0.22579832747E-02  0.69225730567E-01 -0.53470926548E-01  0.87502579207E-01  0.51100000000E-03 0. -1.
</event>
<event>
 8    1  0.1082757E+005  0.1043930E+01  0.7957747E-01            NaN
         13   -1    0    0    0    0  0.00000000000E+00  0.00000000000E+00  0.74505805969E-08  0.10566000000E+00  0.10566000000E+00 0. -1.
     999900   -1    0    0    0    0 -0.00000000000E+00 -0.00000000000E+00 -0.74505805969E-08  0.93827000000E+00  0.93827000000E+00 0.  1.
     999902    2    1    2    0    0  0.19427580425E-01 -0.15168282946E-01 -0.68549430121E-02  0.10183468428E+01  0.10180254389E+01 0.  0.
     999903    2    3    3    0    0  0.55345985533E-01 -0.10719097885E+00  0.47297198309E-01  0.13116548434E+00  0.20353752812E-01 0.  0.
         14    1    1    2    0    0 -0.19427580425E-01  0.15168282946E-01  0.68549430121E-02  0.25583157201E-01  0.00000000000E+00 0. -1.
     999901    1    3    3    0    0 -0.35918405108E-01  0.92022695901E-01 -0.54152141321E-01  0.88718135846E+00  0.88000000000E+00 0.  1.
        -11    1    4    4    0    0  0.26535577062E-01 -0.34898940635E-01  0.23718870112E-01  0.49848960148E-01  0.51100000000E-03 0.  1.
         11    1    4    4    0    0  0.28810408471E-01 -0.72292038212E-01  0.23578328197E-01  0.81316524192E-01  0.51100000000E-03 0. -1.
</event>
<event>
 8    1  0.1082757E+005  0.1043930E+01  0.7957747E-01            NaN
         13   -1    0    0    0    0  0.00000000000E+00  0.00000000000E+00  0.74505805969E-08  0.10566000000E+00  0.10566000000E+00 0. -1.
     999900   -1    0    0    0    0 -0.00000000000E+00 -0.00000000000E+00 -0.74505805969E-08  0.93827000000E+00  0.93827000000E+00 0.  1.
     999902    2    1    2    0    0 -0.39005498190E-02 -0.22963778538E-01  0.52178384867E-02  0.10200600345E+01  0.10197807111E+01 0.  0.
     999903    2    3    3    0    0 -0.12787283761E+00  0.47367088034E-02  0.18034272981E-01  0.13084650216E+00  0.20534680824E-01 0.  0.
         14    1    1    2    0    0  0.39005498190E-02  0.22963778538E-01 -0.52178384867E-02  0.23869965482E-01  0.00000000000E+00 0. -1.
     999901    1    3    3    0    0  0.12397228779E+00 -0.27700487342E-01 -0.12816434494E-01  0.88921353236E+00  0.88000000000E+00 0.  1.
        -11    1    4    4    0    0 -0.12134677731E+00  0.82824262932E-02  0.14152962695E-01  0.12245083267E+00  0.51100000000E-03 0. -1.
         11    1    4    4    0    0 -0.65260603036E-02 -0.35457174899E-02  0.38813102858E-02  0.83956694872E-02  0.51100000000E-03 0.  1.
</event>
<event>
 8    1  0.1082757E+005  0.1043930E+01  0.7957747E-01            NaN
         13   -1    0    0    0    0  0.00000000000E+00  0.00000000000E+00  0.74505805969E-08  0.10566000000E+00  0.10566000000E+00 0.  1.
     999900   -1    0    0    0    0 -0.00000000000E+00 -0.00000000000E+00 -0.74505805969E-08  0.93827000000E+00  0.93827000000E+00 0.  1.
     999902    2    1    2    0    0  0.20435203837E-02  0.15853200353E-01  0.16815869332E-01  0.10207292802E+01  0.10204655752E+01 0.  0.
     999903    2    3    3    0    0 -0.42764460956E-01  0.60402857249E-01  0.10951204125E+00  0.13360752566E+00  0.19513570931E-01 0.  0.
         14    1    1    2    0    0 -0.20435203837E-02 -0.15853200353E-01 -0.16815869332E-01  0.23200719781E-01  0.00000000000E+00 0.  1.
     999901    1    3    3    0    0  0.44807981340E-01 -0.44549656896E-01 -0.92696171915E-01  0.88712175456E+00  0.88000000000E+00 0. -1.
        -11    1    4    4    0    0 -0.40824625968E-01  0.47041863953E-01  0.96451352075E-01  0.11481598969E+00  0.51100000000E-03 0. -1.
         11    1    4    4    0    0 -0.19398349885E-02  0.13360993296E-01  0.13060689172E-01  0.18791535975E-01  0.51100000000E-03 0.  1.
</event>
<event>
 8    1  0.1082757E+005  0.1043930E+01  0.7957747E-01            NaN
         13   -1    0    0    0    0  0.00000000000E+00  0.00000000000E+00  0.74505805969E-08  0.10566000000E+00  0.10566000000E+00 0.  1.
     999900   -1    0    0    0    0 -0.00000000000E+00 -0.00000000000E+00 -0.74505805969E-08  0.93827000000E+00  0.93827000000E+00 0.  1.
     999902    2    1    2    0    0 -0.37441774447E-02  0.17772763762E-01  0.13137743533E-01  0.10215137046E+01  0.10212677212E+01 0.  0.
     999903    2    3    3    0    0  0.12904493196E+00 -0.46194376244E-02 -0.84968579175E-02  0.13100687457E+00  0.20412518762E-01 0.  0.
         14    1    1    2    0    0  0.37441774447E-02 -0.17772763762E-01 -0.13137743533E-01  0.22416295448E-01  0.00000000000E+00 0. -1.
     999901    1    3    3    0    0 -0.13278910940E+00  0.22392201387E-01  0.21634601451E-01  0.89050682998E+00  0.88000000000E+00 0.  1.
        -11    1    4    4    0    0  0.43694220986E-01  0.34722561770E-02 -0.11150327180E-01  0.45230879140E-01  0.51100000000E-03 0. -1.
         11    1    4    4    0    0  0.85350710974E-01 -0.80916938014E-02  0.26534692623E-02  0.85775995433E-01  0.51100000000E-03 0.  1.
</event>
<event>
 8    1  0.1082757E+005  0.1043930E+01  0.7957747E-01            NaN
         13   -1    0    0    0    0  0.00000000000E+00  0.00000000000E+00  0.74505805969E-08  0.10566000000E+00  0.10566000000E+00 0.  1.
     999900   -1    0    0    0    0 -0.00000000000E+00 -0.00000000000E+00 -0.74505805969E-08  0.93827000000E+00  0.93827000000E+00 0.  1.
     999902    2    1    2    0    0  0.35222407477E-03 -0.23914932691E-01  0.69101951042E-03  0.10200024933E+01  0.10197218056E+01 0.  0.
     999903    2    3    3    0    0 -0.96513002711E-01 -0.54874168628E-01 -0.67552038830E-01  0.13152150791E+00  0.20216206790E-01 0.  0.
         14    1    1    2    0    0 -0.35222407477E-03  0.23914932691E-01 -0.69101951042E-03  0.23927506668E-01  0.00000000000E+00 0.  1.
     999901    1    3    3    0    0  0.96865226786E-01  0.30959235937E-01  0.68243058341E-01  0.88848098542E+00  0.88000000000E+00 0.  1.
        -11    1    4    4    0    0 -0.48230322992E-01 -0.36709910976E-01 -0.29463411188E-01  0.67395365861E-01  0.51100000000E-03 0. -1.
         11    1    4    4    0    0 -0.48282679719E-01 -0.18164257652E-01 -0.38088627642E-01  0.64126142045E-01  0.51100000000E-03 0.  1.
</event>
<event>
 8    1  0.1082757E+005  0.1043930E+01  0.7957747E-01            NaN
         13   -1    0    0    0    0  0.00000000000E+00  0.00000000000E+00  0.74505805969E-08  0.10566000000E+00  0.10566000000E+00 0.  1.
     999900   -1    0    0    0    0 -0.00000000000E+00 -0.00000000000E+00 -0.74505805969E-08  0.93827000000E+00  0.93827000000E+00 0.  1.
     999902    2    1    2    0    0  0.15733975793E-01 -0.14312810136E-01  0.79637673962E-02  0.10212179741E+01  0.10209653836E+01 0.  0.
     999903    2    3    3    0    0 -0.86871713993E-01  0.78124328121E-01 -0.49822580239E-01  0.12857481245E+00  0.19977175953E-01 0.  0.
         14    1    1    2    0    0 -0.15733975793E-01  0.14312810136E-01 -0.79637673962E-02  0.22712025876E-01  0.00000000000E+00 0.  1.
     999901    1    3    3    0    0  0.10260568979E+00 -0.92437138257E-01  0.57786347635E-01  0.89264316167E+00  0.88000000000E+00 0. -1.
        -11    1    4    4    0    0 -0.49543011087E-01  0.32010012009E-01 -0.28675669408E-01  0.65587391726E-01  0.51100000000E-03 0. -1.
         11    1    4    4    0    0 -0.37328702906E-01  0.46114316112E-01 -0.21146910832E-01  0.62987420727E-01  0.51100000000E-03 0.  1.
</event>
<event>
 8    1  0.1082757E+005  0.1043930E+01  0.7957747E-01            NaN
         13   -1    0    0    0    0  0.00000000000E+00  0.00000000000E+00  0.74505805969E-08  0.10566000000E+00  0.10566000000E+00 0. -1.
     999900   -1    0    0    0    0 -0.00000000000E+00 -0.00000000000E+00 -0.74505805969E-08  0.93827000000E+00  0.93827000000E+00 0. -1.
     999902    2    1    2    0    0  0.36557337526E-02  0.23743071864E-01 -0.92893616227E-03  0.10198891853E+01  0.10196058010E+01 0.  0.
     999903    2    3    3    0    0 -0.73051287963E-01 -0.35532050614E-02  0.10525811318E+00  0.12977416833E+00  0.20321132752E-01 0.  0.
         14    1    1    2    0    0 -0.36557337526E-02 -0.23743071864E-01  0.92893616227E-03  0.24040814737E-01  0.00000000000E+00 0. -1.
     999901    1    3    3    0    0  0.76707021715E-01  0.27296276925E-01 -0.10618704935E+00  0.89011501693E+00  0.88000000000E+00 0. -1.
        -11    1    4    4    0    0 -0.34775380655E-01 -0.11746126457E-01  0.53360689499E-01  0.64768224394E-01  0.51100000000E-03 0.  1.
         11    1    4    4    0    0 -0.38275907308E-01  0.81929213951E-02  0.51897423686E-01  0.65005943939E-01  0.51100000000E-03 0. -1.
</event>
<event>
 8    1  0.1082757E+005  0.1043930E+01  0.7957747E-01            NaN
         13   -1    0    0    0    0  0.00000000000E+00  0.00000000000E+00  0.74505805969E-08  0.10566000000E+00  0.10566000000E+00 0. -1.
     999900   -1    0    0    0    0 -0.00000000000E+00 -0.00000000000E+00 -0.74505805969E-08  0.93827000000E+00  0.93827000000E+00 0. -1.
     999902    2    1    2    0    0  0.90703428168E-02  0.20807250242E-01  0.31360390241E-02  0.10210160845E+01  0.10207589320E+01 0.  0.
     999903    2    3    3    0    0  0.92579886209E-01  0.90635021601E-01 -0.27519893357E-01  0.13377905437E+00  0.18808200000E-01 0.  0.
         14    1    1    2    0    0 -0.90703428168E-02 -0.20807250242E-01 -0.31360390241E-02  0.22913915471E-01  0.00000000000E+00 0.  1.
     999901    1    3    3    0    0 -0.83509543392E-01 -0.69827771359E-01  0.30655932382E-01  0.88723703016E+00  0.88000000000E+00 0. -1.
        -11    1    4    4    0    0  0.80601305308E-01  0.69437920562E-01 -0.19662836567E-01  0.10819003416E+00  0.51100000000E-03 0. -1.
         11    1    4    4    0    0  0.11978580901E-01  0.21197101039E-01 -0.78570567903E-02  0.25589020210E-01  0.51100000000E-03 0.  1.
</event>
<event>
 8    1  0.1082757E+005  0.1043930E+01  0.7957747E-01            NaN
         13   -1    0    0    0    0  0.00000000000E+00  0.00000000000E+00  0.74505805969E-08  0.10566000000E+00  0.10566000000E+00 0. -1.
     999900   -1    0    0    0    0 -0.00000000000E+00 -0.00000000000E+00 -0.74505805969E-08  0.93827000000E+00  0.93827000000E+00 0.  1.
     999902    2    1    2    0    0 -0.25607703216E-02  0.41315965523E-02 -0.20720511573E-01  0.10226469731E+01  0.10224254811E+01 0.  0.
     999903    2    3    3    0    0 -0.66293236131E-01 -0.24210434599E-01  0.10797699677E+00  0.13055496742E+00  0.20115401698E-01 0.  0.
         14    1    1    2    0    0  0.25607703216E-02 -0.41315965523E-02  0.20720511573E-01  0.21283026913E-01  0.00000000000E+00 0. -1.
     999901    1    3    3    0    0  0.63732465809E-01  0.28342031151E-01 -0.12869750834E+00  0.89209200567E+00  0.88000000000E+00 0.  1.
        -11    1    4    4    0    0 -0.40090033511E-01 -0.24410801272E-01  0.74224401713E-01  0.87821528888E-01  0.51100000000E-03 0.  1.
         11    1    4    4    0    0 -0.26203202620E-01  0.20036667294E-03  0.33752595057E-01  0.42733438528E-01  0.51100000000E-03 0. -1.
</event>
<event>
 8    1  0.1082757E+005  0.1043930E+01  0.7957747E-01            NaN
         13   -1    0    0    0    0  0.00000000000E+00  0.00000000000E+00  0.74505805969E-08  0.10566000000E+00  0.10566000000E+00 0. -1.
     999900   -1    0    0    0    0 -0.00000000000E+00 -0.00000000000E+00 -0.74505805969E-08  0.93827000000E+00  0.93827000000E+00 0.  1.
     999902    2    1    2    0    0  0.11977533118E-01  0.20380452091E-01  0.66192362680E-03  0.10202812734E+01  0.10200071640E+01 0.  0.
     999903    2    3    3    0    0 -0.90251205635E-01 -0.33121643521E-03 -0.90578278481E-01  0.12943647057E+00  0.20099391998E-01 0.  0.
         14    1    1    2    0    0 -0.11977533118E-01 -0.20380452091E-01 -0.66192362680E-03  0.23648726603E-01  0.00000000000E+00 0. -1.
     999901    1    3    3    0    0  0.10222873875E+00  0.20711668527E-01  0.91240202108E-01  0.89084480283E+00  0.88000000000E+00 0. -1.
        -11    1    4    4    0    0 -0.70938841763E-01  0.64090587459E-02 -0.62973041169E-01  0.95075024795E-01  0.51100000000E-03 0. -1.
         11    1    4    4    0    0 -0.19312363872E-01 -0.67402751811E-02 -0.27605237312E-01  0.34361445777E-01  0.51100000000E-03 0.  1.
</event>
<event>
 7    1  0.1082757E+005  0.1043930E+01  0.7957747E-01            NaN
         13   -1    0    0    0    0  0.00000000000E+00  0.00000000000E+00  0.74505805969E-08  0.10566000000E+00  0.10566000000E+00 0. -1.
     999900   -1    0    0    0    0 -0.00000000000E+00 -0.00000000000E+00 -0.74505805969E-08  0.93827000000E+00  0.93827000000E+00 0.  1.
     999903    2    1    2    0    0 -0.36715480055E-01  0.10327923735E+00  0.12549417182E-01  0.11202237446E+00  0.19413839505E-01 0.  0.
         14    1    1    2    0    0  0.38873892798E-01  0.13415882974E-01  0.14999861785E-01  0.43773979837E-01  0.00000000000E+00 0.  1.
     999901    1    1    2    0    0 -0.21584127430E-02 -0.11669512033E+00 -0.27549278966E-01  0.88813364570E+00  0.88000000000E+00 0. -1.
        -11    1    3    3    0    0 -0.18071434122E-01  0.29512614003E-01  0.94259831811E-02  0.35870341459E-01  0.51100000000E-03 0.  1.
         11    1    3    3    0    0 -0.18644045934E-01  0.73766623351E-01  0.31234340008E-02  0.76152033002E-01  0.51100000000E-03 0. -1.
</event>
<event>
 8    1  0.1082757E+005  0.1043930E+01  0.7957747E-01            NaN
         13   -1    0    0    0    0  0.00000000000E+00  0.00000000000E+00  0.74505805969E-08  0.10566000000E+00  0.10566000000E+00 0.  1.
     999900   -1    0    0    0    0 -0.00000000000E+00 -0.00000000000E+00 -0.74505805969E-08  0.93827000000E+00  0.93827000000E+00 0.  1.
     999902    2    1    2    0    0 -0.20084901082E-01  0.11738706072E-01 -0.51492525622E-02  0.10201032236E+01  0.10198249220E+01 0.  0.
     999903    2    3    3    0    0 -0.30487693393E-01  0.12209845748E+00  0.34864993497E-01  0.13224702313E+00  0.20884793232E-01 0.  0.
         14    1    1    2    0    0  0.20084901082E-01 -0.11738706072E-01  0.51492525622E-02  0.23826776401E-01  0.00000000000E+00 0. -1.
     999901    1    3    3    0    0  0.10402792312E-01 -0.11035975141E+00 -0.40014246059E-01  0.88785620047E+00  0.88000000000E+00 0.  1.
        -11    1    4    4    0    0 -0.22691145732E-02  0.13125306652E-01  0.10749804052E-01  0.17124309148E-01  0.51100000000E-03 0.  1.
         11    1    4    4    0    0 -0.28218578820E-01  0.10897315083E+00  0.24115189445E-01  0.11512271398E+00  0.51100000000E-03 0. -1.
</event>
<event>
 8    1  0.1082757E+005  0.1043930E+01  0.7957747E-01            NaN
         13   -1    0    0    0    0  0.00000000000E+00  0.00000000000E+00  0.74505805969E-08  0.10566000000E+00  0.10566000000E+00 0. -1.
     999900   -1    0    0    0    0 -0.00000000000E+00 -0.00000000000E+00 -0.74505805969E-08  0.93827000000E+00  0.93827000000E+00 0. -1.
     999902    2    1    2    0    0  0.14423038958E-01  0.15814773324E-01 -0.45322447257E-02  0.10220514180E+01  0.10218172188E+01 0.  0.
     999903    2    3    3    0    0  0.11041783173E+00  0.73081411335E-01  0.14647163971E-01  0.13477337940E+00  0.20404267580E-01 0.  0.
         14    1    1    2    0    0 -0.14423038958E-01 -0.15814773324E-01  0.45322447257E-02  0.21878582000E-01  0.00000000000E+00 0. -1.
     999901    1    3    3    0    0 -0.95994792770E-01 -0.57266638010E-01 -0.19179408697E-01  0.88727803860E+00  0.88000000000E+00 0. -1.
        -11    1    4    4    0    0  0.25464836505E-01  0.23736798138E-01  0.10800093351E-01  0.36452662749E-01  0.51100000000E-03 0. -1.
         11    1    4    4    0    0  0.84952995223E-01  0.49344613196E-01  0.38470706208E-02  0.98320716648E-01  0.51100000000E-03 0.  1.
</event>
<event>
 8    1  0.1082757E+005  0.1043930E+01  0.7957747E-01            NaN
         13   -1    0    0    0    0  0.00000000000E+00  0.00000000000E+00  0.74505805969E-08  0.10566000000E+00  0.10566000000E+00 0.  1.
     999900   -1    0    0    0    0 -0.00000000000E+00 -0.00000000000E+00 -0.74505805969E-08  0.93827000000E+00  0.93827000000E+00 0. -1.
     999902    2    1    2    0    0  0.20071314817E-01  0.81097143615E-02 -0.84489858196E-02  0.10206918739E+01  0.10204273080E+01 0.  0.
     999903    2    3    3    0    0  0.11731010953E+00  0.34134010412E-01  0.48960014716E-01  0.13309487041E+00  0.19757758558E-01 0.  0.
         14    1    1    2    0    0 -0.20071314817E-01 -0.81097143615E-02  0.84489858196E-02  0.23238126149E-01  0.00000000000E+00 0. -1.
     999901    1    3    3    0    0 -0.97238794711E-01 -0.26024296051E-01 -0.57409000536E-01  0.88759700344E+00  0.88000000000E+00 0.  1.
        -11    1    4    4    0    0  0.45932647555E-01  0.17244694959E-01  0.10129226085E-01  0.50100398778E-01  0.51100000000E-03 0. -1.
         11    1    4    4    0    0  0.71377461973E-01  0.16889315453E-01  0.38830788631E-01  0.82994471629E-01  0.51100000000E-03 0.  1.
</event>
<event>
 8    1  0.1082757E+005  0.1043930E+01  0.7957747E-01            NaN
         13   -1    0    0    0    0  0.00000000000E+00  0.00000000000E+00  0.74505805969E-08  0.10566000000E+00  0.10566000000E+00 0. -1.
     999900   -1    0    0    0    0 -0.00000000000E+00 -0.00000000000E+00 -0.74505805969E-08  0.93827000000E+00  0.93827000000E+00 0. -1.
     999902    2    1    2    0    0  0.98792617699E-02  0.16676568994E-01 -0.16657992082E-01  0.10183722914E+01  0.10180515348E+01 0.  0.
     999903    2    3    3    0    0  0.56165559210E-01  0.90599780329E-01  0.71030733191E-01  0.12972366851E+00  0.20493288563E-01 0.  0.
         14    1    1    2    0    0 -0.98792617699E-02 -0.16676568994E-01  0.16657992082E-01  0.25557708558E-01  0.00000000000E+00 0. -1.
     999901    1    3    3    0    0 -0.46286297441E-01 -0.73923211336E-01 -0.87688725273E-01  0.88864862294E+00  0.88000000000E+00 0. -1.
        -11    1    4    4    0    0  0.21651063810E-01  0.45048886311E-01  0.22794844588E-01  0.54936661554E-01  0.51100000000E-03 0.  1.
         11    1    4    4    0    0  0.34514495400E-01  0.45550894019E-01  0.48235888603E-01  0.74787006953E-01  0.51100000000E-03 0. -1.
</event>
<event>
 8    1  0.1082757E+005  0.1043930E+01  0.7957747E-01            NaN
         13   -1    0    0    0    0  0.00000000000E+00  0.00000000000E+00  0.74505805969E-08  0.10566000000E+00  0.10566000000E+00 0.  1.
     999900   -1    0    0    0    0 -0.00000000000E+00 -0.00000000000E+00 -0.74505805969E-08  0.93827000000E+00  0.93827000000E+00 0. -1.
     999902    2    1    2    0    0  0.87455592007E-03  0.29150323208E-02  0.22087244240E-01  0.10216340672E+01  0.10213907473E+01 0.  0.
     999903    2    3    3    0    0 -0.25797652322E-01 -0.10589058786E+00 -0.67868473161E-01  0.12998273356E+00  0.20274267259E-01 0.  0.
         14    1    1    2    0    0 -0.87455592007E-03 -0.29150323208E-02 -0.22087244240E-01  0.22295932804E-01  0.00000000000E+00 0. -1.
     999901    1    3    3    0    0  0.26672208242E-01  0.10880562018E+00  0.89955717402E-01  0.89165133363E+00  0.88000000000E+00 0.  1.
        -11    1    4    4    0    0 -0.31138298075E-02 -0.16407147525E-01 -0.19784124809E-01  0.25895233952E-01  0.51100000000E-03 0. -1.
         11    1    4    4    0    0 -0.22683822515E-01 -0.89483440333E-01 -0.48084348353E-01  0.10408749961E+00  0.51100000000E-03 0.  1.
</event>
<event>
 8    1  0.1106545E+005  0.1043930E+01  0.7957747E-01            NaN
         13   -1    0    0    0    0  0.00000000000E+00  0.00000000000E+00  0.74505805969E-08  0.10566000000E+00  0.10566000000E+00 0. -1.
     999900   -1    0    0    0    0 -0.00000000000E+00 -0.00000000000E+00 -0.74505805969E-08  0.93827000000E+00  0.93827000000E+00 0. -1.
     999902    2    1    2    0    0 -0.82623613519E-02  0.13856401167E-01 -0.17307301300E-01  0.10202697137E+01  0.10199953331E+01 0.  0.
     999903    2    3    3    0    0  0.89659875629E-01 -0.71943588714E-01  0.52399007990E-01  0.12796406412E+00  0.20356139442E-01 0.  0.
         14    1    1    2    0    0  0.82623613519E-02 -0.13856401167E-01  0.17307301300E-01  0.23660286277E-01  0.00000000000E+00 0. -1.
     999901    1    3    3    0    0 -0.97922236981E-01  0.85799989881E-01 -0.69706309290E-01  0.89230564960E+00  0.88000000000E+00 0. -1.
        -11    1    4    4    0    0  0.42929934717E-01 -0.28680287627E-01  0.33452802790E-01  0.61521454215E-01  0.51100000000E-03 0. -1.
         11    1    4    4    0    0  0.46729940912E-01 -0.43263301086E-01  0.18946205200E-01  0.66442609905E-01  0.51100000000E-03 0.  1.
</event>
<event>
 8    1  0.1082757E+005  0.1043930E+01  0.7957747E-01            NaN
         13   -1    0    0    0    0  0.00000000000E+00  0.00000000000E+00  0.74505805969E-08  0.10566000000E+00  0.10566000000E+00 0. -1.
     999900   -1    0    0    0    0 -0.00000000000E+00 -0.00000000000E+00 -0.74505805969E-08  0.93827000000E+00  0.93827000000E+00 0. -1.
     999902    2    1    2    0    0  0.24819685986E-03  0.49075258640E-02 -0.21242477052E-01  0.10221266002E+01  0.10218940251E+01 0.  0.
     999903    2    3    3    0    0 -0.29916780565E-01 -0.94540602649E-01  0.82014525432E-01  0.13001569639E+00  0.18567703601E-01 0.  0.
         14    1    1    2    0    0 -0.24819685986E-03 -0.49075258640E-02  0.21242477052E-01  0.21803399805E-01  0.00000000000E+00 0. -1.
     999901    1    3    3    0    0  0.30164977425E-01  0.99448128513E-01 -0.10325700248E+00  0.89211090381E+00  0.88000000000E+00 0. -1.
        -11    1    4    4    0    0 -0.36897553409E-02 -0.17571696049E-01  0.66737690479E-02  0.19161918244E-01  0.51100000000E-03 0.  1.
         11    1    4    4    0    0 -0.26227025224E-01 -0.76968906600E-01  0.75340756384E-01  0.11085377814E+00  0.51100000000E-03 0. -1.
</event>
<event>
 8    1  0.1082757E+005  0.1043930E+01  0.7957747E-01            NaN
         13   -1    0    0    0    0  0.00000000000E+00  0.00000000000E+00  0.74505805969E-08  0.10566000000E+00  0.10566000000E+00 0.  1.
     999900   -1    0    0    0    0 -0.00000000000E+00 -0.00000000000E+00 -0.74505805969E-08  0.93827000000E+00  0.93827000000E+00 0.  1.
     999902    2    1    2    0    0  0.19126135063E-01  0.59686835183E-02 -0.10659205815E-01  0.10212352232E+01  0.10209830205E+01 0.  0.
     999903    2    3    3    0    0 -0.11876859517E+00 -0.31021833653E-01 -0.35484993101E-01  0.12938345598E+00  0.20311587417E-01 0.  0.
         14    1    1    2    0    0 -0.19126135063E-01 -0.59686835183E-02  0.10659205815E-01  0.22694776800E-01  0.00000000000E+00 0. -1.
     999901    1    3    3    0    0  0.13789473023E+00  0.36990517171E-01  0.24825787286E-01  0.89185176722E+00  0.88000000000E+00 0.  1.
        -11    1    4    4    0    0 -0.67434255634E-01 -0.10045144408E-01 -0.26762012844E-01  0.73244455160E-01  0.51100000000E-03 0.  1.
         11    1    4    4    0    0 -0.51334339534E-01 -0.20976689245E-01 -0.87229802564E-02  0.56139000816E-01  0.51100000000E-03 0. -1.
</event>
<event>
 8    1  0.1082757E+005  0.1043930E+01  0.7957747E-01            NaN
         13   -1    0    0    0    0  0.00000000000E+00  0.00000000000E+00  0.74505805969E-08  0.10566000000E+00  0.10566000000E+00 0. -1.
     999900   -1    0    0    0    0 -0.00000000000E+00 -0.00000000000E+00 -0.74505805969E-08  0.93827000000E+00  0.93827000000E+00 0.  1.
     999902    2    1    2    0    0 -0.13869499578E-02 -0.12238975193E-01 -0.20254984993E-01  0.10202238708E+01  0.10199484134E+01 0.  0.
     999903    2    3    3    0    0 -0.11914716551E+00 -0.45171774864E-01  0.21787421227E-01  0.13077482698E+00  0.19769353907E-01 0.  0.
         14    1    1    2    0    0  0.13869499578E-02  0.12238975193E-01  0.20254984993E-01  0.23706129187E-01  0.00000000000E+00 0. -1.
     999901    1    3    3    0    0  0.11776021555E+00  0.32932799672E-01 -0.42042406220E-01  0.88944904384E+00  0.88000000000E+00 0. -1.
        -11    1    4    4    0    0 -0.41017666020E-01 -0.58310384677E-02  0.55375814434E-02  0.41801625142E-01  0.51100000000E-03 0.  1.
         11    1    4    4    0    0 -0.78129499489E-01 -0.39340736397E-01  0.16249839783E-01  0.88973201834E-01  0.51100000000E-03 0. -1.
</event>
<event>
 8    1  0.1082757E+005  0.1043930E+01  0.7957747E-01            NaN
         13   -1    0    0    0    0  0.00000000000E+00  0.00000000000E+00  0.74505805969E-08  0.10566000000E+00  0.10566000000E+00 0. -1.
     999900   -1    0    0    0    0 -0.00000000000E+00 -0.00000000000E+00 -0.74505805969E-08  0.93827000000E+00  0.93827000000E+00 0. -1.
     999902    2    1    2    0    0 -0.27462198951E-02  0.23754019827E-01 -0.20601650170E-02  0.10199291779E+01  0.10196467469E+01 0.  0.
     999903    2    3    3    0    0 -0.94415640565E-01 -0.17472418940E-01 -0.85657438636E-01  0.13027115029E+00  0.20341514109E-01 0.  0.
         14    1    1    2    0    0  0.27462198951E-02 -0.23754019827E-01  0.20601650170E-02  0.24000822101E-01  0.00000000000E+00 0. -1.
     999901    1    3    3    0    0  0.91669420670E-01  0.41226438767E-01  0.83597273619E-01  0.88965802761E+00  0.88000000000E+00 0.  1.
        -11    1    4    4    0    0 -0.10455722916E-01  0.94725263713E-03 -0.27935829545E-02  0.10875874952E-01  0.51100000000E-03 0.  1.
         11    1    4    4    0    0 -0.83959917649E-01 -0.18419671577E-01 -0.82863855681E-01  0.11939527533E+00  0.51100000000E-03 0. -1.
</event>
<event>
 8    1  0.1082757E+005  0.1043930E+01  0.7957747E-01            NaN
         13   -1    0    0    0    0  0.00000000000E+00  0.00000000000E+00  0.74505805969E-08  0.10566000000E+00  0.10566000000E+00 0.  1.
     999900   -1    0    0    0    0 -0.00000000000E+00 -0.00000000000E+00 -0.74505805969E-08  0.93827000000E+00  0.93827000000E+00 0. -1.
     999902    2    1    2    0    0  0.19192269651E-01 -0.84049826453E-02 -0.10976531591E-01  0.10202768566E+01  0.10200026436E+01 0.  0.
     999903    2    3    3    0    0 -0.96469033271E-01 -0.67558031856E-01 -0.51111290678E-01  0.12983459618E+00  0.19346738295E-01 0.  0.
         14    1    1    2    0    0 -0.19192269651E-01  0.84049826453E-02  0.10976531591E-01  0.23653143414E-01  0.00000000000E+00 0. -1.
     999901    1    3    3    0    0  0.11566130292E+00  0.59153049211E-01  0.40134759087E-01  0.89044226040E+00  0.88000000000E+00 0.  1.
        -11    1    4    4    0    0 -0.47286646805E-01 -0.22300310409E-01 -0.26429247352E-01  0.58584102340E-01  0.51100000000E-03 0.  1.
         11    1    4    4    0    0 -0.49182386466E-01 -0.45257721447E-01 -0.24682043326E-01  0.71250493842E-01  0.51100000000E-03 0. -1.
</event>
<event>
 8    1  0.1082757E+005  0.1043930E+01  0.7957747E-01            NaN
         13   -1    0    0    0    0  0.00000000000E+00  0.00000000000E+00  0.74505805969E-08  0.10566000000E+00  0.10566000000E+00 0. -1.
     999900   -1    0    0    0    0 -0.00000000000E+00 -0.00000000000E+00 -0.74505805969E-08  0.93827000000E+00  0.93827000000E+00 0. -1.
     999902    2    1    2    0    0 -0.13163210320E-01 -0.53078581073E-02  0.18578451858E-01  0.10205504718E+01  0.10202826389E+01 0.  0.
     999903    2    3    3    0    0  0.83878697019E-01  0.29822776150E-01  0.94506725137E-01  0.13127189011E+00  0.19384381477E-01 0.  0.
         14    1    1    2    0    0  0.13163210320E-01  0.53078581073E-02 -0.18578451858E-01  0.23379528161E-01  0.00000000000E+00 0.  1.
     999901    1    3    3    0    0 -0.97041907339E-01 -0.35130634258E-01 -0.75928273279E-01  0.88927858173E+00  0.88000000000E+00 0.  1.
        -11    1    4    4    0    0  0.42688459287E-01  0.63083119732E-02  0.38044446308E-01  0.57530343056E-01  0.51100000000E-03 0. -1.
         11    1    4    4    0    0  0.41190237732E-01  0.23514464177E-01  0.56462278829E-01  0.73741547051E-01  0.51100000000E-03 0.  1.
</event>
<event>
 8    1  0.1082757E+005  0.1043930E+01  0.7957747E-01            NaN
         13   -1    0    0    0    0  0.00000000000E+00  0.00000000000E+00  0.74505805969E-08  0.10566000000E+00  0.10566000000E+00 0. -1.
     999900   -1    0    0    0    0 -0.00000000000E+00 -0.00000000000E+00 -0.74505805969E-08  0.93827000000E+00  0.93827000000E+00 0.  1.
     999902    2    1    2    0    0  0.33328421576E-02 -0.23750021341E-01  0.65119620711E-02  0.10190789034E+01  0.10187758509E+01 0.  0.
     999903    2    3    3    0    0 -0.79102174524E-01 -0.56856139218E-01 -0.84054565560E-01  0.12998169674E+00  0.18447138415E-01 0.  0.
         14    1    1    2    0    0 -0.33328421576E-02  0.23750021341E-01 -0.65119620711E-02  0.24851096567E-01  0.00000000000E+00 0.  1.
     999901    1    3    3    0    0  0.82435016681E-01  0.33106117877E-01  0.90566527631E-01  0.88909720669E+00  0.88000000000E+00 0. -1.
        -11    1    4    4    0    0 -0.60489010008E-01 -0.35758281990E-01 -0.52590678511E-01  0.87770243534E-01  0.51100000000E-03 0. -1.
         11    1    4    4    0    0 -0.18613164515E-01 -0.21097857228E-01 -0.31463887048E-01  0.42211453210E-01  0.51100000000E-03 0.  1.
</event>
<event>
 8    1  0.1082757E+005  0.1043930E+01  0.7957747E-01            NaN
         13   -1    0    0    0    0  0.00000000000E+00  0.00000000000E+00  0.74505805969E-08  0.10566000000E+00  0.10566000000E+00 0.  1.
     999900   -1    0    0    0    0 -0.00000000000E+00 -0.00000000000E+00 -0.74505805969E-08  0.93827000000E+00  0.93827000000E+00 0.  1.
     999902    2    1    2    0    0  0.14681994851E-01 -0.14471722832E-01  0.11336113834E-01  0.10204034360E+01  0.10201321841E+01 0.  0.
     999903    2    3    3    0    0  0.22050172601E-01 -0.75587996403E-01 -0.10321044615E+00  0.13084714028E+00  0.16395810813E-01 0.  0.
         14    1    1    2    0    0 -0.14681994851E-01  0.14471722832E-01 -0.11336113834E-01  0.23526563952E-01  0.00000000000E+00 0. -1.
     999901    1    3    3    0    0 -0.73681777501E-02  0.61116273571E-01  0.11454655999E+00  0.88955629577E+00  0.88000000000E+00 0. -1.
        -11    1    4    4    0    0  0.23424200944E-01 -0.54987297707E-01 -0.76147652012E-01  0.96804039828E-01  0.51100000000E-03 0. -1.
         11    1    4    4    0    0 -0.13740283429E-02 -0.20600698696E-01 -0.27062794139E-01  0.34043100450E-01  0.51100000000E-03 0.  1.
</event>
<event>
 8    1  0.1082757E+005  0.1043930E+01  0.7957747E-01            NaN
         13   -1    0    0    0    0  0.00000000000E+00  0.00000000000E+00  0.74505805969E-08  0.10566000000E+00  0.10566000000E+00 0.  1.
     999900   -1    0    0    0    0 -0.00000000000E+00 -0.00000000000E+00 -0.74505805969E-08  0.93827000000E+00  0.93827000000E+00 0.  1.
     999902    2    1    2    0    0  0.13427967618E-01  0.12208945183E-01  0.12729212556E-01  0.10217624221E+01  0.10215219262E+01 0.  0.
     999903    2    3    3    0    0  0.75707135738E-01 -0.59323956013E-01  0.90803261522E-01  0.13322924443E+00  0.15934149155E-01 0.  0.
         14    1    1    2    0    0 -0.13427967618E-01 -0.12208945183E-01 -0.12729212556E-01  0.22167577881E-01  0.00000000000E+00 0.  1.
     999901    1    3    3    0    0 -0.62279168119E-01  0.71532901195E-01 -0.78074048966E-01  0.88853317769E+00  0.88000000000E+00 0. -1.
        -11    1    4    4    0    0  0.24513545024E-01 -0.27357098149E-01  0.40289752579E-01  0.54523847926E-01  0.51100000000E-03 0.  1.
         11    1    4    4    0    0  0.51193590714E-01 -0.31966857863E-01  0.50513508943E-01  0.78705396502E-01  0.51100000000E-03 0. -1.
</event>
<event>
 8    1  0.1082757E+005  0.1043930E+01  0.7957747E-01            NaN
         13   -1    0    0    0    0  0.00000000000E+00  0.00000000000E+00  0.74505805969E-08  0.10566000000E+00  0.10566000000E+00 0.  1.
     999900   -1    0    0    0    0 -0.00000000000E+00 -0.00000000000E+00 -0.74505805969E-08  0.93827000000E+00  0.93827000000E+00 0. -1.
     999902    2    1    2    0    0 -0.18342959025E-01 -0.13724773096E-01  0.46985514117E-02  0.10205438946E+01  0.10202759092E+01 0.  0.
     999903    2    3    3    0    0  0.11056708763E+00 -0.63787989653E-01 -0.10889004845E-01  0.12960781509E+00  0.19637383118E-01 0.  0.
         14    1    1    2    0    0  0.18342959025E-01  0.13724773096E-01 -0.46985514117E-02  0.23386105441E-01  0.00000000000E+00 0.  1.
     999901    1    3    3    0    0 -0.12891004666E+00  0.50063216557E-01  0.15587556257E-01  0.89093607946E+00  0.88000000000E+00 0. -1.
        -11    1    4    4    0    0  0.54542366219E-02  0.68741386879E-03 -0.23478304765E-02  0.59995553087E-02  0.51100000000E-03 0. -1.
         11    1    4    4    0    0  0.10511285101E+00 -0.64475403522E-01 -0.85411743689E-02  0.12360825979E+00  0.51100000000E-03 0.  1.
</event>
<event>
 8    1  0.1082757E+005  0.1043930E+01  0.7957747E-01            NaN
         13   -1    0    0    0    0  0.00000000000E+00  0.00000000000E+00  0.74505805969E-08  0.10566000000E+00  0.10566000000E+00 0.  1.
     999900   -1    0    0    0    0 -0.00000000000E+00 -0.00000000000E+00 -0.74505805969E-08  0.93827000000E+00  0.93827000000E+00 0.  1.
     999902    2    1    2    0    0  0.89060552353E-02 -0.69141291501E-03 -0.21665457709E-01  0.10204952410E+01  0.10202261264E+01 0.  0.
     999903    2    3    3    0    0  0.82338694285E-01 -0.21549322793E-01 -0.10084166830E+00  0.13364898758E+00  0.21189052020E-01 0.  0.
         14    1    1    2    0    0 -0.89060552353E-02  0.69141291501E-03  0.21665457709E-01  0.23434759001E-01  0.00000000000E+00 0.  1.
     999901    1    3    3    0    0 -0.73432639049E-01  0.20857909878E-01  0.79176210594E-01  0.88684625342E+00  0.88000000000E+00 0. -1.
        -11    1    4    4    0    0  0.61081608602E-01 -0.24252148025E-01 -0.69250175397E-01  0.95472391332E-01  0.51100000000E-03 0. -1.
         11    1    4    4    0    0  0.21257085683E-01  0.27028252322E-02 -0.31591492906E-01  0.38176596246E-01  0.51100000000E-03 0.  1.
</event>
<event>
 8    1  0.1082757E+005  0.1043930E+01  0.7957747E-01            NaN
         13   -1    0    0    0    0  0.00000000000E+00  0.00000000000E+00  0.74505805969E-08  0.10566000000E+00  0.10566000000E+00 0. -1.
     999900   -1    0    0    0    0 -0.00000000000E+00 -0.00000000000E+00 -0.74505805969E-08  0.93827000000E+00  0.93827000000E+00 0. -1.
     999902    2    1    2    0    0 -0.14694500787E-01  0.14349676179E-01 -0.63250147982E-02  0.10224393655E+01  0.10222134849E+01 0.  0.
     999903    2    3    3    0    0 -0.77653325294E-01  0.74764491835E-01  0.77192173543E-01  0.13418890290E+00  0.20694488050E-01 0.  0.
         14    1    1    2    0    0  0.14694500787E-01 -0.14349676179E-01  0.63250147982E-02  0.21490634519E-01  0.00000000000E+00 0.  1.
     999901    1    3    3    0    0  0.62958824507E-01 -0.60414815656E-01 -0.83517188342E-01  0.88825046259E+00  0.88000000000E+00 0. -1.
        -11    1    4    4    0    0 -0.31277318188E-01  0.44433852755E-01  0.37468572295E-01  0.66006006806E-01  0.51100000000E-03 0.  1.
         11    1    4    4    0    0 -0.46376007106E-01  0.30330639080E-01  0.39723601248E-01  0.68182896090E-01  0.51100000000E-03 0. -1.
</event>
<event>
 8    1  0.1082757E+005  0.1043930E+01  0.7957747E-01            NaN
         13   -1    0    0    0    0  0.00000000000E+00  0.00000000000E+00  0.74505805969E-08  0.10566000000E+00  0.10566000000E+00 0.  1.
     999900   -1    0    0    0    0 -0.00000000000E+00 -0.00000000000E+00 -0.74505805969E-08  0.93827000000E+00  0.93827000000E+00 0. -1.
     999902    2    1    2    0    0  0.29883855527E-02 -0.20803263318E-01 -0.11145268208E-01  0.10201408593E+01  0.10198634465E+01 0.  0.
     999903    2    3    3    0    0 -0.97483346578E-01 -0.11455857808E-01  0.82303814238E-01  0.12945871959E+00  0.18745738229E-01 0.  0.
         14    1    1    2    0    0 -0.29883855527E-02  0.20803263318E-01  0.11145268208E-01  0.23789140723E-01  0.00000000000E+00 0.  1.
     999901    1    3    3    0    0  0.10047173213E+00 -0.93474055101E-02 -0.93449082446E-01  0.89068213969E+00  0.88000000000E+00 0. -1.
        -11    1    4    4    0    0 -0.61066704130E-01 -0.15311193696E-01  0.57147292474E-01  0.85027343624E-01  0.51100000000E-03 0.  1.
         11    1    4    4    0    0 -0.36416642448E-01  0.38553358876E-02  0.25156521764E-01  0.44431375966E-01  0.51100000000E-03 0. -1.
</event>
<event>
 8    1  0.1082757E+005  0.1043930E+01  0.7957747E-01            NaN
         13   -1    0    0    0    0  0.00000000000E+00  0.00000000000E+00  0.74505805969E-08  0.10566000000E+00  0.10566000000E+00 0. -1.
     999900   -1    0    0    0    0 -0.00000000000E+00 -0.00000000000E+00 -0.74505805969E-08  0.93827000000E+00  0.93827000000E+00 0. -1.
     999902    2    1    2    0    0 -0.47938346133E-02 -0.22164315582E-01  0.42281953508E-02  0.10208623740E+01  0.10206017202E+01 0.  0.
     999903    2    3    3    0    0  0.70025710140E-01 -0.11086937492E+00  0.13755194458E-01  0.13319277577E+00  0.18854489308E-01 0.  0.
         14    1    1    2    0    0  0.47938346133E-02  0.22164315582E-01 -0.42281953508E-02  0.23067626047E-01  0.00000000000E+00 0.  1.
     999901    1    3    3    0    0 -0.74819544753E-01  0.88705059336E-01 -0.95269991074E-02  0.88766959818E+00  0.88000000000E+00 0. -1.
        -11    1    4    4    0    0  0.26764826576E-01 -0.55575714735E-01  0.19465361296E-03  0.61687235479E-01  0.51100000000E-03 0.  1.
         11    1    4    4    0    0  0.43260883564E-01 -0.55293660183E-01  0.13560540845E-01  0.71505540290E-01  0.51100000000E-03 0. -1.
</event>
<event>
 8    1  0.1082757E+005  0.1043930E+01  0.7957747E-01            NaN
         13   -1    0    0    0    0  0.00000000000E+00  0.00000000000E+00  0.74505805969E-08  0.10566000000E+00  0.10566000000E+00 0.  1.
     999900   -1    0    0    0    0 -0.00000000000E+00 -0.00000000000E+00 -0.74505805969E-08  0.93827000000E+00  0.93827000000E+00 0.  1.
     999902    2    1    2    0    0  0.20129496914E-01  0.14330877489E-01  0.20686651840E-02  0.10191338295E+01  0.10188321316E+01 0.  0.
     999903    2    3    3    0    0 -0.28015733435E-01 -0.84844637909E-01 -0.89162101453E-01  0.12757519495E+00  0.18494759536E-01 0.  0.
         14    1    1    2    0    0 -0.20129496914E-01 -0.14330877489E-01 -0.20686651840E-02  0.24796170495E-01  0.00000000000E+00 0.  1.
     999901    1    3    3    0    0  0.48145230349E-01  0.99175515398E-01  0.91230766637E-01  0.89155863455E+00  0.88000000000E+00 0. -1.
        -11    1    4    4    0    0 -0.14479221327E-01 -0.66793043015E-01 -0.62183964547E-01  0.92401650490E-01  0.51100000000E-03 0. -1.
         11    1    4    4    0    0 -0.13536512109E-01 -0.18051594894E-01 -0.26978136906E-01  0.35173544464E-01  0.51100000000E-03 0.  1.
</event>
<event>
 8    1  0.1082757E+005  0.1043930E+01  0.7957747E-01            NaN
         13   -1    0    0    0    0  0.00000000000E+00  0.00000000000E+00  0.74505805969E-08  0.10566000000E+00  0.10566000000E+00 0.  1.
     999900   -1    0    0    0    0 -0.00000000000E+00 -0.00000000000E+00 -0.74505805969E-08  0.93827000000E+00  0.93827000000E+00 0. -1.
     999902    2    1    2    0    0  0.54682411800E-02 -0.22337316280E-01 -0.10793168101E-02  0.10209077871E+01  0.10206481703E+01 0.  0.
     999903    2    3    3    0    0  0.34586224147E-01 -0.77031934556E-01  0.10064032576E+00  0.13288400149E+00  0.19988917930E-01 0.  0.
         14    1    1    2    0    0 -0.54682411800E-02  0.22337316280E-01  0.10793168101E-02  0.23022212860E-01  0.00000000000E+00 0. -1.
     999901    1    3    3    0    0 -0.29117982967E-01  0.54694618275E-01 -0.10171964257E+00  0.88802378565E+00  0.88000000000E+00 0. -1.
        -11    1    4    4    0    0  0.85850261998E-02 -0.18947203253E-01  0.39433601629E-01  0.44586648723E-01  0.51100000000E-03 0.  1.
         11    1    4    4    0    0  0.26001197947E-01 -0.58084731303E-01  0.61206724131E-01  0.88297352763E-01  0.51100000000E-03 0. -1.
</event>
<event>
 8    1  0.1082757E+005  0.1043930E+01  0.7957747E-01            NaN
         13   -1    0    0    0    0  0.00000000000E+00  0.00000000000E+00  0.74505805969E-08  0.10566000000E+00  0.10566000000E+00 0. -1.
     999900   -1    0    0    0    0 -0.00000000000E+00 -0.00000000000E+00 -0.74505805969E-08  0.93827000000E+00  0.93827000000E+00 0.  1.
     999902    2    1    2    0    0  0.12900410294E-01  0.16869648524E-01 -0.66125236695E-02  0.10216874485E+01  0.10214453051E+01 0.  0.
     999903    2    3    3    0    0 -0.80559039777E-01  0.86182041178E-02 -0.10173513179E+00  0.13160258418E+00  0.20128854705E-01 0.  0.
         14    1    1    2    0    0 -0.12900410294E-01 -0.16869648524E-01  0.66125236695E-02  0.22242551481E-01  0.00000000000E+00 0.  1.
     999901    1    3    3    0    0  0.93459450072E-01  0.82514444064E-02  0.95122608120E-01  0.89008486433E+00  0.88000000000E+00 0. -1.
        -11    1    4    4    0    0 -0.33369165355E-01  0.11382571428E-01 -0.53413287212E-01  0.64002378867E-01  0.51100000000E-03 0. -1.
         11    1    4    4    0    0 -0.47189874422E-01 -0.27643673103E-02 -0.48321844577E-01  0.67600205318E-01  0.51100000000E-03 0.  1.
</event>
<event>
 8    1  0.1082757E+005  0.1043930E+01  0.7957747E-01            NaN
         13   -1    0    0    0    0  0.00000000000E+00  0.00000000000E+00  0.74505805969E-08  0.10566000000E+00  0.10566000000E+00 0. -1.
     999900   -1    0    0    0    0 -0.00000000000E+00 -0.00000000000E+00 -0.74505805969E-08  0.93827000000E+00  0.93827000000E+00 0. -1.
     999902    2    1    2    0    0 -0.32037296258E-02  0.25636607767E-01  0.35108296855E-02  0.10178565371E+01  0.10175225328E+01 0.  0.
     999903    2    3    3    0    0 -0.39326161384E-01 -0.11707999086E+00 -0.13813330249E-01  0.12545921299E+00  0.17173665948E-01 0.  0.
         14    1    1    2    0    0  0.32037296258E-02 -0.25636607767E-01 -0.35108296855E-02  0.26073462877E-01  0.00000000000E+00 0. -1.
     999901    1    3    3    0    0  0.36122431758E-01  0.14271659863E+00  0.17324159934E-01  0.89239732413E+00  0.88000000000E+00 0.  1.
        -11    1    4    4    0    0 -0.70403726449E-02 -0.73662276758E-02  0.41489872687E-03  0.10210848109E-01  0.51100000000E-03 0.  1.
         11    1    4    4    0    0 -0.32285788739E-01 -0.10971376319E+00 -0.14228228976E-01  0.11524836488E+00  0.51100000000E-03 0. -1.
</event>
<event>
 8    1  0.1082757E+005  0.1043930E+01  0.7957747E-01            NaN
         13   -1    0    0    0    0  0.00000000000E+00  0.00000000000E+00  0.74505805969E-08  0.10566000000E+00  0.10566000000E+00 0.  1.
     999900   -1    0    0    0    0 -0.00000000000E+00 -0.00000000000E+00 -0.74505805969E-08  0.93827000000E+00  0.93827000000E+00 0.  1.
     999902    2    1    2    0    0  0.21821647398E-02  0.11907607971E-01 -0.21827776751E-01  0.10189699357E+01  0.10186641866E+01 0.  0.
     999903    2    3    3    0    0  0.11585008673E+00 -0.13508053008E-01 -0.54947584751E-01  0.13067759984E+00  0.21299951617E-01 0.  0.
         14    1    1    2    0    0 -0.21821647398E-02 -0.11907607971E-01  0.21827776751E-01  0.24960064272E-01  0.00000000000E+00 0.  1.
     999901    1    3    3    0    0 -0.11366792199E+00  0.25415660979E-01  0.33119808000E-01  0.88829233589E+00  0.88000000000E+00 0. -1.
        -11    1    4    4    0    0  0.93993843682E-01 -0.23640753408E-02 -0.43695063202E-01  0.10368197129E+00  0.51100000000E-03 0. -1.
         11    1    4    4    0    0  0.21856243049E-01 -0.11143977667E-01 -0.11252521549E-01  0.26995628547E-01  0.51100000000E-03 0.  1.
</event>
<event>
 8    1  0.1082757E+005  0.1043930E+01  0.7957747E-01            NaN
         13   -1    0    0    0    0  0.00000000000E+00  0.00000000000E+00  0.74505805969E-08  0.10566000000E+00  0.10566000000E+00 0.  1.
     999900   -1    0    0    0    0 -0.00000000000E+00 -0.00000000000E+00 -0.74505805969E-08  0.93827000000E+00  0.93827000000E+00 0.  1.
     999902    2    1    2    0    0 -0.84383816501E-02  0.16498888393E-01  0.12051367466E-01  0.10218244563E+01  0.10215853192E+01 0.  0.
     999903    2    3    3    0    0  0.34234368604E-01  0.20063885133E-01 -0.12276486543E+00  0.13052815909E+00  0.19794864282E-01 0.  0.
         14    1    1    2    0    0  0.84383816501E-02 -0.16498888393E-01 -0.12051367466E-01  0.22105543668E-01  0.00000000000E+00 0.  1.
     999901    1    3    3    0    0 -0.42672750254E-01 -0.35649967405E-02  0.13481623290E+00  0.89129629724E+00  0.88000000000E+00 0.  1.
        -11    1    4    4    0    0 -0.17186844900E-02  0.32933811239E-02 -0.20431237127E-01  0.20772501225E-01  0.51100000000E-03 0.  1.
         11    1    4    4    0    0  0.35953053094E-01  0.16770504009E-01 -0.10233362830E+00  0.10975565787E+00  0.51100000000E-03 0. -1.
</event>
<event>
 8    1  0.1082757E+005  0.1043930E+01  0.7957747E-01            NaN
         13   -1    0    0    0    0  0.00000000000E+00  0.00000000000E+00  0.74505805969E-08  0.10566000000E+00  0.10566000000E+00 0. -1.
     999900   -1    0    0    0    0 -0.00000000000E+00 -0.00000000000E+00 -0.74505805969E-08  0.93827000000E+00  0.93827000000E+00 0. -1.
     999902    2    1    2    0    0  0.47886240619E-02  0.20563071973E-01  0.96246087217E-02  0.10207264670E+01  0.10204626973E+01 0.  0.
     999903    2    3    3    0    0 -0.81508264998E-01 -0.97325401193E-01  0.48094218100E-02  0.12866815549E+00  0.20409133189E-01 0.  0.
         14    1    1    2    0    0 -0.47886240619E-02 -0.20563071973E-01 -0.96246087217E-02  0.23203532973E-01  0.00000000000E+00 0. -1.
     999901    1    3    3    0    0  0.86296889060E-01  0.11788847317E+00  0.48151869117E-02  0.89205831154E+00  0.88000000000E+00 0. -1.
        -11    1    4    4    0    0 -0.34577002388E-01 -0.56840029101E-01  0.48410302052E-03  0.66534603622E-01  0.51100000000E-03 0. -1.
         11    1    4    4    0    0 -0.46931262610E-01 -0.40485372092E-01  0.43253187895E-02  0.62133551863E-01  0.51100000000E-03 0.  1.
</event>
<event>
 8    1  0.1082757E+005  0.1043930E+01  0.7957747E-01            NaN
         13   -1    0    0    0    0  0.00000000000E+00  0.00000000000E+00  0.74505805969E-08  0.10566000000E+00  0.10566000000E+00 0. -1.
     999900   -1    0    0    0    0 -0.00000000000E+00 -0.00000000000E+00 -0.74505805969E-08  0.93827000000E+00  0.93827000000E+00 0. -1.
     999902    2    1    2    0    0  0.83062982537E-02  0.20991177641E-01 -0.12743855198E-01  0.10180064591E+01  0.10176763340E+01 0.  0.
     999903    2    3    3    0    0 -0.45031234378E-01  0.11917565280E+00 -0.22578269803E-01  0.13088651268E+00  0.19769993542E-01 0.  0.
         14    1    1    2    0    0 -0.83062982537E-02 -0.20991177641E-01  0.12743855198E-01  0.25923540938E-01  0.00000000000E+00 0. -1.
     999901    1    3    3    0    0  0.53337532632E-01 -0.98184475163E-01  0.98344146046E-02  0.88711994638E+00  0.88000000000E+00 0. -1.
        -11    1    4    4    0    0 -0.18459033736E-01  0.26967013064E-01 -0.95055332629E-02  0.34037802568E-01  0.51100000000E-03 0.  1.
         11    1    4    4    0    0 -0.26572200642E-01  0.92208639739E-01 -0.13072736540E-01  0.96848710116E-01  0.51100000000E-03 0. -1.
</event>
<event>
 8    1  0.1082757E+005  0.1043930E+01  0.7957747E-01            NaN
         13   -1    0    0    0    0  0.00000000000E+00  0.00000000000E+00  0.74505805969E-08  0.10566000000E+00  0.10566000000E+00 0. -1.
     999900   -1    0    0    0    0 -0.00000000000E+00 -0.00000000000E+00 -0.74505805969E-08  0.93827000000E+00  0.93827000000E+00 0. -1.
     999902    2    1    2    0    0 -0.12224160601E-01  0.54663347380E-02 -0.19464513549E-01  0.10203042047E+01  0.10200306328E+01 0.  0.
     999903    2    3    3    0    0  0.71142411210E-02 -0.12478104851E+00 -0.25307232332E-01  0.13048821695E+00  0.27673024054E-01 0.  0.
         14    1    1    2    0    0  0.12224160601E-01 -0.54663347380E-02  0.19464513549E-01  0.23625795343E-01  0.00000000000E+00 0. -1.
     999901    1    3    3    0    0 -0.19338401722E-01  0.13024738324E+00  0.58427187828E-02  0.88981598771E+00  0.88000000000E+00 0. -1.
        -11    1    4    4    0    0 -0.45111722119E-02 -0.10454010107E+00 -0.21672542687E-01  0.10685945739E+00  0.51100000000E-03 0.  1.
         11    1    4    4    0    0  0.11625413333E-01 -0.20240947440E-01 -0.36346896456E-02  0.23628759558E-01  0.51100000000E-03 0. -1.
</event>
<event>
 8    1  0.1082757E+005  0.1043930E+01  0.7957747E-01            NaN
         13   -1    0    0    0    0  0.00000000000E+00  0.00000000000E+00  0.74505805969E-08  0.10566000000E+00  0.10566000000E+00 0. -1.
     999900   -1    0    0    0    0 -0.00000000000E+00 -0.00000000000E+00 -0.74505805969E-08  0.93827000000E+00  0.93827000000E+00 0. -1.
     999902    2    1    2    0    0  0.31311180687E-02  0.21369537109E-01 -0.99516979078E-02  0.10201498127E+01  0.10198726112E+01 0.  0.
     999903    2    3    3    0    0  0.88474924371E-01 -0.82263893597E-01  0.39580584243E-01  0.12859112130E+00  0.19336323256E-01 0.  0.
         14    1    1    2    0    0 -0.31311180687E-02 -0.21369537109E-01  0.99516979078E-02  0.23780187297E-01  0.00000000000E+00 0. -1.
     999901    1    3    3    0    0 -0.85343806303E-01  0.10363343071E+00 -0.49532282151E-01  0.89155869140E+00  0.88000000000E+00 0.  1.
        -11    1    4    4    0    0  0.49533147884E-01 -0.35940824205E-01  0.26407485363E-01  0.66655022226E-01  0.51100000000E-03 0. -1.
         11    1    4    4    0    0  0.38941776487E-01 -0.46323069392E-01  0.13173098880E-01  0.61936099078E-01  0.51100000000E-03 0.  1.
</event>
<event>
 8    1  0.1082757E+005  0.1043930E+01  0.7957747E-01            NaN
         13   -1    0    0    0    0  0.00000000000E+00  0.00000000000E+00  0.74505805969E-08  0.10566000000E+00  0.10566000000E+00 0. -1.
     999900   -1    0    0    0    0 -0.00000000000E+00 -0.00000000000E+00 -0.74505805969E-08  0.93827000000E+00  0.93827000000E+00 0.  1.
     999902    2    1    2    0    0  0.28358609830E-02 -0.10058712096E-01  0.18826271610E-01  0.10223975060E+01  0.10221707352E+01 0.  0.
     999903    2    3    3    0    0  0.54107528374E-01  0.37628720009E-01  0.11536929205E+00  0.13435278308E+00  0.19926153035E-01 0.  0.
         14    1    1    2    0    0 -0.28358609830E-02  0.10058712096E-01 -0.18826271610E-01  0.21532494033E-01  0.00000000000E+00 0.  1.
     999901    1    3    3    0    0 -0.51271667391E-01 -0.47687432105E-01 -0.96543020445E-01  0.88804472289E+00  0.88000000000E+00 0.  1.
        -11    1    4    4    0    0  0.30312121379E-01  0.96079472598E-02  0.47457040163E-01  0.57127656482E-01  0.51100000000E-03 0.  1.
         11    1    4    4    0    0  0.23795406995E-01  0.28020772749E-01  0.67912251891E-01  0.77225126594E-01  0.51100000000E-03 0. -1.
</event>
<event>
 8    1  0.1082757E+005  0.1043930E+01  0.7957747E-01            NaN
         13   -1    0    0    0    0  0.00000000000E+00  0.00000000000E+00  0.74505805969E-08  0.10566000000E+00  0.10566000000E+00 0.  1.
     999900   -1    0    0    0    0 -0.00000000000E+00 -0.00000000000E+00 -0.74505805969E-08  0.93827000000E+00  0.93827000000E+00 0.  1.
     999902    2    1    2    0    0 -0.19378263411E-02 -0.23135107007E-01 -0.66177943759E-03  0.10207044473E+01  0.10204401709E+01 0.  0.
     999903    2    3    3    0    0  0.62400776815E-01 -0.11636032678E+00  0.88739817701E-03  0.13344304419E+00  0.19304817358E-01 0.  0.
         14    1    1    2    0    0  0.19378263411E-02  0.23135107007E-01  0.66177943759E-03  0.23225552721E-01  0.00000000000E+00 0. -1.
     999901    1    3    3    0    0 -0.64338603156E-01  0.93225219769E-01 -0.15491776146E-02  0.88726140309E+00  0.88000000000E+00 0. -1.
        -11    1    4    4    0    0  0.38263235280E-01 -0.86229752338E-01 -0.45662774245E-02  0.94449761105E-01  0.51100000000E-03 0.  1.
         11    1    4    4    0    0  0.24137541535E-01 -0.30130574438E-01  0.54536756016E-02  0.38993283087E-01  0.51100000000E-03 0. -1.
</event>
<event>
 8    1  0.1082757E+005  0.1043930E+01  0.7957747E-01            NaN
         13   -1    0    0    0    0  0.00000000000E+00  0.00000000000E+00  0.74505805969E-08  0.10566000000E+00  0.10566000000E+00 0.  1.
     999900   -1    0    0    0    0 -0.00000000000E+00 -0.00000000000E+00 -0.74505805969E-08  0.93827000000E+00  0.93827000000E+00 0. -1.
     999902    2    1    2    0    0  0.18303101481E-01  0.41706021970E-02 -0.14267708914E-01  0.10203510907E+01  0.10200786162E+01 0.  0.
     999903    2    3    3    0    0 -0.61527123907E-01  0.69942459906E-01 -0.90040508567E-01  0.13105905805E+00  0.19790119757E-01 0.  0.
         14    1    1    2    0    0 -0.18303101481E-01 -0.41706021970E-02  0.14267708914E-01  0.23578909308E-01  0.00000000000E+00 0.  1.
     999901    1    3    3    0    0  0.79830225388E-01 -0.65771857709E-01  0.75772799653E-01  0.88929203264E+00  0.88000000000E+00 0.  1.
        -11    1    4    4    0    0 -0.57836513642E-01  0.60460943628E-01 -0.72203319695E-01  0.11051772940E+00  0.51100000000E-03 0. -1.
         11    1    4    4    0    0 -0.36906102652E-02  0.94815162775E-02 -0.17837188872E-01  0.20541328655E-01  0.51100000000E-03 0.  1.
</event>
<event>
 8    1  0.1082757E+005  0.1043930E+01  0.7957747E-01            NaN
         13   -1    0    0    0    0  0.00000000000E+00  0.00000000000E+00  0.74505805969E-08  0.10566000000E+00  0.10566000000E+00 0. -1.
     999900   -1    0    0    0    0 -0.00000000000E+00 -0.00000000000E+00 -0.74505805969E-08  0.93827000000E+00  0.93827000000E+00 0. -1.
     999902    2    1    2    0    0 -0.25412626715E-03  0.95117881784E-02  0.25907480693E-01  0.10163304303E+01  0.10159556128E+01 0.  0.
     999903    2    3    3    0    0 -0.47860355097E-01  0.60076728399E-01 -0.96804727593E-01  0.12510573789E+00  0.19505473192E-01 0.  0.
         14    1    1    2    0    0  0.25412626715E-03 -0.95117881784E-02 -0.25907480693E-01  0.27599569750E-01  0.00000000000E+00 0.  1.
     999901    1    3    3    0    0  0.47606228830E-01 -0.50564940221E-01  0.12271220829E+00  0.89122469236E+00  0.88000000000E+00 0.  1.
        -11    1    4    4    0    0 -0.39353492768E-01  0.35096344856E-01 -0.67733303801E-01  0.85840039492E-01  0.51100000000E-03 0.  1.
         11    1    4    4    0    0 -0.85068623292E-02  0.24980383543E-01 -0.29071423793E-01  0.39265698402E-01  0.51100000000E-03 0. -1.
</event>
<event>
 8    1  0.1082757E+005  0.1043930E+01  0.7957747E-01            NaN
         13   -1    0    0    0    0  0.00000000000E+00  0.00000000000E+00  0.74505805969E-08  0.10566000000E+00  0.10566000000E+00 0.  1.
     999900   -1    0    0    0    0 -0.00000000000E+00 -0.00000000000E+00 -0.74505805969E-08  0.93827000000E+00  0.93827000000E+00 0.  1.
     999902    2    1    2    0    0 -0.67367664140E-02  0.18446245948E-01 -0.13060432716E-01  0.10203456214E+01  0.10200730190E+01 0.  0.
     999903    2    3    3    0    0 -0.77361647033E-01 -0.46348262198E-01 -0.93535482892E-01  0.13149105751E+00  0.20199648614E-01 0.  0.
         14    1    1    2    0    0  0.67367664140E-02 -0.18446245948E-01  0.13060432716E-01  0.23584378602E-01  0.00000000000E+00 0.  1.
     999901    1    3    3    0    0  0.70624880619E-01  0.64794508146E-01  0.80475050176E-01  0.88885456389E+00  0.88000000000E+00 0. -1.
        -11    1    4    4    0    0 -0.41676893890E-01 -0.14278355003E-01 -0.50734164792E-01  0.67194132958E-01  0.51100000000E-03 0. -1.
         11    1    4    4    0    0 -0.35684753144E-01 -0.32069907194E-01 -0.42801318101E-01  0.64296924549E-01  0.51100000000E-03 0.  1.
</event>
<event>
 8    1  0.1082757E+005  0.1043930E+01  0.7957747E-01            NaN
         13   -1    0    0    0    0  0.00000000000E+00  0.00000000000E+00  0.74505805969E-08  0.10566000000E+00  0.10566000000E+00 0. -1.
     999900   -1    0    0    0    0 -0.00000000000E+00 -0.00000000000E+00 -0.74505805969E-08  0.93827000000E+00  0.93827000000E+00 0. -1.
     999902    2    1    2    0    0  0.14855153413E-01 -0.18493944755E-01 -0.37727640192E-02  0.10199105220E+01  0.10196276465E+01 0.  0.
     999903    2    3    3    0    0 -0.17914776473E-01  0.11891252232E+00  0.38479383971E-01  0.12764394215E+00  0.18739951865E-01 0.  0.
         14    1    1    2    0    0 -0.14855153413E-01  0.18493944755E-01  0.37727640192E-02  0.24019478010E-01  0.00000000000E+00 0. -1.
     999901    1    3    3    0    0  0.32769929887E-01 -0.13740646707E+00 -0.42252147990E-01  0.89226657984E+00  0.88000000000E+00 0. -1.
        -11    1    4    4    0    0 -0.12760688226E-01  0.38272952313E-01  0.71430585923E-02  0.40974851431E-01  0.51100000000E-03 0. -1.
         11    1    4    4    0    0 -0.51540882471E-02  0.80639570004E-01  0.31336325379E-01  0.86669090714E-01  0.51100000000E-03 0.  1.
</event>
<event>
 8    1  0.1082757E+005  0.1043930E+01  0.7957747E-01            NaN
         13   -1    0    0    0    0  0.00000000000E+00  0.00000000000E+00  0.74505805969E-08  0.10566000000E+00  0.10566000000E+00 0. -1.
     999900   -1    0    0    0    0 -0.00000000000E+00 -0.00000000000E+00 -0.74505805969E-08  0.93827000000E+00  0.93827000000E+00 0. -1.
     999902    2    1    2    0    0  0.10812660539E-01  0.61751044995E-02 -0.20069589499E-01  0.10203114910E+01  0.10200380899E+01 0.  0.
     999903    2    3    3    0    0  0.45916420926E-01  0.10753153243E+00 -0.59318658584E-01  0.13293001224E+00  0.21916585462E-01 0.  0.
         14    1    1    2    0    0 -0.10812660539E-01 -0.61751044995E-02  0.20069589499E-01  0.23618508974E-01  0.00000000000E+00 0. -1.
     999901    1    3    3    0    0 -0.35103760387E-01 -0.10135642793E+00  0.39249069085E-01  0.88738147879E+00  0.88000000000E+00 0.  1.
        -11    1    4    4    0    0  0.39834467918E-01  0.70165118561E-01 -0.45464918534E-01  0.92613436580E-01  0.51100000000E-03 0. -1.
         11    1    4    4    0    0  0.60819530087E-02  0.37366413873E-01 -0.13853740050E-01  0.40316575655E-01  0.51100000000E-03 0.  1.
</event>
<event>
 8    1  0.1082757E+005  0.1043930E+01  0.7957747E-01            NaN
         13   -1    0    0    0    0  0.00000000000E+00  0.00000000000E+00  0.74505805969E-08  0.10566000000E+00  0.10566000000E+00 0.  1.
     999900   -1    0    0    0    0 -0.00000000000E+00 -0.00000000000E+00 -0.74505805969E-08  0.93827000000E+00  0.93827000000E+00 0.  1.
     999902    2    1    2    0    0  0.78772565759E-02  0.25549631162E-01  0.49802692557E-02  0.10167337152E+01  0.10163699178E+01 0.  0.
     999903    2    3    3    0    0  0.11633081070E+00 -0.12956983994E-01 -0.47143119354E-01  0.12771077938E+00  0.19667956598E-01 0.  0.
         14    1    1    2    0    0 -0.78772565759E-02 -0.25549631162E-01 -0.49802692557E-02  0.27196284774E-01  0.00000000000E+00 0. -1.
     999901    1    3    3    0    0 -0.10845355412E+00  0.38506615156E-01  0.52123388610E-01  0.88902293584E+00  0.88000000000E+00 0.  1.
        -11    1    4    4    0    0  0.28795453218E-01  0.50363229817E-02 -0.13746902160E-01  0.32307601508E-01  0.51100000000E-03 0. -1.
         11    1    4    4    0    0  0.87535357480E-01 -0.17993306976E-01 -0.33396217194E-01  0.95403177876E-01  0.51100000000E-03 0.  1.
</event>
<event>
 8    1  0.1082757E+005  0.1043930E+01  0.7957747E-01            NaN
         13   -1    0    0    0    0  0.00000000000E+00  0.00000000000E+00  0.74505805969E-08  0.10566000000E+00  0.10566000000E+00 0. -1.
     999900   -1    0    0    0    0 -0.00000000000E+00 -0.00000000000E+00 -0.74505805969E-08  0.93827000000E+00  0.93827000000E+00 0.  1.
     999902    2    1    2    0    0 -0.17994910817E-01  0.42008436071E-02  0.14305957802E-01  0.10205606968E+01  0.10202931008E+01 0.  0.
     999903    2    3    3    0    0 -0.11954674519E+00 -0.95949709838E-02 -0.52000438411E-01  0.13213532700E+00  0.19292778251E-01 0.  0.
         14    1    1    2    0    0  0.17994910817E-01 -0.42008436071E-02 -0.14305957802E-01  0.23369303177E-01  0.00000000000E+00 0.  1.
     999901    1    3    3    0    0  0.10155183437E+00  0.13795814591E-01  0.66306396213E-01  0.88842536982E+00  0.88000000000E+00 0. -1.
        -11    1    4    4    0    0 -0.75167525083E-01  0.28830234138E-02 -0.35365665646E-01  0.83123162107E-01  0.51100000000E-03 0. -1.
         11    1    4    4    0    0 -0.44379220108E-01 -0.12477994398E-01 -0.16634772765E-01  0.49012164894E-01  0.51100000000E-03 0.  1.
</event>
<event>
 8    1  0.1082757E+005  0.1043930E+01  0.7957747E-01            NaN
         13   -1    0    0    0    0  0.00000000000E+00  0.00000000000E+00  0.74505805969E-08  0.10566000000E+00  0.10566000000E+00 0. -1.
     999900   -1    0    0    0    0 -0.00000000000E+00 -0.00000000000E+00 -0.74505805969E-08  0.93827000000E+00  0.93827000000E+00 0.  1.
     999902    2    1    2    0    0 -0.86717094391E-04  0.33870936171E-02  0.24025889976E-01  0.10196663788E+01  0.10193776537E+01 0.  0.
     999903    2    3    3    0    0  0.10769903119E+00 -0.23524625063E-01  0.68934417060E-01  0.13154545016E+00  0.19994056604E-01 0.  0.
         14    1    1    2    0    0  0.86717094391E-04 -0.33870936171E-02 -0.24025889976E-01  0.24263621167E-01  0.00000000000E+00 0.  1.
     999901    1    3    3    0    0 -0.10778574828E+00  0.26911718681E-01 -0.44908527084E-01  0.88812092867E+00  0.88000000000E+00 0.  1.
        -11    1    4    4    0    0  0.45281572382E-01 -0.10460964077E-01  0.40794523390E-01  0.61840980154E-01  0.51100000000E-03 0. -1.
         11    1    4    4    0    0  0.62417458809E-01 -0.13063660986E-01  0.28139893670E-01  0.69704470009E-01  0.51100000000E-03 0.  1.
</event>
<event>
 8    1  0.1082757E+005  0.1043930E+01  0.7957747E-01            NaN
         13   -1    0    0    0    0  0.00000000000E+00  0.00000000000E+00  0.74505805969E-08  0.10566000000E+00  0.10566000000E+00 0. -1.
     999900   -1    0    0    0    0 -0.00000000000E+00 -0.00000000000E+00 -0.74505805969E-08  0.93827000000E+00  0.93827000000E+00 0. -1.
     999902    2    1    2    0    0  0.13851334653E-02  0.16274935154E-01  0.16985475172E-01  0.10203652281E+01  0.10200930841E+01 0.  0.
     999903    2    3    3    0    0  0.35301583290E-01  0.53970796860E-01 -0.11055746418E+00  0.12972584823E+00  0.21137504960E-01 0.  0.
         14    1    1    2    0    0 -0.13851334653E-02 -0.16274935154E-01 -0.16985475172E-01  0.23564771923E-01  0.00000000000E+00 0.  1.
     999901    1    3    3    0    0 -0.33916449824E-01 -0.37695861706E-01  0.12754293935E+00  0.89063937985E+00  0.88000000000E+00 0.  1.
        -11    1    4    4    0    0  0.19876093680E-01  0.32048216310E-01 -0.83562693095E-01  0.91679507344E-01  0.51100000000E-03 0.  1.
         11    1    4    4    0    0  0.15425489609E-01  0.21922580550E-01 -0.26994771086E-01  0.38046340884E-01  0.51100000000E-03 0. -1.
</event>
<event>
 8    1  0.1082757E+005  0.1043930E+01  0.7957747E-01            NaN
         13   -1    0    0    0    0  0.00000000000E+00  0.00000000000E+00  0.74505805969E-08  0.10566000000E+00  0.10566000000E+00 0.  1.
     999900   -1    0    0    0    0 -0.00000000000E+00 -0.00000000000E+00 -0.74505805969E-08  0.93827000000E+00  0.93827000000E+00 0. -1.
     999902    2    1    2    0    0  0.14708056951E-01  0.12482263288E-01  0.13669229309E-01  0.10202872069E+01  0.10200132366E+01 0.  0.
     999903    2    3    3    0    0 -0.10684600402E+00 -0.47664401645E-01  0.50899609935E-01  0.12911993175E+00  0.19829844304E-01 0.  0.
         14    1    1    2    0    0 -0.14708056951E-01 -0.12482263288E-01 -0.13669229309E-01  0.23642793108E-01  0.00000000000E+00 0.  1.
     999901    1    3    3    0    0  0.12155406097E+00  0.60146664932E-01 -0.37230380626E-01  0.89116727514E+00  0.88000000000E+00 0.  1.
        -11    1    4    4    0    0 -0.32464216264E-01 -0.13635689175E-01  0.57274608556E-02  0.35678036461E-01  0.51100000000E-03 0.  1.
         11    1    4    4    0    0 -0.74381787755E-01 -0.34028712470E-01  0.45172149079E-01  0.93441895290E-01  0.51100000000E-03 0. -1.
</event>
<event>
 8    1  0.1082757E+005  0.1043930E+01  0.7957747E-01            NaN
         13   -1    0    0    0    0  0.00000000000E+00  0.00000000000E+00  0.74505805969E-08  0.10566000000E+00  0.10566000000E+00 0. -1.
     999900   -1    0    0    0    0 -0.00000000000E+00 -0.00000000000E+00 -0.74505805969E-08  0.93827000000E+00  0.93827000000E+00 0.  1.
     999902    2    1    2    0    0  0.12216903697E-01  0.19304562270E-01  0.30957519220E-02  0.10208756611E+01  0.10206153110E+01 0.  0.
     999903    2    3    3    0    0  0.49761130642E-01  0.11444357449E+00 -0.43632784452E-01  0.13372034400E+00  0.20094990770E-01 0.  0.
         14    1    1    2    0    0 -0.12216903697E-01 -0.19304562270E-01 -0.30957519220E-02  0.23054338862E-01  0.00000000000E+00 0.  1.
     999901    1    3    3    0    0 -0.37544226945E-01 -0.95139012221E-01  0.46728536374E-01  0.88715531714E+00  0.88000000000E+00 0.  1.
        -11    1    4    4    0    0  0.28282851506E-01  0.55512453591E-01 -0.11920417862E-01  0.63434294163E-01  0.51100000000E-03 0.  1.
         11    1    4    4    0    0  0.21478279137E-01  0.58931120900E-01 -0.31712366591E-01  0.70286049832E-01  0.51100000000E-03 0. -1.
</event>
<event>
 7    1  0.1082757E+005  0.1043930E+01  0.7957747E-01            NaN
         13   -1    0    0    0    0  0.00000000000E+00  0.00000000000E+00  0.74505805969E-08  0.10566000000E+00  0.10566000000E+00 0. -1.
     999900   -1    0    0    0    0 -0.00000000000E+00 -0.00000000000E+00 -0.74505805969E-08  0.93827000000E+00  0.93827000000E+00 0.  1.
     999903    2    1    2    0    0 -0.51497423742E-01 -0.91015743962E-01  0.14012343912E-01  0.10762377202E+00  0.21229230344E-01 0.  0.
         14    1    1    2    0    0  0.25779065555E-01 -0.35776957354E-01  0.14413343230E-01  0.46392837394E-01  0.00000000000E+00 0. -1.
     999901    1    1    2    0    0  0.25718358187E-01  0.12679270132E+00 -0.28425687142E-01  0.88991339059E+00  0.88000000000E+00 0.  1.
        -11    1    3    3    0    0 -0.42167573306E-01 -0.85085908190E-01  0.16222220217E-01  0.96338660779E-01  0.51100000000E-03 0.  1.
         11    1    3    3    0    0 -0.93298504360E-02 -0.59298357724E-02 -0.22098763047E-02  0.11285111241E-01  0.51100000000E-03 0. -1.
</event>
<event>
 8    1  0.1082757E+005  0.1043930E+01  0.7957747E-01            NaN
         13   -1    0    0    0    0  0.00000000000E+00  0.00000000000E+00  0.74505805969E-08  0.10566000000E+00  0.10566000000E+00 0. -1.
     999900   -1    0    0    0    0 -0.00000000000E+00 -0.00000000000E+00 -0.74505805969E-08  0.93827000000E+00  0.93827000000E+00 0.  1.
     999902    2    1    2    0    0  0.15139487009E-01  0.14817427247E-01  0.15329165952E-01  0.10177815097E+01  0.10174455553E+01 0.  0.
     999903    2    3    3    0    0  0.41050250823E-01 -0.10163221345E+00  0.63853052967E-01  0.12840731728E+00  0.19924779887E-01 0.  0.
         14    1    1    2    0    0 -0.15139487009E-01 -0.14817427247E-01 -0.15329165952E-01  0.26148490317E-01  0.00000000000E+00 0.  1.
     999901    1    3    3    0    0 -0.25910763814E-01  0.11644964070E+00 -0.48523887016E-01  0.88937419240E+00  0.88000000000E+00 0. -1.
        -11    1    4    4    0    0  0.16661220176E-02 -0.17015561718E-01  0.41162176850E-02  0.17592886977E-01  0.51100000000E-03 0.  1.
         11    1    4    4    0    0  0.39384128806E-01 -0.84616651736E-01  0.59736835282E-01  0.11081443030E+00  0.51100000000E-03 0. -1.
</event>
<event>
 8    1  0.1082757E+005  0.1043930E+01  0.7957747E-01            NaN
         13   -1    0    0    0    0  0.00000000000E+00  0.00000000000E+00  0.74505805969E-08  0.10566000000E+00  0.10566000000E+00 0.  1.
     999900   -1    0    0    0    0 -0.00000000000E+00 -0.00000000000E+00 -0.74505805969E-08  0.93827000000E+00  0.93827000000E+00 0. -1.
     999902    2    1    2    0    0  0.14458365821E-01 -0.24570225517E-02 -0.18268308303E-01  0.10205032548E+01  0.10202343264E+01 0.  0.
     999903    2    3    3    0    0 -0.41748501174E-01 -0.68591460420E-01 -0.10309997546E+00  0.13217370587E+00  0.19813071174E-01 0.  0.
         14    1    1    2    0    0 -0.14458365821E-01  0.24570225517E-02  0.18268308303E-01  0.23426745192E-01  0.00000000000E+00 0.  1.
     999901    1    3    3    0    0  0.56206866995E-01  0.66134437868E-01  0.84831667159E-01  0.88832954894E+00  0.88000000000E+00 0.  1.
        -11    1    4    4    0    0 -0.22243217210E-01 -0.18460997284E-01 -0.35673180840E-01  0.45917383253E-01  0.51100000000E-03 0. -1.
         11    1    4    4    0    0 -0.19505283964E-01 -0.50130463136E-01 -0.67426794623E-01  0.86256322614E-01  0.51100000000E-03 0.  1.
</event>
<event>
 8    1  0.1082757E+005  0.1043930E+01  0.7957747E-01            NaN
         13   -1    0    0    0    0  0.00000000000E+00  0.00000000000E+00  0.74505805969E-08  0.10566000000E+00  0.10566000000E+00 0.  1.
     999900   -1    0    0    0    0 -0.00000000000E+00 -0.00000000000E+00 -0.74505805969E-08  0.93827000000E+00  0.93827000000E+00 0. -1.
     999902    2    1    2    0    0 -0.80235726865E-02 -0.20080941411E-01 -0.69541342851E-02  0.10212147648E+01  0.10209621021E+01 0.  0.
     999903    2    3    3    0    0 -0.72297472981E-01  0.10024317381E+00  0.34037671070E-01  0.12976125784E+00  0.20094837353E-01 0.  0.
         14    1    1    2    0    0  0.80235726865E-02  0.20080941411E-01  0.69541342851E-02  0.22715235202E-01  0.00000000000E+00 0.  1.
     999901    1    3    3    0    0  0.64273900295E-01 -0.12032411523E+00 -0.40991805355E-01  0.89145350696E+00  0.88000000000E+00 0.  1.
        -11    1    4    4    0    0 -0.74407975149E-02  0.19075469480E-01  0.16996591423E-03  0.20482407401E-01  0.51100000000E-03 0. -1.
         11    1    4    4    0    0 -0.64856675467E-01  0.81167704334E-01  0.33867705156E-01  0.10927885044E+00  0.51100000000E-03 0.  1.
</event>
<event>
 8    1  0.1082757E+005  0.1043930E+01  0.7957747E-01            NaN
         13   -1    0    0    0    0  0.00000000000E+00  0.00000000000E+00  0.74505805969E-08  0.10566000000E+00  0.10566000000E+00 0.  1.
     999900   -1    0    0    0    0 -0.00000000000E+00 -0.00000000000E+00 -0.74505805969E-08  0.93827000000E+00  0.93827000000E+00 0.  1.
     999902    2    1    2    0    0  0.39955231370E-02 -0.17235239779E-01 -0.15712981019E-01  0.10202674670E+01  0.10199930337E+01 0.  0.
     999903    2    3    3    0    0 -0.10318767469E+00 -0.42708860423E-01 -0.67278165229E-01  0.13190036300E+00  0.19990279553E-01 0.  0.
         14    1    1    2    0    0 -0.39955231370E-02  0.17235239779E-01  0.15712981019E-01  0.23662532998E-01  0.00000000000E+00 0.  1.
     999901    1    3    3    0    0  0.10718319783E+00  0.25473620644E-01  0.51565184210E-01  0.88836710400E+00  0.88000000000E+00 0. -1.
        -11    1    4    4    0    0 -0.88004205333E-01 -0.30192409135E-01 -0.49563176794E-01  0.10541864797E+00  0.51100000000E-03 0. -1.
         11    1    4    4    0    0 -0.15183469359E-01 -0.12516451288E-01 -0.17714988435E-01  0.26481715029E-01  0.51100000000E-03 0.  1.
</event>
<event>
 8    1  0.1082757E+005  0.1043930E+01  0.7957747E-01            NaN
         13   -1    0    0    0    0  0.00000000000E+00  0.00000000000E+00  0.74505805969E-08  0.10566000000E+00  0.10566000000E+00 0. -1.
     999900   -1    0    0    0    0 -0.00000000000E+00 -0.00000000000E+00 -0.74505805969E-08  0.93827000000E+00  0.93827000000E+00 0.  1.
     999902    2    1    2    0    0 -0.10697724360E-01 -0.21175138786E-01  0.19159771705E-02  0.10201287652E+01  0.10198510670E+01 0.  0.
     999903    2    3    3    0    0  0.11381921770E+00  0.54759927995E-01 -0.39132330531E-02  0.12810601723E+00  0.21032694211E-01 0.  0.
         14    1    1    2    0    0  0.10697724360E-01  0.21175138786E-01 -0.19159771705E-02  0.23801234792E-01  0.00000000000E+00 0.  1.
     999901    1    3    3    0    0 -0.12451694206E+00 -0.75935066781E-01  0.58292102236E-02  0.89202274798E+00  0.88000000000E+00 0. -1.
        -11    1    4    4    0    0  0.93931175883E-01  0.53175598915E-01 -0.55437322973E-02  0.10808193286E+00  0.51100000000E-03 0. -1.
         11    1    4    4    0    0  0.19888041812E-01  0.15843290797E-02  0.16304992443E-02  0.20024084362E-01  0.51100000000E-03 0.  1.
</event>
<event>
 7    1  0.1082757E+005  0.1043930E+01  0.7957747E-01            NaN
         13   -1    0    0    0    0  0.00000000000E+00  0.00000000000E+00  0.74505805969E-08  0.10566000000E+00  0.10566000000E+00 0. -1.
     999900   -1    0    0    0    0 -0.00000000000E+00 -0.00000000000E+00 -0.74505805969E-08  0.93827000000E+00  0.93827000000E+00 0.  1.
     999903    2    1    2    0    0  0.87449638751E-01 -0.55988486264E-01 -0.61985568911E-02  0.10596327045E+00  0.20190162591E-01 0.  0.
         14    1    1    2    0    0 -0.38112564539E-01 -0.34493067252E-01  0.75252222536E-02  0.51951595107E-01  0.00000000000E+00 0. -1.
     999901    1    1    2    0    0 -0.49337074212E-01  0.90481553516E-01 -0.13266653624E-02  0.88601513444E+00  0.88000000000E+00 0.  1.
        -11    1    3    3    0    0  0.13543031539E-01 -0.17795076489E-01 -0.41143352533E-02  0.22743511736E-01  0.51100000000E-03 0.  1.
         11    1    3    3    0    0  0.73906607212E-01 -0.38193409776E-01 -0.20842216378E-02  0.83219758716E-01  0.51100000000E-03 0. -1.
</event>
<event>
 8    1  0.1082757E+005  0.1043930E+01  0.7957747E-01            NaN
         13   -1    0    0    0    0  0.00000000000E+00  0.00000000000E+00  0.74505805969E-08  0.10566000000E+00  0.10566000000E+00 0.  1.
     999900   -1    0    0    0    0 -0.00000000000E+00 -0.00000000000E+00 -0.74505805969E-08  0.93827000000E+00  0.93827000000E+00 0. -1.
     999902    2    1    2    0    0 -0.22293392299E-01  0.12459887640E-01  0.76846813448E-02  0.10172598206E+01  0.10169101456E+01 0.  0.
     999903    2    3    3    0    0 -0.94040335739E-01 -0.79279927290E-01 -0.28742075479E-01  0.12883946621E+00  0.25389161735E-01 0.  0.
         14    1    1    2    0    0  0.22293392299E-01 -0.12459887640E-01 -0.76846813448E-02  0.26670179369E-01  0.00000000000E+00 0. -1.
     999901    1    3    3    0    0  0.71746943439E-01  0.91739814930E-01  0.36426756824E-01  0.88842035442E+00  0.88000000000E+00 0.  1.
        -11    1    4    4    0    0 -0.12966967127E-01 -0.71239689827E-02 -0.11926725002E-01  0.19010551302E-01  0.51100000000E-03 0. -1.
         11    1    4    4    0    0 -0.81073368611E-01 -0.72155958307E-01 -0.16815350477E-01  0.10982891491E+00  0.51100000000E-03 0.  1.
</event>
<event>
 8    1  0.1082757E+005  0.1043930E+01  0.7957747E-01            NaN
         13   -1    0    0    0    0  0.00000000000E+00  0.00000000000E+00  0.74505805969E-08  0.10566000000E+00  0.10566000000E+00 0.  1.
     999900   -1    0    0    0    0 -0.00000000000E+00 -0.00000000000E+00 -0.74505805969E-08  0.93827000000E+00  0.93827000000E+00 0.  1.
     999902    2    1    2    0    0 -0.22100510117E-01  0.32774872812E-02 -0.65810594473E-02  0.10206386966E+01  0.10203729045E+01 0.  0.
     999903    2    3    3    0    0 -0.10632452952E+00  0.64855209001E-01 -0.42733975732E-01  0.13373817535E+00  0.23422278930E-01 0.  0.
         14    1    1    2    0    0  0.22100510117E-01 -0.32774872812E-02  0.65810594473E-02  0.23291303393E-01  0.00000000000E+00 0.  1.
     999901    1    3    3    0    0  0.84224019406E-01 -0.61577721720E-01  0.36152916285E-01  0.88690052126E+00  0.88000000000E+00 0. -1.
        -11    1    4    4    0    0 -0.39259715159E-01  0.20355994254E-01 -0.26727814282E-01  0.51675225338E-01  0.51100000000E-03 0.  1.
         11    1    4    4    0    0 -0.67064814363E-01  0.44499214747E-01 -0.16006161450E-01  0.82062950008E-01  0.51100000000E-03 0. -1.
</event>
<event>
 8    1  0.1082757E+005  0.1043930E+01  0.7957747E-01            NaN
         13   -1    0    0    0    0  0.00000000000E+00  0.00000000000E+00  0.74505805969E-08  0.10566000000E+00  0.10566000000E+00 0.  1.
     999900   -1    0    0    0    0 -0.00000000000E+00 -0.00000000000E+00 -0.74505805969E-08  0.93827000000E+00  0.93827000000E+00 0.  1.
     999902    2    1    2    0    0 -0.44649063437E-02 -0.54167549675E-02  0.23349689342E-01  0.10195479448E+01  0.10192563599E+01 0.  0.
     999903    2    3    3    0    0  0.71270297758E-02  0.11109521494E-01  0.13076215831E+00  0.13278702478E+00  0.18958794366E-01 0.  0.
         14    1    1    2    0    0  0.44649063437E-02  0.54167549675E-02 -0.23349689342E-01  0.24382055192E-01  0.00000000000E+00 0. -1.
     999901    1    3    3    0    0 -0.11591936120E-01 -0.16526276462E-01 -0.10741246897E+00  0.88676092003E+00  0.88000000000E+00 0.  1.
        -11    1    4    4    0    0  0.31798280628E-02 -0.27087925803E-02  0.77608930886E-01  0.77722944733E-01  0.51100000000E-03 0. -1.
         11    1    4    4    0    0  0.39472017130E-02  0.13818314074E-01  0.53153227422E-01  0.55064080048E-01  0.51100000000E-03 0.  1.
</event>
<event>
 8    1  0.1082757E+005  0.1043930E+01  0.7957747E-01            NaN
         13   -1    0    0    0    0  0.00000000000E+00  0.00000000000E+00  0.74505805969E-08  0.10566000000E+00  0.10566000000E+00 0.  1.
     999900   -1    0    0    0    0 -0.00000000000E+00 -0.00000000000E+00 -0.74505805969E-08  0.93827000000E+00  0.93827000000E+00 0.  1.
     999902    2    1    2    0    0  0.55055785424E-04 -0.21487322440E-01  0.10008339197E-01  0.10202260993E+01  0.10199506943E+01 0.  0.
     999903    2    3    3    0    0 -0.11683009231E+00  0.38431947985E-01  0.37292009051E-01  0.13005934216E+00  0.19961298749E-01 0.  0.
         14    1    1    2    0    0 -0.55055785424E-04  0.21487322440E-01 -0.10008339197E-01  0.23703900739E-01  0.00000000000E+00 0. -1.
     999901    1    3    3    0    0  0.11688514810E+00 -0.59919270425E-01 -0.27283669854E-01  0.89016675710E+00  0.88000000000E+00 0.  1.
        -11    1    4    4    0    0 -0.40174946596E-01  0.18806466396E-01  0.21796084026E-01  0.49427117174E-01  0.51100000000E-03 0.  1.
         11    1    4    4    0    0 -0.76655145714E-01  0.19625481589E-01  0.15495925026E-01  0.80632224982E-01  0.51100000000E-03 0. -1.
</event>
<event>
 8    1  0.1082757E+005  0.1043930E+01  0.7957747E-01            NaN
         13   -1    0    0    0    0  0.00000000000E+00  0.00000000000E+00  0.74505805969E-08  0.10566000000E+00  0.10566000000E+00 0.  1.
     999900   -1    0    0    0    0 -0.00000000000E+00 -0.00000000000E+00 -0.74505805969E-08  0.93827000000E+00  0.93827000000E+00 0.  1.
     999902    2    1    2    0    0 -0.17185671014E-01 -0.17332304288E-02 -0.16190310085E-01  0.10202555936E+01  0.10199808816E+01 0.  0.
     999903    2    3    3    0    0  0.59126435252E-01  0.68465634939E-01 -0.88766729169E-01  0.13120061510E+00  0.33920357920E-01 0.  0.
         14    1    1    2    0    0  0.17185671014E-01  0.17332304288E-02  0.16190310085E-01  0.23674406362E-01  0.00000000000E+00 0.  1.
     999901    1    3    3    0    0 -0.76312106266E-01 -0.70198865367E-01  0.72576419083E-01  0.88905497854E+00  0.88000000000E+00 0. -1.
        -11    1    4    4    0    0  0.49159045068E-01  0.41510750954E-01 -0.76467555339E-01  0.99936491320E-01  0.51100000000E-03 0. -1.
         11    1    4    4    0    0  0.99673901840E-02  0.26954883984E-01 -0.12299173830E-01  0.31264123778E-01  0.51100000000E-03 0.  1.
</event>
<event>
 8    1  0.1082757E+005  0.1043930E+01  0.7957747E-01            NaN
         13   -1    0    0    0    0  0.00000000000E+00  0.00000000000E+00  0.74505805969E-08  0.10566000000E+00  0.10566000000E+00 0.  1.
     999900   -1    0    0    0    0 -0.00000000000E+00 -0.00000000000E+00 -0.74505805969E-08  0.93827000000E+00  0.93827000000E+00 0. -1.
     999902    2    1    2    0    0  0.19734934606E-01 -0.31785167394E-02  0.11696317703E-01  0.10207702405E+01  0.10205074764E+01 0.  0.
     999903    2    3    3    0    0  0.57680136833E-01  0.76378172652E-01 -0.87347367594E-01  0.13083835726E+00  0.18124283772E-01 0.  0.
         14    1    1    2    0    0 -0.19734934606E-01  0.31785167394E-02 -0.11696317703E-01  0.23159759506E-01  0.00000000000E+00 0. -1.
     999901    1    3    3    0    0 -0.37945202227E-01 -0.79556689392E-01  0.99043685297E-01  0.88993188323E+00  0.88000000000E+00 0.  1.
        -11    1    4    4    0    0  0.46970666577E-01  0.54612996003E-01 -0.56249118903E-01  0.91395007245E-01  0.51100000000E-03 0.  1.
         11    1    4    4    0    0  0.10709470257E-01  0.21765176649E-01 -0.31098248691E-01  0.39443350015E-01  0.51100000000E-03 0. -1.
</event>
<event>
 8    1  0.1082757E+005  0.1043930E+01  0.7957747E-01            NaN
         13   -1    0    0    0    0  0.00000000000E+00  0.00000000000E+00  0.74505805969E-08  0.10566000000E+00  0.10566000000E+00 0. -1.
     999900   -1    0    0    0    0 -0.00000000000E+00 -0.00000000000E+00 -0.74505805969E-08  0.93827000000E+00  0.93827000000E+00 0.  1.
     999902    2    1    2    0    0 -0.33522060021E-02 -0.19538043908E-01 -0.12409038607E-01  0.10205428949E+01  0.10202748863E+01 0.  0.
     999903    2    3    3    0    0 -0.25539976656E-01 -0.12891526739E+00 -0.61588818145E-02  0.13347201915E+00  0.22481358863E-01 0.  0.
         14    1    1    2    0    0  0.33522060021E-02  0.19538043908E-01  0.12409038607E-01  0.23387105079E-01  0.00000000000E+00 0.  1.
     999901    1    3    3    0    0  0.22187770654E-01  0.10937722348E+00 -0.62501567921E-02  0.88707087577E+00  0.88000000000E+00 0. -1.
        -11    1    4    4    0    0 -0.95773015173E-03 -0.40618289617E-01 -0.95983025553E-02  0.41751062638E-01  0.51100000000E-03 0. -1.
         11    1    4    4    0    0 -0.24582246504E-01 -0.88296977775E-01  0.34394207408E-02  0.91720956511E-01  0.51100000000E-03 0.  1.
</event>
<event>
 8    1  0.1082757E+005  0.1043930E+01  0.7957747E-01            NaN
         13   -1    0    0    0    0  0.00000000000E+00  0.00000000000E+00  0.74505805969E-08  0.10566000000E+00  0.10566000000E+00 0. -1.
     999900   -1    0    0    0    0 -0.00000000000E+00 -0.00000000000E+00 -0.74505805969E-08  0.93827000000E+00  0.93827000000E+00 0.  1.
     999902    2    1    2    0    0 -0.14338295614E-01  0.11366206207E-01 -0.14286888497E-01  0.10207159407E+01  0.10204519289E+01 0.  0.
     999903    2    3    3    0    0 -0.67517211386E-01 -0.83164135367E-01 -0.74639597440E-01  0.13200539616E+00  0.19480961601E-01 0.  0.
         14    1    1    2    0    0  0.14338295614E-01 -0.11366206207E-01  0.14286888497E-01  0.23214059265E-01  0.00000000000E+00 0. -1.
     999901    1    3    3    0    0  0.53178915772E-01  0.94530341574E-01  0.60352708943E-01  0.88871054457E+00  0.88000000000E+00 0.  1.
        -11    1    4    4    0    0 -0.42140915330E-01 -0.36487659026E-01 -0.38612928296E-01  0.67811690428E-01  0.51100000000E-03 0.  1.
         11    1    4    4    0    0 -0.25376296055E-01 -0.46676476342E-01 -0.36026669144E-01  0.64193705733E-01  0.51100000000E-03 0. -1.
</event>
<event>
 8    1  0.1082757E+005  0.1043930E+01  0.7957747E-01            NaN
         13   -1    0    0    0    0  0.00000000000E+00  0.00000000000E+00  0.74505805969E-08  0.10566000000E+00  0.10566000000E+00 0.  1.
     999900   -1    0    0    0    0 -0.00000000000E+00 -0.00000000000E+00 -0.74505805969E-08  0.93827000000E+00  0.93827000000E+00 0.  1.
     999902    2    1    2    0    0 -0.20607416359E-01  0.20839127054E-02 -0.11322767708E-01  0.10203246326E+01  0.10200515392E+01 0.  0.
     999903    2    3    3    0    0  0.61622221645E-01 -0.10664786716E+00 -0.35156542816E-01  0.12950907249E+00  0.19119403327E-01 0.  0.
         14    1    1    2    0    0  0.20607416359E-01 -0.20839127054E-02  0.11322767708E-01  0.23605367392E-01  0.00000000000E+00 0.  1.
     999901    1    3    3    0    0 -0.82229638004E-01  0.10873177986E+00  0.23833775109E-01  0.89081556012E+00  0.88000000000E+00 0. -1.
        -11    1    4    4    0    0  0.18080806137E-01 -0.42453544065E-01 -0.20821020533E-01  0.50626030570E-01  0.51100000000E-03 0. -1.
         11    1    4    4    0    0  0.43541415508E-01 -0.64194323093E-01 -0.14335522284E-01  0.78883041916E-01  0.51100000000E-03 0.  1.
</event>
<event>
 8    1  0.1082757E+005  0.1043930E+01  0.7957747E-01            NaN
         13   -1    0    0    0    0  0.00000000000E+00  0.00000000000E+00  0.74505805969E-08  0.10566000000E+00  0.10566000000E+00 0.  1.
     999900   -1    0    0    0    0 -0.00000000000E+00 -0.00000000000E+00 -0.74505805969E-08  0.93827000000E+00  0.93827000000E+00 0.  1.
     999902    2    1    2    0    0 -0.15920147439E-01  0.36442365290E-02  0.18159051579E-01  0.10195070045E+01  0.10192144277E+01 0.  0.
     999903    2    3    3    0    0  0.10487208416E+00 -0.19529918540E-01 -0.66642488982E-01  0.12691577334E+00  0.16935773709E-01 0.  0.
         14    1    1    2    0    0  0.15920147439E-01 -0.36442365290E-02 -0.18159051579E-01  0.24422995488E-01  0.00000000000E+00 0. -1.
     999901    1    3    3    0    0 -0.12079223160E+00  0.23174155069E-01  0.84801540561E-01  0.89259123117E+00  0.88000000000E+00 0. -1.
        -11    1    4    4    0    0  0.84537919779E-01 -0.22408577085E-01 -0.53324659756E-01  0.10243331815E+00  0.51100000000E-03 0.  1.
         11    1    4    4    0    0  0.20334164383E-01  0.28786585448E-02 -0.13317829226E-01  0.24482455197E-01  0.51100000000E-03 0. -1.
</event>
<event>
 8    1  0.1082757E+005  0.1043930E+01  0.7957747E-01            NaN
         13   -1    0    0    0    0  0.00000000000E+00  0.00000000000E+00  0.74505805969E-08  0.10566000000E+00  0.10566000000E+00 0. -1.
     999900   -1    0    0    0    0 -0.00000000000E+00 -0.00000000000E+00 -0.74505805969E-08  0.93827000000E+00  0.93827000000E+00 0. -1.
     999902    2    1    2    0    0 -0.13795050211E-01 -0.11226882909E-01 -0.26908355620E-01  0.10116746762E+01  0.10111603456E+01 0.  0.
     999903    2    3    3    0    0 -0.53457833209E-01  0.54423199159E-01  0.91113221829E-01  0.12048885812E+00  0.19907817590E-01 0.  0.
         14    1    1    2    0    0  0.13795050211E-01  0.11226882909E-01  0.26908355620E-01  0.32255323783E-01  0.00000000000E+00 0. -1.
     999901    1    3    3    0    0  0.39662782998E-01 -0.65650082068E-01 -0.11802157745E+00  0.89118581810E+00  0.88000000000E+00 0. -1.
        -11    1    4    4    0    0 -0.29833074038E-01  0.19044547561E-01  0.50510388058E-01  0.61678744484E-01  0.51100000000E-03 0. -1.
         11    1    4    4    0    0 -0.23624759171E-01  0.35378651598E-01  0.40602833771E-01  0.58810113638E-01  0.51100000000E-03 0.  1.
</event>
<event>
 8    1  0.1082757E+005  0.1043930E+01  0.7957747E-01            NaN
         13   -1    0    0    0    0  0.00000000000E+00  0.00000000000E+00  0.74505805969E-08  0.10566000000E+00  0.10566000000E+00 0.  1.
     999900   -1    0    0    0    0 -0.00000000000E+00 -0.00000000000E+00 -0.74505805969E-08  0.93827000000E+00  0.93827000000E+00 0.  1.
     999902    2    1    2    0    0 -0.17010837121E-01 -0.66521185892E-02 -0.11067867909E-01  0.10225731051E+01  0.10223500566E+01 0.  0.
     999903    2    3    3    0    0  0.78885029684E-01 -0.10332326939E+00  0.79992377327E-02  0.13189646161E+00  0.20836095507E-01 0.  0.
         14    1    1    2    0    0  0.17010837121E-01  0.66521185892E-02  0.11067867909E-01  0.21356894937E-01  0.00000000000E+00 0.  1.
     999901    1    3    3    0    0 -0.95895866805E-01  0.96671150803E-01 -0.19067105642E-01  0.89067664345E+00  0.88000000000E+00 0.  1.
        -11    1    4    4    0    0  0.36102511696E-01 -0.63849204248E-01  0.68700808006E-02  0.73672052809E-01  0.51100000000E-03 0. -1.
         11    1    4    4    0    0  0.42782517988E-01 -0.39474065144E-01  0.11291569320E-02  0.58224408805E-01  0.51100000000E-03 0.  1.
</event>
<event>
 8    1  0.1082757E+005  0.1043930E+01  0.7957747E-01            NaN
         13   -1    0    0    0    0  0.00000000000E+00  0.00000000000E+00  0.74505805969E-08  0.10566000000E+00  0.10566000000E+00 0. -1.
     999900   -1    0    0    0    0 -0.00000000000E+00 -0.00000000000E+00 -0.74505805969E-08  0.93827000000E+00  0.93827000000E+00 0.  1.
     999902    2    1    2    0    0  0.78981569391E-02  0.25872460912E-01  0.21174662790E-02  0.10167960954E+01  0.10164339874E+01 0.  0.
     999903    2    3    3    0    0 -0.73625989592E-01 -0.78435003771E-02 -0.10056720506E+00  0.12644386494E+00  0.19798520280E-01 0.  0.
         14    1    1    2    0    0 -0.78981569391E-02 -0.25872460912E-01 -0.21174662790E-02  0.27133904624E-01  0.00000000000E+00 0.  1.
     999901    1    3    3    0    0  0.81524146531E-01  0.33715961289E-01  0.10268467134E+00  0.89035223044E+00  0.88000000000E+00 0. -1.
        -11    1    4    4    0    0 -0.42905508546E-01 -0.11802758143E-01 -0.69820498838E-01  0.82797046700E-01  0.51100000000E-03 0.  1.
         11    1    4    4    0    0 -0.30720481046E-01  0.39592577659E-02 -0.30746706225E-01  0.43646818240E-01  0.51100000000E-03 0. -1.
</event>
<event>
 8    1  0.1082757E+005  0.1043930E+01  0.7957747E-01            NaN
         13   -1    0    0    0    0  0.00000000000E+00  0.00000000000E+00  0.74505805969E-08  0.10566000000E+00  0.10566000000E+00 0.  1.
     999900   -1    0    0    0    0 -0.00000000000E+00 -0.00000000000E+00 -0.74505805969E-08  0.93827000000E+00  0.93827000000E+00 0. -1.
     999902    2    1    2    0    0 -0.22874888716E-01  0.19035424119E-02 -0.92934960911E-02  0.10191660529E+01  0.10188651482E+01 0.  0.
     999903    2    3    3    0    0  0.87308785738E-01  0.53409003732E-01 -0.74838614202E-01  0.12838582343E+00  0.20168186240E-01 0.  0.
         14    1    1    2    0    0  0.22874888716E-01 -0.19035424119E-02  0.92934960911E-02  0.24763947122E-01  0.00000000000E+00 0.  1.
     999901    1    3    3    0    0 -0.11018367445E+00 -0.51505461320E-01  0.65545118110E-01  0.89078022944E+00  0.88000000000E+00 0.  1.
        -11    1    4    4    0    0  0.34938704554E-01  0.26380084984E-01 -0.43144889351E-01  0.61468402922E-01  0.51100000000E-03 0.  1.
         11    1    4    4    0    0  0.52370081184E-01  0.27028918748E-01 -0.31693724851E-01  0.66917420511E-01  0.51100000000E-03 0. -1.
</event>
<event>
 8    1  0.1082757E+005  0.1043930E+01  0.7957747E-01            NaN
         13   -1    0    0    0    0  0.00000000000E+00  0.00000000000E+00  0.74505805969E-08  0.10566000000E+00  0.10566000000E+00 0.  1.
     999900   -1    0    0    0    0 -0.00000000000E+00 -0.00000000000E+00 -0.74505805969E-08  0.93827000000E+00  0.93827000000E+00 0.  1.
     999902    2    1    2    0    0 -0.16979977098E-01 -0.16181377001E-01 -0.36026669529E-02  0.10201995176E+01  0.10199234873E+01 0.  0.
     999903    2    3    3    0    0  0.53669471439E-01 -0.11802227945E+00 -0.94566267116E-02  0.13149417680E+00  0.19789394442E-01 0.  0.
         14    1    1    2    0    0  0.16979977098E-01  0.16181377001E-01  0.36026669529E-02  0.23730482361E-01  0.00000000000E+00 0. -1.
     999901    1    3    3    0    0 -0.70649448538E-01  0.10184090245E+00  0.58539597586E-02  0.88870534084E+00  0.88000000000E+00 0. -1.
        -11    1    4    4    0    0  0.32160703460E-01 -0.47157837021E-01 -0.50174369095E-02  0.57302776841E-01  0.51100000000E-03 0.  1.
         11    1    4    4    0    0  0.21508767979E-01 -0.70864442429E-01 -0.44391898020E-02  0.74191399959E-01  0.51100000000E-03 0. -1.
</event>
<event>
 8    1  0.1082757E+005  0.1043930E+01  0.7957747E-01            NaN
         13   -1    0    0    0    0  0.00000000000E+00  0.00000000000E+00  0.74505805969E-08  0.10566000000E+00  0.10566000000E+00 0. -1.
     999900   -1    0    0    0    0 -0.00000000000E+00 -0.00000000000E+00 -0.74505805969E-08  0.93827000000E+00  0.93827000000E+00 0. -1.
     999902    2    1    2    0    0 -0.10122518772E-01 -0.21056597364E-02 -0.23373975682E-01  0.10183714021E+01  0.10180506228E+01 0.  0.
     999903    2    3    3    0    0 -0.69010240142E-01 -0.33067203299E-01  0.99781553576E-01  0.12730818024E+00  0.19878660489E-01 0.  0.
         14    1    1    2    0    0  0.10122518772E-01  0.21056597364E-02  0.23373975682E-01  0.25558597935E-01  0.00000000000E+00 0. -1.
     999901    1    3    3    0    0  0.58887721369E-01  0.30961543562E-01 -0.12315552926E+00  0.89106322183E+00  0.88000000000E+00 0. -1.
        -11    1    4    4    0    0 -0.49615550412E-01 -0.26082319606E-01  0.57699214774E-01  0.80445327678E-01  0.51100000000E-03 0.  1.
         11    1    4    4    0    0 -0.19394689730E-01 -0.69848836929E-02  0.42082338802E-01  0.46862852559E-01  0.51100000000E-03 0. -1.
</event>
<event>
 8    1  0.1082757E+005  0.1043930E+01  0.7957747E-01            NaN
         13   -1    0    0    0    0  0.00000000000E+00  0.00000000000E+00  0.74505805969E-08  0.10566000000E+00  0.10566000000E+00 0. -1.
     999900   -1    0    0    0    0 -0.00000000000E+00 -0.00000000000E+00 -0.74505805969E-08  0.93827000000E+00  0.93827000000E+00 0.  1.
     999902    2    1    2    0    0 -0.10050155424E-01 -0.19217962946E-01 -0.97350350255E-02  0.10201580285E+01  0.10198810207E+01 0.  0.
     999903    2    3    3    0    0  0.91358942451E-01 -0.44750505951E-01 -0.80627870943E-01  0.13113524469E+00  0.18615441931E-01 0.  0.
         14    1    1    2    0    0  0.10050155424E-01  0.19217962946E-01  0.97350350255E-02  0.23771971537E-01  0.00000000000E+00 0. -1.
     999901    1    3    3    0    0 -0.10140909787E+00  0.25532543005E-01  0.70892835918E-01  0.88902278377E+00  0.88000000000E+00 0. -1.
        -11    1    4    4    0    0  0.18233352786E-01 -0.17791854571E-01 -0.19689551676E-01  0.32201627429E-01  0.51100000000E-03 0.  1.
         11    1    4    4    0    0  0.73125589665E-01 -0.26958651380E-01 -0.60938319267E-01  0.98933617260E-01  0.51100000000E-03 0. -1.
</event>
<event>
 8    1  0.1082757E+005  0.1043930E+01  0.7957747E-01            NaN
         13   -1    0    0    0    0  0.00000000000E+00  0.00000000000E+00  0.74505805969E-08  0.10566000000E+00  0.10566000000E+00 0. -1.
     999900   -1    0    0    0    0 -0.00000000000E+00 -0.00000000000E+00 -0.74505805969E-08  0.93827000000E+00  0.93827000000E+00 0. -1.
     999902    2    1    2    0    0 -0.13658959218E-01 -0.10959876856E-01  0.16450185835E-01  0.10199030426E+01  0.10196199888E+01 0.  0.
     999903    2    3    3    0    0 -0.36709011686E-01  0.96435160382E-01 -0.73965577736E-01  0.12847721325E+00  0.19702688594E-01 0.  0.
         14    1    1    2    0    0  0.13658959218E-01  0.10959876856E-01 -0.16450185835E-01  0.24026957394E-01  0.00000000000E+00 0.  1.
     999901    1    3    3    0    0  0.23050052468E-01 -0.10739503724E+00  0.90415763570E-01  0.89142582936E+00  0.88000000000E+00 0.  1.
        -11    1    4    4    0    0 -0.89291239735E-02  0.44785139954E-01 -0.39954601424E-01  0.60680056951E-01  0.51100000000E-03 0.  1.
         11    1    4    4    0    0 -0.27779887712E-01  0.51650020428E-01 -0.34010976312E-01  0.67797156299E-01  0.51100000000E-03 0. -1.
</event>
<event>
 8    1  0.1082757E+005  0.1043930E+01  0.7957747E-01            NaN
         13   -1    0    0    0    0  0.00000000000E+00  0.00000000000E+00  0.74505805969E-08  0.10566000000E+00  0.10566000000E+00 0.  1.
     999900   -1    0    0    0    0 -0.00000000000E+00 -0.00000000000E+00 -0.74505805969E-08  0.93827000000E+00  0.93827000000E+00 0.  1.
     999902    2    1    2    0    0  0.20743522620E-01 -0.17543133329E-01 -0.87684197956E-02  0.10153828383E+01  0.10149814618E+01 0.  0.
     999903    2    3    3    0    0  0.11312867815E+00 -0.33871492162E-01 -0.48859345817E-01  0.12948842321E+00  0.20848027999E-01 0.  0.
         14    1    1    2    0    0 -0.20743522620E-01  0.17543133329E-01  0.87684197956E-02  0.28547161739E-01  0.00000000000E+00 0.  1.
     999901    1    3    3    0    0 -0.92385155529E-01  0.16328358834E-01  0.40090926021E-01  0.88589441505E+00  0.88000000000E+00 0.  1.
        -11    1    4    4    0    0  0.71596285133E-01 -0.21250332859E-01 -0.19853451260E-01  0.77278880294E-01  0.51100000000E-03 0. -1.
         11    1    4    4    0    0  0.41532393015E-01 -0.12621159304E-01 -0.29005894557E-01  0.52209542919E-01  0.51100000000E-03 0.  1.
</event>
<event>
 8    1  0.1082757E+005  0.1043930E+01  0.7957747E-01            NaN
         13   -1    0    0    0    0  0.00000000000E+00  0.00000000000E+00  0.74505805969E-08  0.10566000000E+00  0.10566000000E+00 0. -1.
     999900   -1    0    0    0    0 -0.00000000000E+00 -0.00000000000E+00 -0.74505805969E-08  0.93827000000E+00  0.93827000000E+00 0.  1.
     999902    2    1    2    0    0  0.20389390661E-01  0.10512270154E-01  0.60686706104E-02  0.10202010338E+01  0.10199250391E+01 0.  0.
     999903    2    3    3    0    0  0.35562791520E-01  0.10306362990E+00  0.72890149742E-01  0.13269830343E+00  0.20224783229E-01 0.  0.
         14    1    1    2    0    0 -0.20389390661E-01 -0.10512270154E-01 -0.60686706104E-02  0.23728966229E-01  0.00000000000E+00 0.  1.
     999901    1    3    3    0    0 -0.15173400859E-01 -0.92551359741E-01 -0.66821479132E-01  0.88750273034E+00  0.88000000000E+00 0.  1.
        -11    1    4    4    0    0  0.26213200925E-01  0.47763103477E-01  0.40903126519E-01  0.68130557289E-01  0.51100000000E-03 0.  1.
         11    1    4    4    0    0  0.93495905949E-02  0.55300526418E-01  0.31987023223E-01  0.64567746144E-01  0.51100000000E-03 0. -1.
</event>
<event>
 8    1  0.1082757E+005  0.1043930E+01  0.7957747E-01            NaN
         13   -1    0    0    0    0  0.00000000000E+00  0.00000000000E+00  0.74505805969E-08  0.10566000000E+00  0.10566000000E+00 0.  1.
     999900   -1    0    0    0    0 -0.00000000000E+00 -0.00000000000E+00 -0.74505805969E-08  0.93827000000E+00  0.93827000000E+00 0.  1.
     999902    2    1    2    0    0  0.23118782862E-01 -0.72693220133E-02 -0.14273272961E-02  0.10196532946E+01  0.10193642542E+01 0.  0.
     999903    2    3    3    0    0 -0.10403391303E+00  0.26068997549E-01 -0.66173648002E-01  0.12753708147E+00  0.19598667438E-01 0.  0.
         14    1    1    2    0    0 -0.23118782862E-01  0.72693220133E-02  0.14273272961E-02  0.24276705435E-01  0.00000000000E+00 0. -1.
     999901    1    3    3    0    0  0.12715269590E+00 -0.33338319562E-01  0.64746320706E-01  0.89211621310E+00  0.88000000000E+00 0. -1.
        -11    1    4    4    0    0 -0.77029096088E-01  0.15750912273E-01 -0.38621255438E-01  0.87598147093E-01  0.51100000000E-03 0.  1.
         11    1    4    4    0    0 -0.27004816946E-01  0.10318085276E-01 -0.27552392565E-01  0.39938934376E-01  0.51100000000E-03 0. -1.
</event>
<event>
 8    1  0.1082757E+005  0.1043930E+01  0.7957747E-01            NaN
         13   -1    0    0    0    0  0.00000000000E+00  0.00000000000E+00  0.74505805969E-08  0.10566000000E+00  0.10566000000E+00 0. -1.
     999900   -1    0    0    0    0 -0.00000000000E+00 -0.00000000000E+00 -0.74505805969E-08  0.93827000000E+00  0.93827000000E+00 0. -1.
     999902    2    1    2    0    0 -0.28041008380E-01  0.32140012322E-02 -0.23239540806E-03  0.10157044449E+01  0.10153121871E+01 0.  0.
     999903    2    3    3    0    0  0.76279110727E-01 -0.67681061980E-01  0.67753278181E-01  0.12411549863E+00  0.20369619831E-01 0.  0.
         14    1    1    2    0    0  0.28041008380E-01 -0.32140012322E-02  0.23239540806E-03  0.28225555132E-01  0.00000000000E+00 0. -1.
     999901    1    3    3    0    0 -0.10432011911E+00  0.70895063212E-01 -0.67985673589E-01  0.89158894624E+00  0.88000000000E+00 0. -1.
        -11    1    4    4    0    0  0.22248724985E-01 -0.13487621327E-01  0.26650694290E-01  0.37248386807E-01  0.51100000000E-03 0.  1.
         11    1    4    4    0    0  0.54030385742E-01 -0.54193440653E-01  0.41102583891E-01  0.86867111824E-01  0.51100000000E-03 0. -1.
</event>
<event>
 8    1  0.1082757E+005  0.1043930E+01  0.7957747E-01            NaN
         13   -1    0    0    0    0  0.00000000000E+00  0.00000000000E+00  0.74505805969E-08  0.10566000000E+00  0.10566000000E+00 0.  1.
     999900   -1    0    0    0    0 -0.00000000000E+00 -0.00000000000E+00 -0.74505805969E-08  0.93827000000E+00  0.93827000000E+00 0.  1.
     999902    2    1    2    0    0  0.11625690716E-01  0.20510468303E-01  0.10397596160E-02  0.10203309090E+01  0.10200579625E+01 0.  0.
     999903    2    3    3    0    0  0.10937965021E+00  0.67334528138E-02 -0.70279993932E-01  0.13194352168E+00  0.21460850422E-01 0.  0.
         14    1    1    2    0    0 -0.11625690716E-01 -0.20510468303E-01 -0.10397596160E-02  0.23599090971E-01  0.00000000000E+00 0. -1.
     999901    1    3    3    0    0 -0.97753959490E-01  0.13777015489E-01  0.71319753548E-01  0.88838738735E+00  0.88000000000E+00 0. -1.
        -11    1    4    4    0    0  0.64323725892E-01  0.50446115616E-02 -0.28737883279E-01  0.70633680881E-01  0.51100000000E-03 0.  1.
         11    1    4    4    0    0  0.45055924313E-01  0.16888412522E-02 -0.41542110653E-01  0.61309840800E-01  0.51100000000E-03 0. -1.
</event>
<event>
 8    1  0.1082757E+005  0.1043930E+01  0.7957747E-01            NaN
         13   -1    0    0    0    0  0.00000000000E+00  0.00000000000E+00  0.74505805969E-08  0.10566000000E+00  0.10566000000E+00 0. -1.
     999900   -1    0    0    0    0 -0.00000000000E+00 -0.00000000000E+00 -0.74505805969E-08  0.93827000000E+00  0.93827000000E+00 0. -1.
     999902    2    1    2    0    0 -0.22534614738E-01 -0.49931089732E-02  0.49660886622E-02  0.10203206367E+01  0.10200474497E+01 0.  0.
     999903    2    3    3    0    0  0.15683764224E-01  0.11522032459E+00  0.54518534151E-01  0.12994579488E+00  0.19797357954E-01 0.  0.
         14    1    1    2    0    0  0.22534614738E-01  0.49931089732E-02 -0.49660886622E-02  0.23609363295E-01  0.00000000000E+00 0.  1.
     999901    1    3    3    0    0 -0.38218378961E-01 -0.12021343356E+00 -0.49552445489E-01  0.89037484182E+00  0.88000000000E+00 0. -1.
        -11    1    4    4    0    0  0.13058800315E-01  0.97353646428E-01  0.37546450001E-01  0.10515827008E+00  0.51100000000E-03 0.  1.
         11    1    4    4    0    0  0.26249639087E-02  0.17866678164E-01  0.16972084150E-01  0.24787524796E-01  0.51100000000E-03 0. -1.
</event>
<event>
 8    1  0.1082757E+005  0.1043930E+01  0.7957747E-01            NaN
         13   -1    0    0    0    0  0.00000000000E+00  0.00000000000E+00  0.74505805969E-08  0.10566000000E+00  0.10566000000E+00 0. -1.
     999900   -1    0    0    0    0 -0.00000000000E+00 -0.00000000000E+00 -0.74505805969E-08  0.93827000000E+00  0.93827000000E+00 0.  1.
     999902    2    1    2    0    0 -0.11810358303E-02  0.61213404183E-02  0.23021708551E-01  0.10200791149E+01  0.10198002432E+01 0.  0.
     999903    2    3    3    0    0 -0.20298783208E-01  0.48535285567E-01  0.12100591825E+00  0.13341946413E+00  0.19763770190E-01 0.  0.
         14    1    1    2    0    0  0.11810358303E-02 -0.61213404183E-02 -0.23021708551E-01  0.23850885073E-01  0.00000000000E+00 0.  1.
     999901    1    3    3    0    0  0.19117747378E-01 -0.42413945148E-01 -0.97984209697E-01  0.88665965080E+00  0.88000000000E+00 0.  1.
        -11    1    4    4    0    0 -0.38146694243E-02  0.16698245188E-01  0.20553589741E-01  0.26759937732E-01  0.51100000000E-03 0.  1.
         11    1    4    4    0    0 -0.16484113784E-01  0.31837040378E-01  0.10045232851E+00  0.10665952640E+00  0.51100000000E-03 0. -1.
</event>
<event>
 8    1  0.1082757E+005  0.1043930E+01  0.7957747E-01            NaN
         13   -1    0    0    0    0  0.00000000000E+00  0.00000000000E+00  0.74505805969E-08  0.10566000000E+00  0.10566000000E+00 0.  1.
     999900   -1    0    0    0    0 -0.00000000000E+00 -0.00000000000E+00 -0.74505805969E-08  0.93827000000E+00  0.93827000000E+00 0. -1.
     999902    2    1    2    0    0 -0.21696331206E-01 -0.11238368361E-01  0.17871975111E-02  0.10194304942E+01  0.10191360589E+01 0.  0.
     999903    2    3    3    0    0  0.22851442194E-01  0.78912327893E-01  0.96442000752E-01  0.12866049920E+00  0.22430350912E-01 0.  0.
         14    1    1    2    0    0  0.21696331206E-01  0.11238368361E-01 -0.17871975111E-02  0.24499505835E-01  0.00000000000E+00 0. -1.
     999901    1    3    3    0    0 -0.44547773400E-01 -0.90150696254E-01 -0.94654803240E-01  0.89076999496E+00  0.88000000000E+00 0. -1.
        -11    1    4    4    0    0  0.24852591200E-01  0.47284674953E-01  0.62557000841E-01  0.82262575026E-01  0.51100000000E-03 0. -1.
         11    1    4    4    0    0 -0.20011490060E-02  0.31627652941E-01  0.33884999910E-01  0.46397924175E-01  0.51100000000E-03 0.  1.
</event>
<event>
 8    1  0.1082757E+005  0.1043930E+01  0.7957747E-01            NaN
         13   -1    0    0    0    0  0.00000000000E+00  0.00000000000E+00  0.74505805969E-08  0.10566000000E+00  0.10566000000E+00 0. -1.
     999900   -1    0    0    0    0 -0.00000000000E+00 -0.00000000000E+00 -0.74505805969E-08  0.93827000000E+00  0.93827000000E+00 0. -1.
     999902    2    1    2    0    0 -0.19347499503E-01 -0.77275755914E-02 -0.11488311356E-01  0.10201387735E+01  0.10198613115E+01 0.  0.
     999903    2    3    3    0    0 -0.10061257926E+00 -0.17993367143E-01  0.80562099290E-01  0.13155412486E+00  0.19224556142E-01 0.  0.
         14    1    1    2    0    0  0.19347499503E-01  0.77275755914E-02  0.11488311356E-01  0.23791226520E-01  0.00000000000E+00 0.  1.
     999901    1    3    3    0    0  0.81265079758E-01  0.10265791552E-01 -0.92050410645E-01  0.88858464862E+00  0.88000000000E+00 0. -1.
        -11    1    4    4    0    0 -0.19870242699E-01  0.33166591758E-02  0.11602971450E-01  0.23253318913E-01  0.51100000000E-03 0. -1.
         11    1    4    4    0    0 -0.80742336562E-01 -0.21310026319E-01  0.68959127840E-01  0.10830080595E+00  0.51100000000E-03 0.  1.
</event>
<event>
 8    1  0.1082757E+005  0.1043930E+01  0.7957747E-01            NaN
         13   -1    0    0    0    0  0.00000000000E+00  0.00000000000E+00  0.74505805969E-08  0.10566000000E+00  0.10566000000E+00 0.  1.
     999900   -1    0    0    0    0 -0.00000000000E+00 -0.00000000000E+00 -0.74505805969E-08  0.93827000000E+00  0.93827000000E+00 0.  1.
     999902    2    1    2    0    0  0.59707334244E-02  0.21698446020E-01 -0.74670811009E-02  0.10202186205E+01  0.10199430396E+01 0.  0.
     999903    2    3    3    0    0 -0.78974248976E-01  0.70551931889E-01 -0.76429910644E-01  0.13209802905E+00  0.19845678177E-01 0.  0.
         14    1    1    2    0    0 -0.59707334244E-02 -0.21698446020E-01  0.74670811009E-02  0.23711379494E-01  0.00000000000E+00 0. -1.
     999901    1    3    3    0    0  0.84944982400E-01 -0.48853485868E-01  0.68962829543E-01  0.88812059146E+00  0.88000000000E+00 0. -1.
        -11    1    4    4    0    0 -0.30227011264E-01  0.36282672736E-01 -0.25285589515E-01  0.53569830213E-01  0.51100000000E-03 0. -1.
         11    1    4    4    0    0 -0.48747237711E-01  0.34269259153E-01 -0.51144321129E-01  0.78528198834E-01  0.51100000000E-03 0.  1.
</event>
<event>
 8    1  0.1082757E+005  0.1043930E+01  0.7957747E-01            NaN
         13   -1    0    0    0    0  0.00000000000E+00  0.00000000000E+00  0.74505805969E-08  0.10566000000E+00  0.10566000000E+00 0.  1.
     999900   -1    0    0    0    0 -0.00000000000E+00 -0.00000000000E+00 -0.74505805969E-08  0.93827000000E+00  0.93827000000E+00 0.  1.
     999902    2    1    2    0    0  0.14117885029E-01  0.17348523784E-01 -0.50447266438E-02  0.10210010833E+01  0.10207435901E+01 0.  0.
     999903    2    3    3    0    0 -0.17198423539E-02  0.98080004539E-01  0.86551341876E-01  0.13243018269E+00  0.20590613398E-01 0.  0.
         14    1    1    2    0    0 -0.14117885029E-01 -0.17348523784E-01  0.50447266438E-02  0.22928916723E-01  0.00000000000E+00 0.  1.
     999901    1    3    3    0    0  0.15837727383E-01 -0.80731480755E-01 -0.91596068519E-01  0.88857090058E+00  0.88000000000E+00 0.  1.
        -11    1    4    4    0    0 -0.68469105571E-02  0.19008068533E-01  0.11312380822E-01  0.23160698055E-01  0.51100000000E-03 0. -1.
         11    1    4    4    0    0  0.51270682032E-02  0.79071936005E-01  0.75238961054E-01  0.10926948464E+00  0.51100000000E-03 0.  1.
</event>
<event>
 8    1  0.1082757E+005  0.1043930E+01  0.7957747E-01            NaN
         13   -1    0    0    0    0  0.00000000000E+00  0.00000000000E+00  0.74505805969E-08  0.10566000000E+00  0.10566000000E+00 0. -1.
     999900   -1    0    0    0    0 -0.00000000000E+00 -0.00000000000E+00 -0.74505805969E-08  0.93827000000E+00  0.93827000000E+00 0.  1.
     999902    2    1    2    0    0  0.40023351035E-02  0.17636334949E-01  0.13467579538E-01  0.10213815035E+01  0.10211325776E+01 0.  0.
     999903    2    3    3    0    0 -0.69115713156E-01  0.10207296960E+00 -0.44079417968E-01  0.13245661848E+00  0.20146656381E-01 0.  0.
         14    1    1    2    0    0 -0.40023351035E-02 -0.17636334949E-01 -0.13467579538E-01  0.22548496520E-01  0.00000000000E+00 0.  1.
     999901    1    3    3    0    0  0.73118048259E-01 -0.84436634647E-01  0.57546997505E-01  0.88892488500E+00  0.88000000000E+00 0. -1.
        -11    1    4    4    0    0 -0.55581626307E-01  0.65495287818E-01 -0.30377901690E-01  0.91115464886E-01  0.51100000000E-03 0. -1.
         11    1    4    4    0    0 -0.13534086849E-01  0.36577681778E-01 -0.13701516277E-01  0.41341153593E-01  0.51100000000E-03 0.  1.
</event>
<event>
 8    1  0.1082757E+005  0.1043930E+01  0.7957747E-01            NaN
         13   -1    0    0    0    0  0.00000000000E+00  0.00000000000E+00  0.74505805969E-08  0.10566000000E+00  0.10566000000E+00 0. -1.
     999900   -1    0    0    0    0 -0.00000000000E+00 -0.00000000000E+00 -0.74505805969E-08  0.93827000000E+00  0.93827000000E+00 0. -1.
     999902    2    1    2    0    0 -0.15508342986E-01 -0.33064288856E-02  0.16098696841E-01  0.10213333362E+01  0.10210833337E+01 0.  0.
     999903    2    3    3    0    0 -0.26159281784E-01  0.71492436000E-01 -0.10302885362E+00  0.13009841434E+00  0.22697495648E-01 0.  0.
         14    1    1    2    0    0  0.15508342986E-01  0.33064288856E-02 -0.16098696841E-01  0.22596663783E-01  0.00000000000E+00 0.  1.
     999901    1    3    3    0    0  0.10650938798E-01 -0.74798864885E-01  0.11912755046E+00  0.89123492187E+00  0.88000000000E+00 0.  1.
        -11    1    4    4    0    0 -0.17613616688E-01  0.51325540322E-01 -0.88491228305E-01  0.10380515011E+00  0.51100000000E-03 0. -1.
         11    1    4    4    0    0 -0.85456650957E-02  0.20166895678E-01 -0.14537625312E-01  0.26293264231E-01  0.51100000000E-03 0.  1.
</event>
<event>
 8    1  0.1082757E+005  0.1043930E+01  0.7957747E-01            NaN
         13   -1    0    0    0    0  0.00000000000E+00  0.00000000000E+00  0.74505805969E-08  0.10566000000E+00  0.10566000000E+00 0. -1.
     999900   -1    0    0    0    0 -0.00000000000E+00 -0.00000000000E+00 -0.74505805969E-08  0.93827000000E+00  0.93827000000E+00 0. -1.
     999902    2    1    2    0    0 -0.90133170454E-02 -0.10829370002E-01 -0.19243661792E-01  0.10200797661E+01  0.10198009097E+01 0.  0.
     999903    2    3    3    0    0 -0.48904835486E-01  0.10887412533E+00 -0.48801443048E-01  0.13058894405E+00  0.20655105089E-01 0.  0.
         14    1    1    2    0    0  0.90133170454E-02  0.10829370002E-01  0.19243661792E-01  0.23850233918E-01  0.00000000000E+00 0. -1.
     999901    1    3    3    0    0  0.39891518441E-01 -0.11970349533E+00  0.29557781256E-01  0.88949082203E+00  0.88000000000E+00 0. -1.
        -11    1    4    4    0    0 -0.28755210817E-01  0.79739347751E-01 -0.41650190500E-01  0.94446943934E-01  0.51100000000E-03 0. -1.
         11    1    4    4    0    0 -0.20149624670E-01  0.29134777576E-01 -0.71512525481E-02  0.36142000121E-01  0.51100000000E-03 0.  1.
</event>
<event>
 8    1  0.1082757E+005  0.1043930E+01  0.7957747E-01            NaN
         13   -1    0    0    0    0  0.00000000000E+00  0.00000000000E+00  0.74505805969E-08  0.10566000000E+00  0.10566000000E+00 0.  1.
     999900   -1    0    0    0    0 -0.00000000000E+00 -0.00000000000E+00 -0.74505805969E-08  0.93827000000E+00  0.93827000000E+00 0.  1.
     999902    2    1    2    0    0 -0.84223253501E-02  0.17179016732E-01  0.12846602231E-01  0.10208846237E+01  0.10206244782E+01 0.  0.
     999903    2    3    3    0    0 -0.11074095271E+00  0.52559789386E-01 -0.45903079369E-01  0.13230574387E+00  0.19277632080E-01 0.  0.
         14    1    1    2    0    0  0.84223253501E-02 -0.17179016732E-01 -0.12846602231E-01  0.23045376305E-01  0.00000000000E+00 0. -1.
     999901    1    3    3    0    0  0.10231862736E+00 -0.35380772655E-01  0.58749681600E-01  0.88857887982E+00  0.88000000000E+00 0.  1.
        -11    1    4    4    0    0 -0.26165500360E-01  0.19054670386E-01 -0.18550848957E-01  0.37310976812E-01  0.51100000000E-03 0.  1.
         11    1    4    4    0    0 -0.84575452350E-01  0.33505119000E-01 -0.27352230412E-01  0.94994767061E-01  0.51100000000E-03 0. -1.
</event>
<event>
 8    1  0.1082757E+005  0.1043930E+01  0.7957747E-01            NaN
         13   -1    0    0    0    0  0.00000000000E+00  0.00000000000E+00  0.74505805969E-08  0.10566000000E+00  0.10566000000E+00 0.  1.
     999900   -1    0    0    0    0 -0.00000000000E+00 -0.00000000000E+00 -0.74505805969E-08  0.93827000000E+00  0.93827000000E+00 0.  1.
     999902    2    1    2    0    0 -0.13691114888E-01  0.13065843662E-01 -0.15166821693E-01  0.10196772604E+01  0.10193887973E+01 0.  0.
     999903    2    3    3    0    0  0.11913027758E+00  0.15763756934E-01  0.39161715360E-01  0.12804931616E+00  0.20554034872E-01 0.  0.
         14    1    1    2    0    0  0.13691114888E-01 -0.13065843662E-01  0.15166821693E-01  0.24252739592E-01  0.00000000000E+00 0.  1.
     999901    1    3    3    0    0 -0.13282139247E+00 -0.26979132722E-02 -0.54328537053E-01  0.89162794425E+00  0.88000000000E+00 0.  1.
        -11    1    4    4    0    0  0.34516196871E-01 -0.95463738663E-03  0.34782263241E-02  0.34707900518E-01  0.51100000000E-03 0. -1.
         11    1    4    4    0    0  0.84614080707E-01  0.16718394321E-01  0.35683489036E-01  0.93341415638E-01  0.51100000000E-03 0.  1.
</event>
<event>
 8    1  0.1082757E+005  0.1043930E+01  0.7957747E-01            NaN
         13   -1    0    0    0    0  0.00000000000E+00  0.00000000000E+00  0.74505805969E-08  0.10566000000E+00  0.10566000000E+00 0.  1.
     999900   -1    0    0    0    0 -0.00000000000E+00 -0.00000000000E+00 -0.74505805969E-08  0.93827000000E+00  0.93827000000E+00 0.  1.
     999902    2    1    2    0    0 -0.22326288651E-01  0.80950140763E-02  0.23705086002E-02  0.10200634601E+01  0.10197842178E+01 0.  0.
     999903    2    3    3    0    0  0.12287786792E+00  0.25458169015E-01 -0.13738690266E-01  0.12784979029E+00  0.20241750714E-01 0.  0.
         14    1    1    2    0    0  0.22326288651E-01 -0.80950140763E-02 -0.23705086002E-02  0.23866539943E-01  0.00000000000E+00 0. -1.
     999901    1    3    3    0    0 -0.14520415657E+00 -0.17363154939E-01  0.16109198866E-01  0.89221366977E+00  0.88000000000E+00 0. -1.
        -11    1    4    4    0    0  0.62430863897E-01  0.87556720746E-02  0.24094590564E-02  0.63089945113E-01  0.51100000000E-03 0. -1.
         11    1    4    4    0    0  0.60447004024E-01  0.16702496941E-01 -0.16148149323E-01  0.64759845175E-01  0.51100000000E-03 0.  1.
</event>
<event>
 7    1  0.1082757E+005  0.1043930E+01  0.7957747E-01            NaN
         13   -1    0    0    0    0  0.00000000000E+00  0.00000000000E+00  0.74505805969E-08  0.10566000000E+00  0.10566000000E+00 0.  1.
     999900   -1    0    0    0    0 -0.00000000000E+00 -0.00000000000E+00 -0.74505805969E-08  0.93827000000E+00  0.93827000000E+00 0.  1.
     999903    2    1    2    0    0  0.20131057950E-01  0.69887079086E-01 -0.91940028207E-01  0.11893738104E+00  0.20091503311E-01 0.  0.
         14    1    1    2    0    0  0.15799724581E-01 -0.30421491629E-01  0.21724525891E-01  0.40583906601E-01  0.00000000000E+00 0.  1.
     999901    1    1    2    0    0 -0.35930782531E-01 -0.39465587457E-01  0.70215502315E-01  0.88440871236E+00  0.88000000000E+00 0. -1.
        -11    1    3    3    0    0  0.98358116281E-02  0.25836827101E-01 -0.20674892027E-01  0.34525311097E-01  0.51100000000E-03 0.  1.
         11    1    3    3    0    0  0.10295246321E-01  0.44050251985E-01 -0.71265136179E-01  0.84412069945E-01  0.51100000000E-03 0. -1.
</event>
<event>
 8    1  0.1082757E+005  0.1043930E+01  0.7957747E-01            NaN
         13   -1    0    0    0    0  0.00000000000E+00  0.00000000000E+00  0.74505805969E-08  0.10566000000E+00  0.10566000000E+00 0.  1.
     999900   -1    0    0    0    0 -0.00000000000E+00 -0.00000000000E+00 -0.74505805969E-08  0.93827000000E+00  0.93827000000E+00 0.  1.
     999902    2    1    2    0    0 -0.11015876854E-01 -0.19016674133E-01 -0.24952795710E-02  0.10218119111E+01  0.10215724995E+01 0.  0.
     999903    2    3    3    0    0  0.48373761445E-01  0.45262095836E-01 -0.11093412152E+00  0.13084733722E+00  0.20638997668E-01 0.  0.
         14    1    1    2    0    0  0.11015876854E-01  0.19016674133E-01  0.24952795710E-02  0.22118088934E-01  0.00000000000E+00 0.  1.
     999901    1    3    3    0    0 -0.59389638299E-01 -0.64278769969E-01  0.10843884195E+00  0.89096457385E+00  0.88000000000E+00 0. -1.
        -11    1    4    4    0    0  0.21807266241E-01  0.28725338878E-01 -0.43529694511E-01  0.56531384025E-01  0.51100000000E-03 0. -1.
         11    1    4    4    0    0  0.26566495204E-01  0.16536756958E-01 -0.67404427007E-01  0.74315953195E-01  0.51100000000E-03 0.  1.
</event>
<event>
 8    1  0.1082757E+005  0.1043930E+01  0.7957747E-01            NaN
         13   -1    0    0    0    0  0.00000000000E+00  0.00000000000E+00  0.74505805969E-08  0.10566000000E+00  0.10566000000E+00 0. -1.
     999900   -1    0    0    0    0 -0.00000000000E+00 -0.00000000000E+00 -0.74505805969E-08  0.93827000000E+00  0.93827000000E+00 0. -1.
     999902    2    1    2    0    0 -0.23445620811E-01 -0.20377098327E-02 -0.20201038899E-02  0.10203094535E+01  0.10200360046E+01 0.  0.
     999903    2    3    3    0    0 -0.59153044651E-02 -0.12429224318E+00  0.36109421255E-01  0.13086730048E+00  0.18406724023E-01 0.  0.
         14    1    1    2    0    0  0.23445620811E-01  0.20377098327E-02  0.20201038899E-02  0.23620546486E-01  0.00000000000E+00 0. -1.
     999901    1    3    3    0    0 -0.17530316346E-01  0.12225453335E+00 -0.38129525145E-01  0.88944215304E+00  0.88000000000E+00 0.  1.
        -11    1    4    4    0    0  0.26188389714E-02 -0.42937180067E-01  0.20221834554E-01  0.47535707246E-01  0.51100000000E-03 0.  1.
         11    1    4    4    0    0 -0.85341434365E-02 -0.81355063111E-01  0.15887586701E-01  0.83331593229E-01  0.51100000000E-03 0. -1.
</event>
<event>
 8    1  0.1082757E+005  0.1043930E+01  0.7957747E-01            NaN
         13   -1    0    0    0    0  0.00000000000E+00  0.00000000000E+00  0.74505805969E-08  0.10566000000E+00  0.10566000000E+00 0.  1.
     999900   -1    0    0    0    0 -0.00000000000E+00 -0.00000000000E+00 -0.74505805969E-08  0.93827000000E+00  0.93827000000E+00 0.  1.
     999902    2    1    2    0    0 -0.70408949862E-02  0.14176416071E-01  0.17400012722E-01  0.10204075550E+01  0.10201363992E+01 0.  0.
     999903    2    3    3    0    0 -0.11362250363E+00  0.64557698921E-01 -0.45697705440E-02  0.13227435311E+00  0.19946224367E-01 0.  0.
         14    1    1    2    0    0  0.70408949862E-02 -0.14176416071E-01 -0.17400012722E-01  0.23522444974E-01  0.00000000000E+00 0. -1.
     999901    1    3    3    0    0  0.10658160865E+00 -0.50381282850E-01  0.21969783266E-01  0.88813320191E+00  0.88000000000E+00 0. -1.
        -11    1    4    4    0    0 -0.10977648346E+00  0.57092971429E-01 -0.51302981301E-02  0.12384290366E+00  0.51100000000E-03 0.  1.
         11    1    4    4    0    0 -0.38460201796E-02  0.74647274921E-02  0.56052758607E-03  0.84314494559E-02  0.51100000000E-03 0. -1.
</event>
<event>
 8    1  0.1082757E+005  0.1043930E+01  0.7957747E-01            NaN
         13   -1    0    0    0    0  0.00000000000E+00  0.00000000000E+00  0.74505805969E-08  0.10566000000E+00  0.10566000000E+00 0. -1.
     999900   -1    0    0    0    0 -0.00000000000E+00 -0.00000000000E+00 -0.74505805969E-08  0.93827000000E+00  0.93827000000E+00 0.  1.
     999902    2    1    2    0    0 -0.15137669102E-01  0.19787453813E-01  0.15386668605E-02  0.10189688332E+01  0.10186630567E+01 0.  0.
     999903    2    3    3    0    0 -0.74621839191E-01 -0.98004358945E-02 -0.10431620074E+00  0.13013866789E+00  0.19741725229E-01 0.  0.
         14    1    1    2    0    0  0.15137669102E-01 -0.19787453813E-01 -0.15386668605E-02  0.24961166838E-01  0.00000000000E+00 0. -1.
     999901    1    3    3    0    0  0.59484170090E-01  0.29587889707E-01  0.10585486760E+00  0.88883016527E+00  0.88000000000E+00 0. -1.
        -11    1    4    4    0    0 -0.37992407030E-01 -0.14916906968E-01 -0.55070338539E-01  0.68548817738E-01  0.51100000000E-03 0.  1.
         11    1    4    4    0    0 -0.36629432161E-01  0.51164710740E-02 -0.49245862198E-01  0.61589850149E-01  0.51100000000E-03 0. -1.
</event>
<event>
 8    1  0.1082757E+005  0.1043930E+01  0.7957747E-01            NaN
         13   -1    0    0    0    0  0.00000000000E+00  0.00000000000E+00  0.74505805969E-08  0.10566000000E+00  0.10566000000E+00 0.  1.
     999900   -1    0    0    0    0 -0.00000000000E+00 -0.00000000000E+00 -0.74505805969E-08  0.93827000000E+00  0.93827000000E+00 0. -1.
     999902    2    1    2    0    0  0.15197557434E-01 -0.12023744646E-01  0.12536313228E-01  0.10208498064E+01  0.10205888653E+01 0.  0.
     999903    2    3    3    0    0  0.10128746345E+00 -0.78961821239E-01 -0.29156257940E-01  0.13313901537E+00  0.19539461933E-01 0.  0.
         14    1    1    2    0    0 -0.15197557434E-01  0.12023744646E-01 -0.12536313228E-01  0.23080193600E-01  0.00000000000E+00 0. -1.
     999901    1    3    3    0    0 -0.86089906012E-01  0.66938076593E-01  0.41692571167E-01  0.88771079103E+00  0.88000000000E+00 0.  1.
        -11    1    4    4    0    0  0.43450210425E-01 -0.22009867634E-01 -0.96573974946E-02  0.49657642982E-01  0.51100000000E-03 0. -1.
         11    1    4    4    0    0  0.57837253022E-01 -0.56951953605E-01 -0.19498860445E-01  0.83481372391E-01  0.51100000000E-03 0.  1.
</event>
<event>
 8    1  0.1082757E+005  0.1043930E+01  0.7957747E-01            NaN
         13   -1    0    0    0    0  0.00000000000E+00  0.00000000000E+00  0.74505805969E-08  0.10566000000E+00  0.10566000000E+00 0. -1.
     999900   -1    0    0    0    0 -0.00000000000E+00 -0.00000000000E+00 -0.74505805969E-08  0.93827000000E+00  0.93827000000E+00 0.  1.
     999902    2    1    2    0    0 -0.13194104526E-01  0.17442000013E-01  0.16945926064E-02  0.10219941981E+01  0.10217587590E+01 0.  0.
     999903    2    3    3    0    0  0.10919235410E+00 -0.26164192721E-01  0.63114340790E-01  0.13033712799E+00  0.19920134129E-01 0.  0.
         14    1    1    2    0    0  0.13194104526E-01 -0.17442000013E-01 -0.16945926064E-02  0.21935801850E-01  0.00000000000E+00 0. -1.
     999901    1    3    3    0    0 -0.12238645863E+00  0.43606192734E-01 -0.61419748183E-01  0.89165707016E+00  0.88000000000E+00 0.  1.
        -11    1    4    4    0    0  0.53621944770E-01 -0.44090434006E-02  0.36335258701E-01  0.64925070431E-01  0.51100000000E-03 0. -1.
         11    1    4    4    0    0  0.55570409334E-01 -0.21755149320E-01  0.26779082089E-01  0.65412057558E-01  0.51100000000E-03 0.  1.
</event>
<event>
 8    1  0.1082757E+005  0.1043930E+01  0.7957747E-01            NaN
         13   -1    0    0    0    0  0.00000000000E+00  0.00000000000E+00  0.74505805969E-08  0.10566000000E+00  0.10566000000E+00 0. -1.
     999900   -1    0    0    0    0 -0.00000000000E+00 -0.00000000000E+00 -0.74505805969E-08  0.93827000000E+00  0.93827000000E+00 0.  1.
     999902    2    1    2    0    0 -0.61540933690E-02 -0.52360485747E-02 -0.18347881526E-01  0.10238817126E+01  0.10236854144E+01 0.  0.
     999903    2    3    3    0    0 -0.92953322055E-01  0.49912542287E-01  0.77983151536E-01  0.13267178164E+00  0.19719223130E-01 0.  0.
         14    1    1    2    0    0  0.61540933690E-02  0.52360485747E-02  0.18347881526E-01  0.20048287367E-01  0.00000000000E+00 0. -1.
     999901    1    3    3    0    0  0.86799228686E-01 -0.55148590862E-01 -0.96331033062E-01  0.89120993100E+00  0.88000000000E+00 0.  1.
        -11    1    4    4    0    0 -0.78600470886E-01  0.40948474009E-01  0.73546776682E-01  0.11517031314E+00  0.51100000000E-03 0. -1.
         11    1    4    4    0    0 -0.14352851169E-01  0.89640682782E-02  0.44363748538E-02  0.17501468499E-01  0.51100000000E-03 0.  1.
</event>
<event>
 8    1  0.1082757E+005  0.1043930E+01  0.7957747E-01            NaN
         13   -1    0    0    0    0  0.00000000000E+00  0.00000000000E+00  0.74505805969E-08  0.10566000000E+00  0.10566000000E+00 0. -1.
     999900   -1    0    0    0    0 -0.00000000000E+00 -0.00000000000E+00 -0.74505805969E-08  0.93827000000E+00  0.93827000000E+00 0.  1.
     999902    2    1    2    0    0 -0.26760602019E-01 -0.14208909300E-01 -0.13899324419E-02  0.10135992427E+01  0.10131453351E+01 0.  0.
     999903    2    3    3    0    0 -0.74551579670E-01  0.42184402640E-01  0.91140710636E-01  0.12566562862E+00  0.12155625163E-01 0.  0.
         14    1    1    2    0    0  0.26760602019E-01  0.14208909300E-01  0.13899324419E-02  0.30330757262E-01  0.00000000000E+00 0.  1.
     999901    1    3    3    0    0  0.47790977651E-01 -0.56393311940E-01 -0.92530643078E-01  0.88793361412E+00  0.88000000000E+00 0.  1.
        -11    1    4    4    0    0 -0.54324097207E-01  0.26865825535E-01  0.57656042420E-01  0.83650226943E-01  0.51100000000E-03 0. -1.
         11    1    4    4    0    0 -0.20227482463E-01  0.15318577104E-01  0.33484668217E-01  0.42015401675E-01  0.51100000000E-03 0.  1.
</event>
<event>
 8    1  0.1082757E+005  0.1043930E+01  0.7957747E-01            NaN
         13   -1    0    0    0    0  0.00000000000E+00  0.00000000000E+00  0.74505805969E-08  0.10566000000E+00  0.10566000000E+00 0. -1.
     999900   -1    0    0    0    0 -0.00000000000E+00 -0.00000000000E+00 -0.74505805969E-08  0.93827000000E+00  0.93827000000E+00 0.  1.
     999902    2    1    2    0    0 -0.14363474979E-01 -0.15023620984E-01 -0.96388947964E-02  0.10210187169E+01  0.10207616242E+01 0.  0.
     999903    2    3    3    0    0  0.10221960925E+00 -0.49566849587E-01 -0.62327442886E-01  0.13109684769E+00  0.19898548807E-01 0.  0.
         14    1    1    2    0    0  0.14363474979E-01  0.15023620984E-01  0.96388947964E-02  0.22911283112E-01  0.00000000000E+00 0. -1.
     999901    1    3    3    0    0 -0.11658308423E+00  0.34543228603E-01  0.52688548090E-01  0.88992186919E+00  0.88000000000E+00 0. -1.
        -11    1    4    4    0    0  0.29466838772E-01 -0.24574316324E-01 -0.19276888594E-01  0.42942416850E-01  0.51100000000E-03 0. -1.
         11    1    4    4    0    0  0.72752770480E-01 -0.24992533262E-01 -0.43050554292E-01  0.88154430843E-01  0.51100000000E-03 0.  1.
</event>
<event>
 8    1  0.1082757E+005  0.1043930E+01  0.7957747E-01            NaN
         13   -1    0    0    0    0  0.00000000000E+00  0.00000000000E+00  0.74505805969E-08  0.10566000000E+00  0.10566000000E+00 0. -1.
     999900   -1    0    0    0    0 -0.00000000000E+00 -0.00000000000E+00 -0.74505805969E-08  0.93827000000E+00  0.93827000000E+00 0.  1.
     999902    2    1    2    0    0  0.18447728523E-01 -0.80881369495E-02  0.12020691715E-01  0.10204729397E+01  0.10202033067E+01 0.  0.
     999903    2    3    3    0    0 -0.12176721051E-01 -0.12641228169E+00  0.30104786646E-01  0.13184169190E+00  0.18643927864E-01 0.  0.
         14    1    1    2    0    0 -0.18447728523E-01  0.80881369495E-02 -0.12020691715E-01  0.23457060265E-01  0.00000000000E+00 0.  1.
     999901    1    3    3    0    0  0.30624449573E-01  0.11832414474E+00 -0.18084094930E-01  0.88863124784E+00  0.88000000000E+00 0.  1.
        -11    1    4    4    0    0 -0.36246590562E-02 -0.59381896491E-02  0.47255385012E-02  0.84256800740E-02  0.51100000000E-03 0. -1.
         11    1    4    4    0    0 -0.85520619945E-02 -0.12047409204E+00  0.25379248144E-01  0.12341601183E+00  0.51100000000E-03 0.  1.
</event>
<event>
 8    1  0.1082757E+005  0.1043930E+01  0.7957747E-01            NaN
         13   -1    0    0    0    0  0.00000000000E+00  0.00000000000E+00  0.74505805969E-08  0.10566000000E+00  0.10566000000E+00 0.  1.
     999900   -1    0    0    0    0 -0.00000000000E+00 -0.00000000000E+00 -0.74505805969E-08  0.93827000000E+00  0.93827000000E+00 0. -1.
     999902    2    1    2    0    0  0.18754403390E-01  0.58031954586E-02  0.12698387814E-01  0.10205493718E+01  0.10202815133E+01 0.  0.
     999903    2    3    3    0    0  0.89743838591E-01 -0.49495400362E-01  0.82707858831E-01  0.13319444804E+00  0.19910295178E-01 0.  0.
         14    1    1    2    0    0 -0.18754403390E-01 -0.58031954586E-02 -0.12698387814E-01  0.23380628245E-01  0.00000000000E+00 0. -1.
     999901    1    3    3    0    0 -0.70989435202E-01  0.55298595820E-01 -0.70009471017E-01  0.88735492372E+00  0.88000000000E+00 0. -1.
        -11    1    4    4    0    0  0.39130713854E-01 -0.16491424045E-01  0.23220142646E-01  0.48400578294E-01  0.51100000000E-03 0. -1.
         11    1    4    4    0    0  0.50613124738E-01 -0.33003976317E-01  0.59487716186E-01  0.84793869746E-01  0.51100000000E-03 0.  1.
</event>
<event>
 8    1  0.1082757E+005  0.1043930E+01  0.7957747E-01            NaN
         13   -1    0    0    0    0  0.00000000000E+00  0.00000000000E+00  0.74505805969E-08  0.10566000000E+00  0.10566000000E+00 0. -1.
     999900   -1    0    0    0    0 -0.00000000000E+00 -0.00000000000E+00 -0.74505805969E-08  0.93827000000E+00  0.93827000000E+00 0. -1.
     999902    2    1    2    0    0 -0.13094683101E-01  0.12035635019E-01 -0.16347222019E-01  0.10197730361E+01  0.10194868740E+01 0.  0.
     999903    2    3    3    0    0 -0.61247110860E-01 -0.89903093221E-01 -0.69898112843E-01  0.13096605004E+00  0.20798685629E-01 0.  0.
         14    1    1    2    0    0  0.13094683101E-01 -0.12035635019E-01  0.16347222019E-01  0.24156963873E-01  0.00000000000E+00 0. -1.
     999901    1    3    3    0    0  0.48152427759E-01  0.10193872824E+00  0.53550890825E-01  0.88880698609E+00  0.88000000000E+00 0.  1.
        -11    1    4    4    0    0 -0.42329709730E-01 -0.46589690869E-01 -0.46248242992E-01  0.78112513223E-01  0.51100000000E-03 0. -1.
         11    1    4    4    0    0 -0.18917401129E-01 -0.43313402352E-01 -0.23649869851E-01  0.52853536814E-01  0.51100000000E-03 0.  1.
</event>
<event>
 8    1  0.1082757E+005  0.1043930E+01  0.7957747E-01            NaN
         13   -1    0    0    0    0  0.00000000000E+00  0.00000000000E+00  0.74505805969E-08  0.10566000000E+00  0.10566000000E+00 0.  1.
     999900   -1    0    0    0    0 -0.00000000000E+00 -0.00000000000E+00 -0.74505805969E-08  0.93827000000E+00  0.93827000000E+00 0. -1.
     999902    2    1    2    0    0 -0.13314042094E-01 -0.19372704768E-01  0.44961841370E-02  0.10199971548E+01  0.10197163403E+01 0.  0.
     999903    2    3    3    0    0 -0.17306760679E-01 -0.51938197588E-01 -0.11720375191E+00  0.13101609340E+00  0.20770097104E-01 0.  0.
         14    1    1    2    0    0  0.13314042094E-01  0.19372704768E-01 -0.44961841370E-02  0.23932845186E-01  0.00000000000E+00 0. -1.
     999901    1    3    3    0    0  0.39927185850E-02  0.32565492820E-01  0.12169993605E+00  0.88898106142E+00  0.88000000000E+00 0.  1.
        -11    1    4    4    0    0 -0.12774506010E-01 -0.26937658559E-01 -0.41068087665E-01  0.50751102430E-01  0.51100000000E-03 0.  1.
         11    1    4    4    0    0 -0.45322546696E-02 -0.25000539029E-01 -0.76135664243E-01  0.80264990966E-01  0.51100000000E-03 0. -1.
</event>
<event>
 8    1  0.1082757E+005  0.1043930E+01  0.7957747E-01            NaN
         13   -1    0    0    0    0  0.00000000000E+00  0.00000000000E+00  0.74505805969E-08  0.10566000000E+00  0.10566000000E+00 0.  1.
     999900   -1    0    0    0    0 -0.00000000000E+00 -0.00000000000E+00 -0.74505805969E-08  0.93827000000E+00  0.93827000000E+00 0.  1.
     999902    2    1    2    0    0 -0.12036895432E-01 -0.16196787867E-01  0.11858112041E-01  0.10205240689E+01  0.10202556237E+01 0.  0.
     999903    2    3    3    0    0  0.11732402684E+00 -0.30852305412E-01  0.43434502664E-01  0.13038582075E+00  0.19927724580E-01 0.  0.
         14    1    1    2    0    0  0.12036895432E-01  0.16196787867E-01 -0.11858112041E-01  0.23405931086E-01  0.00000000000E+00 0. -1.
     999901    1    3    3    0    0 -0.12936092227E+00  0.14655517546E-01 -0.31576390623E-01  0.89013824817E+00  0.88000000000E+00 0. -1.
        -11    1    4    4    0    0  0.45278942808E-01 -0.79435900015E-02  0.71426710782E-02  0.46524855240E-01  0.51100000000E-03 0.  1.
         11    1    4    4    0    0  0.72045084031E-01 -0.22908715411E-01  0.36291831586E-01  0.83860965506E-01  0.51100000000E-03 0. -1.
</event>
<event>
 8    1  0.1082757E+005  0.1043930E+01  0.7957747E-01            NaN
         13   -1    0    0    0    0  0.00000000000E+00  0.00000000000E+00  0.74505805969E-08  0.10566000000E+00  0.10566000000E+00 0. -1.
     999900   -1    0    0    0    0 -0.00000000000E+00 -0.00000000000E+00 -0.74505805969E-08  0.93827000000E+00  0.93827000000E+00 0.  1.
     999902    2    1    2    0    0  0.14106334634E-01  0.84492459289E-02  0.18957123060E-01  0.10188351609E+01  0.10185260597E+01 0.  0.
     999903    2    3    3    0    0  0.10359165012E-01 -0.86141607824E-01 -0.90592664306E-01  0.12700410809E+00  0.19882749973E-01 0.  0.
         14    1    1    2    0    0 -0.14106334634E-01 -0.84492459289E-02 -0.18957123060E-01  0.25094839076E-01  0.00000000000E+00 0.  1.
     999901    1    3    3    0    0  0.37471696218E-02  0.94590853753E-01  0.10954978737E+00  0.89183105284E+00  0.88000000000E+00 0. -1.
        -11    1    4    4    0    0  0.95873687600E-02 -0.33803918129E-01 -0.48172803062E-01  0.59628035323E-01  0.51100000000E-03 0. -1.
         11    1    4    4    0    0  0.77179625197E-03 -0.52337689695E-01 -0.42419861243E-01  0.67376072763E-01  0.51100000000E-03 0.  1.
</event>
<event>
 8    1  0.1251031E+005  0.1043930E+01  0.7957747E-01            NaN
         13   -1    0    0    0    0  0.00000000000E+00  0.00000000000E+00  0.74505805969E-08  0.10566000000E+00  0.10566000000E+00 0. -1.
     999900   -1    0    0    0    0 -0.00000000000E+00 -0.00000000000E+00 -0.74505805969E-08  0.93827000000E+00  0.93827000000E+00 0. -1.
     999902    2    1    2    0    0 -0.12553404099E-01  0.11932076996E-01  0.16923908016E-01  0.10197146933E+01  0.10194271306E+01 0.  0.
     999903    2    3    3    0    0 -0.47390576613E-01 -0.62576682129E-01  0.10368026105E+00  0.13163144914E+00  0.20384650441E-01 0.  0.
         14    1    1    2    0    0  0.12553404099E-01 -0.11932076996E-01 -0.16923908016E-01  0.24215306697E-01  0.00000000000E+00 0. -1.
     999901    1    3    3    0    0  0.34837172515E-01  0.74508759125E-01 -0.86756353030E-01  0.88808324416E+00  0.88000000000E+00 0. -1.
        -11    1    4    4    0    0 -0.10344334775E-01 -0.79298439706E-02  0.29914478056E-01  0.32634717797E-01  0.51100000000E-03 0. -1.
         11    1    4    4    0    0 -0.37046241838E-01 -0.54646838158E-01  0.73765782990E-01  0.98996731341E-01  0.51100000000E-03 0.  1.
</event>
<event>
 8    1  0.1082757E+005  0.1043930E+01  0.7957747E-01            NaN
         13   -1    0    0    0    0  0.00000000000E+00  0.00000000000E+00  0.74505805969E-08  0.10566000000E+00  0.10566000000E+00 0.  1.
     999900   -1    0    0    0    0 -0.00000000000E+00 -0.00000000000E+00 -0.74505805969E-08  0.93827000000E+00  0.93827000000E+00 0. -1.
     999902    2    1    2    0    0  0.10432159081E-01  0.20935808382E-01  0.13882722336E-02  0.10204978572E+01  0.10202288034E+01 0.  0.
     999903    2    3    3    0    0  0.11621144873E+00  0.39158986378E-01 -0.46346975281E-01  0.13269157418E+00  0.20505723905E-01 0.  0.
         14    1    1    2    0    0 -0.10432159081E-01 -0.20935808382E-01 -0.13882722336E-02  0.23432142785E-01  0.00000000000E+00 0. -1.
     999901    1    3    3    0    0 -0.10577928964E+00 -0.18223177996E-01  0.47735247514E-01  0.88780628303E+00  0.88000000000E+00 0. -1.
        -11    1    4    4    0    0  0.50048569522E-02 -0.24439075078E-02 -0.23650183556E-02  0.60725373479E-02  0.51100000000E-03 0.  1.
         11    1    4    4    0    0  0.11120659177E+00  0.41602893886E-01 -0.43981956925E-01  0.12661903684E+00  0.51100000000E-03 0. -1.
</event>
<event>
 8    1  0.1082757E+005  0.1043930E+01  0.7957747E-01            NaN
         13   -1    0    0    0    0  0.00000000000E+00  0.00000000000E+00  0.74505805969E-08  0.10566000000E+00  0.10566000000E+00 0.  1.
     999900   -1    0    0    0    0 -0.00000000000E+00 -0.00000000000E+00 -0.74505805969E-08  0.93827000000E+00  0.93827000000E+00 0. -1.
     999902    2    1    2    0    0  0.52027364373E-02  0.77262612734E-03  0.24229312049E-01  0.10191363520E+01  0.10188347163E+01 0.  0.
     999903    2    3    3    0    0 -0.60149589837E-01 -0.57512964388E-01  0.99844226999E-01  0.13156339616E+00  0.20355424710E-01 0.  0.
         14    1    1    2    0    0 -0.52027364373E-02 -0.77262612734E-03 -0.24229312049E-01  0.24793647976E-01  0.00000000000E+00 0. -1.
     999901    1    3    3    0    0  0.65352326274E-01  0.58285590515E-01 -0.75614914949E-01  0.88757295586E+00  0.88000000000E+00 0. -1.
        -11    1    4    4    0    0 -0.51983439419E-01 -0.56483351546E-01  0.94439595598E-01  0.12170351397E+00  0.51100000000E-03 0.  1.
         11    1    4    4    0    0 -0.81661504179E-02 -0.10296128422E-02  0.54046314009E-02  0.98598821916E-02  0.51100000000E-03 0. -1.
</event>
<event>
 8    1  0.1082757E+005  0.1043930E+01  0.7957747E-01            NaN
         13   -1    0    0    0    0  0.00000000000E+00  0.00000000000E+00  0.74505805969E-08  0.10566000000E+00  0.10566000000E+00 0.  1.
     999900   -1    0    0    0    0 -0.00000000000E+00 -0.00000000000E+00 -0.74505805969E-08  0.93827000000E+00  0.93827000000E+00 0. -1.
     999902    2    1    2    0    0  0.10513848993E-01 -0.28218808937E-02 -0.21209419274E-01  0.10200900441E+01  0.10198114309E+01 0.  0.
     999903    2    3    3    0    0  0.71534510531E-02  0.11906161511E+00  0.45586147629E-01  0.12917561125E+00  0.19529506674E-01 0.  0.
         14    1    1    2    0    0 -0.10513848993E-01  0.28218808937E-02  0.21209419274E-01  0.23839955922E-01  0.00000000000E+00 0.  1.
     999901    1    3    3    0    0  0.33603979402E-02 -0.12188349600E+00 -0.66795566903E-01  0.89091443283E+00  0.88000000000E+00 0.  1.
        -11    1    4    4    0    0  0.73848084174E-02  0.66950452227E-01  0.15938850223E-01  0.69218541708E-01  0.51100000000E-03 0. -1.
         11    1    4    4    0    0 -0.23135736428E-03  0.52111162881E-01  0.29647297406E-01  0.59957069537E-01  0.51100000000E-03 0.  1.
</event>
<event>
 8    1  0.1082757E+005  0.1043930E+01  0.7957747E-01            NaN
         13   -1    0    0    0    0  0.00000000000E+00  0.00000000000E+00  0.74505805969E-08  0.10566000000E+00  0.10566000000E+00 0. -1.
     999900   -1    0    0    0    0 -0.00000000000E+00 -0.00000000000E+00 -0.74505805969E-08  0.93827000000E+00  0.93827000000E+00 0.  1.
     999902    2    1    2    0    0  0.15927280145E-01 -0.13088984412E-02 -0.18385036790E-01  0.10195701756E+01  0.10192791285E+01 0.  0.
     999903    2    3    3    0    0  0.12392668935E+00  0.19656272873E-01  0.32757794684E-01  0.13124647331E+00  0.20208172787E-01 0.  0.
         14    1    1    2    0    0 -0.15927280145E-01  0.13088984412E-02  0.18385036790E-01  0.24359824419E-01  0.00000000000E+00 0. -1.
     999901    1    3    3    0    0 -0.10799940921E+00 -0.20965171315E-01 -0.51142831474E-01  0.88832370227E+00  0.88000000000E+00 0. -1.
        -11    1    4    4    0    0  0.62974769514E-01  0.19199349403E-01  0.21498645951E-01  0.69259580648E-01  0.51100000000E-03 0.  1.
         11    1    4    4    0    0  0.60951919840E-01  0.45692347076E-03  0.11259148733E-01  0.61986892666E-01  0.51100000000E-03 0. -1.
</event>
<event>
 8    1  0.1082757E+005  0.1043930E+01  0.7957747E-01            NaN
         13   -1    0    0    0    0  0.00000000000E+00  0.00000000000E+00  0.74505805969E-08  0.10566000000E+00  0.10566000000E+00 0.  1.
     999900   -1    0    0    0    0 -0.00000000000E+00 -0.00000000000E+00 -0.74505805969E-08  0.93827000000E+00  0.93827000000E+00 0.  1.
     999902    2    1    2    0    0 -0.20384972358E-01  0.39733990001E-02  0.11589390315E-01  0.10201466242E+01  0.10198693474E+01 0.  0.
     999903    2    3    3    0    0 -0.72609759944E-01  0.10769918621E+00  0.17511903373E-01  0.13249717562E+00  0.19430461580E-01 0.  0.
         14    1    1    2    0    0  0.20384972358E-01 -0.39733990001E-02 -0.11589390315E-01  0.23783375823E-01  0.00000000000E+00 0. -1.
     999901    1    3    3    0    0  0.52224787585E-01 -0.10372578721E+00 -0.59225130579E-02  0.88764944856E+00  0.88000000000E+00 0.  1.
        -11    1    4    4    0    0 -0.40361546615E-01  0.63762937433E-01  0.19547424834E-01  0.77955946366E-01  0.51100000000E-03 0. -1.
         11    1    4    4    0    0 -0.32248213329E-01  0.43936248776E-01 -0.20355214611E-02  0.54541229249E-01  0.51100000000E-03 0.  1.
</event>
<event>
 8    1  0.1082757E+005  0.1043930E+01  0.7957747E-01            NaN
         13   -1    0    0    0    0  0.00000000000E+00  0.00000000000E+00  0.74505805969E-08  0.10566000000E+00  0.10566000000E+00 0.  1.
     999900   -1    0    0    0    0 -0.00000000000E+00 -0.00000000000E+00 -0.74505805969E-08  0.93827000000E+00  0.93827000000E+00 0. -1.
     999902    2    1    2    0    0 -0.37371277944E-02  0.24409679956E-02  0.23427381009E-01  0.10200811713E+01  0.10198023482E+01 0.  0.
     999903    2    3    3    0    0 -0.15689690959E-01 -0.48091465600E-01 -0.11545751151E+00  0.12767688850E+00  0.20297670455E-01 0.  0.
         14    1    1    2    0    0  0.37371277944E-02 -0.24409679956E-02 -0.23427381009E-01  0.23848828689E-01  0.00000000000E+00 0. -1.
     999901    1    3    3    0    0  0.11952563165E-01  0.50532433595E-01  0.13888489252E+00  0.89240428281E+00  0.88000000000E+00 0.  1.
        -11    1    4    4    0    0 -0.17928728768E-02 -0.35685244996E-01 -0.71503155860E-01  0.79935058156E-01  0.51100000000E-03 0.  1.
         11    1    4    4    0    0 -0.13896818083E-01 -0.12406220603E-01 -0.43954355654E-01  0.47741830342E-01  0.51100000000E-03 0. -1.
</event>
<event>
 8    1  0.1082757E+005  0.1043930E+01  0.7957747E-01            NaN
         13   -1    0    0    0    0  0.00000000000E+00  0.00000000000E+00  0.74505805969E-08  0.10566000000E+00  0.10566000000E+00 0. -1.
     999900   -1    0    0    0    0 -0.00000000000E+00 -0.00000000000E+00 -0.74505805969E-08  0.93827000000E+00  0.93827000000E+00 0.  1.
     999902    2    1    2    0    0 -0.49503657499E-02 -0.20412911417E-01  0.10789989528E-01  0.10203160857E+01  0.10200427922E+01 0.  0.
     999903    2    3    3    0    0  0.34067631250E-01  0.65315297990E-01 -0.10276455641E+00  0.12803453549E+00  0.20139428327E-01 0.  0.
         14    1    1    2    0    0  0.49503657499E-02  0.20412911417E-01 -0.10789989528E-01  0.23613914279E-01  0.00000000000E+00 0. -1.
     999901    1    3    3    0    0 -0.39017997000E-01 -0.85728209406E-01  0.11355454594E+00  0.89228155023E+00  0.88000000000E+00 0.  1.
        -11    1    4    4    0    0  0.19766061100E-03  0.16707157801E-01 -0.17440997268E-01  0.24158180772E-01  0.51100000000E-03 0.  1.
         11    1    4    4    0    0  0.33869970639E-01  0.48608140189E-01 -0.85323559144E-01  0.10387635472E+00  0.51100000000E-03 0. -1.
</event>
<event>
 8    1  0.1082757E+005  0.1043930E+01  0.7957747E-01            NaN
         13   -1    0    0    0    0  0.00000000000E+00  0.00000000000E+00  0.74505805969E-08  0.10566000000E+00  0.10566000000E+00 0. -1.
     999900   -1    0    0    0    0 -0.00000000000E+00 -0.00000000000E+00 -0.74505805969E-08  0.93827000000E+00  0.93827000000E+00 0.  1.
     999902    2    1    2    0    0 -0.21438545331E-01  0.10095802286E-01 -0.21539871040E-02  0.10201355445E+01  0.10198580064E+01 0.  0.
     999903    2    3    3    0    0 -0.47566101869E-01  0.10459109452E+00 -0.63057644048E-01  0.13259891720E+00  0.20109084249E-01 0.  0.
         14    1    1    2    0    0  0.21438545331E-01 -0.10095802286E-01  0.21539871040E-02  0.23794455450E-01  0.00000000000E+00 0.  1.
     999901    1    3    3    0    0  0.26127556538E-01 -0.94495292232E-01  0.60903656944E-01  0.88753662735E+00  0.88000000000E+00 0. -1.
        -11    1    4    4    0    0 -0.13890758081E-01  0.52933079084E-01 -0.33994189982E-01  0.64426160020E-01  0.51100000000E-03 0. -1.
         11    1    4    4    0    0 -0.33675343788E-01  0.51658015434E-01 -0.29063454065E-01  0.68172757177E-01  0.51100000000E-03 0.  1.
</event>
<event>
 8    1  0.1082757E+005  0.1043930E+01  0.7957747E-01            NaN
         13   -1    0    0    0    0  0.00000000000E+00  0.00000000000E+00  0.74505805969E-08  0.10566000000E+00  0.10566000000E+00 0. -1.
     999900   -1    0    0    0    0 -0.00000000000E+00 -0.00000000000E+00 -0.74505805969E-08  0.93827000000E+00  0.93827000000E+00 0.  1.
     999902    2    1    2    0    0 -0.15215727898E-01  0.63892425185E-02 -0.17594701812E-01  0.10198070995E+01  0.10195217535E+01 0.  0.
     999903    2    3    3    0    0  0.22307170200E-01 -0.12533183962E+00 -0.84119041874E-02  0.12916534487E+00  0.20180344864E-01 0.  0.
         14    1    1    2    0    0  0.15215727898E-01 -0.63892425185E-02  0.17594701812E-01  0.24122900474E-01  0.00000000000E+00 0. -1.
     999901    1    3    3    0    0 -0.37522898098E-01  0.13172108214E+00 -0.91827976242E-02  0.89064175465E+00  0.88000000000E+00 0. -1.
        -11    1    4    4    0    0  0.18614390338E-01 -0.50803823541E-01 -0.35224317896E-03  0.54110158106E-01  0.51100000000E-03 0. -1.
         11    1    4    4    0    0  0.36927798626E-02 -0.74528016080E-01 -0.80596610085E-02  0.75055186766E-01  0.51100000000E-03 0.  1.
</event>
<event>
 8    1  0.1082757E+005  0.1043930E+01  0.7957747E-01            NaN
         13   -1    0    0    0    0  0.00000000000E+00  0.00000000000E+00  0.74505805969E-08  0.10566000000E+00  0.10566000000E+00 0.  1.
     999900   -1    0    0    0    0 -0.00000000000E+00 -0.00000000000E+00 -0.74505805969E-08  0.93827000000E+00  0.93827000000E+00 0. -1.
     999902    2    1    2    0    0  0.14517474435E-01  0.13625983866E-02  0.19126594618E-01  0.10198792129E+01  0.10195955907E+01 0.  0.
     999903    2    3    3    0    0 -0.85824294265E-01  0.77980616342E-01 -0.50676785193E-01  0.12813300290E+00  0.20078442751E-01 0.  0.
         14    1    1    2    0    0 -0.14517474435E-01 -0.13625983866E-02 -0.19126594618E-01  0.24050787097E-01  0.00000000000E+00 0. -1.
     999901    1    3    3    0    0  0.10034176870E+00 -0.76618017956E-01  0.69803379811E-01  0.89174621000E+00  0.88000000000E+00 0.  1.
        -11    1    4    4    0    0 -0.56416446310E-01  0.58124454520E-01 -0.43437265904E-01  0.91914769312E-01  0.51100000000E-03 0. -1.
         11    1    4    4    0    0 -0.29407847955E-01  0.19856161823E-01 -0.72395192895E-02  0.36218233588E-01  0.51100000000E-03 0.  1.
</event>
<event>
 8    1  0.1082757E+005  0.1043930E+01  0.7957747E-01            NaN
         13   -1    0    0    0    0  0.00000000000E+00  0.00000000000E+00  0.74505805969E-08  0.10566000000E+00  0.10566000000E+00 0.  1.
     999900   -1    0    0    0    0 -0.00000000000E+00 -0.00000000000E+00 -0.74505805969E-08  0.93827000000E+00  0.93827000000E+00 0. -1.
     999902    2    1    2    0    0 -0.17589341407E-01  0.10689759375E-01  0.11763830980E-01  0.10202225411E+01  0.10199470525E+01 0.  0.
     999903    2    3    3    0    0 -0.54877636885E-01  0.55204633428E-02 -0.11630048102E+00  0.13015647246E+00  0.19309968680E-01 0.  0.
         14    1    1    2    0    0  0.17589341407E-01 -0.10689759375E-01 -0.11763830980E-01  0.23707458867E-01  0.00000000000E+00 0. -1.
     999901    1    3    3    0    0  0.37288295479E-01  0.51692960320E-02  0.12806431200E+00  0.89006606868E+00  0.88000000000E+00 0.  1.
        -11    1    4    4    0    0 -0.18365265154E-02  0.13794253074E-02 -0.19981694224E-01  0.20119763142E-01  0.51100000000E-03 0. -1.
         11    1    4    4    0    0 -0.53041110370E-01  0.41410380354E-02 -0.96318786798E-01  0.11003670931E+00  0.51100000000E-03 0.  1.
</event>
<event>
 8    1  0.1082757E+005  0.1043930E+01  0.7957747E-01            NaN
         13   -1    0    0    0    0  0.00000000000E+00  0.00000000000E+00  0.74505805969E-08  0.10566000000E+00  0.10566000000E+00 0.  1.
     999900   -1    0    0    0    0 -0.00000000000E+00 -0.00000000000E+00 -0.74505805969E-08  0.93827000000E+00  0.93827000000E+00 0.  1.
     999902    2    1    2    0    0  0.18511288898E-01 -0.11184791482E-01 -0.99847937706E-02  0.10201085079E+01  0.10198303312E+01 0.  0.
     999903    2    3    3    0    0  0.92798465822E-01  0.75917365765E-01 -0.50982475423E-01  0.13174699350E+00  0.19571811647E-01 0.  0.
         14    1    1    2    0    0 -0.18511288898E-01  0.11184791482E-01  0.99847937706E-02  0.23821492056E-01  0.00000000000E+00 0.  1.
     999901    1    3    3    0    0 -0.74287176924E-01 -0.87102157247E-01  0.40997681652E-01  0.88836151445E+00  0.88000000000E+00 0. -1.
        -11    1    4    4    0    0  0.60484787455E-01  0.58125380848E-01 -0.41820932721E-01  0.93734843825E-01  0.51100000000E-03 0. -1.
         11    1    4    4    0    0  0.32313678367E-01  0.17791984917E-01 -0.91615427023E-02  0.38012149671E-01  0.51100000000E-03 0.  1.
</event>
<event>
 8    1  0.1082757E+005  0.1043930E+01  0.7957747E-01            NaN
         13   -1    0    0    0    0  0.00000000000E+00  0.00000000000E+00  0.74505805969E-08  0.10566000000E+00  0.10566000000E+00 0.  1.
     999900   -1    0    0    0    0 -0.00000000000E+00 -0.00000000000E+00 -0.74505805969E-08  0.93827000000E+00  0.93827000000E+00 0. -1.
     999902    2    1    2    0    0 -0.16374858569E-01 -0.16182342130E-01 -0.79277129432E-02  0.10195814308E+01  0.10192906559E+01 0.  0.
     999903    2    3    3    0    0 -0.10681298128E+00  0.49238563906E-01 -0.54713669246E-01  0.13129776287E+00  0.20299452882E-01 0.  0.
         14    1    1    2    0    0  0.16374858569E-01  0.16182342130E-01  0.79277129432E-02  0.24348569208E-01  0.00000000000E+00 0.  1.
     999901    1    3    3    0    0  0.90438122712E-01 -0.65420906036E-01  0.46785956303E-01  0.88828366792E+00  0.88000000000E+00 0. -1.
        -11    1    4    4    0    0 -0.24953601363E-01  0.11849351566E-01 -0.22765886384E-01  0.35799944935E-01  0.51100000000E-03 0. -1.
         11    1    4    4    0    0 -0.81859379918E-01  0.37389212340E-01 -0.31947782862E-01  0.95497817937E-01  0.51100000000E-03 0.  1.
</event>
<event>
 8    1  0.1082757E+005  0.1043930E+01  0.7957747E-01            NaN
         13   -1    0    0    0    0  0.00000000000E+00  0.00000000000E+00  0.74505805969E-08  0.10566000000E+00  0.10566000000E+00 0. -1.
     999900   -1    0    0    0    0 -0.00000000000E+00 -0.00000000000E+00 -0.74505805969E-08  0.93827000000E+00  0.93827000000E+00 0.  1.
     999902    2    1    2    0    0 -0.80575159865E-03 -0.14648203915E-01 -0.16753483730E-01  0.10216612252E+01  0.10214185042E+01 0.  0.
     999903    2    3    3    0    0  0.60041386482E-01  0.10854903008E+00 -0.35703262890E-01  0.13079702298E+00  0.21101616499E-01 0.  0.
         14    1    1    2    0    0  0.80575159865E-03  0.14648203915E-01  0.16753483730E-01  0.22268774791E-01  0.00000000000E+00 0. -1.
     999901    1    3    3    0    0 -0.60847138081E-01 -0.12319723399E+00  0.18949779160E-01  0.89086420223E+00  0.88000000000E+00 0. -1.
        -11    1    4    4    0    0  0.30796192509E-01  0.74981801484E-01 -0.19118436504E-01  0.83285363433E-01  0.51100000000E-03 0.  1.
         11    1    4    4    0    0  0.29245193973E-01  0.33567228595E-01 -0.16584826386E-01  0.47511659551E-01  0.51100000000E-03 0. -1.
</event>
<event>
 8    1  0.1082757E+005  0.1043930E+01  0.7957747E-01            NaN
         13   -1    0    0    0    0  0.00000000000E+00  0.00000000000E+00  0.74505805969E-08  0.10566000000E+00  0.10566000000E+00 0. -1.
     999900   -1    0    0    0    0 -0.00000000000E+00 -0.00000000000E+00 -0.74505805969E-08  0.93827000000E+00  0.93827000000E+00 0. -1.
     999902    2    1    2    0    0 -0.97280977631E-03  0.20013314933E-01 -0.12247532219E-01  0.10204463636E+01  0.10201761121E+01 0.  0.
     999903    2    3    3    0    0  0.10565766482E+00 -0.46518276236E-01 -0.56195621274E-01  0.13043066414E+00  0.22950340707E-01 0.  0.
         14    1    1    2    0    0  0.97280977631E-03 -0.20013314933E-01  0.12247532219E-01  0.23483636407E-01  0.00000000000E+00 0. -1.
     999901    1    3    3    0    0 -0.10663047460E+00  0.66531591168E-01  0.43948089055E-01  0.89001569945E+00  0.88000000000E+00 0.  1.
        -11    1    4    4    0    0  0.36162319556E-01 -0.25468130319E-01 -0.13756240552E-01  0.46323150721E-01  0.51100000000E-03 0. -1.
         11    1    4    4    0    0  0.69495345266E-01 -0.21050145917E-01 -0.42439380722E-01  0.84107513421E-01  0.51100000000E-03 0.  1.
</event>
<event>
 8    1  0.1082757E+005  0.1043930E+01  0.7957747E-01            NaN
         13   -1    0    0    0    0  0.00000000000E+00  0.00000000000E+00  0.74505805969E-08  0.10566000000E+00  0.10566000000E+00 0.  1.
     999900   -1    0    0    0    0 -0.00000000000E+00 -0.00000000000E+00 -0.74505805969E-08  0.93827000000E+00  0.93827000000E+00 0. -1.
     999902    2    1    2    0    0  0.22693613584E-01 -0.50803825713E-02 -0.59772900875E-02  0.10199187863E+01  0.10196361078E+01 0.  0.
     999903    2    3    3    0    0  0.65594429357E-01  0.10614121154E+00 -0.35854927484E-01  0.13137874999E+00  0.20154755577E-01 0.  0.
         14    1    1    2    0    0 -0.22693613584E-01  0.50803825713E-02  0.59772900875E-02  0.24011213659E-01  0.00000000000E+00 0.  1.
     999901    1    3    3    0    0 -0.42900815772E-01 -0.11122159411E+00  0.29877637396E-01  0.88854003636E+00  0.88000000000E+00 0. -1.
        -11    1    4    4    0    0  0.52335100319E-01  0.80636289371E-01 -0.18808967062E-01  0.97955154289E-01  0.51100000000E-03 0. -1.
         11    1    4    4    0    0  0.13259329038E-01  0.25504922172E-01 -0.17045960422E-01  0.33423595696E-01  0.51100000000E-03 0.  1.
</event>
<event>
 8    1  0.1082757E+005  0.1043930E+01  0.7957747E-01            NaN
         13   -1    0    0    0    0  0.00000000000E+00  0.00000000000E+00  0.74505805969E-08  0.10566000000E+00  0.10566000000E+00 0. -1.
     999900   -1    0    0    0    0 -0.00000000000E+00 -0.00000000000E+00 -0.74505805969E-08  0.93827000000E+00  0.93827000000E+00 0. -1.
     999902    2    1    2    0    0  0.21640954862E-01 -0.90830791477E-02 -0.26230427299E-03  0.10204586971E+01  0.10201887328E+01 0.  0.
     999903    2    3    3    0    0  0.12914273506E+00  0.20077919578E-01 -0.17018866751E-01  0.13327902032E+00  0.19816320455E-01 0.  0.
         14    1    1    2    0    0 -0.21640954862E-01  0.90830791477E-02  0.26230427299E-03  0.23471302854E-01  0.00000000000E+00 0. -1.
     999901    1    3    3    0    0 -0.10750178020E+00 -0.29160998726E-01  0.16756562478E-01  0.88717967683E+00  0.88000000000E+00 0.  1.
        -11    1    4    4    0    0  0.73540164295E-01  0.16958966155E-01 -0.17956801674E-01  0.77578799585E-01  0.51100000000E-03 0.  1.
         11    1    4    4    0    0  0.55602570769E-01  0.31189534232E-02  0.93793492338E-03  0.55700220732E-01  0.51100000000E-03 0. -1.
</event>
<event>
 8    1  0.1082757E+005  0.1043930E+01  0.7957747E-01            NaN
         13   -1    0    0    0    0  0.00000000000E+00  0.00000000000E+00  0.74505805969E-08  0.10566000000E+00  0.10566000000E+00 0.  1.
     999900   -1    0    0    0    0 -0.00000000000E+00 -0.00000000000E+00 -0.74505805969E-08  0.93827000000E+00  0.93827000000E+00 0. -1.
     999902    2    1    2    0    0 -0.18696641883E-01  0.46437935007E-02  0.14251206890E-01  0.10199669840E+01  0.10196854527E+01 0.  0.
     999903    2    3    3    0    0  0.70113411109E-01  0.10581363994E+00 -0.13193175887E-01  0.12930669107E+00  0.20826513166E-01 0.  0.
         14    1    1    2    0    0  0.18696641883E-01 -0.46437935007E-02 -0.14251206890E-01  0.23963015954E-01  0.00000000000E+00 0. -1.
     999901    1    3    3    0    0 -0.88810052992E-01 -0.10116984644E+00  0.27444382777E-01  0.89066029298E+00  0.88000000000E+00 0. -1.
        -11    1    4    4    0    0  0.39890592126E-01  0.57283849869E-01  0.30415048333E-02  0.69872817810E-01  0.51100000000E-03 0.  1.
         11    1    4    4    0    0  0.30222818983E-01  0.48529790070E-01 -0.16234680720E-01  0.59433873259E-01  0.51100000000E-03 0. -1.
</event>
<event>
 8    1  0.1082757E+005  0.1043930E+01  0.7957747E-01            NaN
         13   -1    0    0    0    0  0.00000000000E+00  0.00000000000E+00  0.74505805969E-08  0.10566000000E+00  0.10566000000E+00 0.  1.
     999900   -1    0    0    0    0 -0.00000000000E+00 -0.00000000000E+00 -0.74505805969E-08  0.93827000000E+00  0.93827000000E+00 0. -1.
     999902    2    1    2    0    0  0.70333227836E-02 -0.31761879921E-02  0.21358878297E-01  0.10212197054E+01  0.10209671538E+01 0.  0.
     999903    2    3    3    0    0  0.31582130938E-01  0.54355312776E-02  0.12886946720E+00  0.13429505671E+00  0.20021155932E-01 0.  0.
         14    1    1    2    0    0 -0.70333227836E-02  0.31761879921E-02 -0.21358878297E-01  0.22710294618E-01  0.00000000000E+00 0. -1.
     999901    1    3    3    0    0 -0.24548808155E-01 -0.86117192697E-02 -0.10751058891E+00  0.88692464867E+00  0.88000000000E+00 0. -1.
        -11    1    4    4    0    0  0.16116118678E-01 -0.41687037416E-02  0.87841631498E-01  0.89406491472E-01  0.51100000000E-03 0. -1.
         11    1    4    4    0    0  0.15466012260E-01  0.96042350192E-02  0.41027835706E-01  0.44888565240E-01  0.51100000000E-03 0.  1.
</event>
<event>
 8    1  0.1082757E+005  0.1043930E+01  0.7957747E-01            NaN
         13   -1    0    0    0    0  0.00000000000E+00  0.00000000000E+00  0.74505805969E-08  0.10566000000E+00  0.10566000000E+00 0.  1.
     999900   -1    0    0    0    0 -0.00000000000E+00 -0.00000000000E+00 -0.74505805969E-08  0.93827000000E+00  0.93827000000E+00 0. -1.
     999902    2    1    2    0    0  0.28962707003E-02  0.11508722054E-01 -0.20657428954E-01  0.10201063051E+01  0.10198280763E+01 0.  0.
     999903    2    3    3    0    0 -0.12755227871E+00 -0.16088550676E-01  0.21383965128E-02  0.12977036673E+00  0.17531402570E-01 0.  0.
         14    1    1    2    0    0 -0.28962707003E-02 -0.11508722054E-01  0.20657428954E-01  0.23823694891E-01  0.00000000000E+00 0.  1.
     999901    1    3    3    0    0  0.13044854941E+00  0.27597272730E-01 -0.22795825466E-01  0.89033593838E+00  0.88000000000E+00 0.  1.
        -11    1    4    4    0    0 -0.23849516184E-01 -0.96690676627E-02  0.25592843129E-02  0.25866993425E-01  0.51100000000E-03 0. -1.
         11    1    4    4    0    0 -0.10370276252E+00 -0.64194830129E-02 -0.42088780006E-03  0.10390337331E+00  0.51100000000E-03 0.  1.
</event>
<event>
 8    1  0.1082757E+005  0.1043930E+01  0.7957747E-01            NaN
         13   -1    0    0    0    0  0.00000000000E+00  0.00000000000E+00  0.74505805969E-08  0.10566000000E+00  0.10566000000E+00 0. -1.
     999900   -1    0    0    0    0 -0.00000000000E+00 -0.00000000000E+00 -0.74505805969E-08  0.93827000000E+00  0.93827000000E+00 0. -1.
     999902    2    1    2    0    0  0.10871172477E-01 -0.98601655561E-02 -0.18433908461E-01  0.10203670155E+01  0.10200949133E+01 0.  0.
     999903    2    3    3    0    0 -0.84104543172E-01  0.75120674976E-01 -0.61629883056E-01  0.13013781918E+00  0.20516322868E-01 0.  0.
         14    1    1    2    0    0 -0.10871172477E-01  0.98601655561E-02  0.18433908461E-01  0.23562984466E-01  0.00000000000E+00 0. -1.
     999901    1    3    3    0    0  0.94975715649E-01 -0.84980840532E-01  0.43195974595E-01  0.89022919635E+00  0.88000000000E+00 0.  1.
        -11    1    4    4    0    0 -0.65962460554E-01  0.56261434826E-01 -0.56449542680E-01  0.10345630595E+00  0.51100000000E-03 0.  1.
         11    1    4    4    0    0 -0.18142082618E-01  0.18859240151E-01 -0.51803403760E-02  0.26681513229E-01  0.51100000000E-03 0. -1.
</event>
<event>
 8    1  0.1082757E+005  0.1043930E+01  0.7957747E-01            NaN
         13   -1    0    0    0    0  0.00000000000E+00  0.00000000000E+00  0.74505805969E-08  0.10566000000E+00  0.10566000000E+00 0.  1.
     999900   -1    0    0    0    0 -0.00000000000E+00 -0.00000000000E+00 -0.74505805969E-08  0.93827000000E+00  0.93827000000E+00 0.  1.
     999902    2    1    2    0    0  0.17966762079E-01  0.42781675020E-02 -0.19138405351E-01  0.10173332743E+01  0.10169855482E+01 0.  0.
     999903    2    3    3    0    0 -0.34766512585E-01  0.11881945849E+00 -0.61642081062E-02  0.12825013121E+00  0.32913896475E-01 0.  0.
         14    1    1    2    0    0 -0.17966762079E-01 -0.42781675020E-02  0.19138405351E-01  0.26596725666E-01  0.00000000000E+00 0.  1.
     999901    1    3    3    0    0  0.52733274664E-01 -0.11454129098E+00 -0.12974197245E-01  0.88908314313E+00  0.88000000000E+00 0. -1.
        -11    1    4    4    0    0 -0.39709325801E-01  0.98238065384E-01  0.79076636094E-03  0.10596430757E+00  0.51100000000E-03 0.  1.
         11    1    4    4    0    0  0.49428132153E-02  0.20581393101E-01 -0.69549744671E-02  0.22285823640E-01  0.51100000000E-03 0. -1.
</event>
<event>
 8    1  0.1082757E+005  0.1043930E+01  0.7957747E-01            NaN
         13   -1    0    0    0    0  0.00000000000E+00  0.00000000000E+00  0.74505805969E-08  0.10566000000E+00  0.10566000000E+00 0. -1.
     999900   -1    0    0    0    0 -0.00000000000E+00 -0.00000000000E+00 -0.74505805969E-08  0.93827000000E+00  0.93827000000E+00 0. -1.
     999902    2    1    2    0    0  0.73810946094E-02 -0.21308967048E-01  0.80351920655E-02  0.10199901390E+01  0.10197091579E+01 0.  0.
     999903    2    3    3    0    0  0.32419873416E-01  0.31669834523E-01 -0.11910853058E+00  0.12892380022E+00  0.19505834892E-01 0.  0.
         14    1    1    2    0    0 -0.73810946094E-02  0.21308967048E-01 -0.80351920655E-02  0.23939861023E-01  0.00000000000E+00 0. -1.
     999901    1    3    3    0    0 -0.25038778807E-01 -0.52978801571E-01  0.12714372265E+00  0.89106633876E+00  0.88000000000E+00 0.  1.
        -11    1    4    4    0    0  0.17223104830E-02  0.10604056132E-01 -0.15825897496E-01  0.19134589424E-01  0.51100000000E-03 0.  1.
         11    1    4    4    0    0  0.30697562933E-01  0.21065778391E-01 -0.10328263308E+00  0.10978921079E+00  0.51100000000E-03 0. -1.
</event>
<event>
 8    1  0.1082757E+005  0.1043930E+01  0.7957747E-01            NaN
         13   -1    0    0    0    0  0.00000000000E+00  0.00000000000E+00  0.74505805969E-08  0.10566000000E+00  0.10566000000E+00 0.  1.
     999900   -1    0    0    0    0 -0.00000000000E+00 -0.00000000000E+00 -0.74505805969E-08  0.93827000000E+00  0.93827000000E+00 0.  1.
     999902    2    1    2    0    0 -0.17887104012E-01 -0.14810988524E-01  0.24693587010E-02  0.10205759510E+01  0.10203087083E+01 0.  0.
     999903    2    3    3    0    0 -0.12617048671E+00  0.29408118695E-01  0.19877514617E-01  0.13266623473E+00  0.20527666397E-01 0.  0.
         14    1    1    2    0    0  0.17887104012E-01  0.14810988524E-01 -0.24693587010E-02  0.23354048972E-01  0.00000000000E+00 0. -1.
     999901    1    3    3    0    0  0.10828338270E+00 -0.44219107219E-01 -0.17408155916E-01  0.88790971630E+00  0.88000000000E+00 0.  1.
        -11    1    4    4    0    0 -0.10291299937E+00  0.18859881805E-01  0.93708727858E-02  0.10504691789E+00  0.51100000000E-03 0. -1.
         11    1    4    4    0    0 -0.23257487340E-01  0.10548236890E-01  0.10506641832E-01  0.27619316835E-01  0.51100000000E-03 0.  1.
</event>
<event>
 8    1  0.1082757E+005  0.1043930E+01  0.7957747E-01            NaN
         13   -1    0    0    0    0  0.00000000000E+00  0.00000000000E+00  0.74505805969E-08  0.10566000000E+00  0.10566000000E+00 0. -1.
     999900   -1    0    0    0    0 -0.00000000000E+00 -0.00000000000E+00 -0.74505805969E-08  0.93827000000E+00  0.93827000000E+00 0. -1.
     999902    2    1    2    0    0 -0.22198366260E-01 -0.88976565578E-02 -0.35414274460E-02  0.10197540312E+01  0.10194674133E+01 0.  0.
     999903    2    3    3    0    0 -0.36084015925E-01 -0.62214583878E-01 -0.10880983831E+00  0.13176926542E+00  0.18730930183E-01 0.  0.
         14    1    1    2    0    0  0.22198366260E-01  0.88976565578E-02  0.35414274460E-02  0.24175968754E-01  0.00000000000E+00 0.  1.
     999901    1    3    3    0    0  0.13885649665E-01  0.53316927320E-01  0.10526841086E+00  0.88798476582E+00  0.88000000000E+00 0.  1.
        -11    1    4    4    0    0 -0.77634424616E-02 -0.25175556779E-01 -0.51819393740E-01  0.58134244526E-01  0.51100000000E-03 0. -1.
         11    1    4    4    0    0 -0.28320573463E-01 -0.37039027099E-01 -0.56990444568E-01  0.73635020899E-01  0.51100000000E-03 0.  1.
</event>
<event>
 8    1  0.1082757E+005  0.1043930E+01  0.7957747E-01            NaN
         13   -1    0    0    0    0  0.00000000000E+00  0.00000000000E+00  0.74505805969E-08  0.10566000000E+00  0.10566000000E+00 0.  1.
     999900   -1    0    0    0    0 -0.00000000000E+00 -0.00000000000E+00 -0.74505805969E-08  0.93827000000E+00  0.93827000000E+00 0. -1.
     999902    2    1    2    0    0  0.19172350316E-01  0.12885147189E-03  0.13010567533E-01  0.10207595342E+01  0.10204965243E+01 0.  0.
     999903    2    3    3    0    0 -0.22580310954E-01  0.49127293625E-01  0.11891402957E+00  0.13207529591E+00  0.19492971528E-01 0.  0.
         14    1    1    2    0    0 -0.19172350316E-01 -0.12885147189E-03 -0.13010567533E-01  0.23170465832E-01  0.00000000000E+00 0. -1.
     999901    1    3    3    0    0  0.41752661270E-01 -0.48998442153E-01 -0.10590346204E+00  0.88868423826E+00  0.88000000000E+00 0. -1.
        -11    1    4    4    0    0  0.33859463793E-02  0.81134486742E-02  0.15316727218E-01  0.17667935249E-01  0.51100000000E-03 0.  1.
         11    1    4    4    0    0 -0.25966257333E-01  0.41013844950E-01  0.10359730235E+00  0.11440736066E+00  0.51100000000E-03 0. -1.
</event>
<event>
 8    1  0.1082757E+005  0.1043930E+01  0.7957747E-01            NaN
         13   -1    0    0    0    0  0.00000000000E+00  0.00000000000E+00  0.74505805969E-08  0.10566000000E+00  0.10566000000E+00 0.  1.
     999900   -1    0    0    0    0 -0.00000000000E+00 -0.00000000000E+00 -0.74505805969E-08  0.93827000000E+00  0.93827000000E+00 0.  1.
     999902    2    1    2    0    0 -0.98575819557E-02 -0.96962951522E-02  0.19246215818E-01  0.10202317535E+01  0.10199564815E+01 0.  0.
     999903    2    3    3    0    0  0.31936178632E-01 -0.10765315306E+00 -0.62558737750E-01  0.13004395602E+00  0.19715830184E-01 0.  0.
         14    1    1    2    0    0  0.98575819557E-02  0.96962951522E-02 -0.19246215818E-01  0.23698246454E-01  0.00000000000E+00 0. -1.
     999901    1    3    3    0    0 -0.41793760587E-01  0.97956857905E-01  0.81804953567E-01  0.89018779753E+00  0.88000000000E+00 0.  1.
        -11    1    4    4    0    0 -0.13553966237E-03 -0.10838210267E-01 -0.95567522968E-03  0.10893099143E-01  0.51100000000E-03 0. -1.
         11    1    4    4    0    0  0.32071718294E-01 -0.96814942791E-01 -0.61603062520E-01  0.11915085688E+00  0.51100000000E-03 0.  1.
</event>
<event>
 8    1  0.1082757E+005  0.1043930E+01  0.7957747E-01            NaN
         13   -1    0    0    0    0  0.00000000000E+00  0.00000000000E+00  0.74505805969E-08  0.10566000000E+00  0.10566000000E+00 0.  1.
     999900   -1    0    0    0    0 -0.00000000000E+00 -0.00000000000E+00 -0.74505805969E-08  0.93827000000E+00  0.93827000000E+00 0.  1.
     999902    2    1    2    0    0  0.18092428386E-01 -0.30139164138E-02  0.15388859551E-01  0.10199876389E+01  0.10197065984E+01 0.  0.
     999903    2    3    3    0    0 -0.51994479471E-01  0.38192272047E-01 -0.10832968479E+00  0.12762201717E+00  0.19747990295E-01 0.  0.
         14    1    1    2    0    0 -0.18092428386E-01  0.30139164138E-02 -0.15388859551E-01  0.23942361106E-01  0.00000000000E+00 0. -1.
     999901    1    3    3    0    0  0.70086907856E-01 -0.41206188461E-01  0.12371854434E+00  0.89236562172E+00  0.88000000000E+00 0. -1.
        -11    1    4    4    0    0 -0.29750342688E-01  0.31760315774E-01 -0.79584814943E-01  0.90707245789E-01  0.51100000000E-03 0. -1.
         11    1    4    4    0    0 -0.22244136782E-01  0.64319562724E-02 -0.28744869847E-01  0.36914771382E-01  0.51100000000E-03 0.  1.
</event>
<event>
 8    1  0.1377400E+005  0.1043930E+01  0.7957747E-01            NaN
         13   -1    0    0    0    0  0.00000000000E+00  0.00000000000E+00  0.74505805969E-08  0.10566000000E+00  0.10566000000E+00 0. -1.
     999900   -1    0    0    0    0 -0.00000000000E+00 -0.00000000000E+00 -0.74505805969E-08  0.93827000000E+00  0.93827000000E+00 0. -1.
     999902    2    1    2    0    0  0.44456226334E-02  0.23925526703E-02 -0.23457395037E-01  0.10199354746E+01  0.10196531935E+01 0.  0.
     999903    2    3    3    0    0  0.53531972162E-01 -0.10778727867E+00  0.43402154722E-01  0.12919462317E+00  0.17992613367E-01 0.  0.
         14    1    1    2    0    0 -0.44456226334E-02 -0.23925526703E-02  0.23457395037E-01  0.23994525434E-01  0.00000000000E+00 0. -1.
     999901    1    3    3    0    0 -0.49086349529E-01  0.11017983134E+00 -0.66859549759E-01  0.89074085139E+00  0.88000000000E+00 0.  1.
        -11    1    4    4    0    0  0.32669814489E-01 -0.46648093449E-01  0.23325749577E-01  0.61544399546E-01  0.51100000000E-03 0.  1.
         11    1    4    4    0    0  0.20862157673E-01 -0.61139185222E-01  0.20076405145E-01  0.67650223628E-01  0.51100000000E-03 0. -1.
</event>
<event>
 8    1  0.1082757E+005  0.1043930E+01  0.7957747E-01            NaN
         13   -1    0    0    0    0  0.00000000000E+00  0.00000000000E+00  0.74505805969E-08  0.10566000000E+00  0.10566000000E+00 0.  1.
     999900   -1    0    0    0    0 -0.00000000000E+00 -0.00000000000E+00 -0.74505805969E-08  0.93827000000E+00  0.93827000000E+00 0.  1.
     999902    2    1    2    0    0  0.27667947900E-02 -0.15086220284E-01  0.18550522671E-01  0.10198598715E+01  0.10195757875E+01 0.  0.
     999903    2    3    3    0    0 -0.87882318045E-01 -0.93364996359E-01  0.22649135771E-01  0.13173734216E+00  0.20035458537E-01 0.  0.
         14    1    1    2    0    0 -0.27667947900E-02  0.15086220284E-01 -0.18550522671E-01  0.24070128525E-01  0.00000000000E+00 0. -1.
     999901    1    3    3    0    0  0.90649112835E-01  0.78278776076E-01 -0.40986130997E-02  0.88812252931E+00  0.88000000000E+00 0.  1.
        -11    1    4    4    0    0 -0.33461006682E-01 -0.34492218543E-01  0.18366977611E-01  0.51448606354E-01  0.51100000000E-03 0. -1.
         11    1    4    4    0    0 -0.54421311363E-01 -0.58872777816E-01  0.42821581600E-02  0.80288735808E-01  0.51100000000E-03 0.  1.
</event>
<event>
 8    1  0.1082757E+005  0.1043930E+01  0.7957747E-01            NaN
         13   -1    0    0    0    0  0.00000000000E+00  0.00000000000E+00  0.74505805969E-08  0.10566000000E+00  0.10566000000E+00 0.  1.
     999900   -1    0    0    0    0 -0.00000000000E+00 -0.00000000000E+00 -0.74505805969E-08  0.93827000000E+00  0.93827000000E+00 0. -1.
     999902    2    1    2    0    0 -0.19535338889E-01  0.31988575238E-02  0.12906039788E-01  0.10202989184E+01  0.10200252227E+01 0.  0.
     999903    2    3    3    0    0  0.78855404312E-01 -0.98497023514E-01 -0.13933773178E-01  0.12859091342E+00  0.20533741724E-01 0.  0.
         14    1    1    2    0    0  0.19535338889E-01 -0.31988575238E-02 -0.12906039788E-01  0.23631081608E-01  0.00000000000E+00 0. -1.
     999901    1    3    3    0    0 -0.98390743201E-01  0.10169588104E+00  0.26839812966E-01  0.89170800497E+00  0.88000000000E+00 0. -1.
        -11    1    4    4    0    0  0.23002204758E-01 -0.36283523871E-01  0.37707135416E-02  0.43128585994E-01  0.51100000000E-03 0. -1.
         11    1    4    4    0    0  0.55853199555E-01 -0.62213499643E-01 -0.17704486720E-01  0.85462327428E-01  0.51100000000E-03 0.  1.
</event>
<event>
 8    1  0.1082757E+005  0.1043930E+01  0.7957747E-01            NaN
         13   -1    0    0    0    0  0.00000000000E+00  0.00000000000E+00  0.74505805969E-08  0.10566000000E+00  0.10566000000E+00 0. -1.
     999900   -1    0    0    0    0 -0.00000000000E+00 -0.00000000000E+00 -0.74505805969E-08  0.93827000000E+00  0.93827000000E+00 0. -1.
     999902    2    1    2    0    0  0.10218604695E-01  0.10298152443E-01  0.20719482551E-01  0.10186363490E+01  0.10183222686E+01 0.  0.
     999903    2    3    3    0    0  0.28753009536E-01 -0.88140230232E-01 -0.83988786540E-01  0.12678576677E+00  0.20617435520E-01 0.  0.
         14    1    1    2    0    0 -0.10218604695E-01 -0.10298152443E-01 -0.20719482551E-01  0.25293651038E-01  0.00000000000E+00 0.  1.
     999901    1    3    3    0    0 -0.18534404841E-01  0.98438382676E-01  0.10470826909E+00  0.89185058220E+00  0.88000000000E+00 0.  1.
        -11    1    4    4    0    0  0.15190269022E-01 -0.47186613988E-01 -0.31059491998E-01  0.58500204929E-01  0.51100000000E-03 0. -1.
         11    1    4    4    0    0  0.13562740514E-01 -0.40953616244E-01 -0.52929294542E-01  0.68285561837E-01  0.51100000000E-03 0.  1.
</event>
<event>
 8    1  0.1082757E+005  0.1043930E+01  0.7957747E-01            NaN
         13   -1    0    0    0    0  0.00000000000E+00  0.00000000000E+00  0.74505805969E-08  0.10566000000E+00  0.10566000000E+00 0.  1.
     999900   -1    0    0    0    0 -0.00000000000E+00 -0.00000000000E+00 -0.74505805969E-08  0.93827000000E+00  0.93827000000E+00 0.  1.
     999902    2    1    2    0    0  0.18411561707E-01 -0.10821475919E-01 -0.43975914516E-02  0.10221256712E+01  0.10218930761E+01 0.  0.
     999903    2    3    3    0    0 -0.72735544709E-01  0.53959705661E-01  0.90880384884E-01  0.12994727573E+00  0.20614092617E-01 0.  0.
         14    1    1    2    0    0 -0.18411561707E-01  0.10821475919E-01  0.43975914516E-02  0.21804328839E-01  0.00000000000E+00 0.  1.
     999901    1    3    3    0    0  0.91147106416E-01 -0.64781181580E-01 -0.95277976335E-01  0.89217839543E+00  0.88000000000E+00 0.  1.
        -11    1    4    4    0    0 -0.60366331878E-01  0.43920878629E-01  0.62352406318E-01  0.97268809485E-01  0.51100000000E-03 0. -1.
         11    1    4    4    0    0 -0.12369212831E-01  0.10038827032E-01  0.28527978565E-01  0.32678466247E-01  0.51100000000E-03 0.  1.
</event>
<event>
 8    1  0.1082757E+005  0.1043930E+01  0.7957747E-01            NaN
         13   -1    0    0    0    0  0.00000000000E+00  0.00000000000E+00  0.74505805969E-08  0.10566000000E+00  0.10566000000E+00 0. -1.
     999900   -1    0    0    0    0 -0.00000000000E+00 -0.00000000000E+00 -0.74505805969E-08  0.93827000000E+00  0.93827000000E+00 0.  1.
     999902    2    1    2    0    0  0.14257048345E-01 -0.22561304572E-02 -0.18432163304E-01  0.10205185029E+01  0.10202499285E+01 0.  0.
     999903    2    3    3    0    0  0.45186553944E-01  0.46100818614E-01 -0.11497102337E+00  0.13337996787E+00  0.20118883689E-01 0.  0.
         14    1    1    2    0    0 -0.14257048345E-01  0.22561304572E-02  0.18432163304E-01  0.23411497095E-01  0.00000000000E+00 0. -1.
     999901    1    3    3    0    0 -0.30929505599E-01 -0.48356949071E-01  0.96538860064E-01  0.88713853503E+00  0.88000000000E+00 0. -1.
        -11    1    4    4    0    0  0.44008183036E-01  0.37082236994E-01 -0.10588139087E+00  0.12051117180E+00  0.51100000000E-03 0. -1.
         11    1    4    4    0    0  0.11783709079E-02  0.90185816204E-02 -0.90896325006E-02  0.12868796076E-01  0.51100000000E-03 0.  1.
</event>
<event>
 8    1  0.1082757E+005  0.1043930E+01  0.7957747E-01            NaN
         13   -1    0    0    0    0  0.00000000000E+00  0.00000000000E+00  0.74505805969E-08  0.10566000000E+00  0.10566000000E+00 0. -1.
     999900   -1    0    0    0    0 -0.00000000000E+00 -0.00000000000E+00 -0.74505805969E-08  0.93827000000E+00  0.93827000000E+00 0.  1.
     999902    2    1    2    0    0 -0.98676356632E-02  0.15370189615E-01 -0.15039085024E-01  0.10202701809E+01  0.10199958112E+01 0.  0.
     999903    2    3    3    0    0  0.36631622023E-01  0.20377085152E-01  0.12005466827E+00  0.12873354554E+00  0.20052457278E-01 0.  0.
         14    1    1    2    0    0  0.98676356632E-02 -0.15370189615E-01  0.15039085024E-01  0.23659819119E-01  0.00000000000E+00 0. -1.
     999901    1    3    3    0    0 -0.46499257686E-01 -0.50068955371E-02 -0.13509375330E+00  0.89153663534E+00  0.88000000000E+00 0.  1.
        -11    1    4    4    0    0  0.26055380364E-01  0.21732418632E-01  0.73264833902E-01  0.80741426004E-01  0.51100000000E-03 0.  1.
         11    1    4    4    0    0  0.10576241658E-01 -0.13553334795E-02  0.46789834371E-01  0.47992119540E-01  0.51100000000E-03 0. -1.
</event>
<event>
 8    1  0.1082757E+005  0.1043930E+01  0.7957747E-01            NaN
         13   -1    0    0    0    0  0.00000000000E+00  0.00000000000E+00  0.74505805969E-08  0.10566000000E+00  0.10566000000E+00 0.  1.
     999900   -1    0    0    0    0 -0.00000000000E+00 -0.00000000000E+00 -0.74505805969E-08  0.93827000000E+00  0.93827000000E+00 0.  1.
     999902    2    1    2    0    0 -0.55777475293E-02 -0.40264484582E-02 -0.22369302896E-01  0.10205268108E+01  0.10202584291E+01 0.  0.
     999903    2    3    3    0    0 -0.38625354093E-01  0.12034324393E+00 -0.28737230181E-01  0.13114471335E+00  0.19967300894E-01 0.  0.
         14    1    1    2    0    0  0.55777475293E-02  0.40264484582E-02  0.22369302896E-01  0.23403189243E-01  0.00000000000E+00 0.  1.
     999901    1    3    3    0    0  0.33047606564E-01 -0.12436969238E+00  0.63679272858E-02  0.88938209740E+00  0.88000000000E+00 0. -1.
        -11    1    4    4    0    0 -0.26844138709E-01  0.10618764726E+00 -0.24226086795E-01  0.11217659567E+00  0.51100000000E-03 0. -1.
         11    1    4    4    0    0 -0.11781215384E-01  0.14155596670E-01 -0.45111433862E-02  0.18968117689E-01  0.51100000000E-03 0.  1.
</event>
<event>
 8    1  0.1082757E+005  0.1043930E+01  0.7957747E-01            NaN
         13   -1    0    0    0    0  0.00000000000E+00  0.00000000000E+00  0.74505805969E-08  0.10566000000E+00  0.10566000000E+00 0.  1.
     999900   -1    0    0    0    0 -0.00000000000E+00 -0.00000000000E+00 -0.74505805969E-08  0.93827000000E+00  0.93827000000E+00 0. -1.
     999902    2    1    2    0    0 -0.10211108099E-01  0.20907888793E-01  0.53354990283E-02  0.10200579642E+01  0.10197785918E+01 0.  0.
     999903    2    3    3    0    0  0.13479164038E-01  0.52950401436E-02  0.12875360945E+00  0.13099271351E+00  0.19284027968E-01 0.  0.
         14    1    1    2    0    0  0.10211108099E-01 -0.20907888793E-01 -0.53354990283E-02  0.23872035780E-01  0.00000000000E+00 0.  1.
     999901    1    3    3    0    0 -0.23690272137E-01  0.15612848649E-01 -0.12341811042E+00  0.88906525071E+00  0.88000000000E+00 0. -1.
        -11    1    4    4    0    0  0.16859134179E-01  0.89370803235E-02  0.99162699977E-01  0.10098318671E+00  0.51100000000E-03 0.  1.
         11    1    4    4    0    0 -0.33799701405E-02 -0.36420401799E-02  0.29590909469E-01  0.30009526804E-01  0.51100000000E-03 0. -1.
</event>
<event>
 8    1  0.1082757E+005  0.1043930E+01  0.7957747E-01            NaN
         13   -1    0    0    0    0  0.00000000000E+00  0.00000000000E+00  0.74505805969E-08  0.10566000000E+00  0.10566000000E+00 0.  1.
     999900   -1    0    0    0    0 -0.00000000000E+00 -0.00000000000E+00 -0.74505805969E-08  0.93827000000E+00  0.93827000000E+00 0.  1.
     999902    2    1    2    0    0 -0.17562378738E-01 -0.29841774115E-01  0.83463146024E-02  0.10083121730E+01  0.10076828910E+01 0.  0.
     999903    2    3    3    0    0  0.96718193395E-01  0.19812730821E-01  0.61298672961E-01  0.11795855157E+00  0.20242019300E-01 0.  0.
         14    1    1    2    0    0  0.17562378738E-01  0.29841774115E-01 -0.83463146024E-02  0.35617826951E-01  0.00000000000E+00 0. -1.
     999901    1    3    3    0    0 -0.11428057213E+00 -0.49654504935E-01 -0.52952358359E-01  0.89035362148E+00  0.88000000000E+00 0.  1.
        -11    1    4    4    0    0  0.54228274623E-01  0.18818981077E-01  0.42800703791E-01  0.71603220482E-01  0.51100000000E-03 0. -1.
         11    1    4    4    0    0  0.42489918772E-01  0.99374974406E-03  0.18497969170E-01  0.46355331087E-01  0.51100000000E-03 0.  1.
</event>
<event>
 8    1  0.1082757E+005  0.1043930E+01  0.7957747E-01            NaN
         13   -1    0    0    0    0  0.00000000000E+00  0.00000000000E+00  0.74505805969E-08  0.10566000000E+00  0.10566000000E+00 0. -1.
     999900   -1    0    0    0    0 -0.00000000000E+00 -0.00000000000E+00 -0.74505805969E-08  0.93827000000E+00  0.93827000000E+00 0. -1.
     999902    2    1    2    0    0 -0.20723774874E-01 -0.10636605522E-01 -0.64019559920E-02  0.10197722422E+01  0.10194860610E+01 0.  0.
     999903    2    3    3    0    0  0.10299940659E+00  0.71845620408E-01  0.63627504676E-02  0.12720645696E+00  0.19243886531E-01 0.  0.
         14    1    1    2    0    0  0.20723774874E-01  0.10636605522E-01  0.64019559920E-02  0.24157757814E-01  0.00000000000E+00 0.  1.
     999901    1    3    3    0    0 -0.12372318147E+00 -0.82482225930E-01 -0.12764706460E-01  0.89256578523E+00  0.88000000000E+00 0.  1.
        -11    1    4    4    0    0  0.46321863834E-01  0.43668709019E-01  0.55482588259E-02  0.63903955382E-01  0.51100000000E-03 0. -1.
         11    1    4    4    0    0  0.56677542757E-01  0.28176911389E-01  0.81449164165E-03  0.63302501578E-01  0.51100000000E-03 0.  1.
</event>
<event>
 8    1  0.1082757E+005  0.1043930E+01  0.7957747E-01            NaN
         13   -1    0    0    0    0  0.00000000000E+00  0.00000000000E+00  0.74505805969E-08  0.10566000000E+00  0.10566000000E+00 0. -1.
     999900   -1    0    0    0    0 -0.00000000000E+00 -0.00000000000E+00 -0.74505805969E-08  0.93827000000E+00  0.93827000000E+00 0.  1.
     999902    2    1    2    0    0  0.17368298704E-01 -0.65267002371E-02  0.15071061254E-01  0.10200261822E+01  0.10197460566E+01 0.  0.
     999903    2    3    3    0    0  0.80225236171E-01  0.26519622958E-01  0.10054380135E+00  0.13303765731E+00  0.21226948762E-01 0.  0.
         14    1    1    2    0    0 -0.17368298704E-01  0.65267002371E-02 -0.15071061254E-01  0.23903817754E-01  0.00000000000E+00 0. -1.
     999901    1    3    3    0    0 -0.62856937467E-01 -0.33046323195E-01 -0.85472740092E-01  0.88698852493E+00  0.88000000000E+00 0.  1.
        -11    1    4    4    0    0  0.59596394493E-01  0.28015962067E-01  0.82692086115E-01  0.10571124157E+00  0.51100000000E-03 0. -1.
         11    1    4    4    0    0  0.20628841678E-01 -0.14963391086E-02  0.17851715231E-01  0.27326415744E-01  0.51100000000E-03 0.  1.
</event>
<event>
 8    1  0.1082757E+005  0.1043930E+01  0.7957747E-01            NaN
         13   -1    0    0    0    0  0.00000000000E+00  0.00000000000E+00  0.74505805969E-08  0.10566000000E+00  0.10566000000E+00 0.  1.
     999900   -1    0    0    0    0 -0.00000000000E+00 -0.00000000000E+00 -0.74505805969E-08  0.93827000000E+00  0.93827000000E+00 0.  1.
     999902    2    1    2    0    0  0.13718979849E-02 -0.15980235229E-01  0.16182500029E-01  0.10211457219E+01  0.10208915035E+01 0.  0.
     999903    2    3    3    0    0 -0.75431499099E-01 -0.59535440300E-02  0.10770643826E+00  0.13301514161E+00  0.19157121719E-01 0.  0.
         14    1    1    2    0    0 -0.13718979849E-02  0.15980235229E-01 -0.16182500029E-01  0.22784278116E-01  0.00000000000E+00 0. -1.
     999901    1    3    3    0    0  0.76803397083E-01 -0.10026691199E-01 -0.91523938234E-01  0.88813058027E+00  0.88000000000E+00 0.  1.
        -11    1    4    4    0    0 -0.33964363905E-01 -0.94657006346E-03  0.32688406223E-01  0.47151532666E-01  0.51100000000E-03 0. -1.
         11    1    4    4    0    0 -0.41467135194E-01 -0.50069739665E-02  0.75018032040E-01  0.85863608949E-01  0.51100000000E-03 0.  1.
</event>
<event>
 8    1  0.1082757E+005  0.1043930E+01  0.7957747E-01            NaN
         13   -1    0    0    0    0  0.00000000000E+00  0.00000000000E+00  0.74505805969E-08  0.10566000000E+00  0.10566000000E+00 0. -1.
     999900   -1    0    0    0    0 -0.00000000000E+00 -0.00000000000E+00 -0.74505805969E-08  0.93827000000E+00  0.93827000000E+00 0. -1.
     999902    2    1    2    0    0  0.12292767712E-01 -0.13825957332E-01  0.13495431848E-01  0.10210303075E+01  0.10207734778E+01 0.  0.
     999903    2    3    3    0    0 -0.37584169985E-02 -0.11879341158E+00 -0.54249615343E-01  0.13206169257E+00  0.19268356043E-01 0.  0.
         14    1    1    2    0    0 -0.12292767712E-01  0.13825957332E-01 -0.13495431848E-01  0.22899692464E-01  0.00000000000E+00 0.  1.
     999901    1    3    3    0    0  0.16051184710E-01  0.10496745425E+00  0.67745047191E-01  0.88896861497E+00  0.88000000000E+00 0. -1.
        -11    1    4    4    0    0 -0.90287557422E-02 -0.54512306601E-01 -0.18230442884E-01  0.58186941576E-01  0.51100000000E-03 0. -1.
         11    1    4    4    0    0  0.52703387438E-02 -0.64281104983E-01 -0.36019172459E-01  0.73874750990E-01  0.51100000000E-03 0.  1.
</event>
<event>
 8    1  0.1082757E+005  0.1043930E+01  0.7957747E-01            NaN
         13   -1    0    0    0    0  0.00000000000E+00  0.00000000000E+00  0.74505805969E-08  0.10566000000E+00  0.10566000000E+00 0. -1.
     999900   -1    0    0    0    0 -0.00000000000E+00 -0.00000000000E+00 -0.74505805969E-08  0.93827000000E+00  0.93827000000E+00 0.  1.
     999902    2    1    2    0    0  0.16104236782E-01  0.17384557432E-01 -0.65638300426E-04  0.10202324561E+01  0.10199572005E+01 0.  0.
     999903    2    3    3    0    0  0.11259854186E+00 -0.81022164948E-02 -0.65693380282E-01  0.13216279267E+00  0.20181823808E-01 0.  0.
         14    1    1    2    0    0 -0.16104236782E-01 -0.17384557432E-01  0.65638300426E-04  0.23697543920E-01  0.00000000000E+00 0. -1.
     999901    1    3    3    0    0 -0.96494305074E-01  0.25486773927E-01  0.65627741982E-01  0.88806966341E+00  0.88000000000E+00 0. -1.
        -11    1    4    4    0    0  0.78369860998E-01 -0.10159438102E-01 -0.36171450059E-01  0.86911933679E-01  0.51100000000E-03 0.  1.
         11    1    4    4    0    0  0.34228680859E-01  0.20572216072E-02 -0.29521930223E-01  0.45250858988E-01  0.51100000000E-03 0. -1.
</event>
<event>
 8    1  0.1082757E+005  0.1043930E+01  0.7957747E-01            NaN
         13   -1    0    0    0    0  0.00000000000E+00  0.00000000000E+00  0.74505805969E-08  0.10566000000E+00  0.10566000000E+00 0.  1.
     999900   -1    0    0    0    0 -0.00000000000E+00 -0.00000000000E+00 -0.74505805969E-08  0.93827000000E+00  0.93827000000E+00 0. -1.
     999902    2    1    2    0    0 -0.13081311136E-01  0.14943322691E-01 -0.14262556453E-01  0.10194791491E+01  0.10191858963E+01 0.  0.
     999903    2    3    3    0    0  0.23346273677E-01 -0.73960528399E-02 -0.12733979847E+00  0.13121540486E+00  0.20057619653E-01 0.  0.
         14    1    1    2    0    0  0.13081311136E-01 -0.14943322691E-01  0.14262556453E-01  0.24450850919E-01  0.00000000000E+00 0.  1.
     999901    1    3    3    0    0 -0.36427584814E-01  0.22339375530E-01  0.11307724202E+00  0.88826374422E+00  0.88000000000E+00 0.  1.
        -11    1    4    4    0    0  0.21225113947E-01  0.24944495424E-02 -0.92145681330E-01  0.94592893228E-01  0.51100000000E-03 0. -1.
         11    1    4    4    0    0  0.21211597305E-02 -0.98905023824E-02 -0.35194117140E-01  0.36622511632E-01  0.51100000000E-03 0.  1.
</event>
<event>
 8    1  0.1082757E+005  0.1043930E+01  0.7957747E-01            NaN
         13   -1    0    0    0    0  0.00000000000E+00  0.00000000000E+00  0.74505805969E-08  0.10566000000E+00  0.10566000000E+00 0. -1.
     999900   -1    0    0    0    0 -0.00000000000E+00 -0.00000000000E+00 -0.74505805969E-08  0.93827000000E+00  0.93827000000E+00 0. -1.
     999902    2    1    2    0    0  0.30122908167E-02  0.23231140911E-03  0.20278285208E-01  0.10234278851E+01  0.10232225072E+01 0.  0.
     999903    2    3    3    0    0  0.10691751938E+00 -0.70820744122E-01 -0.29602807935E-01  0.13307236247E+00  0.19621255501E-01 0.  0.
         14    1    1    2    0    0 -0.30122908167E-02 -0.23231140911E-03 -0.20278285208E-01  0.20502114904E-01  0.00000000000E+00 0.  1.
     999901    1    3    3    0    0 -0.10390522856E+00  0.71053055531E-01  0.49881093144E-01  0.89035552263E+00  0.88000000000E+00 0.  1.
        -11    1    4    4    0    0  0.95341902368E-01 -0.63003606323E-01 -0.32472748818E-01  0.11880350708E+00  0.51100000000E-03 0. -1.
         11    1    4    4    0    0  0.11575617008E-01 -0.78171377991E-02  0.28699408834E-02  0.14268855391E-01  0.51100000000E-03 0.  1.
</event>
<event>
 8    1  0.1082757E+005  0.1043930E+01  0.7957747E-01            NaN
         13   -1    0    0    0    0  0.00000000000E+00  0.00000000000E+00  0.74505805969E-08  0.10566000000E+00  0.10566000000E+00 0.  1.
     999900   -1    0    0    0    0 -0.00000000000E+00 -0.00000000000E+00 -0.74505805969E-08  0.93827000000E+00  0.93827000000E+00 0.  1.
     999902    2    1    2    0    0 -0.11373980000E-01  0.14131542434E-02  0.25269762999E-01  0.10161824713E+01  0.10158035684E+01 0.  0.
     999903    2    3    3    0    0 -0.82826529623E-01  0.28392628709E-01 -0.88074363718E-01  0.12563193937E+00  0.18971433033E-01 0.  0.
         14    1    1    2    0    0  0.11373980000E-01 -0.14131542434E-02 -0.25269762999E-01  0.27747528682E-01  0.00000000000E+00 0. -1.
     999901    1    3    3    0    0  0.71452549623E-01 -0.26979474466E-01  0.11334412672E+00  0.89055053195E+00  0.88000000000E+00 0. -1.
        -11    1    4    4    0    0 -0.34709426734E-01  0.21474858698E-01 -0.36517866881E-01  0.54769787135E-01  0.51100000000E-03 0.  1.
         11    1    4    4    0    0 -0.48117102889E-01  0.69177700116E-02 -0.51556496837E-01  0.70862152236E-01  0.51100000000E-03 0. -1.
</event>
<event>
 8    1  0.1082757E+005  0.1043930E+01  0.7957747E-01            NaN
         13   -1    0    0    0    0  0.00000000000E+00  0.00000000000E+00  0.74505805969E-08  0.10566000000E+00  0.10566000000E+00 0. -1.
     999900   -1    0    0    0    0 -0.00000000000E+00 -0.00000000000E+00 -0.74505805969E-08  0.93827000000E+00  0.93827000000E+00 0. -1.
     999902    2    1    2    0    0  0.71335479337E-02 -0.18623588653E-01  0.12132506331E-01  0.10205864084E+01  0.10203194077E+01 0.  0.
     999903    2    3    3    0    0  0.23452190409E-01  0.12355087221E+00  0.20602172175E-01  0.12898581917E+00  0.19951661320E-01 0.  0.
         14    1    1    2    0    0 -0.71335479337E-02  0.18623588653E-01 -0.12132506331E-01  0.23343591633E-01  0.00000000000E+00 0.  1.
     999901    1    3    3    0    0 -0.16318642475E-01 -0.14217446087E+00 -0.84696658443E-02  0.89160058920E+00  0.88000000000E+00 0. -1.
        -11    1    4    4    0    0  0.40677422996E-03  0.53412227187E-01  0.10965756653E-01  0.54530178968E-01  0.51100000000E-03 0. -1.
         11    1    4    4    0    0  0.23045416179E-01  0.70138645027E-01  0.96364155222E-02  0.74455640204E-01  0.51100000000E-03 0.  1.
</event>
<event>
 8    1  0.1082757E+005  0.1043930E+01  0.7957747E-01            NaN
         13   -1    0    0    0    0  0.00000000000E+00  0.00000000000E+00  0.74505805969E-08  0.10566000000E+00  0.10566000000E+00 0.  1.
     999900   -1    0    0    0    0 -0.00000000000E+00 -0.00000000000E+00 -0.74505805969E-08  0.93827000000E+00  0.93827000000E+00 0. -1.
     999902    2    1    2    0    0 -0.14300648586E-03 -0.22055596940E-01 -0.74569994329E-02  0.10206474605E+01  0.10203818706E+01 0.  0.
     999903    2    3    3    0    0 -0.11406266373E+00  0.55781378178E-01  0.17024448013E-01  0.12956069460E+00  0.19346533234E-01 0.  0.
         14    1    1    2    0    0  0.14300648586E-03  0.22055596940E-01  0.74569994329E-02  0.23282539548E-01  0.00000000000E+00 0. -1.
     999901    1    3    3    0    0  0.11391965724E+00 -0.77836975118E-01 -0.24481447446E-01  0.89108676585E+00  0.88000000000E+00 0.  1.
        -11    1    4    4    0    0 -0.79891394602E-01  0.29302363581E-01  0.13787997392E-01  0.86206922204E-01  0.51100000000E-03 0. -1.
         11    1    4    4    0    0 -0.34171269125E-01  0.26479014597E-01  0.32364506213E-02  0.43353772400E-01  0.51100000000E-03 0.  1.
</event>
<event>
 8    1  0.1082757E+005  0.1043930E+01  0.7957747E-01            NaN
         13   -1    0    0    0    0  0.00000000000E+00  0.00000000000E+00  0.74505805969E-08  0.10566000000E+00  0.10566000000E+00 0. -1.
     999900   -1    0    0    0    0 -0.00000000000E+00 -0.00000000000E+00 -0.74505805969E-08  0.93827000000E+00  0.93827000000E+00 0. -1.
     999902    2    1    2    0    0  0.16420906501E-01  0.14766650571E-01 -0.91995247016E-02  0.10200065514E+01  0.10197259600E+01 0.  0.
     999903    2    3    3    0    0 -0.20310147047E-01  0.15903045831E-01 -0.12699763348E+00  0.13139704427E+00  0.21711181266E-01 0.  0.
         14    1    1    2    0    0 -0.16420906501E-01 -0.14766650571E-01  0.91995247016E-02  0.23923448626E-01  0.00000000000E+00 0. -1.
     999901    1    3    3    0    0  0.36731053548E-01 -0.11363952598E-02  0.11779810878E+00  0.88860950711E+00  0.88000000000E+00 0.  1.
        -11    1    4    4    0    0 -0.18455711740E-01  0.18556857231E-01 -0.12464098443E+00  0.12736014434E+00  0.51100000000E-03 0.  1.
         11    1    4    4    0    0 -0.18544353071E-02 -0.26538114002E-02 -0.23566490569E-02  0.40368999286E-02  0.51100000000E-03 0. -1.
</event>
<event>
 8    1  0.1082757E+005  0.1043930E+01  0.7957747E-01            NaN
         13   -1    0    0    0    0  0.00000000000E+00  0.00000000000E+00  0.74505805969E-08  0.10566000000E+00  0.10566000000E+00 0.  1.
     999900   -1    0    0    0    0 -0.00000000000E+00 -0.00000000000E+00 -0.74505805969E-08  0.93827000000E+00  0.93827000000E+00 0. -1.
     999902    2    1    2    0    0  0.54232477332E-02 -0.10657791839E-01  0.23184444152E-01  0.10178432487E+01  0.10175088994E+01 0.  0.
     999903    2    3    3    0    0  0.12427054103E-01  0.90662350723E-01 -0.84518225815E-01  0.12547858685E+00  0.15081503613E-01 0.  0.
         14    1    1    2    0    0 -0.54232477332E-02  0.10657791839E-01 -0.23184444152E-01  0.26086751302E-01  0.00000000000E+00 0. -1.
     999901    1    3    3    0    0 -0.70038063699E-02 -0.10132014256E+00  0.10770266997E+00  0.89236466185E+00  0.88000000000E+00 0.  1.
        -11    1    4    4    0    0  0.14041982404E-01  0.68261539775E-01 -0.69707909153E-01  0.98571135744E-01  0.51100000000E-03 0. -1.
         11    1    4    4    0    0 -0.16149283005E-02  0.22400810948E-01 -0.14810316662E-01  0.26907451108E-01  0.51100000000E-03 0.  1.
</event>
<event>
 8    1  0.1082757E+005  0.1043930E+01  0.7957747E-01            NaN
         13   -1    0    0    0    0  0.00000000000E+00  0.00000000000E+00  0.74505805969E-08  0.10566000000E+00  0.10566000000E+00 0. -1.
     999900   -1    0    0    0    0 -0.00000000000E+00 -0.00000000000E+00 -0.74505805969E-08  0.93827000000E+00  0.93827000000E+00 0.  1.
     999902    2    1    2    0    0  0.17317413615E-01  0.81000427294E-02 -0.16511727845E-01  0.10186685538E+01  0.10183552827E+01 0.  0.
     999903    2    3    3    0    0  0.20567541851E-02  0.79475790531E-01 -0.10263082531E+00  0.13145725765E+00  0.20671061131E-01 0.  0.
         14    1    1    2    0    0 -0.17317413615E-01 -0.81000427294E-02  0.16511727845E-01  0.25261446177E-01  0.00000000000E+00 0. -1.
     999901    1    3    3    0    0  0.15260659430E-01 -0.71375747802E-01  0.86119097463E-01  0.88721129617E+00  0.88000000000E+00 0. -1.
        -11    1    4    4    0    0 -0.49357886500E-02  0.26308393387E-01 -0.22157509901E-01  0.34752121348E-01  0.51100000000E-03 0. -1.
         11    1    4    4    0    0  0.69925428351E-02  0.53167397145E-01 -0.80473315407E-01  0.96705136306E-01  0.51100000000E-03 0.  1.
</event>
<event>
 8    1  0.1082757E+005  0.1043930E+01  0.7957747E-01            NaN
         13   -1    0    0    0    0  0.00000000000E+00  0.00000000000E+00  0.74505805969E-08  0.10566000000E+00  0.10566000000E+00 0.  1.
     999900   -1    0    0    0    0 -0.00000000000E+00 -0.00000000000E+00 -0.74505805969E-08  0.93827000000E+00  0.93827000000E+00 0.  1.
     999902    2    1    2    0    0 -0.21904118590E-01 -0.74104872009E-02  0.30249059655E-02  0.10206092841E+01  0.10203428125E+01 0.  0.
     999903    2    3    3    0    0  0.62526062212E-01 -0.11261244932E+00  0.73068155156E-02  0.13032043045E+00  0.18410671979E-01 0.  0.
         14    1    1    2    0    0  0.21904118590E-01  0.74104872009E-02 -0.30249059655E-02  0.23320715852E-01  0.00000000000E+00 0.  1.
     999901    1    3    3    0    0 -0.84430180802E-01  0.10520196212E+00 -0.42819095502E-02  0.89028885369E+00  0.88000000000E+00 0.  1.
        -11    1    4    4    0    0  0.11301792578E-01 -0.10608435557E-01  0.44705846727E-02  0.16140528763E-01  0.51100000000E-03 0. -1.
         11    1    4    4    0    0  0.51224269634E-01 -0.10200401376E+00  0.28362308430E-02  0.11417990169E+00  0.51100000000E-03 0.  1.
</event>
<event>
 8    1  0.1082757E+005  0.1043930E+01  0.7957747E-01            NaN
         13   -1    0    0    0    0  0.00000000000E+00  0.00000000000E+00  0.74505805969E-08  0.10566000000E+00  0.10566000000E+00 0.  1.
     999900   -1    0    0    0    0 -0.00000000000E+00 -0.00000000000E+00 -0.74505805969E-08  0.93827000000E+00  0.93827000000E+00 0. -1.
     999902    2    1    2    0    0  0.70316097887E-02 -0.16340880473E-01  0.16848506940E-01  0.10194281614E+01  0.10191336694E+01 0.  0.
     999903    2    3    3    0    0 -0.96540309248E-01 -0.17202663255E-01 -0.79766794765E-01  0.12810195754E+00  0.20770340534E-01 0.  0.
         14    1    1    2    0    0 -0.70316097887E-02  0.16340880473E-01 -0.16848506940E-01  0.24501838644E-01  0.00000000000E+00 0. -1.
     999901    1    3    3    0    0  0.10357191904E+00  0.86178278211E-03  0.96615301705E-01  0.89132620381E+00  0.88000000000E+00 0. -1.
        -11    1    4    4    0    0 -0.51129435828E-01 -0.85163947510E-02 -0.28849037237E-01  0.59323488250E-01  0.51100000000E-03 0.  1.
         11    1    4    4    0    0 -0.45410873421E-01 -0.86862685044E-02 -0.50917757528E-01  0.68778469291E-01  0.51100000000E-03 0. -1.
</event>
<event>
 8    1  0.1082757E+005  0.1043930E+01  0.7957747E-01            NaN
         13   -1    0    0    0    0  0.00000000000E+00  0.00000000000E+00  0.74505805969E-08  0.10566000000E+00  0.10566000000E+00 0.  1.
     999900   -1    0    0    0    0 -0.00000000000E+00 -0.00000000000E+00 -0.74505805969E-08  0.93827000000E+00  0.93827000000E+00 0.  1.
     999902    2    1    2    0    0  0.31919525650E-02 -0.11913638758E-01  0.29022930964E-01  0.10123950373E+01  0.10119037789E+01 0.  0.
     999903    2    3    3    0    0  0.82098597497E-01  0.42581157331E-01  0.82981836409E-01  0.12554245380E+00  0.17932870982E-01 0.  0.
         14    1    1    2    0    0 -0.31919525650E-02  0.11913638758E-01 -0.29022930964E-01  0.31534962682E-01  0.00000000000E+00 0. -1.
     999901    1    3    3    0    0 -0.78906644932E-01 -0.54494796089E-01 -0.53958905445E-01  0.88685258352E+00  0.88000000000E+00 0. -1.
        -11    1    4    4    0    0  0.16954183717E-01  0.13099343687E-01  0.28429877160E-01  0.35602755328E-01  0.51100000000E-03 0.  1.
         11    1    4    4    0    0  0.65144413780E-01  0.29481813643E-01  0.54551959249E-01  0.89939698472E-01  0.51100000000E-03 0. -1.
</event>
<event>
 8    1  0.1082757E+005  0.1043930E+01  0.7957747E-01            NaN
         13   -1    0    0    0    0  0.00000000000E+00  0.00000000000E+00  0.74505805969E-08  0.10566000000E+00  0.10566000000E+00 0.  1.
     999900   -1    0    0    0    0 -0.00000000000E+00 -0.00000000000E+00 -0.74505805969E-08  0.93827000000E+00  0.93827000000E+00 0.  1.
     999902    2    1    2    0    0 -0.48056000797E-03  0.21611986837E-01 -0.10363541281E-01  0.10199568504E+01  0.10196750781E+01 0.  0.
     999903    2    3    3    0    0 -0.33936584489E-01  0.56268735573E-01  0.11075305812E+00  0.13035602620E+00  0.20213641756E-01 0.  0.
         14    1    1    2    0    0  0.48056000797E-03 -0.21611986837E-01  0.10363541281E-01  0.23973149581E-01  0.00000000000E+00 0.  1.
     999901    1    3    3    0    0  0.33456024481E-01 -0.34656748736E-01 -0.12111659940E+00  0.88960082422E+00  0.88000000000E+00 0.  1.
        -11    1    4    4    0    0 -0.32096410495E-01  0.35532467851E-01  0.79203161955E-01  0.92553432259E-01  0.51100000000E-03 0. -1.
         11    1    4    4    0    0 -0.18401739934E-02  0.20736267722E-01  0.31549896164E-01  0.37802593937E-01  0.51100000000E-03 0.  1.
</event>
<event>
 8    1  0.1082757E+005  0.1043930E+01  0.7957747E-01            NaN
         13   -1    0    0    0    0  0.00000000000E+00  0.00000000000E+00  0.74505805969E-08  0.10566000000E+00  0.10566000000E+00 0.  1.
     999900   -1    0    0    0    0 -0.00000000000E+00 -0.00000000000E+00 -0.74505805969E-08  0.93827000000E+00  0.93827000000E+00 0. -1.
     999902    2    1    2    0    0  0.11105434526E-01 -0.20327367011E-01 -0.74849496807E-02  0.10195875063E+01  0.10192968783E+01 0.  0.
     999903    2    3    3    0    0  0.12683114691E+00 -0.17027745537E-01  0.22336908904E-01  0.13150379900E+00  0.20450616260E-01 0.  0.
         14    1    1    2    0    0 -0.11105434526E-01  0.20327367011E-01  0.74849496807E-02  0.24342493655E-01  0.00000000000E+00 0.  1.
     999901    1    3    3    0    0 -0.11572571239E+00 -0.32996214738E-02 -0.29821858585E-01  0.88808370735E+00  0.88000000000E+00 0.  1.
        -11    1    4    4    0    0  0.88598127653E-01 -0.12849398838E-01  0.60409193360E-02  0.89730090279E-01  0.51100000000E-03 0. -1.
         11    1    4    4    0    0  0.38233019261E-01 -0.41783466992E-02  0.16295989568E-01  0.41773708717E-01  0.51100000000E-03 0.  1.
</event>
<event>
 8    1  0.1082757E+005  0.1043930E+01  0.7957747E-01            NaN
         13   -1    0    0    0    0  0.00000000000E+00  0.00000000000E+00  0.74505805969E-08  0.10566000000E+00  0.10566000000E+00 0. -1.
     999900   -1    0    0    0    0 -0.00000000000E+00 -0.00000000000E+00 -0.74505805969E-08  0.93827000000E+00  0.93827000000E+00 0. -1.
     999902    2    1    2    0    0  0.14865871150E-01 -0.17348878685E-01 -0.45887880092E-02  0.10206268952E+01  0.10203608306E+01 0.  0.
     999903    2    3    3    0    0 -0.12316847128E+00  0.27514055124E-01 -0.10276641041E-01  0.12871966115E+00  0.23144033147E-01 0.  0.
         14    1    1    2    0    0 -0.14865871150E-01  0.17348878685E-01  0.45887880092E-02  0.23303104773E-01  0.00000000000E+00 0. -1.
     999901    1    3    3    0    0  0.13803434243E+00 -0.44862933809E-01  0.56878530317E-02  0.89190723407E+00  0.88000000000E+00 0.  1.
        -11    1    4    4    0    0 -0.82475578248E-01  0.22379069382E-01  0.32697740765E-02  0.85521905364E-01  0.51100000000E-03 0. -1.
         11    1    4    4    0    0 -0.40692893030E-01  0.51349857428E-02 -0.13546415117E-01  0.43197755790E-01  0.51100000000E-03 0.  1.
</event>
<event>
 7    1  0.1082757E+005  0.1043930E+01  0.7957747E-01            NaN
         13   -1    0    0    0    0  0.00000000000E+00  0.00000000000E+00  0.74505805969E-08  0.10566000000E+00  0.10566000000E+00 0.  1.
     999900   -1    0    0    0    0 -0.00000000000E+00 -0.00000000000E+00 -0.74505805969E-08  0.93827000000E+00  0.93827000000E+00 0.  1.
     999903    2    1    2    0    0  0.46477445443E-01 -0.14983691924E-01  0.66041662703E-01  0.84389691391E-01  0.19376657140E-01 0.  0.
         14    1    1    2    0    0  0.31209675670E-01 -0.20457012453E-01 -0.65526267784E-01  0.75407061895E-01  0.00000000000E+00 0. -1.
     999901    1    1    2    0    0 -0.77687121113E-01  0.35440704377E-01 -0.51539491840E-03  0.88413324671E+00  0.88000000000E+00 0.  1.
        -11    1    3    3    0    0  0.25056479797E-01  0.20762770417E-02  0.31493170646E-01  0.40301600768E-01  0.51100000000E-03 0.  1.
         11    1    3    3    0    0  0.21420965646E-01 -0.17059968966E-01  0.34548492057E-01  0.44088090622E-01  0.51100000000E-03 0. -1.
</event>
<event>
 8    1  0.1082757E+005  0.1043930E+01  0.7957747E-01            NaN
         13   -1    0    0    0    0  0.00000000000E+00  0.00000000000E+00  0.74505805969E-08  0.10566000000E+00  0.10566000000E+00 0. -1.
     999900   -1    0    0    0    0 -0.00000000000E+00 -0.00000000000E+00 -0.74505805969E-08  0.93827000000E+00  0.93827000000E+00 0.  1.
     999902    2    1    2    0    0 -0.20417472129E-02  0.13890352220E-01  0.18705086083E-01  0.10205421642E+01  0.10202741387E+01 0.  0.
     999903    2    3    3    0    0  0.65991869052E-01  0.11057135807E+00 -0.20858539655E-01  0.13175587366E+00  0.18535899223E-01 0.  0.
         14    1    1    2    0    0  0.20417472129E-02 -0.13890352220E-01 -0.18705086083E-01  0.23387835767E-01  0.00000000000E+00 0.  1.
     999901    1    3    3    0    0 -0.68033616265E-01 -0.96681005850E-01  0.39563625738E-01  0.88878629058E+00  0.88000000000E+00 0.  1.
        -11    1    4    4    0    0  0.21229390160E-01  0.46474775230E-01 -0.15479477319E-01  0.53389765670E-01  0.51100000000E-03 0. -1.
         11    1    4    4    0    0  0.44762478891E-01  0.64096582841E-01 -0.53790623360E-02  0.78366107987E-01  0.51100000000E-03 0.  1.
</event>
<event>
 8    1  0.1082757E+005  0.1043930E+01  0.7957747E-01            NaN
         13   -1    0    0    0    0  0.00000000000E+00  0.00000000000E+00  0.74505805969E-08  0.10566000000E+00  0.10566000000E+00 0. -1.
     999900   -1    0    0    0    0 -0.00000000000E+00 -0.00000000000E+00 -0.74505805969E-08  0.93827000000E+00  0.93827000000E+00 0. -1.
     999902    2    1    2    0    0 -0.17586602529E-01 -0.58887973432E-02  0.15791182691E-01  0.10195716755E+01  0.10192806647E+01 0.  0.
     999903    2    3    3    0    0  0.88282916709E-01  0.71107451833E-01  0.58314204359E-01  0.12887252040E+00  0.18906004203E-01 0.  0.
         14    1    1    2    0    0  0.17586602529E-01  0.58887973432E-02 -0.15791182691E-01  0.24358324520E-01  0.00000000000E+00 0. -1.
     999901    1    3    3    0    0 -0.10586951924E+00 -0.76996249176E-01 -0.42523021668E-01  0.89069915508E+00  0.88000000000E+00 0. -1.
        -11    1    4    4    0    0  0.14413632989E-02  0.63413868819E-02  0.23245118969E-02  0.69249687584E-02  0.51100000000E-03 0.  1.
         11    1    4    4    0    0  0.86841553411E-01  0.64766064951E-01  0.55989692462E-01  0.12194755164E+00  0.51100000000E-03 0. -1.
</event>
<event>
 8    1  0.1237683E+005  0.1043930E+01  0.7957747E-01            NaN
         13   -1    0    0    0    0  0.00000000000E+00  0.00000000000E+00  0.74505805969E-08  0.10566000000E+00  0.10566000000E+00 0.  1.
     999900   -1    0    0    0    0 -0.00000000000E+00 -0.00000000000E+00 -0.74505805969E-08  0.93827000000E+00  0.93827000000E+00 0. -1.
     999902    2    1    2    0    0  0.58216549077E-03 -0.38554089070E-02  0.23782310621E-01  0.10198301786E+01  0.10195453848E+01 0.  0.
     999903    2    3    3    0    0  0.11027612389E+00  0.19108678743E-01  0.61178502366E-01  0.13193458280E+00  0.33733660990E-01 0.  0.
         14    1    1    2    0    0 -0.58216549077E-03  0.38554089070E-02 -0.23782310621E-01  0.24099821431E-01  0.00000000000E+00 0. -1.
     999901    1    3    3    0    0 -0.10969395840E+00 -0.22964087650E-01 -0.37396191745E-01  0.88789559577E+00  0.88000000000E+00 0.  1.
        -11    1    4    4    0    0  0.63923356691E-01  0.27759288095E-01  0.38270925739E-01  0.79509109441E-01  0.51100000000E-03 0. -1.
         11    1    4    4    0    0  0.46352767197E-01 -0.86506093521E-02  0.22907576627E-01  0.52425473359E-01  0.51100000000E-03 0.  1.
</event>
<event>
 8    1  0.1082757E+005  0.1043930E+01  0.7957747E-01            NaN
         13   -1    0    0    0    0  0.00000000000E+00  0.00000000000E+00  0.74505805969E-08  0.10566000000E+00  0.10566000000E+00 0. -1.
     999900   -1    0    0    0    0 -0.00000000000E+00 -0.00000000000E+00 -0.74505805969E-08  0.93827000000E+00  0.93827000000E+00 0. -1.
     999902    2    1    2    0    0 -0.11449326844E-01  0.10692499580E-01  0.18261930458E-01  0.10198693529E+01  0.10195854954E+01 0.  0.
     999903    2    3    3    0    0  0.66142781710E-01 -0.92119863822E-01 -0.54751005151E-01  0.12750070371E+00  0.19945425510E-01 0.  0.
         14    1    1    2    0    0  0.11449326844E-01 -0.10692499580E-01 -0.18261930458E-01  0.24060647051E-01  0.00000000000E+00 0.  1.
     999901    1    3    3    0    0 -0.77592108553E-01  0.10281236340E+00  0.73012935609E-01  0.89236864924E+00  0.88000000000E+00 0.  1.
        -11    1    4    4    0    0  0.24417693647E-01 -0.34537049131E-01 -0.99576998110E-02  0.43456281850E-01  0.51100000000E-03 0.  1.
         11    1    4    4    0    0  0.41725088063E-01 -0.57582814691E-01 -0.44793305340E-01  0.84044421860E-01  0.51100000000E-03 0. -1.
</event>
<event>
 8    1  0.1082757E+005  0.1043930E+01  0.7957747E-01            NaN
         13   -1    0    0    0    0  0.00000000000E+00  0.00000000000E+00  0.74505805969E-08  0.10566000000E+00  0.10566000000E+00 0. -1.
     999900   -1    0    0    0    0 -0.00000000000E+00 -0.00000000000E+00 -0.74505805969E-08  0.93827000000E+00  0.93827000000E+00 0.  1.
     999902    2    1    2    0    0 -0.19334980869E-01  0.36037652265E-02 -0.13785578045E-01  0.10199118658E+01  0.10196290223E+01 0.  0.
     999903    2    3    3    0    0  0.98068070086E-01  0.79282902333E-01 -0.16940227465E-01  0.12888955407E+00  0.20552879814E-01 0.  0.
         14    1    1    2    0    0  0.19334980869E-01 -0.36037652265E-02  0.13785578045E-01  0.24018134213E-01  0.00000000000E+00 0.  1.
     999901    1    3    3    0    0 -0.11740305096E+00 -0.75679137106E-01  0.31546494202E-02  0.89102231172E+00  0.88000000000E+00 0. -1.
        -11    1    4    4    0    0  0.72824979577E-02  0.12548002146E-01  0.19289225852E-02  0.14644760077E-01  0.51100000000E-03 0.  1.
         11    1    4    4    0    0  0.90785572129E-01  0.66734900187E-01 -0.18869150051E-01  0.11424479399E+00  0.51100000000E-03 0. -1.
</event>
<event>
 8    1  0.1082757E+005  0.1043930E+01  0.7957747E-01            NaN
         13   -1    0    0    0    0  0.00000000000E+00  0.00000000000E+00  0.74505805969E-08  0.10566000000E+00  0.10566000000E+00 0.  1.
     999900   -1    0    0    0    0 -0.00000000000E+00 -0.00000000000E+00 -0.74505805969E-08  0.93827000000E+00  0.93827000000E+00 0.  1.
     999902    2    1    2    0    0 -0.28232466792E-02 -0.19447734527E-01  0.50004966189E-02  0.10236521780E+01  0.10234513136E+01 0.  0.
     999903    2    3    3    0    0  0.53595366836E-01  0.10478072133E+00 -0.54266798965E-01  0.13116779069E+00  0.20214869188E-01 0.  0.
         14    1    1    2    0    0  0.28232466792E-02  0.19447734527E-01 -0.50004966189E-02  0.20277822034E-01  0.00000000000E+00 0. -1.
     999901    1    3    3    0    0 -0.56418613516E-01 -0.12422845586E+00  0.59267295584E-01  0.89248438727E+00  0.88000000000E+00 0.  1.
        -11    1    4    4    0    0  0.12645629670E-01  0.28678687339E-01 -0.24424125997E-01  0.39738874027E-01  0.51100000000E-03 0.  1.
         11    1    4    4    0    0  0.40949737167E-01  0.76102033994E-01 -0.29842672968E-01  0.91428916668E-01  0.51100000000E-03 0. -1.
</event>
<event>
 8    1  0.1082757E+005  0.1043930E+01  0.7957747E-01            NaN
         13   -1    0    0    0    0  0.00000000000E+00  0.00000000000E+00  0.74505805969E-08  0.10566000000E+00  0.10566000000E+00 0.  1.
     999900   -1    0    0    0    0 -0.00000000000E+00 -0.00000000000E+00 -0.74505805969E-08  0.93827000000E+00  0.93827000000E+00 0.  1.
     999902    2    1    2    0    0 -0.29240340176E-02  0.22218818929E-01  0.80168792794E-02  0.10201288185E+01  0.10198511215E+01 0.  0.
     999903    2    3    3    0    0  0.92316200932E-01  0.85428893776E-01  0.35821689729E-01  0.13230038717E+00  0.19995553100E-01 0.  0.
         14    1    1    2    0    0  0.29240340176E-02 -0.22218818929E-01 -0.80168792794E-02  0.23801181545E-01  0.00000000000E+00 0. -1.
     999901    1    3    3    0    0 -0.95240234950E-01 -0.63210074847E-01 -0.27804810450E-01  0.88782843129E+00  0.88000000000E+00 0.  1.
        -11    1    4    4    0    0  0.16413600770E-01  0.18943316576E-01  0.15173716158E-01  0.29304578417E-01  0.51100000000E-03 0.  1.
         11    1    4    4    0    0  0.75902600162E-01  0.66485577200E-01  0.20647973571E-01  0.10299580875E+00  0.51100000000E-03 0. -1.
</event>
<event>
 8    1  0.1082757E+005  0.1043930E+01  0.7957747E-01            NaN
         13   -1    0    0    0    0  0.00000000000E+00  0.00000000000E+00  0.74505805969E-08  0.10566000000E+00  0.10566000000E+00 0.  1.
     999900   -1    0    0    0    0 -0.00000000000E+00 -0.00000000000E+00 -0.74505805969E-08  0.93827000000E+00  0.93827000000E+00 0.  1.
     999902    2    1    2    0    0 -0.22669361297E-01  0.30317878221E-02  0.85803200639E-02  0.10195022786E+01  0.10192095872E+01 0.  0.
     999903    2    3    3    0    0 -0.13255721574E-01 -0.29071091031E-01  0.12557598376E+00  0.13112893551E+00  0.20115355867E-01 0.  0.
         14    1    1    2    0    0  0.22669361297E-01 -0.30317878221E-02 -0.85803200639E-02  0.24427721371E-01  0.00000000000E+00 0. -1.
     999901    1    3    3    0    0 -0.94136397225E-02  0.32102878853E-01 -0.11699566370E+00  0.88837334312E+00  0.88000000000E+00 0.  1.
        -11    1    4    4    0    0 -0.34336484573E-02 -0.27572908918E-01  0.90764188865E-01  0.94923413072E-01  0.51100000000E-03 0. -1.
         11    1    4    4    0    0 -0.98220731170E-02 -0.14981821133E-02  0.34811794896E-01  0.36205522435E-01  0.51100000000E-03 0.  1.
</event>
<event>
 8    1  0.1082757E+005  0.1043930E+01  0.7957747E-01            NaN
         13   -1    0    0    0    0  0.00000000000E+00  0.00000000000E+00  0.74505805969E-08  0.10566000000E+00  0.10566000000E+00 0. -1.
     999900   -1    0    0    0    0 -0.00000000000E+00 -0.00000000000E+00 -0.74505805969E-08  0.93827000000E+00  0.93827000000E+00 0. -1.
     999902    2    1    2    0    0  0.18807869712E-01  0.86366055534E-02 -0.10880451334E-01  0.10205481451E+01  0.10202802582E+01 0.  0.
     999903    2    3    3    0    0  0.85518324026E-01 -0.84716411352E-01 -0.50560369560E-01  0.13221286693E+00  0.20823955336E-01 0.  0.
         14    1    1    2    0    0 -0.18807869712E-01 -0.86366055534E-02  0.10880451334E-01  0.23381854927E-01  0.00000000000E+00 0. -1.
     999901    1    3    3    0    0 -0.66710454314E-01  0.93353016905E-01  0.39679918226E-01  0.88833527814E+00  0.88000000000E+00 0.  1.
        -11    1    4    4    0    0  0.66473123210E-01 -0.76556717797E-01 -0.43355153844E-01  0.11027029353E+00  0.51100000000E-03 0.  1.
         11    1    4    4    0    0  0.19045200816E-01 -0.81596935546E-02 -0.72052157158E-02  0.21942573403E-01  0.51100000000E-03 0. -1.
</event>
<event>
 8    1  0.1082757E+005  0.1043930E+01  0.7957747E-01            NaN
         13   -1    0    0    0    0  0.00000000000E+00  0.00000000000E+00  0.74505805969E-08  0.10566000000E+00  0.10566000000E+00 0. -1.
     999900   -1    0    0    0    0 -0.00000000000E+00 -0.00000000000E+00 -0.74505805969E-08  0.93827000000E+00  0.93827000000E+00 0.  1.
     999902    2    1    2    0    0  0.83886964197E-02 -0.10942815521E-01 -0.19307592381E-01  0.10202045166E+01  0.10199286039E+01 0.  0.
     999903    2    3    3    0    0 -0.11118522301E+00  0.59458650551E-01  0.15604951457E-01  0.12864791472E+00  0.20230830724E-01 0.  0.
         14    1    1    2    0    0 -0.83886964197E-02  0.10942815521E-01  0.19307592381E-01  0.23725483403E-01  0.00000000000E+00 0. -1.
     999901    1    3    3    0    0  0.11957391943E+00 -0.70401466072E-01 -0.34912543838E-01  0.89155660188E+00  0.88000000000E+00 0.  1.
        -11    1    4    4    0    0 -0.52243372167E-01  0.38867786336E-01  0.11009205051E-01  0.66041944753E-01  0.51100000000E-03 0.  1.
         11    1    4    4    0    0 -0.58941850840E-01  0.20590864215E-01  0.45957464057E-02  0.62605969968E-01  0.51100000000E-03 0. -1.
</event>
<event>
 8    1  0.1082757E+005  0.1043930E+01  0.7957747E-01            NaN
         13   -1    0    0    0    0  0.00000000000E+00  0.00000000000E+00  0.74505805969E-08  0.10566000000E+00  0.10566000000E+00 0.  1.
     999900   -1    0    0    0    0 -0.00000000000E+00 -0.00000000000E+00 -0.74505805969E-08  0.93827000000E+00  0.93827000000E+00 0. -1.
     999902    2    1    2    0    0  0.22326073348E-01  0.81205771915E-02 -0.19860443678E-02  0.10200900819E+01  0.10198114695E+01 0.  0.
     999903    2    3    3    0    0  0.25902556945E-01 -0.12357790867E+00  0.23848672499E-01  0.12990767638E+00  0.19099822954E-01 0.  0.
         14    1    1    2    0    0 -0.22326073348E-01 -0.81205771915E-02  0.19860443678E-02  0.23839918148E-01  0.00000000000E+00 0. -1.
     999901    1    3    3    0    0 -0.35764835970E-02  0.13169848586E+00 -0.25834716867E-01  0.89018240547E+00  0.88000000000E+00 0.  1.
        -11    1    4    4    0    0 -0.16267498819E-02 -0.18651399151E-01  0.76265758602E-02  0.20222432737E-01  0.51100000000E-03 0. -1.
         11    1    4    4    0    0  0.27529306827E-01 -0.10492650951E+00  0.16222096639E-01  0.10968524365E+00  0.51100000000E-03 0.  1.
</event>
<event>
 8    1  0.1082757E+005  0.1043930E+01  0.7957747E-01            NaN
         13   -1    0    0    0    0  0.00000000000E+00  0.00000000000E+00  0.74505805969E-08  0.10566000000E+00  0.10566000000E+00 0.  1.
     999900   -1    0    0    0    0 -0.00000000000E+00 -0.00000000000E+00 -0.74505805969E-08  0.93827000000E+00  0.93827000000E+00 0. -1.
     999902    2    1    2    0    0  0.17673742497E-02 -0.11880826883E-01  0.20233427654E-01  0.10203998225E+01  0.10201284863E+01 0.  0.
     999903    2    3    3    0    0  0.54603843974E-01  0.10921729572E-01 -0.11392767106E+00  0.12837356193E+00  0.19984824620E-01 0.  0.
         14    1    1    2    0    0 -0.17673742497E-02  0.11880826883E-01 -0.20233427654E-01  0.23530177513E-01  0.00000000000E+00 0. -1.
     999901    1    3    3    0    0 -0.52836469725E-01 -0.22802556455E-01  0.13416109872E+00  0.89202626056E+00  0.88000000000E+00 0.  1.
        -11    1    4    4    0    0  0.17620176771E-01  0.13157936929E-01 -0.46299536994E-01  0.51259244830E-01  0.51100000000E-03 0. -1.
         11    1    4    4    0    0  0.36983667203E-01 -0.22362073569E-02 -0.67628134069E-01  0.77114317100E-01  0.51100000000E-03 0.  1.
</event>
<event>
 8    1  0.1256994E+005  0.1043930E+01  0.7957747E-01            NaN
         13   -1    0    0    0    0  0.00000000000E+00  0.00000000000E+00  0.74505805969E-08  0.10566000000E+00  0.10566000000E+00 0. -1.
     999900   -1    0    0    0    0 -0.00000000000E+00 -0.00000000000E+00 -0.74505805969E-08  0.93827000000E+00  0.93827000000E+00 0. -1.
     999902    2    1    2    0    0 -0.19672804992E-01  0.13642087752E-01  0.73526145519E-02  0.10188863031E+01  0.10185784760E+01 0.  0.
     999903    2    3    3    0    0  0.74978982152E-02 -0.54212410051E-01  0.11340850360E+00  0.12950993079E+00  0.30267632942E-01 0.  0.
         14    1    1    2    0    0  0.19672804992E-01 -0.13642087752E-01 -0.73526145519E-02  0.25043696916E-01  0.00000000000E+00 0.  1.
     999901    1    3    3    0    0 -0.27170703207E-01  0.67854497803E-01 -0.10605588905E+00  0.88937637229E+00  0.88000000000E+00 0. -1.
        -11    1    4    4    0    0  0.15802056006E-01 -0.37134837686E-01  0.55917636744E-01  0.68961905166E-01  0.51100000000E-03 0.  1.
         11    1    4    4    0    0 -0.83041577906E-02 -0.17077572365E-01  0.57490866857E-01  0.60548025628E-01  0.51100000000E-03 0. -1.
</event>
<event>
 8    1  0.1082757E+005  0.1043930E+01  0.7957747E-01            NaN
         13   -1    0    0    0    0  0.00000000000E+00  0.00000000000E+00  0.74505805969E-08  0.10566000000E+00  0.10566000000E+00 0. -1.
     999900   -1    0    0    0    0 -0.00000000000E+00 -0.00000000000E+00 -0.74505805969E-08  0.93827000000E+00  0.93827000000E+00 0.  1.
     999902    2    1    2    0    0 -0.18412954679E-02  0.67328657710E-03  0.24121307308E-01  0.10197291498E+01  0.10194419345E+01 0.  0.
     999903    2    3    3    0    0  0.90900322898E-01  0.30270347511E-01 -0.82552455469E-01  0.12795771863E+00  0.19470675710E-01 0.  0.
         14    1    1    2    0    0  0.18412954679E-02 -0.67328657710E-03 -0.24121307308E-01  0.24200850193E-01  0.00000000000E+00 0.  1.
     999901    1    3    3    0    0 -0.92741618366E-01 -0.29597060934E-01  0.10667376278E+00  0.89177143117E+00  0.88000000000E+00 0. -1.
        -11    1    4    4    0    0  0.67815510229E-01  0.14034966926E-01 -0.54116136718E-01  0.87890506305E-01  0.51100000000E-03 0. -1.
         11    1    4    4    0    0  0.23084812669E-01  0.16235380585E-01 -0.28436318750E-01  0.40067212329E-01  0.51100000000E-03 0.  1.
</event>
<event>
 8    1  0.1082757E+005  0.1043930E+01  0.7957747E-01            NaN
         13   -1    0    0    0    0  0.00000000000E+00  0.00000000000E+00  0.74505805969E-08  0.10566000000E+00  0.10566000000E+00 0.  1.
     999900   -1    0    0    0    0 -0.00000000000E+00 -0.00000000000E+00 -0.74505805969E-08  0.93827000000E+00  0.93827000000E+00 0. -1.
     999902    2    1    2    0    0 -0.10718864102E-01 -0.19452235985E-01  0.49928549763E-02  0.10211657268E+01  0.10209119597E+01 0.  0.
     999903    2    3    3    0    0 -0.96574919776E-01 -0.64224566603E-01  0.64488930972E-01  0.13385765916E+00  0.17536835867E-01 0.  0.
         14    1    1    2    0    0  0.10718864102E-01  0.19452235985E-01 -0.49928549763E-02  0.22764273176E-01  0.00000000000E+00 0. -1.
     999901    1    3    3    0    0  0.85856055675E-01  0.44772330618E-01 -0.59496075996E-01  0.88730806767E+00  0.88000000000E+00 0. -1.
        -11    1    4    4    0    0 -0.22572068566E-01 -0.24354620577E-01  0.16959126903E-01  0.37289662496E-01  0.51100000000E-03 0. -1.
         11    1    4    4    0    0 -0.74002851211E-01 -0.39869946026E-01  0.47529804070E-01  0.96567996662E-01  0.51100000000E-03 0.  1.
</event>
<event>
 8    1  0.1082757E+005  0.1043930E+01  0.7957747E-01            NaN
         13   -1    0    0    0    0  0.00000000000E+00  0.00000000000E+00  0.74505805969E-08  0.10566000000E+00  0.10566000000E+00 0. -1.
     999900   -1    0    0    0    0 -0.00000000000E+00 -0.00000000000E+00 -0.74505805969E-08  0.93827000000E+00  0.93827000000E+00 0. -1.
     999902    2    1    2    0    0  0.12530681491E-01 -0.15415118658E-01 -0.15268563956E-01  0.10188746032E+01  0.10185664849E+01 0.  0.
     999903    2    3    3    0    0  0.71265663136E-01  0.10486507370E+00  0.77020311837E-02  0.12845629087E+00  0.19136848115E-01 0.  0.
         14    1    1    2    0    0 -0.12530681491E-01  0.15415118658E-01  0.15268563956E-01  0.25055396768E-01  0.00000000000E+00 0. -1.
     999901    1    3    3    0    0 -0.58734981644E-01 -0.12028019236E+00 -0.22970595140E-01  0.89041831236E+00  0.88000000000E+00 0.  1.
        -11    1    4    4    0    0  0.15200808448E-01  0.15983645755E-01 -0.49428864604E-02  0.22610501027E-01  0.51100000000E-03 0. -1.
         11    1    4    4    0    0  0.56064854687E-01  0.88881427947E-01  0.12644917644E-01  0.10584578985E+00  0.51100000000E-03 0.  1.
</event>
<event>
 8    1  0.1082757E+005  0.1043930E+01  0.7957747E-01            NaN
         13   -1    0    0    0    0  0.00000000000E+00  0.00000000000E+00  0.74505805969E-08  0.10566000000E+00  0.10566000000E+00 0. -1.
     999900   -1    0    0    0    0 -0.00000000000E+00 -0.00000000000E+00 -0.74505805969E-08  0.93827000000E+00  0.93827000000E+00 0.  1.
     999902    2    1    2    0    0  0.13006549370E-02  0.22399428766E-01  0.16117801983E-02  0.10214350239E+01  0.10211872914E+01 0.  0.
     999903    2    3    3    0    0 -0.81309711937E-01 -0.98601496688E-01 -0.46826880404E-02  0.12929976682E+00  0.19051974377E-01 0.  0.
         14    1    1    2    0    0 -0.13006549370E-02 -0.22399428766E-01 -0.16117801983E-02  0.22494976055E-01  0.00000000000E+00 0.  1.
     999901    1    3    3    0    0  0.82610366874E-01  0.12100092545E+00  0.62944682387E-02  0.89213525713E+00  0.88000000000E+00 0.  1.
        -11    1    4    4    0    0 -0.53254441579E-01 -0.63698469956E-01 -0.12100183457E-01  0.83905936520E-01  0.51100000000E-03 0.  1.
         11    1    4    4    0    0 -0.28055270359E-01 -0.34903026732E-01  0.74174954166E-02  0.45393830299E-01  0.51100000000E-03 0. -1.
</event>
<event>
 8    1  0.1140410E+005  0.1043930E+01  0.7957747E-01            NaN
         13   -1    0    0    0    0  0.00000000000E+00  0.00000000000E+00  0.74505805969E-08  0.10566000000E+00  0.10566000000E+00 0. -1.
     999900   -1    0    0    0    0 -0.00000000000E+00 -0.00000000000E+00 -0.74505805969E-08  0.93827000000E+00  0.93827000000E+00 0. -1.
     999902    2    1    2    0    0  0.17127253085E-01 -0.15696401870E-01  0.19023766915E-02  0.10206203697E+01  0.10203541542E+01 0.  0.
     999903    2    3    3    0    0 -0.39675317292E-02 -0.14632729199E-02  0.12963105867E+00  0.13103496728E+00  0.18656602140E-01 0.  0.
         14    1    1    2    0    0 -0.17127253085E-01  0.15696401870E-01 -0.19023766915E-02  0.23309630348E-01  0.00000000000E+00 0.  1.
     999901    1    3    3    0    0  0.21094784814E-01 -0.14233128950E-01 -0.12772868198E+00  0.88958540237E+00  0.88000000000E+00 0. -1.
        -11    1    4    4    0    0 -0.44646207947E-02 -0.94452517459E-02  0.55943818742E-01  0.56913246225E-01  0.51100000000E-03 0.  1.
         11    1    4    4    0    0  0.49708906552E-03  0.79819788260E-02  0.73687239928E-01  0.74121721059E-01  0.51100000000E-03 0. -1.
</event>
<event>
 8    1  0.1171973E+005  0.1043930E+01  0.7957747E-01            NaN
         13   -1    0    0    0    0  0.00000000000E+00  0.00000000000E+00  0.74505805969E-08  0.10566000000E+00  0.10566000000E+00 0.  1.
     999900   -1    0    0    0    0 -0.00000000000E+00 -0.00000000000E+00 -0.74505805969E-08  0.93827000000E+00  0.93827000000E+00 0.  1.
     999902    2    1    2    0    0  0.19868160110E-01  0.12460534543E-02  0.19350867984E-01  0.10161675699E+01  0.10157882543E+01 0.  0.
     999903    2    3    3    0    0 -0.69758833504E-01 -0.53200518032E-01  0.89718644434E-01  0.12715179324E+00  0.20531765464E-01 0.  0.
         14    1    1    2    0    0 -0.19868160110E-01 -0.12460534543E-02 -0.19350867984E-01  0.27762430137E-01  0.00000000000E+00 0. -1.
     999901    1    3    3    0    0  0.89626993614E-01  0.54446571486E-01 -0.70367776450E-01  0.88901577663E+00  0.88000000000E+00 0.  1.
        -11    1    4    4    0    0 -0.36353722104E-01 -0.15436568856E-01  0.35433092280E-01  0.53062660302E-01  0.51100000000E-03 0.  1.
         11    1    4    4    0    0 -0.33405111400E-01 -0.37763949176E-01  0.54285552154E-01  0.74089132933E-01  0.51100000000E-03 0. -1.
</event>
<event>
 8    1  0.1082757E+005  0.1043930E+01  0.7957747E-01            NaN
         13   -1    0    0    0    0  0.00000000000E+00  0.00000000000E+00  0.74505805969E-08  0.10566000000E+00  0.10566000000E+00 0.  1.
     999900   -1    0    0    0    0 -0.00000000000E+00 -0.00000000000E+00 -0.74505805969E-08  0.93827000000E+00  0.93827000000E+00 0. -1.
     999902    2    1    2    0    0 -0.12789883348E-01 -0.98355925473E-02 -0.18408544358E-01  0.10194515502E+01  0.10191576271E+01 0.  0.
     999903    2    3    3    0    0  0.10963339433E+00  0.61350277074E-01 -0.14371537161E-01  0.12812041965E+00  0.20614635578E-01 0.  0.
         14    1    1    2    0    0  0.12789883348E-01  0.98355925473E-02  0.18408544358E-01  0.24478449751E-01  0.00000000000E+00 0.  1.
     999901    1    3    3    0    0 -0.12242327768E+00 -0.71185869621E-01 -0.40370071972E-02  0.89133113060E+00  0.88000000000E+00 0. -1.
        -11    1    4    4    0    0  0.23725393875E-01  0.60039896841E-02 -0.78985993180E-02  0.25721415180E-01  0.51100000000E-03 0. -1.
         11    1    4    4    0    0  0.85908000459E-01  0.55346287390E-01 -0.64729378429E-02  0.10239900447E+00  0.51100000000E-03 0.  1.
</event>
<event>
 8    1  0.1082757E+005  0.1043930E+01  0.7957747E-01            NaN
         13   -1    0    0    0    0  0.00000000000E+00  0.00000000000E+00  0.74505805969E-08  0.10566000000E+00  0.10566000000E+00 0. -1.
     999900   -1    0    0    0    0 -0.00000000000E+00 -0.00000000000E+00 -0.74505805969E-08  0.93827000000E+00  0.93827000000E+00 0.  1.
     999902    2    1    2    0    0  0.35841706923E-02 -0.22682072798E-01 -0.42758719189E-02  0.10205717940E+01  0.10203044550E+01 0.  0.
     999903    2    3    3    0    0  0.95570392472E-01  0.47271442262E-02  0.86460952809E-01  0.13071455741E+00  0.21324946655E-01 0.  0.
         14    1    1    2    0    0 -0.35841706923E-02  0.22682072798E-01  0.42758719189E-02  0.23358205981E-01  0.00000000000E+00 0. -1.
     999901    1    3    3    0    0 -0.91986221780E-01 -0.27409217024E-01 -0.90736824728E-01  0.88985723660E+00  0.88000000000E+00 0.  1.
        -11    1    4    4    0    0  0.69574708280E-01  0.61127220322E-02  0.74308964381E-01  0.10198082521E+00  0.51100000000E-03 0. -1.
         11    1    4    4    0    0  0.25995684192E-01 -0.13855778060E-02  0.12151988427E-01  0.28733732201E-01  0.51100000000E-03 0.  1.
</event>
<event>
 8    1  0.1082757E+005  0.1043930E+01  0.7957747E-01            NaN
         13   -1    0    0    0    0  0.00000000000E+00  0.00000000000E+00  0.74505805969E-08  0.10566000000E+00  0.10566000000E+00 0. -1.
     999900   -1    0    0    0    0 -0.00000000000E+00 -0.00000000000E+00 -0.74505805969E-08  0.93827000000E+00  0.93827000000E+00 0. -1.
     999902    2    1    2    0    0 -0.15983585255E-02 -0.72403958142E-02 -0.19351473748E-01  0.10232066408E+01  0.10229967606E+01 0.  0.
     999903    2    3    3    0    0  0.12661042697E+00 -0.36185853509E-01 -0.81564941798E-02  0.13337482533E+00  0.19562704882E-01 0.  0.
         14    1    1    2    0    0  0.15983585255E-02  0.72403958142E-02  0.19351473748E-01  0.20723359229E-01  0.00000000000E+00 0. -1.
     999901    1    3    3    0    0 -0.12820878550E+00  0.28945457695E-01 -0.11194979568E-01  0.88983181544E+00  0.88000000000E+00 0. -1.
        -11    1    4    4    0    0  0.51371341416E-01 -0.24684924759E-01 -0.44420796713E-02  0.57169514796E-01  0.51100000000E-03 0. -1.
         11    1    4    4    0    0  0.75239085558E-01 -0.11500928751E-01 -0.37144145086E-02  0.76205310535E-01  0.51100000000E-03 0.  1.
</event>
<event>
 8    1  0.1082757E+005  0.1043930E+01  0.7957747E-01            NaN
         13   -1    0    0    0    0  0.00000000000E+00  0.00000000000E+00  0.74505805969E-08  0.10566000000E+00  0.10566000000E+00 0.  1.
     999900   -1    0    0    0    0 -0.00000000000E+00 -0.00000000000E+00 -0.74505805969E-08  0.93827000000E+00  0.93827000000E+00 0. -1.
     999902    2    1    2    0    0  0.13796569683E-01 -0.47961496144E-02  0.18477849751E-01  0.10203762462E+01  0.10201043596E+01 0.  0.
     999903    2    3    3    0    0  0.15840110044E-01  0.97344527759E-01  0.85307544201E-01  0.13194892668E+00  0.20156288921E-01 0.  0.
         14    1    1    2    0    0 -0.13796569683E-01  0.47961496144E-02 -0.18477849751E-01  0.23553753789E-01  0.00000000000E+00 0.  1.
     999901    1    3    3    0    0 -0.20435403609E-02 -0.10214067737E+00 -0.66829694451E-01  0.88842731953E+00  0.88000000000E+00 0. -1.
        -11    1    4    4    0    0  0.20567962197E-01  0.73472352878E-01  0.63440333211E-01  0.99227842390E-01  0.51100000000E-03 0.  1.
         11    1    4    4    0    0 -0.47278521533E-02  0.23872174881E-01  0.21867210990E-01  0.32721084289E-01  0.51100000000E-03 0. -1.
</event>
<event>
 8    1  0.1082757E+005  0.1043930E+01  0.7957747E-01            NaN
         13   -1    0    0    0    0  0.00000000000E+00  0.00000000000E+00  0.74505805969E-08  0.10566000000E+00  0.10566000000E+00 0.  1.
     999900   -1    0    0    0    0 -0.00000000000E+00 -0.00000000000E+00 -0.74505805969E-08  0.93827000000E+00  0.93827000000E+00 0. -1.
     999902    2    1    2    0    0 -0.20718324130E-01 -0.18832871931E-01 -0.98359896997E-02  0.10142538696E+01  0.10138196286E+01 0.  0.
     999903    2    3    3    0    0  0.10030183275E+00  0.36820151174E-01  0.54619119836E-01  0.12189878420E+00  0.21444909710E-01 0.  0.
         14    1    1    2    0    0  0.20718324130E-01  0.18832871931E-01  0.98359896997E-02  0.29676130363E-01  0.00000000000E+00 0.  1.
     999901    1    3    3    0    0 -0.12102015688E+00 -0.55653023105E-01 -0.64455109536E-01  0.89235508543E+00  0.88000000000E+00 0.  1.
        -11    1    4    4    0    0  0.88266842089E-01  0.36150839175E-01  0.41339818906E-01  0.10395749292E+00  0.51100000000E-03 0.  1.
         11    1    4    4    0    0  0.12034990665E-01  0.66931199915E-03  0.13279300930E-01  0.17941291287E-01  0.51100000000E-03 0. -1.
</event>
<event>
 8    1  0.1082757E+005  0.1043930E+01  0.7957747E-01            NaN
         13   -1    0    0    0    0  0.00000000000E+00  0.00000000000E+00  0.74505805969E-08  0.10566000000E+00  0.10566000000E+00 0.  1.
     999900   -1    0    0    0    0 -0.00000000000E+00 -0.00000000000E+00 -0.74505805969E-08  0.93827000000E+00  0.93827000000E+00 0. -1.
     999902    2    1    2    0    0  0.21965287665E-01 -0.69783332593E-02  0.57704403740E-02  0.10201714441E+01  0.10198947526E+01 0.  0.
     999903    2    3    3    0    0  0.70537501638E-01 -0.64019619635E-02  0.11128105931E+00  0.13253859043E+00  0.12902694955E-01 0.  0.
         14    1    1    2    0    0 -0.21965287665E-01  0.69783332593E-02 -0.57704403740E-02  0.23758555920E-01  0.00000000000E+00 0.  1.
     999901    1    3    3    0    0 -0.48572213973E-01 -0.57637129579E-03 -0.10551061894E+00  0.88763285365E+00  0.88000000000E+00 0. -1.
        -11    1    4    4    0    0  0.24269485938E-01  0.79476477330E-03  0.48232955061E-01  0.54002950602E-01  0.51100000000E-03 0.  1.
         11    1    4    4    0    0  0.46268015700E-01 -0.71967267368E-02  0.63048104249E-01  0.78535639826E-01  0.51100000000E-03 0. -1.
</event>
<event>
 8    1  0.1082757E+005  0.1043930E+01  0.7957747E-01            NaN
         13   -1    0    0    0    0  0.00000000000E+00  0.00000000000E+00  0.74505805969E-08  0.10566000000E+00  0.10566000000E+00 0.  1.
     999900   -1    0    0    0    0 -0.00000000000E+00 -0.00000000000E+00 -0.74505805969E-08  0.93827000000E+00  0.93827000000E+00 0. -1.
     999902    2    1    2    0    0 -0.91214137633E-03 -0.47231014800E-03 -0.22620022933E-01  0.10212866673E+01  0.10210356195E+01 0.  0.
     999903    2    3    3    0    0  0.14453728083E-01  0.10916752306E+00  0.65136488737E-01  0.13001891386E+00  0.23145138781E-01 0.  0.
         14    1    1    2    0    0  0.91214137633E-03  0.47231014800E-03  0.22620022933E-01  0.22643332711E-01  0.00000000000E+00 0.  1.
     999901    1    3    3    0    0 -0.15365869459E-01 -0.10963983321E+00 -0.87756511670E-01  0.89126775343E+00  0.88000000000E+00 0. -1.
        -11    1    4    4    0    0 -0.50849501505E-02  0.42204374131E-01  0.20446496384E-01  0.47173999716E-01  0.51100000000E-03 0. -1.
         11    1    4    4    0    0  0.19538678233E-01  0.66963148927E-01  0.44689992353E-01  0.82844914140E-01  0.51100000000E-03 0.  1.
</event>
<event>
 8    1  0.1082757E+005  0.1043930E+01  0.7957747E-01            NaN
         13   -1    0    0    0    0  0.00000000000E+00  0.00000000000E+00  0.74505805969E-08  0.10566000000E+00  0.10566000000E+00 0.  1.
     999900   -1    0    0    0    0 -0.00000000000E+00 -0.00000000000E+00 -0.74505805969E-08  0.93827000000E+00  0.93827000000E+00 0.  1.
     999902    2    1    2    0    0 -0.19489693465E-01 -0.96517129402E-02 -0.17113053728E-01  0.10162558185E+01  0.10158789437E+01 0.  0.
     999903    2    3    3    0    0 -0.10707674930E+00  0.66985287135E-01 -0.12115206731E-01  0.12857924417E+00  0.20817897675E-01 0.  0.
         14    1    1    2    0    0  0.19489693465E-01  0.96517129402E-02  0.17113053728E-01  0.27674181505E-01  0.00000000000E+00 0.  1.
     999901    1    3    3    0    0  0.87587055837E-01 -0.76637000075E-01 -0.49978469974E-02  0.88767657432E+00  0.88000000000E+00 0.  1.
        -11    1    4    4    0    0 -0.26574734273E-01  0.27365398260E-01 -0.93514152763E-03  0.38160413183E-01  0.51100000000E-03 0. -1.
         11    1    4    4    0    0 -0.80502015029E-01  0.39619888875E-01 -0.11180065203E-01  0.90418830987E-01  0.51100000000E-03 0.  1.
</event>
<event>
 8    1  0.1082757E+005  0.1043930E+01  0.7957747E-01            NaN
         13   -1    0    0    0    0  0.00000000000E+00  0.00000000000E+00  0.74505805969E-08  0.10566000000E+00  0.10566000000E+00 0. -1.
     999900   -1    0    0    0    0 -0.00000000000E+00 -0.00000000000E+00 -0.74505805969E-08  0.93827000000E+00  0.93827000000E+00 0.  1.
     999902    2    1    2    0    0 -0.17801030823E-01 -0.14600668368E-01 -0.14187280543E-02  0.10208633790E+01  0.10206027482E+01 0.  0.
     999903    2    3    3    0    0 -0.12761802745E+00  0.21307158710E-01 -0.23404051442E-01  0.13303879090E+00  0.20278419965E-01 0.  0.
         14    1    1    2    0    0  0.17801030823E-01  0.14600668368E-01  0.14187280543E-02  0.23066621002E-01  0.00000000000E+00 0.  1.
     999901    1    3    3    0    0  0.10981699663E+00 -0.35907827078E-01  0.21985323388E-01  0.88782458810E+00  0.88000000000E+00 0. -1.
        -11    1    4    4    0    0 -0.26565079216E-01  0.11062654389E-01  0.10623200730E-03  0.28781211964E-01  0.51100000000E-03 0. -1.
         11    1    4    4    0    0 -0.10105294824E+00  0.10244504321E-01 -0.23510283450E-01  0.10425757893E+00  0.51100000000E-03 0.  1.
</event>
<event>
 8    1  0.1082757E+005  0.1043930E+01  0.7957747E-01            NaN
         13   -1    0    0    0    0  0.00000000000E+00  0.00000000000E+00  0.74505805969E-08  0.10566000000E+00  0.10566000000E+00 0.  1.
     999900   -1    0    0    0    0 -0.00000000000E+00 -0.00000000000E+00 -0.74505805969E-08  0.93827000000E+00  0.93827000000E+00 0. -1.
     999902    2    1    2    0    0 -0.20604029636E-01 -0.24561892661E-03 -0.12766112744E-01  0.10196903630E+01  0.10194022152E+01 0.  0.
     999903    2    3    3    0    0 -0.14203539427E-01  0.76882614277E-01 -0.10390405827E+00  0.13160486278E+00  0.20275839652E-01 0.  0.
         14    1    1    2    0    0  0.20604029636E-01  0.24561892661E-03  0.12766112744E-01  0.24239636971E-01  0.00000000000E+00 0. -1.
     999901    1    3    3    0    0 -0.64004902085E-02 -0.77128233204E-01  0.91137945523E-01  0.88808550025E+00  0.88000000000E+00 0.  1.
        -11    1    4    4    0    0 -0.14982972541E-01  0.28988013054E-01 -0.47043831132E-01  0.57255371238E-01  0.51100000000E-03 0. -1.
         11    1    4    4    0    0  0.77943311369E-03  0.47894601223E-01 -0.56860227135E-01  0.74349491545E-01  0.51100000000E-03 0.  1.
</event>
<event>
 8    1  0.1082757E+005  0.1043930E+01  0.7957747E-01            NaN
         13   -1    0    0    0    0  0.00000000000E+00  0.00000000000E+00  0.74505805969E-08  0.10566000000E+00  0.10566000000E+00 0.  1.
     999900   -1    0    0    0    0 -0.00000000000E+00 -0.00000000000E+00 -0.74505805969E-08  0.93827000000E+00  0.93827000000E+00 0.  1.
     999902    2    1    2    0    0 -0.22130263793E-01  0.19227015614E-02  0.87923210157E-02  0.10200396198E+01  0.10197598128E+01 0.  0.
     999903    2    3    3    0    0 -0.79909290218E-01  0.10118946921E+00 -0.21507699346E-01  0.13205853989E+00  0.18763621331E-01 0.  0.
         14    1    1    2    0    0  0.22130263793E-01 -0.19227015614E-02 -0.87923210157E-02  0.23890380191E-01  0.00000000000E+00 0.  1.
     999901    1    3    3    0    0  0.57779026425E-01 -0.99266767649E-01  0.30300020361E-01  0.88798107992E+00  0.88000000000E+00 0. -1.
        -11    1    4    4    0    0 -0.12764994331E-01  0.28992870584E-01 -0.42983232416E-02  0.31972931187E-01  0.51100000000E-03 0. -1.
         11    1    4    4    0    0 -0.67144295887E-01  0.72196598626E-01 -0.17209376104E-01  0.10008560871E+00  0.51100000000E-03 0.  1.
</event>
<event>
 8    1  0.1082757E+005  0.1043930E+01  0.7957747E-01            NaN
         13   -1    0    0    0    0  0.00000000000E+00  0.00000000000E+00  0.74505805969E-08  0.10566000000E+00  0.10566000000E+00 0. -1.
     999900   -1    0    0    0    0 -0.00000000000E+00 -0.00000000000E+00 -0.74505805969E-08  0.93827000000E+00  0.93827000000E+00 0.  1.
     999902    2    1    2    0    0 -0.13106595250E-01 -0.40143212044E-02  0.20507953696E-01  0.10192627387E+01  0.10189642078E+01 0.  0.
     999903    2    3    3    0    0 -0.58831420583E-01 -0.89033931218E-01  0.74425849785E-01  0.13234321969E+00  0.24235175371E-01 0.  0.
         14    1    1    2    0    0  0.13106595250E-01  0.40143212044E-02 -0.20507953696E-01  0.24667261271E-01  0.00000000000E+00 0. -1.
     999901    1    3    3    0    0  0.45724825333E-01  0.85019610013E-01 -0.53917896089E-01  0.88691951904E+00  0.88000000000E+00 0. -1.
        -11    1    4    4    0    0 -0.30093973420E-01 -0.66180430134E-01  0.50256098212E-01  0.88382312129E-01  0.51100000000E-03 0.  1.
         11    1    4    4    0    0 -0.28737447163E-01 -0.22853501084E-01  0.24169751573E-01  0.43960907558E-01  0.51100000000E-03 0. -1.
</event>
<event>
 8    1  0.1082757E+005  0.1043930E+01  0.7957747E-01            NaN
         13   -1    0    0    0    0  0.00000000000E+00  0.00000000000E+00  0.74505805969E-08  0.10566000000E+00  0.10566000000E+00 0.  1.
     999900   -1    0    0    0    0 -0.00000000000E+00 -0.00000000000E+00 -0.74505805969E-08  0.93827000000E+00  0.93827000000E+00 0. -1.
     999902    2    1    2    0    0  0.17907320623E-01 -0.26545900077E-02 -0.15851443077E-01  0.10198678466E+01  0.10195839530E+01 0.  0.
     999903    2    3    3    0    0 -0.11601967748E+00  0.34808185096E-01 -0.38198865976E-01  0.12866679874E+00  0.20586802226E-01 0.  0.
         14    1    1    2    0    0 -0.17907320623E-01  0.26545900077E-02  0.15851443077E-01  0.24062153429E-01  0.00000000000E+00 0. -1.
     999901    1    3    3    0    0  0.13392699810E+00 -0.37462775104E-01  0.22347422899E-01  0.89120104783E+00  0.88000000000E+00 0.  1.
        -11    1    4    4    0    0 -0.16309474609E-01  0.10906158724E-01 -0.12138676837E-02  0.19664126115E-01  0.51100000000E-03 0.  1.
         11    1    4    4    0    0 -0.99710202867E-01  0.23902026372E-01 -0.36984998293E-01  0.10900267263E+00  0.51100000000E-03 0. -1.
</event>
<event>
 8    1  0.1082757E+005  0.1043930E+01  0.7957747E-01            NaN
         13   -1    0    0    0    0  0.00000000000E+00  0.00000000000E+00  0.74505805969E-08  0.10566000000E+00  0.10566000000E+00 0.  1.
     999900   -1    0    0    0    0 -0.00000000000E+00 -0.00000000000E+00 -0.74505805969E-08  0.93827000000E+00  0.93827000000E+00 0. -1.
     999902    2    1    2    0    0  0.21364391714E-01  0.16722038053E-02  0.13011040394E-01  0.10188596855E+01  0.10185511956E+01 0.  0.
     999903    2    3    3    0    0 -0.30076063187E-01  0.32993074822E-01 -0.11748311959E+00  0.12720064572E+00  0.19611433446E-01 0.  0.
         14    1    1    2    0    0 -0.21364391714E-01 -0.16722038053E-02 -0.13011040394E-01  0.25070314537E-01  0.00000000000E+00 0.  1.
     999901    1    3    3    0    0  0.51440454901E-01 -0.31320871017E-01  0.13049415998E+00  0.89165903974E+00  0.88000000000E+00 0.  1.
        -11    1    4    4    0    0 -0.10058935712E-01  0.23586656764E-01 -0.50171838760E-01  0.56347023795E-01  0.51100000000E-03 0.  1.
         11    1    4    4    0    0 -0.20017127475E-01  0.94064180584E-02 -0.67311280825E-01  0.70853621928E-01  0.51100000000E-03 0. -1.
</event>
<event>
 8    1  0.1082757E+005  0.1043930E+01  0.7957747E-01            NaN
         13   -1    0    0    0    0  0.00000000000E+00  0.00000000000E+00  0.74505805969E-08  0.10566000000E+00  0.10566000000E+00 0.  1.
     999900   -1    0    0    0    0 -0.00000000000E+00 -0.00000000000E+00 -0.74505805969E-08  0.93827000000E+00  0.93827000000E+00 0.  1.
     999902    2    1    2    0    0  0.86033184027E-02 -0.22210697224E-01  0.35995864380E-03  0.10201085448E+01  0.10198303689E+01 0.  0.
     999903    2    3    3    0    0  0.64627886247E-01 -0.64005989890E-01 -0.93965350740E-01  0.13231191115E+00  0.20085424310E-01 0.  0.
         14    1    1    2    0    0 -0.86033184027E-02  0.22210697224E-01 -0.35995864380E-03  0.23821455223E-01  0.00000000000E+00 0. -1.
     999901    1    3    3    0    0 -0.56024567845E-01  0.41795292666E-01  0.94325309384E-01  0.88779663363E+00  0.88000000000E+00 0. -1.
        -11    1    4    4    0    0  0.23065834989E-01 -0.28123329842E-01 -0.24919304466E-01  0.44092939131E-01  0.51100000000E-03 0. -1.
         11    1    4    4    0    0  0.41562051258E-01 -0.35882660048E-01 -0.69046046274E-01  0.88218972018E-01  0.51100000000E-03 0.  1.
</event>
<event>
 8    1  0.1082757E+005  0.1043930E+01  0.7957747E-01            NaN
         13   -1    0    0    0    0  0.00000000000E+00  0.00000000000E+00  0.74505805969E-08  0.10566000000E+00  0.10566000000E+00 0. -1.
     999900   -1    0    0    0    0 -0.00000000000E+00 -0.00000000000E+00 -0.74505805969E-08  0.93827000000E+00  0.93827000000E+00 0. -1.
     999902    2    1    2    0    0 -0.13846219661E-01 -0.11965726470E-02 -0.18972342192E-01  0.10204119356E+01  0.10201408819E+01 0.  0.
     999903    2    3    3    0    0 -0.24135713969E-01  0.78926082180E-01 -0.10217249324E+00  0.13280403869E+00  0.19642687747E-01 0.  0.
         14    1    1    2    0    0  0.13846219661E-01  0.11965726470E-02  0.18972342192E-01  0.23518064403E-01  0.00000000000E+00 0. -1.
     999901    1    3    3    0    0  0.10289494307E-01 -0.80122654827E-01  0.83200151046E-01  0.88760789690E+00  0.88000000000E+00 0.  1.
        -11    1    4    4    0    0 -0.54113064267E-02  0.39948311492E-02 -0.14305773187E-01  0.15816358008E-01  0.51100000000E-03 0.  1.
         11    1    4    4    0    0 -0.18724407542E-01  0.74931251031E-01 -0.87866720051E-01  0.11698768069E+00  0.51100000000E-03 0. -1.
</event>
<event>
 8    1  0.1082757E+005  0.1043930E+01  0.7957747E-01            NaN
         13   -1    0    0    0    0  0.00000000000E+00  0.00000000000E+00  0.74505805969E-08  0.10566000000E+00  0.10566000000E+00 0. -1.
     999900   -1    0    0    0    0 -0.00000000000E+00 -0.00000000000E+00 -0.74505805969E-08  0.93827000000E+00  0.93827000000E+00 0. -1.
     999902    2    1    2    0    0 -0.54554421806E-02 -0.87800068342E-02  0.20093298989E-01  0.10213337385E+01  0.10210837450E+01 0.  0.
     999903    2    3    3    0    0  0.77659777371E-01  0.23590833037E-01  0.10371371587E+00  0.13288093440E+00  0.17698571803E-01 0.  0.
         14    1    1    2    0    0  0.54554421806E-02  0.87800068342E-02 -0.20093298989E-01  0.22596261497E-01  0.00000000000E+00 0.  1.
     999901    1    3    3    0    0 -0.83115219551E-01 -0.32370839871E-01 -0.83620416879E-01  0.88845280410E+00  0.88000000000E+00 0. -1.
        -11    1    4    4    0    0  0.46986208215E-01  0.56850142030E-02  0.54444699419E-01  0.72142286939E-01  0.51100000000E-03 0.  1.
         11    1    4    4    0    0  0.30673569155E-01  0.17905818834E-01  0.49269016449E-01  0.60738647464E-01  0.51100000000E-03 0. -1.
</event>
<event>
 8    1  0.1082757E+005  0.1043930E+01  0.7957747E-01            NaN
         13   -1    0    0    0    0  0.00000000000E+00  0.00000000000E+00  0.74505805969E-08  0.10566000000E+00  0.10566000000E+00 0.  1.
     999900   -1    0    0    0    0 -0.00000000000E+00 -0.00000000000E+00 -0.74505805969E-08  0.93827000000E+00  0.93827000000E+00 0.  1.
     999902    2    1    2    0    0  0.79199382774E-02 -0.19117562615E-02  0.21955894805E-01  0.10205111710E+01  0.10202424264E+01 0.  0.
     999903    2    3    3    0    0  0.32547610847E-01  0.11143429380E+00 -0.52923563778E-01  0.12974701444E+00  0.23588881821E-01 0.  0.
         14    1    1    2    0    0 -0.79199382774E-02  0.19117562615E-02 -0.21955894805E-01  0.23418828984E-01  0.00000000000E+00 0. -1.
     999901    1    3    3    0    0 -0.24627672570E-01 -0.11334605007E+00  0.74879458583E-01  0.89076415658E+00  0.88000000000E+00 0.  1.
        -11    1    4    4    0    0  0.21011771513E-01  0.97808377397E-01 -0.40191082775E-01  0.10781260356E+00  0.51100000000E-03 0. -1.
         11    1    4    4    0    0  0.11535839334E-01  0.13625916408E-01 -0.12732481003E-01  0.21934410879E-01  0.51100000000E-03 0.  1.
</event>
<event>
 8    1  0.1082757E+005  0.1043930E+01  0.7957747E-01            NaN
         13   -1    0    0    0    0  0.00000000000E+00  0.00000000000E+00  0.74505805969E-08  0.10566000000E+00  0.10566000000E+00 0. -1.
     999900   -1    0    0    0    0 -0.00000000000E+00 -0.00000000000E+00 -0.74505805969E-08  0.93827000000E+00  0.93827000000E+00 0.  1.
     999902    2    1    2    0    0 -0.23020441560E-01 -0.74821072383E-02  0.17492675709E-02  0.10196610364E+01  0.10193721825E+01 0.  0.
     999903    2    3    3    0    0  0.93112680172E-01 -0.54227595140E-01  0.66997810246E-01  0.12840943614E+00  0.19740147630E-01 0.  0.
         14    1    1    2    0    0  0.23020441560E-01  0.74821072383E-02 -0.17492675709E-02  0.24268963624E-01  0.00000000000E+00 0.  1.
     999901    1    3    3    0    0 -0.11613312173E+00  0.46745487902E-01 -0.65248542675E-01  0.89125160024E+00  0.88000000000E+00 0.  1.
        -11    1    4    4    0    0  0.16337975337E-01 -0.17671722062E-02  0.12237022924E-01  0.20495321094E-01  0.51100000000E-03 0.  1.
         11    1    4    4    0    0  0.76774704835E-01 -0.52460422934E-01  0.54760787322E-01  0.10791411505E+00  0.51100000000E-03 0. -1.
</event>
<event>
 8    1  0.1082757E+005  0.1043930E+01  0.7957747E-01            NaN
         13   -1    0    0    0    0  0.00000000000E+00  0.00000000000E+00  0.74505805969E-08  0.10566000000E+00  0.10566000000E+00 0. -1.
     999900   -1    0    0    0    0 -0.00000000000E+00 -0.00000000000E+00 -0.74505805969E-08  0.93827000000E+00  0.93827000000E+00 0.  1.
     999902    2    1    2    0    0 -0.33033720641E-03 -0.22310889681E-01 -0.71307499001E-02  0.10205049597E+01  0.10202360708E+01 0.  0.
     999903    2    3    3    0    0 -0.89539211055E-01 -0.81578968240E-02  0.92414319167E-01  0.13029838186E+00  0.18800008788E-01 0.  0.
         14    1    1    2    0    0  0.33033720641E-03  0.22310889681E-01  0.71307499001E-02  0.23425040345E-01  0.00000000000E+00 0. -1.
     999901    1    3    3    0    0  0.89208873848E-01 -0.14152992857E-01 -0.99545069067E-01  0.89020657780E+00  0.88000000000E+00 0.  1.
        -11    1    4    4    0    0 -0.62273242722E-01 -0.13627770794E-01  0.59452599034E-01  0.87169636622E-01  0.51100000000E-03 0.  1.
         11    1    4    4    0    0 -0.27265968333E-01  0.54698739701E-02  0.32961720133E-01  0.43128745235E-01  0.51100000000E-03 0. -1.
</event>
<event>
 8    1  0.1082757E+005  0.1043930E+01  0.7957747E-01            NaN
         13   -1    0    0    0    0  0.00000000000E+00  0.00000000000E+00  0.74505805969E-08  0.10566000000E+00  0.10566000000E+00 0. -1.
     999900   -1    0    0    0    0 -0.00000000000E+00 -0.00000000000E+00 -0.74505805969E-08  0.93827000000E+00  0.93827000000E+00 0. -1.
     999902    2    1    2    0    0 -0.11616451296E-01  0.19750625139E-02 -0.21011528011E-01  0.10198400203E+01  0.10195554619E+01 0.  0.
     999903    2    3    3    0    0 -0.11381733678E+00 -0.31310986681E-01 -0.56759778995E-01  0.13257967547E+00  0.20516671173E-01 0.  0.
         14    1    1    2    0    0  0.11616451296E-01 -0.19750625139E-02  0.21011528011E-01  0.24089979702E-01  0.00000000000E+00 0. -1.
     999901    1    3    3    0    0  0.10220088548E+00  0.33286049195E-01  0.35748250984E-01  0.88726034483E+00  0.88000000000E+00 0.  1.
        -11    1    4    4    0    0 -0.71888176640E-01 -0.21961739685E-01 -0.25235289222E-01  0.79292552575E-01  0.51100000000E-03 0. -1.
         11    1    4    4    0    0 -0.41929160141E-01 -0.93492469953E-02 -0.31524489773E-01  0.53287122891E-01  0.51100000000E-03 0.  1.
</event>
<event>
 8    1  0.1082757E+005  0.1043930E+01  0.7957747E-01            NaN
         13   -1    0    0    0    0  0.00000000000E+00  0.00000000000E+00  0.74505805969E-08  0.10566000000E+00  0.10566000000E+00 0. -1.
     999900   -1    0    0    0    0 -0.00000000000E+00 -0.00000000000E+00 -0.74505805969E-08  0.93827000000E+00  0.93827000000E+00 0.  1.
     999902    2    1    2    0    0  0.10595499656E-01 -0.22988942316E-02  0.21947017320E-01  0.10194510070E+01  0.10191570706E+01 0.  0.
     999903    2    3    3    0    0 -0.70854081665E-01 -0.81040014116E-01 -0.65996011084E-01  0.12784112905E+00  0.20002400410E-01 0.  0.
         14    1    1    2    0    0 -0.10595499656E-01  0.22988942316E-02 -0.21947017320E-01  0.24478992971E-01  0.00000000000E+00 0.  1.
     999901    1    3    3    0    0  0.81449581321E-01  0.78741119884E-01  0.87943028404E-01  0.89160987798E+00  0.88000000000E+00 0. -1.
        -11    1    4    4    0    0 -0.38356715988E-01 -0.29074782531E-01 -0.31194931642E-01  0.57358221047E-01  0.51100000000E-03 0.  1.
         11    1    4    4    0    0 -0.32497365677E-01 -0.51965231585E-01 -0.34801079442E-01  0.70482908006E-01  0.51100000000E-03 0. -1.
</event>
<event>
 8    1  0.1082757E+005  0.1043930E+01  0.7957747E-01            NaN
         13   -1    0    0    0    0  0.00000000000E+00  0.00000000000E+00  0.74505805969E-08  0.10566000000E+00  0.10566000000E+00 0.  1.
     999900   -1    0    0    0    0 -0.00000000000E+00 -0.00000000000E+00 -0.74505805969E-08  0.93827000000E+00  0.93827000000E+00 0. -1.
     999902    2    1    2    0    0 -0.31062041131E-02 -0.72274422566E-02  0.22216321550E-01  0.10203620266E+01  0.10200898078E+01 0.  0.
     999903    2    3    3    0    0 -0.59455695755E-01  0.11127943964E+00 -0.21808265686E-01  0.12954368906E+00  0.19694503753E-01 0.  0.
         14    1    1    2    0    0  0.31062041131E-02  0.72274422566E-02 -0.22216321550E-01  0.23567973370E-01  0.00000000000E+00 0. -1.
     999901    1    3    3    0    0  0.56349491642E-01 -0.11850688190E+00  0.44024587236E-01  0.89081833757E+00  0.88000000000E+00 0.  1.
        -11    1    4    4    0    0 -0.24503500578E-01  0.66564065659E-01 -0.12674704995E-01  0.72056267218E-01  0.51100000000E-03 0.  1.
         11    1    4    4    0    0 -0.34952195177E-01  0.44715373986E-01 -0.91335606909E-02  0.57487421844E-01  0.51100000000E-03 0. -1.
</event>
<event>
 8    1  0.1082757E+005  0.1043930E+01  0.7957747E-01            NaN
         13   -1    0    0    0    0  0.00000000000E+00  0.00000000000E+00  0.74505805969E-08  0.10566000000E+00  0.10566000000E+00 0.  1.
     999900   -1    0    0    0    0 -0.00000000000E+00 -0.00000000000E+00 -0.74505805969E-08  0.93827000000E+00  0.93827000000E+00 0.  1.
     999902    2    1    2    0    0  0.15709055617E-01 -0.16788043294E-01 -0.42177497229E-02  0.10205547516E+01  0.10202870178E+01 0.  0.
     999903    2    3    3    0    0  0.12024577865E-01 -0.53256128423E-02  0.12830699540E+00  0.13055038599E+00  0.20193206520E-01 0.  0.
         14    1    1    2    0    0 -0.15709055617E-01  0.16788043294E-01  0.42177497229E-02  0.23375248421E-01  0.00000000000E+00 0. -1.
     999901    1    3    3    0    0  0.36844777516E-02 -0.11462430452E-01 -0.13252474512E+00  0.89000436558E+00  0.88000000000E+00 0.  1.
        -11    1    4    4    0    0  0.19853472473E-02 -0.82674227399E-03  0.10209320333E+00  0.10211713075E+00  0.51100000000E-03 0.  1.
         11    1    4    4    0    0  0.10039230618E-01 -0.44988705683E-02  0.26213792074E-01  0.28433255242E-01  0.51100000000E-03 0. -1.
</event>
<event>
 8    1  0.1095123E+005  0.1043930E+01  0.7957747E-01            NaN
         13   -1    0    0    0    0  0.00000000000E+00  0.00000000000E+00  0.74505805969E-08  0.10566000000E+00  0.10566000000E+00 0. -1.
     999900   -1    0    0    0    0 -0.00000000000E+00 -0.00000000000E+00 -0.74505805969E-08  0.93827000000E+00  0.93827000000E+00 0. -1.
     999902    2    1    2    0    0 -0.18118819152E-01 -0.12477729769E-01  0.99169278056E-02  0.10197984687E+01  0.10195129160E+01 0.  0.
     999903    2    3    3    0    0 -0.56877168305E-01 -0.96457874397E-01  0.69110031384E-01  0.13297340258E+00  0.19146685035E-01 0.  0.
         14    1    1    2    0    0  0.18118819152E-01  0.12477729769E-01 -0.99169278056E-02  0.24131531339E-01  0.00000000000E+00 0. -1.
     999901    1    3    3    0    0  0.38758349153E-01  0.83980144629E-01 -0.59193103578E-01  0.88682506608E+00  0.88000000000E+00 0. -1.
        -11    1    4    4    0    0 -0.26901042947E-01 -0.58798168930E-01  0.47365288824E-01  0.80153742817E-01  0.51100000000E-03 0. -1.
         11    1    4    4    0    0 -0.29976125358E-01 -0.37659705467E-01  0.21744742560E-01  0.52819659762E-01  0.51100000000E-03 0.  1.
</event>
<event>
 8    1  0.1082757E+005  0.1043930E+01  0.7957747E-01            NaN
         13   -1    0    0    0    0  0.00000000000E+00  0.00000000000E+00  0.74505805969E-08  0.10566000000E+00  0.10566000000E+00 0. -1.
     999900   -1    0    0    0    0 -0.00000000000E+00 -0.00000000000E+00 -0.74505805969E-08  0.93827000000E+00  0.93827000000E+00 0. -1.
     999902    2    1    2    0    0  0.22665517601E-01 -0.57744770892E-02 -0.22539397487E-02  0.10204321167E+01  0.10201615335E+01 0.  0.
     999903    2    3    3    0    0 -0.69725836798E-02  0.10053767894E+00 -0.79847461977E-01  0.13015044992E+00  0.20176239021E-01 0.  0.
         14    1    1    2    0    0 -0.22665517601E-01  0.57744770892E-02  0.22539397487E-02  0.23497883270E-01  0.00000000000E+00 0.  1.
     999901    1    3    3    0    0  0.29638101280E-01 -0.10631215603E+00  0.77593522228E-01  0.89028166681E+00  0.88000000000E+00 0.  1.
        -11    1    4    4    0    0  0.25664766624E-02  0.40545094217E-01 -0.42716799275E-01  0.58953180820E-01  0.51100000000E-03 0.  1.
         11    1    4    4    0    0 -0.95390603421E-02  0.59992584720E-01 -0.37130662702E-01  0.71197269100E-01  0.51100000000E-03 0. -1.
</event>
<event>
 8    1  0.1082757E+005  0.1043930E+01  0.7957747E-01            NaN
         13   -1    0    0    0    0  0.00000000000E+00  0.00000000000E+00  0.74505805969E-08  0.10566000000E+00  0.10566000000E+00 0.  1.
     999900   -1    0    0    0    0 -0.00000000000E+00 -0.00000000000E+00 -0.74505805969E-08  0.93827000000E+00  0.93827000000E+00 0. -1.
     999902    2    1    2    0    0 -0.13067110845E-01 -0.18372252586E-01 -0.78532487758E-02  0.10200561112E+01  0.10197766949E+01 0.  0.
     999903    2    3    3    0    0  0.12192456926E+00 -0.25879664453E-01 -0.29519971400E-01  0.12946722634E+00  0.18840816408E-01 0.  0.
         14    1    1    2    0    0  0.13067110845E-01  0.18372252586E-01  0.78532487758E-02  0.23873888817E-01  0.00000000000E+00 0. -1.
     999901    1    3    3    0    0 -0.13499168011E+00  0.75074118673E-02  0.21666722625E-01  0.89058888484E+00  0.88000000000E+00 0. -1.
        -11    1    4    4    0    0  0.49792624567E-01 -0.26455333913E-02 -0.16828750698E-01  0.52628626044E-01  0.51100000000E-03 0. -1.
         11    1    4    4    0    0  0.72131944697E-01 -0.23234131062E-01 -0.12691220703E-01  0.76838600299E-01  0.51100000000E-03 0.  1.
</event>
<event>
 8    1  0.1082757E+005  0.1043930E+01  0.7957747E-01            NaN
         13   -1    0    0    0    0  0.00000000000E+00  0.00000000000E+00  0.74505805969E-08  0.10566000000E+00  0.10566000000E+00 0. -1.
     999900   -1    0    0    0    0 -0.00000000000E+00 -0.00000000000E+00 -0.74505805969E-08  0.93827000000E+00  0.93827000000E+00 0.  1.
     999902    2    1    2    0    0  0.10873704389E-01  0.21033494223E-01 -0.51427966169E-02  0.10196999838E+01  0.10194120675E+01 0.  0.
     999903    2    3    3    0    0  0.47633204848E-01 -0.87969151239E-02  0.11862068504E+00  0.12977947413E+00  0.20628549824E-01 0.  0.
         14    1    1    2    0    0 -0.10873704389E-01 -0.21033494223E-01  0.51427966169E-02  0.24230016166E-01  0.00000000000E+00 0. -1.
     999901    1    3    3    0    0 -0.36759500460E-01  0.29830409347E-01 -0.12376348165E+00  0.88992050970E+00  0.88000000000E+00 0.  1.
        -11    1    4    4    0    0  0.18364958259E-01 -0.71323312242E-02  0.25976939908E-01  0.32606814756E-01  0.51100000000E-03 0.  1.
         11    1    4    4    0    0  0.29268246590E-01 -0.16645838997E-02  0.92643745128E-01  0.97172659377E-01  0.51100000000E-03 0. -1.
</event>
<event>
 8    1  0.1082757E+005  0.1043930E+01  0.7957747E-01            NaN
         13   -1    0    0    0    0  0.00000000000E+00  0.00000000000E+00  0.74505805969E-08  0.10566000000E+00  0.10566000000E+00 0. -1.
     999900   -1    0    0    0    0 -0.00000000000E+00 -0.00000000000E+00 -0.74505805969E-08  0.93827000000E+00  0.93827000000E+00 0.  1.
     999902    2    1    2    0    0 -0.10551189547E-01  0.18749911242E-01  0.58721112834E-02  0.10216282408E+01  0.10213847923E+01 0.  0.
     999903    2    3    3    0    0 -0.64248112656E-02  0.10110368481E+00 -0.83507400018E-01  0.13326577645E+00  0.22870243410E-01 0.  0.
         14    1    1    2    0    0  0.10551189547E-01 -0.18749911242E-01 -0.58721112834E-02  0.22301759199E-01  0.00000000000E+00 0.  1.
     999901    1    3    3    0    0 -0.41263782813E-02 -0.82353773572E-01  0.89379511301E-01  0.88836246435E+00  0.88000000000E+00 0. -1.
        -11    1    4    4    0    0 -0.85287535477E-03  0.96103888857E-01 -0.79674713268E-01  0.12483992112E+00  0.51100000000E-03 0. -1.
         11    1    4    4    0    0 -0.55719359109E-02  0.49997959562E-02 -0.38326867497E-02  0.84258553346E-02  0.51100000000E-03 0.  1.
</event>
<event>
 8    1  0.1082757E+005  0.1043930E+01  0.7957747E-01            NaN
         13   -1    0    0    0    0  0.00000000000E+00  0.00000000000E+00  0.74505805969E-08  0.10566000000E+00  0.10566000000E+00 0. -1.
     999900   -1    0    0    0    0 -0.00000000000E+00 -0.00000000000E+00 -0.74505805969E-08  0.93827000000E+00  0.93827000000E+00 0. -1.
     999902    2    1    2    0    0  0.20411018996E-01  0.98999593007E-02  0.15971433589E-01  0.10161864317E+01  0.10158076385E+01 0.  0.
     999903    2    3    3    0    0 -0.11077379419E+00  0.43671601198E-01  0.34413226595E-01  0.12563038140E+00  0.20510493329E-01 0.  0.
         14    1    1    2    0    0 -0.20411018996E-01 -0.98999593007E-02 -0.15971433589E-01  0.27743568291E-01  0.00000000000E+00 0.  1.
     999901    1    3    3    0    0  0.13118481319E+00 -0.33771641898E-01 -0.18441793006E-01  0.89055605031E+00  0.88000000000E+00 0.  1.
        -11    1    4    4    0    0 -0.18421838224E-01  0.85973098150E-02  0.14176989519E-01  0.24789635181E-01  0.51100000000E-03 0. -1.
         11    1    4    4    0    0 -0.92351955965E-01  0.35074291383E-01  0.20236237076E-01  0.10084074622E+00  0.51100000000E-03 0.  1.
</event>
<event>
 8    1  0.1133802E+005  0.1043930E+01  0.7957747E-01            NaN
         13   -1    0    0    0    0  0.00000000000E+00  0.00000000000E+00  0.74505805969E-08  0.10566000000E+00  0.10566000000E+00 0. -1.
     999900   -1    0    0    0    0 -0.00000000000E+00 -0.00000000000E+00 -0.74505805969E-08  0.93827000000E+00  0.93827000000E+00 0. -1.
     999902    2    1    2    0    0 -0.17613265753E-01  0.38046850525E-02 -0.15944734750E-01  0.10198688835E+01  0.10195850147E+01 0.  0.
     999903    2    3    3    0    0  0.12235014013E+00 -0.36868911908E-02  0.29785992116E-01  0.12760368862E+00  0.20306306020E-01 0.  0.
         14    1    1    2    0    0  0.17613265753E-01 -0.38046850525E-02  0.15944734750E-01  0.24061116456E-01  0.00000000000E+00 0. -1.
     999901    1    3    3    0    0 -0.13996340589E+00  0.74915762434E-02 -0.45730726866E-01  0.89226519493E+00  0.88000000000E+00 0. -1.
        -11    1    4    4    0    0  0.69390590549E-01 -0.12118145901E-01  0.17584112356E-01  0.72604170991E-01  0.51100000000E-03 0. -1.
         11    1    4    4    0    0  0.52959549585E-01  0.84312547097E-02  0.12201879760E-01  0.54999517625E-01  0.51100000000E-03 0.  1.
</event>
<event>
 8    1  0.1082757E+005  0.1043930E+01  0.7957747E-01            NaN
         13   -1    0    0    0    0  0.00000000000E+00  0.00000000000E+00  0.74505805969E-08  0.10566000000E+00  0.10566000000E+00 0. -1.
     999900   -1    0    0    0    0 -0.00000000000E+00 -0.00000000000E+00 -0.74505805969E-08  0.93827000000E+00  0.93827000000E+00 0. -1.
     999902    2    1    2    0    0  0.14818453653E-01 -0.18075791267E-02 -0.18478337380E-01  0.10201749403E+01  0.10198983311E+01 0.  0.
     999903    2    3    3    0    0 -0.86374493925E-01 -0.31595755628E-01 -0.91169002329E-01  0.13089923449E+00  0.19078197773E-01 0.  0.
         14    1    1    2    0    0 -0.14818453653E-01  0.18075791267E-02  0.18478337380E-01  0.23755059741E-01  0.00000000000E+00 0. -1.
     999901    1    3    3    0    0  0.10119294758E+00  0.29788176501E-01  0.72690664949E-01  0.88927570577E+00  0.88000000000E+00 0.  1.
        -11    1    4    4    0    0 -0.42911029941E-01 -0.12612752965E-01 -0.56938160386E-01  0.72406168639E-01  0.51100000000E-03 0. -1.
         11    1    4    4    0    0 -0.43463463984E-01 -0.18983002663E-01 -0.34230841943E-01  0.58493065852E-01  0.51100000000E-03 0.  1.
</event>
<event>
 8    1  0.1082757E+005  0.1043930E+01  0.7957747E-01            NaN
         13   -1    0    0    0    0  0.00000000000E+00  0.00000000000E+00  0.74505805969E-08  0.10566000000E+00  0.10566000000E+00 0.  1.
     999900   -1    0    0    0    0 -0.00000000000E+00 -0.00000000000E+00 -0.74505805969E-08  0.93827000000E+00  0.93827000000E+00 0.  1.
     999902    2    1    2    0    0  0.13578284847E-01 -0.14585826234E-01 -0.10957676102E-01  0.10211882584E+01  0.10209349990E+01 0.  0.
     999903    2    3    3    0    0 -0.41283536122E-01  0.47212902030E-01 -0.11318896001E+00  0.13142416739E+00  0.22960458018E-01 0.  0.
         14    1    1    2    0    0 -0.13578284847E-01  0.14585826234E-01  0.10957676102E-01  0.22741741619E-01  0.00000000000E+00 0.  1.
     999901    1    3    3    0    0  0.54861820969E-01 -0.61798728263E-01  0.10223128391E+00  0.88976409100E+00  0.88000000000E+00 0. -1.
        -11    1    4    4    0    0 -0.83249662897E-02  0.20854371113E-01 -0.24697693371E-01  0.33383334721E-01  0.51100000000E-03 0. -1.
         11    1    4    4    0    0 -0.32958569832E-01  0.26358530917E-01 -0.88491266638E-01  0.98040832665E-01  0.51100000000E-03 0.  1.
</event>
<event>
 8    1  0.1082757E+005  0.1043930E+01  0.7957747E-01            NaN
         13   -1    0    0    0    0  0.00000000000E+00  0.00000000000E+00  0.74505805969E-08  0.10566000000E+00  0.10566000000E+00 0.  1.
     999900   -1    0    0    0    0 -0.00000000000E+00 -0.00000000000E+00 -0.74505805969E-08  0.93827000000E+00  0.93827000000E+00 0.  1.
     999902    2    1    2    0    0 -0.88256480304E-02  0.47992329992E-02  0.21310640525E-01  0.10203701167E+01  0.10200980869E+01 0.  0.
     999903    2    3    3    0    0  0.45667447168E-01  0.17783888600E-01  0.12184017981E+00  0.13287685648E+00  0.20234800368E-01 0.  0.
         14    1    1    2    0    0  0.88256480304E-02 -0.47992329992E-02 -0.21310640525E-01  0.23559883279E-01  0.00000000000E+00 0. -1.
     999901    1    3    3    0    0 -0.54493095198E-01 -0.12984655601E-01 -0.10052953929E+00  0.88749326024E+00  0.88000000000E+00 0.  1.
        -11    1    4    4    0    0  0.30297344803E-01  0.40477709395E-02  0.88956879813E-01  0.94063282628E-01  0.51100000000E-03 0.  1.
         11    1    4    4    0    0  0.15370102365E-01  0.13736117661E-01  0.32883300001E-01  0.38813573851E-01  0.51100000000E-03 0. -1.
</event>
<event>
 8    1  0.1082757E+005  0.1043930E+01  0.7957747E-01            NaN
         13   -1    0    0    0    0  0.00000000000E+00  0.00000000000E+00  0.74505805969E-08  0.10566000000E+00  0.10566000000E+00 0.  1.
     999900   -1    0    0    0    0 -0.00000000000E+00 -0.00000000000E+00 -0.74505805969E-08  0.93827000000E+00  0.93827000000E+00 0. -1.
     999902    2    1    2    0    0  0.37414937566E-02  0.17314197937E-01 -0.15698478685E-01  0.10202609810E+01  0.10199863955E+01 0.  0.
     999903    2    3    3    0    0  0.14196950836E-01 -0.51475700777E-02 -0.12997994211E+00  0.13252560352E+00  0.20980928150E-01 0.  0.
         14    1    1    2    0    0 -0.37414937566E-02 -0.17314197937E-01  0.15698478685E-01  0.23669018965E-01  0.00000000000E+00 0.  1.
     999901    1    3    3    0    0 -0.10455457079E-01  0.22461768015E-01  0.11428146343E+00  0.88773537751E+00  0.88000000000E+00 0.  1.
        -11    1    4    4    0    0 -0.30158745624E-02 -0.76009473945E-02 -0.33284682802E-01  0.34278289498E-01  0.51100000000E-03 0.  1.
         11    1    4    4    0    0  0.17212825398E-01  0.24533773167E-02 -0.96695259312E-01  0.98247314024E-01  0.51100000000E-03 0. -1.
</event>
<event>
 8    1  0.1082757E+005  0.1043930E+01  0.7957747E-01            NaN
         13   -1    0    0    0    0  0.00000000000E+00  0.00000000000E+00  0.74505805969E-08  0.10566000000E+00  0.10566000000E+00 0. -1.
     999900   -1    0    0    0    0 -0.00000000000E+00 -0.00000000000E+00 -0.74505805969E-08  0.93827000000E+00  0.93827000000E+00 0.  1.
     999902    2    1    2    0    0 -0.12178385099E-01  0.19041136501E-01 -0.83009602887E-02  0.10198512981E+01  0.10195670093E+01 0.  0.
     999903    2    3    3    0    0  0.12661458268E-01 -0.12500849082E+00  0.10373055227E-01  0.12759795303E+00  0.19652023801E-01 0.  0.
         14    1    1    2    0    0  0.12178385099E-01 -0.19041136501E-01  0.83009602887E-02  0.24078701888E-01  0.00000000000E+00 0. -1.
     999901    1    3    3    0    0 -0.24839843367E-01  0.14404962733E+00 -0.18674015516E-01  0.89225334508E+00  0.88000000000E+00 0.  1.
        -11    1    4    4    0    0 -0.40068590578E-03 -0.71798091560E-01  0.11918891816E-01  0.72783566854E-01  0.51100000000E-03 0.  1.
         11    1    4    4    0    0  0.13062144174E-01 -0.53210399264E-01 -0.15458365890E-02  0.54814386178E-01  0.51100000000E-03 0. -1.
</event>
<event>
 8    1  0.1082757E+005  0.1043930E+01  0.7957747E-01            NaN
         13   -1    0    0    0    0  0.00000000000E+00  0.00000000000E+00  0.74505805969E-08  0.10566000000E+00  0.10566000000E+00 0. -1.
     999900   -1    0    0    0    0 -0.00000000000E+00 -0.00000000000E+00 -0.74505805969E-08  0.93827000000E+00  0.93827000000E+00 0.  1.
     999902    2    1    2    0    0  0.10040248004E-01  0.80871672013E-02 -0.19931905032E-01  0.10201920622E+01  0.10199158564E+01 0.  0.
     999903    2    3    3    0    0  0.56998691068E-01 -0.11467481578E+00 -0.13601324092E-01  0.13040800069E+00  0.20544743085E-01 0.  0.
         14    1    1    2    0    0 -0.10040248004E-01 -0.80871672013E-02  0.19931905032E-01  0.23737937811E-01  0.00000000000E+00 0. -1.
     999901    1    3    3    0    0 -0.46958443064E-01  0.12276198299E+00 -0.63305809403E-02  0.88978406150E+00  0.88000000000E+00 0. -1.
        -11    1    4    4    0    0  0.53404237797E-01 -0.10058135631E+00 -0.61230329731E-02  0.11404549314E+00  0.51100000000E-03 0.  1.
         11    1    4    4    0    0  0.35944532707E-02 -0.14093459477E-01 -0.74782911188E-02  0.16362507552E-01  0.51100000000E-03 0. -1.
</event>
<event>
 8    1  0.1082757E+005  0.1043930E+01  0.7957747E-01            NaN
         13   -1    0    0    0    0  0.00000000000E+00  0.00000000000E+00  0.74505805969E-08  0.10566000000E+00  0.10566000000E+00 0.  1.
     999900   -1    0    0    0    0 -0.00000000000E+00 -0.00000000000E+00 -0.74505805969E-08  0.93827000000E+00  0.93827000000E+00 0.  1.
     999902    2    1    2    0    0  0.17643823155E-02  0.14744981450E-01 -0.18305729875E-01  0.10203582527E+01  0.10200859457E+01 0.  0.
     999903    2    3    3    0    0 -0.74109157442E-01 -0.83536636082E-01  0.60008172700E-01  0.12819843649E+00  0.19060995343E-01 0.  0.
         14    1    1    2    0    0 -0.17643823155E-02 -0.14744981450E-01  0.18305729875E-01  0.23571747266E-01  0.00000000000E+00 0. -1.
     999901    1    3    3    0    0  0.75873539758E-01  0.98281617532E-01 -0.78313902575E-01  0.89215981624E+00  0.88000000000E+00 0.  1.
        -11    1    4    4    0    0 -0.23539980327E-01 -0.34549190397E-01  0.31002380003E-01  0.52049840708E-01  0.51100000000E-03 0. -1.
         11    1    4    4    0    0 -0.50569177116E-01 -0.48987445685E-01  0.29005792697E-01  0.76148595784E-01  0.51100000000E-03 0.  1.
</event>
<event>
 8    1  0.1082757E+005  0.1043930E+01  0.7957747E-01            NaN
         13   -1    0    0    0    0  0.00000000000E+00  0.00000000000E+00  0.74505805969E-08  0.10566000000E+00  0.10566000000E+00 0. -1.
     999900   -1    0    0    0    0 -0.00000000000E+00 -0.00000000000E+00 -0.74505805969E-08  0.93827000000E+00  0.93827000000E+00 0. -1.
     999902    2    1    2    0    0 -0.18810777579E-01 -0.19313887354E-02 -0.13954537226E-01  0.10204288357E+01  0.10201581759E+01 0.  0.
     999903    2    3    3    0    0 -0.43455469709E-01  0.12084445516E+00  0.15869588095E-01  0.13106347366E+00  0.20833389367E-01 0.  0.
         14    1    1    2    0    0  0.18810777579E-01  0.19313887354E-02  0.13954537226E-01  0.23501164327E-01  0.00000000000E+00 0. -1.
     999901    1    3    3    0    0  0.24644692130E-01 -0.12277584389E+00 -0.29824125320E-01  0.88936536201E+00  0.88000000000E+00 0. -1.
        -11    1    4    4    0    0 -0.13048001999E-01  0.62065746055E-01  0.20604423504E-02  0.63457968240E-01  0.51100000000E-03 0. -1.
         11    1    4    4    0    0 -0.30407467710E-01  0.58778709101E-01  0.13809145744E-01  0.67605505421E-01  0.51100000000E-03 0.  1.
</event>
<event>
 8    1  0.1082757E+005  0.1043930E+01  0.7957747E-01            NaN
         13   -1    0    0    0    0  0.00000000000E+00  0.00000000000E+00  0.74505805969E-08  0.10566000000E+00  0.10566000000E+00 0. -1.
     999900   -1    0    0    0    0 -0.00000000000E+00 -0.00000000000E+00 -0.74505805969E-08  0.93827000000E+00  0.93827000000E+00 0. -1.
     999902    2    1    2    0    0 -0.25519878982E-02 -0.12477714647E-01  0.21267176923E-01  0.10191409133E+01  0.10188393899E+01 0.  0.
     999903    2    3    3    0    0  0.64559306893E-01  0.40947375115E-01  0.10454968062E+00  0.13105637818E+00  0.20013668052E-01 0.  0.
         14    1    1    2    0    0  0.25519878982E-02  0.12477714647E-01 -0.21267176923E-01  0.24789086698E-01  0.00000000000E+00 0.  1.
     999901    1    3    3    0    0 -0.67111294791E-01 -0.53425089761E-01 -0.83282503693E-01  0.88808453512E+00  0.88000000000E+00 0. -1.
        -11    1    4    4    0    0  0.37754860191E-01  0.30836939647E-01  0.78075405885E-01  0.92045512873E-01  0.51100000000E-03 0.  1.
         11    1    4    4    0    0  0.26804446702E-01  0.10110435468E-01  0.26474274731E-01  0.39010865305E-01  0.51100000000E-03 0. -1.
</event>
<event>
 8    1  0.1082757E+005  0.1043930E+01  0.7957747E-01            NaN
         13   -1    0    0    0    0  0.00000000000E+00  0.00000000000E+00  0.74505805969E-08  0.10566000000E+00  0.10566000000E+00 0. -1.
     999900   -1    0    0    0    0 -0.00000000000E+00 -0.00000000000E+00 -0.74505805969E-08  0.93827000000E+00  0.93827000000E+00 0. -1.
     999902    2    1    2    0    0 -0.46962771890E-02  0.44932348151E-02 -0.22677222650E-01  0.10203397349E+01  0.10200669949E+01 0.  0.
     999903    2    3    3    0    0  0.97362135320E-01 -0.60483518991E-01  0.54436886761E-01  0.12872071093E+00  0.21633430591E-01 0.  0.
         14    1    1    2    0    0  0.46962771890E-02 -0.44932348151E-02  0.22677222650E-01  0.23590265062E-01  0.00000000000E+00 0. -1.
     999901    1    3    3    0    0 -0.10205841251E+00  0.64976753806E-01 -0.77114109411E-01  0.89161902401E+00  0.88000000000E+00 0. -1.
        -11    1    4    4    0    0  0.20671570679E-01 -0.53042265268E-02  0.43523344385E-02  0.21786523115E-01  0.51100000000E-03 0. -1.
         11    1    4    4    0    0  0.76690564641E-01 -0.55179292464E-01  0.50084552322E-01  0.10693418782E+00  0.51100000000E-03 0.  1.
</event>
<event>
 8    1  0.1082757E+005  0.1043930E+01  0.7957747E-01            NaN
         13   -1    0    0    0    0  0.00000000000E+00  0.00000000000E+00  0.74505805969E-08  0.10566000000E+00  0.10566000000E+00 0.  1.
     999900   -1    0    0    0    0 -0.00000000000E+00 -0.00000000000E+00 -0.74505805969E-08  0.93827000000E+00  0.93827000000E+00 0. -1.
     999902    2    1    2    0    0  0.87456137027E-02  0.18868259639E-01  0.10316934838E-01  0.10207150021E+01  0.10204509687E+01 0.  0.
     999903    2    3    3    0    0 -0.19055265976E-01  0.93570346966E-01  0.91231204323E-01  0.13341549816E+00  0.18922196370E-01 0.  0.
         14    1    1    2    0    0 -0.87456137027E-02 -0.18868259639E-01 -0.10316934838E-01  0.23214997852E-01  0.00000000000E+00 0. -1.
     999901    1    3    3    0    0  0.27800879678E-01 -0.74702087328E-01 -0.80914269485E-01  0.88729950398E+00  0.88000000000E+00 0. -1.
        -11    1    4    4    0    0  0.36842043143E-02  0.13549665890E-01  0.11059645545E-01  0.17881378240E-01  0.51100000000E-03 0. -1.
         11    1    4    4    0    0 -0.22739470290E-01  0.80020681076E-01  0.80171558778E-01  0.11553411993E+00  0.51100000000E-03 0.  1.
</event>
<event>
 8    1  0.1082757E+005  0.1043930E+01  0.7957747E-01            NaN
         13   -1    0    0    0    0  0.00000000000E+00  0.00000000000E+00  0.74505805969E-08  0.10566000000E+00  0.10566000000E+00 0.  1.
     999900   -1    0    0    0    0 -0.00000000000E+00 -0.00000000000E+00 -0.74505805969E-08  0.93827000000E+00  0.93827000000E+00 0. -1.
     999902    2    1    2    0    0 -0.38745746687E-03 -0.15243223346E-01 -0.17511868384E-01  0.10207099329E+01  0.10204457828E+01 0.  0.
     999903    2    3    3    0    0 -0.27235728611E-01  0.12009229830E+00  0.30844635076E-01  0.12864778008E+00  0.20854610618E-01 0.  0.
         14    1    1    2    0    0  0.38745746687E-03  0.15243223346E-01  0.17511868384E-01  0.23220067087E-01  0.00000000000E+00 0.  1.
     999901    1    3    3    0    0  0.26848271144E-01 -0.13533552164E+00 -0.48356503460E-01  0.89206215283E+00  0.88000000000E+00 0. -1.
        -11    1    4    4    0    0 -0.17869326273E-01  0.39536945720E-01  0.15716235201E-01  0.46149150244E-01  0.51100000000E-03 0. -1.
         11    1    4    4    0    0 -0.93664023382E-02  0.80555352578E-01  0.15128399875E-01  0.82498629840E-01  0.51100000000E-03 0.  1.
</event>
<event>
 8    1  0.1082757E+005  0.1043930E+01  0.7957747E-01            NaN
         13   -1    0    0    0    0  0.00000000000E+00  0.00000000000E+00  0.74505805969E-08  0.10566000000E+00  0.10566000000E+00 0. -1.
     999900   -1    0    0    0    0 -0.00000000000E+00 -0.00000000000E+00 -0.74505805969E-08  0.93827000000E+00  0.93827000000E+00 0.  1.
     999902    2    1    2    0    0  0.19381053660E-01 -0.90139135158E-02 -0.10562755124E-01  0.10200878593E+01  0.10198091944E+01 0.  0.
     999903    2    3    3    0    0  0.35240624823E-01  0.12040913486E+00  0.26411574028E-01  0.12971212261E+00  0.19682533219E-01 0.  0.
         14    1    1    2    0    0 -0.19381053660E-01  0.90139135158E-02  0.10562755124E-01  0.23842140711E-01  0.00000000000E+00 0. -1.
     999901    1    3    3    0    0 -0.15859571162E-01 -0.12942304838E+00 -0.36974329152E-01  0.89037573668E+00  0.88000000000E+00 0.  1.
        -11    1    4    4    0    0  0.15580989137E-01  0.85184515763E-01  0.19754658559E-01  0.88823851549E-01  0.51100000000E-03 0.  1.
         11    1    4    4    0    0  0.19659635686E-01  0.35224619097E-01  0.66569154693E-02  0.40888271062E-01  0.51100000000E-03 0. -1.
</event>
<event>
 8    1  0.1082757E+005  0.1043930E+01  0.7957747E-01            NaN
         13   -1    0    0    0    0  0.00000000000E+00  0.00000000000E+00  0.74505805969E-08  0.10566000000E+00  0.10566000000E+00 0. -1.
     999900   -1    0    0    0    0 -0.00000000000E+00 -0.00000000000E+00 -0.74505805969E-08  0.93827000000E+00  0.93827000000E+00 0. -1.
     999902    2    1    2    0    0 -0.99051043062E-03  0.13266961558E-01 -0.19350888576E-01  0.10204470217E+01  0.10201767856E+01 0.  0.
     999903    2    3    3    0    0 -0.70932251675E-02  0.11445429341E+00  0.60441572725E-01  0.13104106485E+00  0.19195776603E-01 0.  0.
         14    1    1    2    0    0  0.99051043062E-03 -0.13266961558E-01  0.19350888576E-01  0.23482978273E-01  0.00000000000E+00 0. -1.
     999901    1    3    3    0    0  0.61027147369E-02 -0.10118733185E+00 -0.79792461301E-01  0.88940595688E+00  0.88000000000E+00 0. -1.
        -11    1    4    4    0    0 -0.28714329615E-03  0.11804045910E-01  0.13554178540E-01  0.17983181810E-01  0.51100000000E-03 0.  1.
         11    1    4    4    0    0 -0.68060818713E-02  0.10265024750E+00  0.46887394185E-01  0.11305788304E+00  0.51100000000E-03 0. -1.
</event>
<event>
 8    1  0.1082757E+005  0.1043930E+01  0.7957747E-01            NaN
         13   -1    0    0    0    0  0.00000000000E+00  0.00000000000E+00  0.74505805969E-08  0.10566000000E+00  0.10566000000E+00 0. -1.
     999900   -1    0    0    0    0 -0.00000000000E+00 -0.00000000000E+00 -0.74505805969E-08  0.93827000000E+00  0.93827000000E+00 0. -1.
     999902    2    1    2    0    0 -0.51753313938E-02  0.22297385524E-01  0.64742538295E-02  0.10201419059E+01  0.10198645179E+01 0.  0.
     999903    2    3    3    0    0 -0.10503234223E+00  0.70758914586E-01 -0.32352481401E-01  0.13232015706E+00  0.20574839141E-01 0.  0.
         14    1    1    2    0    0  0.51753313938E-02 -0.22297385524E-01 -0.64742538295E-02  0.23788094058E-01  0.00000000000E+00 0.  1.
     999901    1    3    3    0    0  0.99857010833E-01 -0.48461529062E-01  0.38826735230E-01  0.88782174888E+00  0.88000000000E+00 0.  1.
        -11    1    4    4    0    0 -0.93912342025E-01  0.62225100009E-01 -0.21751568780E-01  0.11473832368E+00  0.51100000000E-03 0. -1.
         11    1    4    4    0    0 -0.11120000202E-01  0.85338145777E-02 -0.10600912621E-01  0.17581833384E-01  0.51100000000E-03 0.  1.
</event>
<event>
 8    1  0.1082757E+005  0.1043930E+01  0.7957747E-01            NaN
         13   -1    0    0    0    0  0.00000000000E+00  0.00000000000E+00  0.74505805969E-08  0.10566000000E+00  0.10566000000E+00 0. -1.
     999900   -1    0    0    0    0 -0.00000000000E+00 -0.00000000000E+00 -0.74505805969E-08  0.93827000000E+00  0.93827000000E+00 0. -1.
     999902    2    1    2    0    0 -0.70103701677E-02  0.19145332996E-01 -0.11062289029E-01  0.10207338084E+01  0.10204702075E+01 0.  0.
     999903    2    3    3    0    0 -0.72926639021E-01  0.77414527864E-01 -0.79382592899E-01  0.13371187098E+00  0.16308420609E-01 0.  0.
         14    1    1    2    0    0  0.70103701677E-02 -0.19145332996E-01  0.11062289029E-01  0.23196191583E-01  0.00000000000E+00 0. -1.
     999901    1    3    3    0    0  0.65916268853E-01 -0.58269194868E-01  0.68320303870E-01  0.88702193744E+00  0.88000000000E+00 0. -1.
        -11    1    4    4    0    0 -0.67268104222E-01  0.64139519144E-01 -0.65732812857E-01  0.11384173035E+00  0.51100000000E-03 0. -1.
         11    1    4    4    0    0 -0.56585347989E-02  0.13275008720E-01 -0.13649780042E-01  0.19870140633E-01  0.51100000000E-03 0.  1.
</event>
<event>
 8    1  0.1082757E+005  0.1043930E+01  0.7957747E-01            NaN
         13   -1    0    0    0    0  0.00000000000E+00  0.00000000000E+00  0.74505805969E-08  0.10566000000E+00  0.10566000000E+00 0.  1.
     999900   -1    0    0    0    0 -0.00000000000E+00 -0.00000000000E+00 -0.74505805969E-08  0.93827000000E+00  0.93827000000E+00 0. -1.
     999902    2    1    2    0    0 -0.18674219336E-03  0.19706753582E-02 -0.25735335043E-01  0.10181186478E+01  0.10177914104E+01 0.  0.
     999903    2    3    3    0    0 -0.39597305477E-01 -0.24803629745E-01  0.11494214815E+00  0.12567245321E+00  0.19967509233E-01 0.  0.
         14    1    1    2    0    0  0.18674219336E-03 -0.19706753582E-02  0.25735335043E-01  0.25811352227E-01  0.00000000000E+00 0.  1.
     999901    1    3    3    0    0  0.39410563284E-01  0.26774305103E-01 -0.14067748319E+00  0.89244619456E+00  0.88000000000E+00 0.  1.
        -11    1    4    4    0    0 -0.39844277924E-01 -0.18073531620E-01  0.94372344399E-01  0.10402220694E+00  0.51100000000E-03 0.  1.
         11    1    4    4    0    0  0.24697244696E-03 -0.67300981253E-02  0.20569803750E-01  0.21650246269E-01  0.51100000000E-03 0. -1.
</event>
<event>
 8    1  0.1082757E+005  0.1043930E+01  0.7957747E-01            NaN
         13   -1    0    0    0    0  0.00000000000E+00  0.00000000000E+00  0.74505805969E-08  0.10566000000E+00  0.10566000000E+00 0.  1.
     999900   -1    0    0    0    0 -0.00000000000E+00 -0.00000000000E+00 -0.74505805969E-08  0.93827000000E+00  0.93827000000E+00 0.  1.
     999902    2    1    2    0    0  0.16333538145E-01  0.80479370992E-02 -0.16322803920E-01  0.10194762132E+01  0.10191828892E+01 0.  0.
     999903    2    3    3    0    0  0.94526531696E-01  0.85698323826E-01 -0.29859645987E-01  0.13249990413E+00  0.19625448662E-01 0.  0.
         14    1    1    2    0    0 -0.16333538145E-01 -0.80479370992E-02  0.16322803920E-01  0.24453786776E-01  0.00000000000E+00 0.  1.
     999901    1    3    3    0    0 -0.78192993551E-01 -0.77650386727E-01  0.13536842068E-01  0.88697630909E+00  0.88000000000E+00 0. -1.
        -11    1    4    4    0    0  0.44392095160E-01  0.50534116990E-01 -0.21927580016E-01  0.70749098785E-01  0.51100000000E-03 0.  1.
         11    1    4    4    0    0  0.50134436536E-01  0.35164206836E-01 -0.79320659711E-02  0.61750805345E-01  0.51100000000E-03 0. -1.
</event>
<event>
 8    1  0.1082757E+005  0.1043930E+01  0.7957747E-01            NaN
         13   -1    0    0    0    0  0.00000000000E+00  0.00000000000E+00  0.74505805969E-08  0.10566000000E+00  0.10566000000E+00 0.  1.
     999900   -1    0    0    0    0 -0.00000000000E+00 -0.00000000000E+00 -0.74505805969E-08  0.93827000000E+00  0.93827000000E+00 0. -1.
     999902    2    1    2    0    0 -0.61902981298E-02 -0.23021998184E-01 -0.26281738853E-02  0.10199458492E+01  0.10196638151E+01 0.  0.
     999903    2    3    3    0    0  0.94663256987E-01 -0.74333856340E-01 -0.48450936700E-01  0.13151798384E+00  0.21513539557E-01 0.  0.
         14    1    1    2    0    0  0.61902981298E-02  0.23021998184E-01  0.26281738853E-02  0.23984150794E-01  0.00000000000E+00 0.  1.
     999901    1    3    3    0    0 -0.10085355512E+00  0.51311858156E-01  0.45822762815E-01  0.88842786537E+00  0.88000000000E+00 0.  1.
        -11    1    4    4    0    0  0.52638455847E-01 -0.33636775181E-01 -0.15462283949E-01  0.64355132076E-01  0.51100000000E-03 0.  1.
         11    1    4    4    0    0  0.42024801140E-01 -0.40697081159E-01 -0.32988652751E-01  0.67162851764E-01  0.51100000000E-03 0. -1.
</event>
<event>
 8    1  0.1082757E+005  0.1043930E+01  0.7957747E-01            NaN
         13   -1    0    0    0    0  0.00000000000E+00  0.00000000000E+00  0.74505805969E-08  0.10566000000E+00  0.10566000000E+00 0.  1.
     999900   -1    0    0    0    0 -0.00000000000E+00 -0.00000000000E+00 -0.74505805969E-08  0.93827000000E+00  0.93827000000E+00 0.  1.
     999902    2    1    2    0    0  0.21499426565E-01 -0.14878600619E-02  0.63617083728E-02  0.10214597885E+01  0.10212126072E+01 0.  0.
     999903    2    3    3    0    0 -0.80279040935E-01  0.91399557787E-01  0.42510212411E-01  0.13000387645E+00  0.17183892306E-01 0.  0.
         14    1    1    2    0    0 -0.21499426565E-01  0.14878600619E-02 -0.63617083728E-02  0.22470211472E-01  0.00000000000E+00 0. -1.
     999901    1    3    3    0    0  0.10177846750E+00 -0.92887417849E-01 -0.36148504038E-01  0.89145591208E+00  0.88000000000E+00 0.  1.
        -11    1    4    4    0    0 -0.65691709585E-01  0.70900602968E-01  0.40368942329E-01  0.10474831185E+00  0.51100000000E-03 0. -1.
         11    1    4    4    0    0 -0.14587331350E-01  0.20498954819E-01  0.21412700824E-02  0.25255564598E-01  0.51100000000E-03 0.  1.
</event>
<event>
 8    1  0.1082757E+005  0.1043930E+01  0.7957747E-01            NaN
         13   -1    0    0    0    0  0.00000000000E+00  0.00000000000E+00  0.74505805969E-08  0.10566000000E+00  0.10566000000E+00 0.  1.
     999900   -1    0    0    0    0 -0.00000000000E+00 -0.00000000000E+00 -0.74505805969E-08  0.93827000000E+00  0.93827000000E+00 0. -1.
     999902    2    1    2    0    0  0.15827141527E-01  0.14712377309E-01 -0.10088013971E-01  0.10200821389E+01  0.10198033387E+01 0.  0.
     999903    2    3    3    0    0 -0.12574388581E+00  0.14136020921E-01  0.11587765813E-01  0.12850346741E+00  0.19170626299E-01 0.  0.
         14    1    1    2    0    0 -0.15827141527E-01 -0.14712377309E-01  0.10088013971E-01  0.23847861138E-01  0.00000000000E+00 0. -1.
     999901    1    3    3    0    0  0.14157102734E+00  0.57635638844E-03 -0.21675779784E-01  0.89157867146E+00  0.88000000000E+00 0.  1.
        -11    1    4    4    0    0 -0.45881542581E-01  0.23920345242E-02 -0.45903156692E-02  0.46175425257E-01  0.51100000000E-03 0.  1.
         11    1    4    4    0    0 -0.79862343229E-01  0.11743986396E-01  0.16178081482E-01  0.82328042148E-01  0.51100000000E-03 0. -1.
</event>
<event>
 8    1  0.1082757E+005  0.1043930E+01  0.7957747E-01            NaN
         13   -1    0    0    0    0  0.00000000000E+00  0.00000000000E+00  0.74505805969E-08  0.10566000000E+00  0.10566000000E+00 0.  1.
     999900   -1    0    0    0    0 -0.00000000000E+00 -0.00000000000E+00 -0.74505805969E-08  0.93827000000E+00  0.93827000000E+00 0. -1.
     999902    2    1    2    0    0 -0.27617498360E-03  0.21285889354E-01  0.93464795474E-02  0.10206808702E+01  0.10204160508E+01 0.  0.
     999903    2    3    3    0    0  0.34805905775E-01  0.30340081462E-01  0.12343113964E+00  0.13257724983E+00  0.14474436775E-01 0.  0.
         14    1    1    2    0    0  0.27617498360E-03 -0.21285889354E-01 -0.93464795474E-02  0.23249129836E-01  0.00000000000E+00 0. -1.
     999901    1    3    3    0    0 -0.35082080759E-01 -0.90541921087E-02 -0.11408466009E+00  0.88810362034E+00  0.88000000000E+00 0. -1.
        -11    1    4    4    0    0  0.14517782535E-01  0.20306368287E-01  0.76491647860E-01  0.80463332743E-01  0.51100000000E-03 0.  1.
         11    1    4    4    0    0  0.20288123241E-01  0.10033713175E-01  0.46939491778E-01  0.52113917086E-01  0.51100000000E-03 0. -1.
</event>
<event>
 8    1  0.1082757E+005  0.1043930E+01  0.7957747E-01            NaN
         13   -1    0    0    0    0  0.00000000000E+00  0.00000000000E+00  0.74505805969E-08  0.10566000000E+00  0.10566000000E+00 0. -1.
     999900   -1    0    0    0    0 -0.00000000000E+00 -0.00000000000E+00 -0.74505805969E-08  0.93827000000E+00  0.93827000000E+00 0. -1.
     999902    2    1    2    0    0  0.37545839179E-02  0.11436603344E-01 -0.20014999890E-01  0.10205742081E+01  0.10203069250E+01 0.  0.
     999903    2    3    3    0    0  0.93939111580E-01 -0.83896989556E-01 -0.29334219505E-01  0.13079412803E+00  0.19579222470E-01 0.  0.
         14    1    1    2    0    0 -0.37545839179E-02 -0.11436603344E-01  0.20014999890E-01  0.23355791938E-01  0.00000000000E+00 0. -1.
     999901    1    3    3    0    0 -0.90184527662E-01  0.95333592900E-01  0.93192196145E-02  0.88978008003E+00  0.88000000000E+00 0. -1.
        -11    1    4    4    0    0  0.61605516017E-01 -0.66724523834E-01 -0.19594956240E-01  0.92906539682E-01  0.51100000000E-03 0. -1.
         11    1    4    4    0    0  0.32333595563E-01 -0.17172465722E-01 -0.97392632646E-02  0.37887588350E-01  0.51100000000E-03 0.  1.
</event>
<event>
 8    1  0.1082757E+005  0.1043930E+01  0.7957747E-01            NaN
         13   -1    0    0    0    0  0.00000000000E+00  0.00000000000E+00  0.74505805969E-08  0.10566000000E+00  0.10566000000E+00 0. -1.
     999900   -1    0    0    0    0 -0.00000000000E+00 -0.00000000000E+00 -0.74505805969E-08  0.93827000000E+00  0.93827000000E+00 0. -1.
     999902    2    1    2    0    0  0.17143315931E-02  0.20722490996E-01  0.98405695391E-02  0.10209257096E+01  0.10206665015E+01 0.  0.
     999903    2    3    3    0    0 -0.11567961219E+00  0.59286239267E-01  0.14752369457E-01  0.13227919584E+00  0.19583728077E-01 0.  0.
         14    1    1    2    0    0 -0.17143315931E-02 -0.20722490996E-01 -0.98405695391E-02  0.23004290356E-01  0.00000000000E+00 0. -1.
     999901    1    3    3    0    0  0.11739394378E+00 -0.38563748270E-01 -0.49117999180E-02  0.88864651380E+00  0.88000000000E+00 0. -1.
        -11    1    4    4    0    0 -0.49770198108E-01  0.16848584399E-01  0.19677240441E-03  0.52547571365E-01  0.51100000000E-03 0. -1.
         11    1    4    4    0    0 -0.65909414080E-01  0.42437654868E-01  0.14555597053E-01  0.79731624476E-01  0.51100000000E-03 0.  1.
</event>
<event>
 8    1  0.1082757E+005  0.1043930E+01  0.7957747E-01            NaN
         13   -1    0    0    0    0  0.00000000000E+00  0.00000000000E+00  0.74505805969E-08  0.10566000000E+00  0.10566000000E+00 0.  1.
     999900   -1    0    0    0    0 -0.00000000000E+00 -0.00000000000E+00 -0.74505805969E-08  0.93827000000E+00  0.93827000000E+00 0. -1.
     999902    2    1    2    0    0  0.13070579266E-01  0.16376338694E-01 -0.88563991266E-02  0.10211822459E+01  0.10209288511E+01 0.  0.
     999903    2    3    3    0    0 -0.12047481024E+00 -0.37147876994E-01 -0.21015972885E-01  0.12941598282E+00  0.20314547128E-01 0.  0.
         14    1    1    2    0    0 -0.13070579266E-01 -0.16376338694E-01  0.88563991266E-02  0.22747754106E-01  0.00000000000E+00 0.  1.
     999901    1    3    3    0    0  0.13354538951E+00  0.53524215688E-01  0.12159573758E-01  0.89176626307E+00  0.88000000000E+00 0.  1.
        -11    1    4    4    0    0 -0.53738944075E-01 -0.15030400462E-01 -0.19434045936E-01  0.59090864867E-01  0.51100000000E-03 0. -1.
         11    1    4    4    0    0 -0.66735866167E-01 -0.22117476532E-01 -0.15819269494E-02  0.70325117953E-01  0.51100000000E-03 0.  1.
</event>
<event>
 8    1  0.1082757E+005  0.1043930E+01  0.7957747E-01            NaN
         13   -1    0    0    0    0  0.00000000000E+00  0.00000000000E+00  0.74505805969E-08  0.10566000000E+00  0.10566000000E+00 0. -1.
     999900   -1    0    0    0    0 -0.00000000000E+00 -0.00000000000E+00 -0.74505805969E-08  0.93827000000E+00  0.93827000000E+00 0.  1.
     999902    2    1    2    0    0  0.25290965036E-02 -0.23806642709E-01  0.60711718610E-02  0.10192315852E+01  0.10189322905E+01 0.  0.
     999903    2    3    3    0    0  0.52429753574E-01 -0.11554323353E+00 -0.31980962501E-01  0.13224024217E+00  0.19120193835E-01 0.  0.
         14    1    1    2    0    0 -0.25290965036E-02  0.23806642709E-01 -0.60711718610E-02  0.24698414807E-01  0.00000000000E+00 0. -1.
     999901    1    3    3    0    0 -0.49900657071E-01  0.91736590819E-01  0.38052134362E-01  0.88699134302E+00  0.88000000000E+00 0.  1.
        -11    1    4    4    0    0  0.25768811786E-01 -0.44006549374E-01 -0.48964438557E-02  0.51233234644E-01  0.51100000000E-03 0. -1.
         11    1    4    4    0    0  0.26660941788E-01 -0.71536684154E-01 -0.27084518645E-01  0.81007007524E-01  0.51100000000E-03 0.  1.
</event>
<event>
 8    1  0.1082757E+005  0.1043930E+01  0.7957747E-01            NaN
         13   -1    0    0    0    0  0.00000000000E+00  0.00000000000E+00  0.74505805969E-08  0.10566000000E+00  0.10566000000E+00 0.  1.
     999900   -1    0    0    0    0 -0.00000000000E+00 -0.00000000000E+00 -0.74505805969E-08  0.93827000000E+00  0.93827000000E+00 0.  1.
     999902    2    1    2    0    0  0.96611147133E-02  0.50532606795E-02 -0.20962302187E-01  0.10203018242E+01  0.10200281965E+01 0.  0.
     999903    2    3    3    0    0 -0.12491760208E+00  0.17933490855E-01 -0.23836977989E-01  0.12997289892E+00  0.19968363234E-01 0.  0.
         14    1    1    2    0    0 -0.96611147133E-02 -0.50532606795E-02  0.20962302187E-01  0.23628175850E-01  0.00000000000E+00 0.  1.
     999901    1    3    3    0    0  0.13457871679E+00 -0.12880230176E-01  0.28746758019E-02  0.89032892523E+00  0.88000000000E+00 0. -1.
        -11    1    4    4    0    0 -0.11414867318E+00  0.16622010551E-01 -0.15732114122E-01  0.11642152447E+00  0.51100000000E-03 0.  1.
         11    1    4    4    0    0 -0.10768928899E-01  0.13114803042E-02 -0.81048638671E-02  0.13551374451E-01  0.51100000000E-03 0. -1.
</event>
<event>
 8    1  0.1082757E+005  0.1043930E+01  0.7957747E-01            NaN
         13   -1    0    0    0    0  0.00000000000E+00  0.00000000000E+00  0.74505805969E-08  0.10566000000E+00  0.10566000000E+00 0. -1.
     999900   -1    0    0    0    0 -0.00000000000E+00 -0.00000000000E+00 -0.74505805969E-08  0.93827000000E+00  0.93827000000E+00 0.  1.
     999902    2    1    2    0    0 -0.17730604165E-01  0.16025804309E-01 -0.28377806103E-02  0.10198623095E+01  0.10195782837E+01 0.  0.
     999903    2    3    3    0    0 -0.67773903239E-01  0.42278701435E-01  0.10279244495E+00  0.13174559929E+00  0.20244150703E-01 0.  0.
         14    1    1    2    0    0  0.17730604165E-01 -0.16025804309E-01  0.28377806103E-02  0.24067690513E-01  0.00000000000E+00 0. -1.
     999901    1    3    3    0    0  0.50043299074E-01 -0.26252897126E-01 -0.10563022556E+00  0.88811671020E+00  0.88000000000E+00 0.  1.
        -11    1    4    4    0    0 -0.24918348614E-01  0.70608322526E-02  0.42869621048E-01  0.50088371700E-01  0.51100000000E-03 0.  1.
         11    1    4    4    0    0 -0.42855554625E-01  0.35217869182E-01  0.59922823898E-01  0.81657227585E-01  0.51100000000E-03 0. -1.
</event>
<event>
 8    1  0.1082757E+005  0.1043930E+01  0.7957747E-01            NaN
         13   -1    0    0    0    0  0.00000000000E+00  0.00000000000E+00  0.74505805969E-08  0.10566000000E+00  0.10566000000E+00 0. -1.
     999900   -1    0    0    0    0 -0.00000000000E+00 -0.00000000000E+00 -0.74505805969E-08  0.93827000000E+00  0.93827000000E+00 0. -1.
     999902    2    1    2    0    0  0.29133091261E-02  0.20259009030E-01 -0.12031487435E-01  0.10201882329E+01  0.10199119369E+01 0.  0.
     999903    2    3    3    0    0  0.81639219472E-01  0.44396396508E-01  0.89175193069E-01  0.13056855310E+00  0.21445974488E-01 0.  0.
         14    1    1    2    0    0 -0.29133091261E-02 -0.20259009030E-01  0.12031487435E-01  0.23741767139E-01  0.00000000000E+00 0. -1.
     999901    1    3    3    0    0 -0.78725910346E-01 -0.24137387478E-01 -0.10120668050E+00  0.88961967976E+00  0.88000000000E+00 0. -1.
        -11    1    4    4    0    0  0.12683411901E-01  0.77632898641E-02  0.26703707073E-01  0.30569375188E-01  0.51100000000E-03 0.  1.
         11    1    4    4    0    0  0.68955807571E-01  0.36633106644E-01  0.62471485996E-01  0.99999177915E-01  0.51100000000E-03 0. -1.
</event>
<event>
 8    1  0.1082757E+005  0.1043930E+01  0.7957747E-01            NaN
         13   -1    0    0    0    0  0.00000000000E+00  0.00000000000E+00  0.74505805969E-08  0.10566000000E+00  0.10566000000E+00 0. -1.
     999900   -1    0    0    0    0 -0.00000000000E+00 -0.00000000000E+00 -0.74505805969E-08  0.93827000000E+00  0.93827000000E+00 0.  1.
     999902    2    1    2    0    0 -0.22410407808E-01  0.27997933816E-02 -0.65685814314E-02  0.10204095518E+01  0.10201384425E+01 0.  0.
     999903    2    3    3    0    0  0.91471037066E-01 -0.36629302416E-02 -0.85146346844E-01  0.12957555184E+00  0.34052247706E-01 0.  0.
         14    1    1    2    0    0  0.22410407808E-01 -0.27997933816E-02  0.65685814314E-02  0.23520448192E-01  0.00000000000E+00 0. -1.
     999901    1    3    3    0    0 -0.11388144487E+00  0.64627236232E-02  0.78577765412E-01  0.89083399997E+00  0.88000000000E+00 0.  1.
        -11    1    4    4    0    0  0.43667845801E-01 -0.18038105019E-01 -0.34853484946E-01  0.58713546337E-01  0.51100000000E-03 0. -1.
         11    1    4    4    0    0  0.47803191265E-01  0.14375174777E-01 -0.50292861898E-01  0.70862005503E-01  0.51100000000E-03 0.  1.
</event>
<event>
 8    1  0.1082757E+005  0.1043930E+01  0.7957747E-01            NaN
         13   -1    0    0    0    0  0.00000000000E+00  0.00000000000E+00  0.74505805969E-08  0.10566000000E+00  0.10566000000E+00 0.  1.
     999900   -1    0    0    0    0 -0.00000000000E+00 -0.00000000000E+00 -0.74505805969E-08  0.93827000000E+00  0.93827000000E+00 0.  1.
     999902    2    1    2    0    0  0.22467096703E-01 -0.27764305117E-02  0.37743413246E-02  0.10209795174E+01  0.10207215341E+01 0.  0.
     999903    2    3    3    0    0  0.94433901897E-01  0.88929158905E-02 -0.91454446017E-01  0.13284443945E+00  0.16937638999E-01 0.  0.
         14    1    1    2    0    0 -0.22467096703E-01  0.27764305117E-02 -0.37743413246E-02  0.22950482633E-01  0.00000000000E+00 0.  1.
     999901    1    3    3    0    0 -0.71966805194E-01 -0.11669346402E-01  0.95228787342E-01  0.88813507792E+00  0.88000000000E+00 0. -1.
        -11    1    4    4    0    0  0.78605444307E-01  0.13651263243E-01 -0.74435544289E-01  0.10911500464E+00  0.51100000000E-03 0.  1.
         11    1    4    4    0    0  0.15828457590E-01 -0.47583473529E-02 -0.17018901728E-01  0.23729434807E-01  0.51100000000E-03 0. -1.
</event>
<event>
 8    1  0.1082757E+005  0.1043930E+01  0.7957747E-01            NaN
         13   -1    0    0    0    0  0.00000000000E+00  0.00000000000E+00  0.74505805969E-08  0.10566000000E+00  0.10566000000E+00 0.  1.
     999900   -1    0    0    0    0 -0.00000000000E+00 -0.00000000000E+00 -0.74505805969E-08  0.93827000000E+00  0.93827000000E+00 0. -1.
     999902    2    1    2    0    0 -0.22417576364E-01  0.50804966524E-02  0.79890241828E-02  0.10195951755E+01  0.10193047328E+01 0.  0.
     999903    2    3    3    0    0  0.53425418540E-01 -0.11255963142E+00 -0.21911986257E-01  0.12803170045E+00  0.19698609288E-01 0.  0.
         14    1    1    2    0    0  0.22417576364E-01 -0.50804966524E-02 -0.79890241828E-02  0.24334824504E-01  0.00000000000E+00 0.  1.
     999901    1    3    3    0    0 -0.75842994904E-01  0.11764012807E+00  0.29901010439E-01  0.89156347504E+00  0.88000000000E+00 0. -1.
        -11    1    4    4    0    0  0.15813357866E-01 -0.26457502563E-01 -0.13633796402E-01  0.33707614187E-01  0.51100000000E-03 0. -1.
         11    1    4    4    0    0  0.37612060674E-01 -0.86102128854E-01 -0.82781898552E-02  0.94324086264E-01  0.51100000000E-03 0.  1.
</event>
<event>
 8    1  0.1082757E+005  0.1043930E+01  0.7957747E-01            NaN
         13   -1    0    0    0    0  0.00000000000E+00  0.00000000000E+00  0.74505805969E-08  0.10566000000E+00  0.10566000000E+00 0.  1.
     999900   -1    0    0    0    0 -0.00000000000E+00 -0.00000000000E+00 -0.74505805969E-08  0.93827000000E+00  0.93827000000E+00 0. -1.
     999902    2    1    2    0    0  0.23927663523E-01  0.69318183732E-03  0.26313153229E-02  0.10198481105E+01  0.10195637455E+01 0.  0.
     999903    2    3    3    0    0 -0.24367315818E-01 -0.50715057682E-01 -0.11490456824E+00  0.12923601981E+00  0.18251187863E-01 0.  0.
         14    1    1    2    0    0 -0.23927663523E-01 -0.69318183732E-03 -0.26313153229E-02  0.24081889524E-01  0.00000000000E+00 0. -1.
     999901    1    3    3    0    0  0.48294979340E-01  0.51408239519E-01  0.11753588356E+00  0.89061209067E+00  0.88000000000E+00 0.  1.
        -11    1    4    4    0    0 -0.25139443532E-01 -0.37386285748E-01 -0.96428676211E-01  0.10643531698E+00  0.51100000000E-03 0. -1.
         11    1    4    4    0    0  0.77212771407E-03 -0.13328771934E-01 -0.18475892026E-01  0.22800702832E-01  0.51100000000E-03 0.  1.
</event>
<event>
 8    1  0.1082757E+005  0.1043930E+01  0.7957747E-01            NaN
         13   -1    0    0    0    0  0.00000000000E+00  0.00000000000E+00  0.74505805969E-08  0.10566000000E+00  0.10566000000E+00 0.  1.
     999900   -1    0    0    0    0 -0.00000000000E+00 -0.00000000000E+00 -0.74505805969E-08  0.93827000000E+00  0.93827000000E+00 0. -1.
     999902    2    1    2    0    0  0.14327969188E-01 -0.18687405574E-01 -0.50865926095E-02  0.10198388553E+01  0.10195542691E+01 0.  0.
     999903    2    3    3    0    0  0.82296886854E-01  0.15270773257E-01 -0.99445979840E-01  0.13153900411E+00  0.20175048817E-01 0.  0.
         14    1    1    2    0    0 -0.14327969188E-01  0.18687405574E-01  0.50865926095E-02  0.24091144691E-01  0.00000000000E+00 0. -1.
     999901    1    3    3    0    0 -0.67968917666E-01 -0.33958178831E-01  0.94359387230E-01  0.88829985120E+00  0.88000000000E+00 0. -1.
        -11    1    4    4    0    0  0.41190751544E-01  0.38315996457E-02 -0.63275593819E-01  0.75600403853E-01  0.51100000000E-03 0.  1.
         11    1    4    4    0    0  0.41106135310E-01  0.11439173611E-01 -0.36170386020E-01  0.55938600259E-01  0.51100000000E-03 0. -1.
</event>
<event>
 8    1  0.1082757E+005  0.1043930E+01  0.7957747E-01            NaN
         13   -1    0    0    0    0  0.00000000000E+00  0.00000000000E+00  0.74505805969E-08  0.10566000000E+00  0.10566000000E+00 0. -1.
     999900   -1    0    0    0    0 -0.00000000000E+00 -0.00000000000E+00 -0.74505805969E-08  0.93827000000E+00  0.93827000000E+00 0.  1.
     999902    2    1    2    0    0 -0.58769953203E-02 -0.16556026153E-01  0.22213207184E-01  0.10156092011E+01  0.10152142541E+01 0.  0.
     999903    2    3    3    0    0 -0.57366927985E-01  0.56025014182E-01 -0.92169497811E-01  0.12375572448E+00  0.19760981127E-01 0.  0.
         14    1    1    2    0    0  0.58769953203E-02  0.16556026153E-01 -0.22213207184E-01  0.28320798883E-01  0.00000000000E+00 0.  1.
     999901    1    3    3    0    0  0.51489932665E-01 -0.72581040334E-01  0.11438270500E+00  0.89185347663E+00  0.88000000000E+00 0. -1.
        -11    1    4    4    0    0 -0.37449963431E-01  0.41757577186E-01 -0.75751765914E-01  0.94259143713E-01  0.51100000000E-03 0.  1.
         11    1    4    4    0    0 -0.19916964555E-01  0.14267436996E-01 -0.16417731897E-01  0.29496580770E-01  0.51100000000E-03 0. -1.
</event>
<event>
 8    1  0.1082757E+005  0.1043930E+01  0.7957747E-01            NaN
         13   -1    0    0    0    0  0.00000000000E+00  0.00000000000E+00  0.74505805969E-08  0.10566000000E+00  0.10566000000E+00 0.  1.
     999900   -1    0    0    0    0 -0.00000000000E+00 -0.00000000000E+00 -0.74505805969E-08  0.93827000000E+00  0.93827000000E+00 0.  1.
     999902    2    1    2    0    0  0.21866101238E-01  0.19766716599E-02  0.37359644487E-02  0.10216591436E+01  0.10214163767E+01 0.  0.
     999903    2    3    3    0    0  0.86831663278E-01  0.96485767995E-01 -0.24574420965E-01  0.13376614810E+00  0.20981874063E-01 0.  0.
         14    1    1    2    0    0 -0.21866101238E-01 -0.19766716599E-02 -0.37359644487E-02  0.22270856395E-01  0.00000000000E+00 0.  1.
     999901    1    3    3    0    0 -0.64965562040E-01 -0.94509096335E-01  0.28310385413E-01  0.88789299550E+00  0.88000000000E+00 0. -1.
        -11    1    4    4    0    0  0.21799898251E-01  0.19765673868E-01  0.27109841261E-02  0.29555506815E-01  0.51100000000E-03 0.  1.
         11    1    4    4    0    0  0.65031765027E-01  0.76720094127E-01 -0.27285405091E-01  0.10421064129E+00  0.51100000000E-03 0. -1.
</event>
<event>
 8    1  0.1082757E+005  0.1043930E+01  0.7957747E-01            NaN
         13   -1    0    0    0    0  0.00000000000E+00  0.00000000000E+00  0.74505805969E-08  0.10566000000E+00  0.10566000000E+00 0. -1.
     999900   -1    0    0    0    0 -0.00000000000E+00 -0.00000000000E+00 -0.74505805969E-08  0.93827000000E+00  0.93827000000E+00 0. -1.
     999902    2    1    2    0    0  0.97241555974E-02 -0.16921788010E-01 -0.12119689584E-01  0.10209562544E+01  0.10206977419E+01 0.  0.
     999903    2    3    3    0    0 -0.10052461906E+00 -0.63123888776E-01 -0.54573043249E-01  0.13186024514E+00  0.17862889714E-01 0.  0.
         14    1    1    2    0    0 -0.97241555974E-02  0.16921788010E-01  0.12119689584E-01  0.22973745605E-01  0.00000000000E+00 0. -1.
     999901    1    3    3    0    0  0.11024877466E+00  0.46202100766E-01  0.42453353666E-01  0.88909600925E+00  0.88000000000E+00 0.  1.
        -11    1    4    4    0    0 -0.41188700313E-01 -0.20435627697E-01 -0.13078868503E-01  0.47806294932E-01  0.51100000000E-03 0. -1.
         11    1    4    4    0    0 -0.59335918745E-01 -0.42688261079E-01 -0.41494174747E-01  0.84053950212E-01  0.51100000000E-03 0.  1.
</event>
<event>
 8    1  0.1082757E+005  0.1043930E+01  0.7957747E-01            NaN
         13   -1    0    0    0    0  0.00000000000E+00  0.00000000000E+00  0.74505805969E-08  0.10566000000E+00  0.10566000000E+00 0.  1.
     999900   -1    0    0    0    0 -0.00000000000E+00 -0.00000000000E+00 -0.74505805969E-08  0.93827000000E+00  0.93827000000E+00 0. -1.
     999902    2    1    2    0    0  0.23028046993E-01 -0.15020582624E-02 -0.18568088120E-02  0.10207784371E+01  0.10205158611E+01 0.  0.
     999903    2    3    3    0    0 -0.46882004055E-01 -0.93244859647E-01  0.75224568050E-01  0.12991049202E+00  0.18040901995E-01 0.  0.
         14    1    1    2    0    0 -0.23028046993E-01  0.15020582624E-02  0.18568088120E-02  0.23151562935E-01  0.00000000000E+00 0.  1.
     999901    1    3    3    0    0  0.69910051048E-01  0.91742801385E-01 -0.77081376862E-01  0.89086794504E+00  0.88000000000E+00 0. -1.
        -11    1    4    4    0    0 -0.27098902073E-01 -0.43436325582E-01  0.27350150290E-01  0.58046160213E-01  0.51100000000E-03 0.  1.
         11    1    4    4    0    0 -0.19783101982E-01 -0.49808534066E-01  0.47874417760E-01  0.71864331811E-01  0.51100000000E-03 0. -1.
</event>
<event>
 8    1  0.1082757E+005  0.1043930E+01  0.7957747E-01            NaN
         13   -1    0    0    0    0  0.00000000000E+00  0.00000000000E+00  0.74505805969E-08  0.10566000000E+00  0.10566000000E+00 0. -1.
     999900   -1    0    0    0    0 -0.00000000000E+00 -0.00000000000E+00 -0.74505805969E-08  0.93827000000E+00  0.93827000000E+00 0.  1.
     999902    2    1    2    0    0  0.21023846966E-01 -0.11232895864E-01  0.87527448566E-03  0.10200774069E+01  0.10197984948E+01 0.  0.
     999903    2    3    3    0    0  0.83423076722E-01 -0.40260573840E-01 -0.92482340771E-01  0.13246718037E+00  0.20353058387E-01 0.  0.
         14    1    1    2    0    0 -0.21023846966E-01  0.11232895864E-01 -0.87527448566E-03  0.23852593070E-01  0.00000000000E+00 0. -1.
     999901    1    3    3    0    0 -0.62399229755E-01  0.29027677976E-01  0.93357615256E-01  0.88761022656E+00  0.88000000000E+00 0. -1.
        -11    1    4    4    0    0  0.47668940796E-01 -0.31078320489E-01 -0.46438922415E-01  0.73450830881E-01  0.51100000000E-03 0. -1.
         11    1    4    4    0    0  0.35754135925E-01 -0.91822533511E-02 -0.46043418356E-01  0.59016349491E-01  0.51100000000E-03 0.  1.
</event>
<event>
 8    1  0.1082757E+005  0.1043930E+01  0.7957747E-01            NaN
         13   -1    0    0    0    0  0.00000000000E+00  0.00000000000E+00  0.74505805969E-08  0.10566000000E+00  0.10566000000E+00 0. -1.
     999900   -1    0    0    0    0 -0.00000000000E+00 -0.00000000000E+00 -0.74505805969E-08  0.93827000000E+00  0.93827000000E+00 0.  1.
     999902    2    1    2    0    0  0.17444971120E-01 -0.16356237466E-01  0.41000907657E-02  0.10196675956E+01  0.10193788998E+01 0.  0.
     999903    2    3    3    0    0  0.12164592697E+00  0.23994724370E-01 -0.39092863685E-01  0.13155067167E+00  0.20095991579E-01 0.  0.
         14    1    1    2    0    0 -0.17444971120E-01  0.16356237466E-01 -0.41000907657E-02  0.24262404368E-01  0.00000000000E+00 0.  1.
     999901    1    3    3    0    0 -0.10420095585E+00 -0.40350961836E-01  0.43192954451E-01  0.88811692397E+00  0.88000000000E+00 0. -1.
        -11    1    4    4    0    0  0.78380264309E-01  0.16169190601E-01 -0.15046766173E-01  0.81434481954E-01  0.51100000000E-03 0. -1.
         11    1    4    4    0    0  0.43265662665E-01  0.78255337685E-02 -0.24046097513E-01  0.50116189711E-01  0.51100000000E-03 0.  1.
</event>
<event>
 8    1  0.1082757E+005  0.1043930E+01  0.7957747E-01            NaN
         13   -1    0    0    0    0  0.00000000000E+00  0.00000000000E+00  0.74505805969E-08  0.10566000000E+00  0.10566000000E+00 0. -1.
     999900   -1    0    0    0    0 -0.00000000000E+00 -0.00000000000E+00 -0.74505805969E-08  0.93827000000E+00  0.93827000000E+00 0.  1.
     999902    2    1    2    0    0  0.15134447395E-01 -0.33671016120E-02 -0.16407030227E-01  0.10213561321E+01  0.10211066394E+01 0.  0.
     999903    2    3    3    0    0 -0.79284817735E-01 -0.94008137169E-01 -0.41827891096E-01  0.13131286623E+00  0.19232373382E-01 0.  0.
         14    1    1    2    0    0 -0.15134447395E-01  0.33671016120E-02  0.16407030227E-01  0.22573867903E-01  0.00000000000E+00 0. -1.
     999901    1    3    3    0    0  0.94419265130E-01  0.90641035557E-01  0.25420860869E-01  0.89004326587E+00  0.88000000000E+00 0. -1.
        -11    1    4    4    0    0 -0.18599484904E-01 -0.14392208930E-01 -0.21249955731E-02  0.23618917074E-01  0.51100000000E-03 0.  1.
         11    1    4    4    0    0 -0.60685332831E-01 -0.79615928239E-01 -0.39702895523E-01  0.10769394915E+00  0.51100000000E-03 0. -1.
</event>
<event>
 8    1  0.1082757E+005  0.1043930E+01  0.7957747E-01            NaN
         13   -1    0    0    0    0  0.00000000000E+00  0.00000000000E+00  0.74505805969E-08  0.10566000000E+00  0.10566000000E+00 0.  1.
     999900   -1    0    0    0    0 -0.00000000000E+00 -0.00000000000E+00 -0.74505805969E-08  0.93827000000E+00  0.93827000000E+00 0. -1.
     999902    2    1    2    0    0  0.13431144584E-01  0.11249727977E-01 -0.15689250821E-01  0.10204118237E+01  0.10201407674E+01 0.  0.
     999903    2    3    3    0    0 -0.75490841843E-01  0.70698617876E-01  0.75042550969E-01  0.12930377750E+00  0.19771713312E-01 0.  0.
         14    1    1    2    0    0 -0.13431144584E-01 -0.11249727977E-01  0.15689250821E-01  0.23518176284E-01  0.00000000000E+00 0.  1.
     999901    1    3    3    0    0  0.88921986427E-01 -0.59448889899E-01 -0.90731801790E-01  0.89110804622E+00  0.88000000000E+00 0. -1.
        -11    1    4    4    0    0 -0.27690522636E-01  0.31596019167E-01  0.41358173554E-01  0.58956196551E-01  0.51100000000E-03 0. -1.
         11    1    4    4    0    0 -0.47800319207E-01  0.39102598709E-01  0.33684377416E-01  0.70347580946E-01  0.51100000000E-03 0.  1.
</event>
<event>
 8    1  0.1082757E+005  0.1043930E+01  0.7957747E-01            NaN
         13   -1    0    0    0    0  0.00000000000E+00  0.00000000000E+00  0.74505805969E-08  0.10566000000E+00  0.10566000000E+00 0.  1.
     999900   -1    0    0    0    0 -0.00000000000E+00 -0.00000000000E+00 -0.74505805969E-08  0.93827000000E+00  0.93827000000E+00 0. -1.
     999902    2    1    2    0    0  0.17851060842E-01  0.83325620457E-02 -0.13096184467E-01  0.10202740914E+01  0.10199998135E+01 0.  0.
     999903    2    3    3    0    0 -0.11176565394E-01  0.70383464387E-01 -0.10961060133E+00  0.13235069932E+00  0.20578532817E-01 0.  0.
         14    1    1    2    0    0 -0.17851060842E-01 -0.83325620457E-02  0.13096184467E-01  0.23655908586E-01  0.00000000000E+00 0. -1.
     999901    1    3    3    0    0  0.29027626236E-01 -0.62050902341E-01  0.96514416864E-01  0.88792339209E+00  0.88000000000E+00 0.  1.
        -11    1    4    4    0    0 -0.16752379230E-01  0.53084080888E-01 -0.77022496958E-01  0.95033089039E-01  0.51100000000E-03 0. -1.
         11    1    4    4    0    0  0.55758138364E-02  0.17299383498E-01 -0.32588104373E-01  0.37317610280E-01  0.51100000000E-03 0.  1.
</event>
<event>
 8    1  0.1082757E+005  0.1043930E+01  0.7957747E-01            NaN
         13   -1    0    0    0    0  0.00000000000E+00  0.00000000000E+00  0.74505805969E-08  0.10566000000E+00  0.10566000000E+00 0.  1.
     999900   -1    0    0    0    0 -0.00000000000E+00 -0.00000000000E+00 -0.74505805969E-08  0.93827000000E+00  0.93827000000E+00 0. -1.
     999902    2    1    2    0    0 -0.12316268620E-01  0.19284535237E-01 -0.21616717254E-02  0.10209461666E+01  0.10206874245E+01 0.  0.
     999903    2    3    3    0    0  0.77703190938E-01 -0.86087074556E-01 -0.52145318635E-01  0.12869897878E+00  0.19887749919E-01 0.  0.
         14    1    1    2    0    0  0.12316268620E-01 -0.19284535237E-01  0.21616717254E-02  0.22983833377E-01  0.00000000000E+00 0. -1.
     999901    1    3    3    0    0 -0.90019459558E-01  0.10537160979E+00  0.49983646909E-01  0.89224718784E+00  0.88000000000E+00 0.  1.
        -11    1    4    4    0    0  0.59452627498E-01 -0.61717883009E-01 -0.47244527884E-01  0.97857133288E-01  0.51100000000E-03 0.  1.
         11    1    4    4    0    0  0.18250563440E-01 -0.24369191548E-01 -0.49007907510E-02  0.30841845495E-01  0.51100000000E-03 0. -1.
</event>
<event>
 8    1  0.1082757E+005  0.1043930E+01  0.7957747E-01            NaN
         13   -1    0    0    0    0  0.00000000000E+00  0.00000000000E+00  0.74505805969E-08  0.10566000000E+00  0.10566000000E+00 0.  1.
     999900   -1    0    0    0    0 -0.00000000000E+00 -0.00000000000E+00 -0.74505805969E-08  0.93827000000E+00  0.93827000000E+00 0.  1.
     999902    2    1    2    0    0  0.45922212007E-02  0.20308313154E-01 -0.20267178161E-01  0.10148735964E+01  0.10144575605E+01 0.  0.
     999903    2    3    3    0    0  0.11752895468E+00 -0.34341600261E-01  0.15221581227E-01  0.12526650851E+00  0.21624082040E-01 0.  0.
         14    1    1    2    0    0 -0.45922212007E-02 -0.20308313154E-01  0.20267178161E-01  0.29056403585E-01  0.00000000000E+00 0.  1.
     999901    1    3    3    0    0 -0.11293673347E+00  0.54649913415E-01 -0.35488759388E-01  0.88960708790E+00  0.88000000000E+00 0.  1.
        -11    1    4    4    0    0  0.36877226222E-01 -0.61476675303E-03  0.58000132906E-02  0.37339108548E-01  0.51100000000E-03 0.  1.
         11    1    4    4    0    0  0.80651728454E-01 -0.33726833508E-01  0.94215679369E-02  0.87927399964E-01  0.51100000000E-03 0. -1.
</event>
<event>
 8    1  0.1082757E+005  0.1043930E+01  0.7957747E-01            NaN
         13   -1    0    0    0    0  0.00000000000E+00  0.00000000000E+00  0.74505805969E-08  0.10566000000E+00  0.10566000000E+00 0.  1.
     999900   -1    0    0    0    0 -0.00000000000E+00 -0.00000000000E+00 -0.74505805969E-08  0.93827000000E+00  0.93827000000E+00 0.  1.
     999902    2    1    2    0    0 -0.16097638103E-01 -0.14437838451E-01  0.10757892784E-01  0.10197780355E+01  0.10194919933E+01 0.  0.
     999903    2    3    3    0    0 -0.16171890964E-01  0.12440000511E+00 -0.16976680676E-01  0.12846150426E+00  0.21846259651E-01 0.  0.
         14    1    1    2    0    0  0.16097638103E-01  0.14437838451E-01 -0.10757892784E-01  0.24151964491E-01  0.00000000000E+00 0. -1.
     999901    1    3    3    0    0  0.74252861226E-04 -0.13883784356E+00  0.27734573460E-01  0.89131653125E+00  0.88000000000E+00 0.  1.
        -11    1    4    4    0    0 -0.10497780631E-01  0.40443788657E-01 -0.14647624627E-01  0.44279989469E-01  0.51100000000E-03 0.  1.
         11    1    4    4    0    0 -0.56741103325E-02  0.83956216452E-01 -0.23290560488E-02  0.84181514788E-01  0.51100000000E-03 0. -1.
</event>
<event>
 8    1  0.1082757E+005  0.1043930E+01  0.7957747E-01            NaN
         13   -1    0    0    0    0  0.00000000000E+00  0.00000000000E+00  0.74505805969E-08  0.10566000000E+00  0.10566000000E+00 0.  1.
     999900   -1    0    0    0    0 -0.00000000000E+00 -0.00000000000E+00 -0.74505805969E-08  0.93827000000E+00  0.93827000000E+00 0. -1.
     999902    2    1    2    0    0 -0.21130626200E-01  0.30638460489E-02 -0.11745518567E-01  0.10195610090E+01  0.10192697402E+01 0.  0.
     999903    2    3    3    0    0 -0.73788104963E-01  0.10649537156E+00  0.80449825872E-03  0.13185137547E+00  0.24457910742E-01 0.  0.
         14    1    1    2    0    0  0.21130626200E-01 -0.30638460489E-02  0.11745518567E-01  0.24368991005E-01  0.00000000000E+00 0.  1.
     999901    1    3    3    0    0  0.52657478763E-01 -0.10343152551E+00 -0.12550016826E-01  0.88770963353E+00  0.88000000000E+00 0.  1.
        -11    1    4    4    0    0 -0.20207528865E-01  0.44437015516E-01  0.83008966584E-02  0.49519274804E-01  0.51100000000E-03 0.  1.
         11    1    4    4    0    0 -0.53580576098E-01  0.62058356040E-01 -0.74963983997E-02  0.82332100661E-01  0.51100000000E-03 0. -1.
</event>
<event>
 8    1  0.1082757E+005  0.1043930E+01  0.7957747E-01            NaN
         13   -1    0    0    0    0  0.00000000000E+00  0.00000000000E+00  0.74505805969E-08  0.10566000000E+00  0.10566000000E+00 0.  1.
     999900   -1    0    0    0    0 -0.00000000000E+00 -0.00000000000E+00 -0.74505805969E-08  0.93827000000E+00  0.93827000000E+00 0.  1.
     999902    2    1    2    0    0 -0.12734984114E-01 -0.18894367983E-01 -0.51567012290E-02  0.10205683106E+01  0.10203008910E+01 0.  0.
     999903    2    3    3    0    0  0.66221375980E-01  0.89457602909E-01 -0.61196434087E-01  0.12865199840E+00  0.20454823201E-01 0.  0.
         14    1    1    2    0    0  0.12734984114E-01  0.18894367983E-01  0.51567012290E-02  0.23361689353E-01  0.00000000000E+00 0. -1.
     999901    1    3    3    0    0 -0.78956360093E-01 -0.10835197089E+00  0.56039732858E-01  0.89191631225E+00  0.88000000000E+00 0.  1.
        -11    1    4    4    0    0  0.32361041287E-01  0.32696526450E-01 -0.16558740029E-01  0.48895325211E-01  0.51100000000E-03 0. -1.
         11    1    4    4    0    0  0.33860334693E-01  0.56761076459E-01 -0.44637694058E-01  0.79756673188E-01  0.51100000000E-03 0.  1.
</event>
<event>
 8    1  0.1082757E+005  0.1043930E+01  0.7957747E-01            NaN
         13   -1    0    0    0    0  0.00000000000E+00  0.00000000000E+00  0.74505805969E-08  0.10566000000E+00  0.10566000000E+00 0.  1.
     999900   -1    0    0    0    0 -0.00000000000E+00 -0.00000000000E+00 -0.74505805969E-08  0.93827000000E+00  0.93827000000E+00 0. -1.
     999902    2    1    2    0    0  0.50236221611E-02 -0.21294985176E-01 -0.85565085347E-02  0.10204368731E+01  0.10201664006E+01 0.  0.
     999903    2    3    3    0    0 -0.75039005658E-01 -0.73511263664E-01  0.75963292275E-01  0.13123489332E+00  0.20430790395E-01 0.  0.
         14    1    1    2    0    0 -0.50236221611E-02  0.21294985176E-01  0.85565085347E-02  0.23493126901E-01  0.00000000000E+00 0. -1.
     999901    1    3    3    0    0  0.80062627819E-01  0.52216278488E-01 -0.84519800810E-01  0.88920197978E+00  0.88000000000E+00 0. -1.
        -11    1    4    4    0    0 -0.65243864933E-01 -0.52212634671E-01  0.59526250857E-01  0.10259900971E+00  0.51100000000E-03 0. -1.
         11    1    4    4    0    0 -0.97951407246E-02 -0.21298628993E-01  0.16437041418E-01  0.28635883614E-01  0.51100000000E-03 0.  1.
</event>
<event>
 8    1  0.1082757E+005  0.1043930E+01  0.7957747E-01            NaN
         13   -1    0    0    0    0  0.00000000000E+00  0.00000000000E+00  0.74505805969E-08  0.10566000000E+00  0.10566000000E+00 0. -1.
     999900   -1    0    0    0    0 -0.00000000000E+00 -0.00000000000E+00 -0.74505805969E-08  0.93827000000E+00  0.93827000000E+00 0. -1.
     999902    2    1    2    0    0 -0.55966579062E-02  0.19390688894E-01 -0.12531974475E-01  0.10201734897E+01  0.10198968464E+01 0.  0.
     999903    2    3    3    0    0  0.16746232706E-01 -0.12432376756E+00  0.14005744081E-01  0.12784098430E+00  0.20256379498E-01 0.  0.
         14    1    1    2    0    0  0.55966579062E-02 -0.19390688894E-01  0.12531974475E-01  0.23756510260E-01  0.00000000000E+00 0. -1.
     999901    1    3    3    0    0 -0.22342890612E-01  0.14371445645E+00 -0.26537718556E-01  0.89233250544E+00  0.88000000000E+00 0. -1.
        -11    1    4    4    0    0  0.10979916562E-01 -0.88134189089E-01  0.60745701432E-03  0.88819051893E-01  0.51100000000E-03 0. -1.
         11    1    4    4    0    0  0.57663161438E-02 -0.36189578469E-01  0.13398287067E-01  0.39021932409E-01  0.51100000000E-03 0.  1.
</event>
<event>
 8    1  0.1082757E+005  0.1043930E+01  0.7957747E-01            NaN
         13   -1    0    0    0    0  0.00000000000E+00  0.00000000000E+00  0.74505805969E-08  0.10566000000E+00  0.10566000000E+00 0. -1.
     999900   -1    0    0    0    0 -0.00000000000E+00 -0.00000000000E+00 -0.74505805969E-08  0.93827000000E+00  0.93827000000E+00 0.  1.
     999902    2    1    2    0    0  0.88811137921E-02 -0.18749438634E-01  0.12734146520E-01  0.10195871547E+01  0.10192965181E+01 0.  0.
     999903    2    3    3    0    0 -0.32187906605E-01  0.51777912022E-01 -0.11082130817E+00  0.12721575104E+00  0.13618790859E-01 0.  0.
         14    1    1    2    0    0 -0.88811137921E-02  0.18749438634E-01 -0.12734146520E-01  0.24342845332E-01  0.00000000000E+00 0.  1.
     999901    1    3    3    0    0  0.41069020397E-01 -0.70527350656E-01  0.12355545469E+00  0.89237140363E+00  0.88000000000E+00 0. -1.
        -11    1    4    4    0    0 -0.17318147884E-01  0.28484655965E-01 -0.46593021422E-01  0.57292797434E-01  0.51100000000E-03 0.  1.
         11    1    4    4    0    0 -0.14869758721E-01  0.23293256058E-01 -0.64228286744E-01  0.69922953608E-01  0.51100000000E-03 0. -1.
</event>
<event>
 8    1  0.1082757E+005  0.1043930E+01  0.7957747E-01            NaN
         13   -1    0    0    0    0  0.00000000000E+00  0.00000000000E+00  0.74505805969E-08  0.10566000000E+00  0.10566000000E+00 0. -1.
     999900   -1    0    0    0    0 -0.00000000000E+00 -0.00000000000E+00 -0.74505805969E-08  0.93827000000E+00  0.93827000000E+00 0. -1.
     999902    2    1    2    0    0  0.19182446029E-01  0.13803485538E-01 -0.71885489480E-02  0.10192282251E+01  0.10189288479E+01 0.  0.
     999903    2    3    3    0    0  0.12310676668E+00  0.41983093241E-01 -0.15938336620E-01  0.13262182226E+00  0.20412276849E-01 0.  0.
         14    1    1    2    0    0 -0.19182446029E-01 -0.13803485538E-01  0.71885489480E-02  0.24701774929E-01  0.00000000000E+00 0. -1.
     999901    1    3    3    0    0 -0.10392432065E+00 -0.28179607702E-01  0.87497876720E-02  0.88660640281E+00  0.88000000000E+00 0.  1.
        -11    1    4    4    0    0  0.58250435772E-01  0.27534539838E-01 -0.15054675941E-01  0.66167730355E-01  0.51100000000E-03 0. -1.
         11    1    4    4    0    0  0.64856330908E-01  0.14448553403E-01 -0.88366067877E-03  0.66454091909E-01  0.51100000000E-03 0.  1.
</event>
<event>
 8    1  0.1082757E+005  0.1043930E+01  0.7957747E-01            NaN
         13   -1    0    0    0    0  0.00000000000E+00  0.00000000000E+00  0.74505805969E-08  0.10566000000E+00  0.10566000000E+00 0.  1.
     999900   -1    0    0    0    0 -0.00000000000E+00 -0.00000000000E+00 -0.74505805969E-08  0.93827000000E+00  0.93827000000E+00 0. -1.
     999902    2    1    2    0    0  0.95431505219E-03 -0.48571540465E-02 -0.23242619262E-01  0.10201661196E+01  0.10198893026E+01 0.  0.
     999903    2    3    3    0    0 -0.12187760586E+00  0.33073730854E-01 -0.27685463660E-01  0.13081457396E+00  0.19948568342E-01 0.  0.
         14    1    1    2    0    0 -0.95431505219E-03  0.48571540465E-02  0.23242619262E-01  0.23763880424E-01  0.00000000000E+00 0.  1.
     999901    1    3    3    0    0  0.12283192091E+00 -0.37930884900E-01  0.44428443985E-02  0.88935154562E+00  0.88000000000E+00 0. -1.
        -11    1    4    4    0    0 -0.78526382159E-01  0.28693688289E-01 -0.11801668989E-01  0.84434951025E-01  0.51100000000E-03 0.  1.
         11    1    4    4    0    0 -0.43351223702E-01  0.43800425645E-02 -0.15883794671E-01  0.46379622934E-01  0.51100000000E-03 0. -1.
</event>
<event>
 8    1  0.1082757E+005  0.1043930E+01  0.7957747E-01            NaN
         13   -1    0    0    0    0  0.00000000000E+00  0.00000000000E+00  0.74505805969E-08  0.10566000000E+00  0.10566000000E+00 0.  1.
     999900   -1    0    0    0    0 -0.00000000000E+00 -0.00000000000E+00 -0.74505805969E-08  0.93827000000E+00  0.93827000000E+00 0. -1.
     999902    2    1    2    0    0  0.73319423202E-02 -0.32450279162E-02  0.21117079422E-01  0.10213419804E+01  0.10210921713E+01 0.  0.
     999903    2    3    3    0    0 -0.11248589893E+00 -0.62583508252E-01 -0.10827076128E-01  0.13066931363E+00  0.19684282676E-01 0.  0.
         14    1    1    2    0    0 -0.73319423202E-02  0.32450279162E-02 -0.21117079422E-01  0.22588019561E-01  0.00000000000E+00 0. -1.
     999901    1    3    3    0    0  0.11981784125E+00  0.59338480336E-01  0.31944155550E-01  0.89067266681E+00  0.88000000000E+00 0.  1.
        -11    1    4    4    0    0 -0.80964983535E-01 -0.40978933244E-01  0.70775040020E-03  0.90748903907E-01  0.51100000000E-03 0.  1.
         11    1    4    4    0    0 -0.31520915390E-01 -0.21604575008E-01 -0.11534826528E-01  0.39920409722E-01  0.51100000000E-03 0. -1.
</event>
<event>
 8    1  0.1082757E+005  0.1043930E+01  0.7957747E-01            NaN
         13   -1    0    0    0    0  0.00000000000E+00  0.00000000000E+00  0.74505805969E-08  0.10566000000E+00  0.10566000000E+00 0. -1.
     999900   -1    0    0    0    0 -0.00000000000E+00 -0.00000000000E+00 -0.74505805969E-08  0.93827000000E+00  0.93827000000E+00 0.  1.
     999902    2    1    2    0    0 -0.56040149923E-02 -0.20510435508E-01  0.98905838389E-02  0.10204799126E+01  0.10202104418E+01 0.  0.
     999903    2    3    3    0    0  0.24663034428E-01 -0.28377641326E-01 -0.12279408063E+00  0.12998386694E+00  0.20096358685E-01 0.  0.
         14    1    1    2    0    0  0.56040149923E-02  0.20510435508E-01 -0.98905838389E-02  0.23450087366E-01  0.00000000000E+00 0.  1.
     999901    1    3    3    0    0 -0.30267049421E-01  0.78672058178E-02  0.13268466447E+00  0.89049604569E+00  0.88000000000E+00 0. -1.
        -11    1    4    4    0    0  0.19907215530E-01 -0.27051404413E-01 -0.78130963193E-01  0.85045777328E-01  0.51100000000E-03 0.  1.
         11    1    4    4    0    0  0.47558188986E-02 -0.13262369130E-02 -0.44663117440E-01  0.44938089614E-01  0.51100000000E-03 0. -1.
</event>
<event>
 8    1  0.1082757E+005  0.1043930E+01  0.7957747E-01            NaN
         13   -1    0    0    0    0  0.00000000000E+00  0.00000000000E+00  0.74505805969E-08  0.10566000000E+00  0.10566000000E+00 0.  1.
     999900   -1    0    0    0    0 -0.00000000000E+00 -0.00000000000E+00 -0.74505805969E-08  0.93827000000E+00  0.93827000000E+00 0.  1.
     999902    2    1    2    0    0 -0.11143539987E-01  0.19749795314E-01  0.13181984389E-02  0.10212150150E+01  0.10209623579E+01 0.  0.
     999903    2    3    3    0    0  0.59568715880E-01 -0.36005778376E-01  0.10832609144E+00  0.13017091038E+00  0.19106957756E-01 0.  0.
         14    1    1    2    0    0  0.11143539987E-01 -0.19749795314E-01 -0.13181984389E-02  0.22714985044E-01  0.00000000000E+00 0.  1.
     999901    1    3    3    0    0 -0.70712255868E-01  0.55755573690E-01 -0.10700789301E+00  0.89104410457E+00  0.88000000000E+00 0.  1.
        -11    1    4    4    0    0  0.29647601209E-01 -0.21763577597E-01  0.40683290776E-01  0.54845463227E-01  0.51100000000E-03 0.  1.
         11    1    4    4    0    0  0.29921114672E-01 -0.14242200779E-01  0.67642800668E-01  0.75325447158E-01  0.51100000000E-03 0. -1.
</event>
<event>
 8    1  0.1082757E+005  0.1043930E+01  0.7957747E-01            NaN
         13   -1    0    0    0    0  0.00000000000E+00  0.00000000000E+00  0.74505805969E-08  0.10566000000E+00  0.10566000000E+00 0.  1.
     999900   -1    0    0    0    0 -0.00000000000E+00 -0.00000000000E+00 -0.74505805969E-08  0.93827000000E+00  0.93827000000E+00 0.  1.
     999902    2    1    2    0    0  0.13588054619E-01 -0.16524327769E-01  0.86077035438E-02  0.10208696185E+01  0.10206091302E+01 0.  0.
     999903    2    3    3    0    0 -0.72346324273E-01 -0.10068679070E+00  0.40607009493E-01  0.13211093736E+00  0.20797838686E-01 0.  0.
         14    1    1    2    0    0 -0.13588054619E-01  0.16524327769E-01 -0.86077035438E-02  0.23060381542E-01  0.00000000000E+00 0. -1.
     999901    1    3    3    0    0  0.85934378892E-01  0.84162462928E-01 -0.31999305949E-01  0.88875868110E+00  0.88000000000E+00 0.  1.
        -11    1    4    4    0    0 -0.26019670664E-01 -0.27136685712E-01  0.20756037411E-01  0.42947609747E-01  0.51100000000E-03 0. -1.
         11    1    4    4    0    0 -0.46326653609E-01 -0.73550104985E-01  0.19850972081E-01  0.89163327616E-01  0.51100000000E-03 0.  1.
</event>
<event>
 8    1  0.1179609E+005  0.1043930E+01  0.7957747E-01            NaN
         13   -1    0    0    0    0  0.00000000000E+00  0.00000000000E+00  0.74505805969E-08  0.10566000000E+00  0.10566000000E+00 0. -1.
     999900   -1    0    0    0    0 -0.00000000000E+00 -0.00000000000E+00 -0.74505805969E-08  0.93827000000E+00  0.93827000000E+00 0.  1.
     999902    2    1    2    0    0  0.20370424830E-01  0.12172916259E-01 -0.22118019212E-03  0.10201985226E+01  0.10199224689E+01 0.  0.
     999903    2    3    3    0    0 -0.80068659486E-01 -0.94686781630E-01 -0.22953146270E-01  0.12777275709E+00  0.20553678128E-01 0.  0.
         14    1    1    2    0    0 -0.20370424830E-01 -0.12172916259E-01  0.22118019212E-03  0.23731477381E-01  0.00000000000E+00 0.  1.
     999901    1    3    3    0    0  0.10043908432E+00  0.10685969789E+00  0.22731966078E-01  0.89242576552E+00  0.88000000000E+00 0.  1.
        -11    1    4    4    0    0 -0.53530250078E-01 -0.68192702741E-01 -0.68703913060E-02  0.86966636006E-01  0.51100000000E-03 0. -1.
         11    1    4    4    0    0 -0.26538409408E-01 -0.26494078889E-01 -0.16082754964E-01  0.40806121089E-01  0.51100000000E-03 0.  1.
</event>
<event>
 8    1  0.1082757E+005  0.1043930E+01  0.7957747E-01            NaN
         13   -1    0    0    0    0  0.00000000000E+00  0.00000000000E+00  0.74505805969E-08  0.10566000000E+00  0.10566000000E+00 0.  1.
     999900   -1    0    0    0    0 -0.00000000000E+00 -0.00000000000E+00 -0.74505805969E-08  0.93827000000E+00  0.93827000000E+00 0. -1.
     999902    2    1    2    0    0  0.11776122746E-01  0.19282210119E-01 -0.69158683230E-02  0.10203014171E+01  0.10200277799E+01 0.  0.
     999903    2    3    3    0    0 -0.12182754806E+00 -0.12771237048E-01  0.34152752587E-01  0.12869388242E+00  0.19764839979E-01 0.  0.
         14    1    1    2    0    0 -0.11776122746E-01 -0.19282210119E-01  0.69158683230E-02  0.23628582875E-01  0.00000000000E+00 0.  1.
     999901    1    3    3    0    0  0.13360367081E+00  0.32053447167E-01 -0.41068620910E-01  0.89160753471E+00  0.88000000000E+00 0. -1.
        -11    1    4    4    0    0 -0.78368589919E-01 -0.15370940121E-01  0.15632504318E-01  0.81378977619E-01  0.51100000000E-03 0. -1.
         11    1    4    4    0    0 -0.43458958142E-01  0.25997030727E-02  0.18520248269E-01  0.47314904796E-01  0.51100000000E-03 0.  1.
</event>
<event>
 8    1  0.1082757E+005  0.1043930E+01  0.7957747E-01            NaN
         13   -1    0    0    0    0  0.00000000000E+00  0.00000000000E+00  0.74505805969E-08  0.10566000000E+00  0.10566000000E+00 0.  1.
     999900   -1    0    0    0    0 -0.00000000000E+00 -0.00000000000E+00 -0.74505805969E-08  0.93827000000E+00  0.93827000000E+00 0. -1.
     999902    2    1    2    0    0 -0.45055649910E-02 -0.16401475092E-01  0.17604804957E-01  0.10194506687E+01  0.10191567241E+01 0.  0.
     999903    2    3    3    0    0 -0.58745329902E-01  0.59700481773E-01  0.98403970830E-01  0.13082140682E+00  0.20389646866E-01 0.  0.
         14    1    1    2    0    0  0.45055649910E-02  0.16401475092E-01 -0.17604804957E-01  0.24479331254E-01  0.00000000000E+00 0. -1.
     999901    1    3    3    0    0  0.54239764911E-01 -0.76101956864E-01 -0.80799165873E-01  0.88862926192E+00  0.88000000000E+00 0. -1.
        -11    1    4    4    0    0 -0.96362787626E-02  0.50531099455E-02  0.50072062577E-02  0.11988537193E-01  0.51100000000E-03 0.  1.
         11    1    4    4    0    0 -0.49109051140E-01  0.54647371827E-01  0.93396764572E-01  0.11883286963E+00  0.51100000000E-03 0. -1.
</event>
<event>
 8    1  0.1082757E+005  0.1043930E+01  0.7957747E-01            NaN
         13   -1    0    0    0    0  0.00000000000E+00  0.00000000000E+00  0.74505805969E-08  0.10566000000E+00  0.10566000000E+00 0.  1.
     999900   -1    0    0    0    0 -0.00000000000E+00 -0.00000000000E+00 -0.74505805969E-08  0.93827000000E+00  0.93827000000E+00 0.  1.
     999902    2    1    2    0    0  0.19723368663E-01  0.81300439460E-02  0.11092978248E-01  0.10198849786E+01  0.10196014940E+01 0.  0.
     999903    2    3    3    0    0 -0.10223935990E+00  0.33341875686E-01  0.69519871066E-01  0.12919746586E+00  0.17158243640E-01 0.  0.
         14    1    1    2    0    0 -0.19723368663E-01 -0.81300439460E-02 -0.11092978248E-01  0.24045021364E-01  0.00000000000E+00 0. -1.
     999901    1    3    3    0    0  0.12196272856E+00 -0.25211831740E-01 -0.58426892818E-01  0.89068751278E+00  0.88000000000E+00 0.  1.
        -11    1    4    4    0    0 -0.91509566656E-01  0.33214387102E-01  0.57451587492E-01  0.11304044553E+00  0.51100000000E-03 0.  1.
         11    1    4    4    0    0 -0.10729793239E-01  0.12748858363E-03  0.12068283575E-01  0.16157020323E-01  0.51100000000E-03 0. -1.
</event>
<event>
 8    1  0.1082757E+005  0.1043930E+01  0.7957747E-01            NaN
         13   -1    0    0    0    0  0.00000000000E+00  0.00000000000E+00  0.74505805969E-08  0.10566000000E+00  0.10566000000E+00 0.  1.
     999900   -1    0    0    0    0 -0.00000000000E+00 -0.00000000000E+00 -0.74505805969E-08  0.93827000000E+00  0.93827000000E+00 0. -1.
     999902    2    1    2    0    0 -0.38329943901E-02  0.25241067792E-02  0.21926936125E-01  0.10215279133E+01  0.10212822451E+01 0.  0.
     999903    2    3    3    0    0  0.39662918870E-01 -0.10881274118E+00 -0.56053067570E-01  0.13002992162E+00  0.18774300372E-01 0.  0.
         14    1    1    2    0    0  0.38329943901E-02 -0.25241067792E-02 -0.21926936125E-01  0.22402086707E-01  0.00000000000E+00 0.  1.
     999901    1    3    3    0    0 -0.43495913260E-01  0.11133684796E+00  0.77980003695E-01  0.89149799168E+00  0.88000000000E+00 0.  1.
        -11    1    4    4    0    0  0.39119556090E-01 -0.95392402081E-01 -0.44463689351E-01  0.11228237099E+00  0.51100000000E-03 0.  1.
         11    1    4    4    0    0  0.54336278029E-03 -0.13420339104E-01 -0.11589378220E-01  0.17747550628E-01  0.51100000000E-03 0. -1.
</event>
<event>
 8    1  0.1082757E+005  0.1043930E+01  0.7957747E-01            NaN
         13   -1    0    0    0    0  0.00000000000E+00  0.00000000000E+00  0.74505805969E-08  0.10566000000E+00  0.10566000000E+00 0. -1.
     999900   -1    0    0    0    0 -0.00000000000E+00 -0.00000000000E+00 -0.74505805969E-08  0.93827000000E+00  0.93827000000E+00 0. -1.
     999902    2    1    2    0    0 -0.98757382403E-02 -0.30030662653E-02  0.21177701487E-01  0.10203706356E+01  0.10200986179E+01 0.  0.
     999903    2    3    3    0    0  0.14049838494E-01 -0.12830336394E+00  0.73460070636E-02  0.13106533725E+00  0.21564036023E-01 0.  0.
         14    1    1    2    0    0  0.98757382403E-02  0.30030662653E-02 -0.21177701487E-01  0.23559364446E-01  0.00000000000E+00 0.  1.
     999901    1    3    3    0    0 -0.23925576734E-01  0.12530029767E+00  0.13831694424E-01  0.88930529830E+00  0.88000000000E+00 0.  1.
        -11    1    4    4    0    0  0.78313290230E-02 -0.11878058564E+00  0.97195974903E-02  0.11943571047E+00  0.51100000000E-03 0.  1.
         11    1    4    4    0    0  0.62185094711E-02 -0.95227782984E-02 -0.23735904267E-02  0.11629626781E-01  0.51100000000E-03 0. -1.
</event>
<event>
 8    1  0.1082757E+005  0.1043930E+01  0.7957747E-01            NaN
         13   -1    0    0    0    0  0.00000000000E+00  0.00000000000E+00  0.74505805969E-08  0.10566000000E+00  0.10566000000E+00 0. -1.
     999900   -1    0    0    0    0 -0.00000000000E+00 -0.00000000000E+00 -0.74505805969E-08  0.93827000000E+00  0.93827000000E+00 0.  1.
     999902    2    1    2    0    0 -0.10756903926E-01  0.22375723085E-01 -0.11287345904E-02  0.10190772736E+01  0.10187741809E+01 0.  0.
     999903    2    3    3    0    0  0.10599254803E+00  0.27978158414E-01  0.64956755172E-01  0.12889239747E+00  0.19408052371E-01 0.  0.
         14    1    1    2    0    0  0.10756903926E-01 -0.22375723085E-01  0.11287345904E-02  0.24852726358E-01  0.00000000000E+00 0.  1.
     999901    1    3    3    0    0 -0.11674945195E+00 -0.56024353284E-02 -0.66085489763E-01  0.89018487617E+00  0.88000000000E+00 0.  1.
        -11    1    4    4    0    0  0.59028536730E-01  0.55809609471E-02  0.34593955255E-01  0.68647783174E-01  0.51100000000E-03 0. -1.
         11    1    4    4    0    0  0.46964011297E-01  0.22397197467E-01  0.30362799918E-01  0.60244614293E-01  0.51100000000E-03 0.  1.
</event>
<event>
 8    1  0.1082757E+005  0.1043930E+01  0.7957747E-01            NaN
         13   -1    0    0    0    0  0.00000000000E+00  0.00000000000E+00  0.74505805969E-08  0.10566000000E+00  0.10566000000E+00 0.  1.
     999900   -1    0    0    0    0 -0.00000000000E+00 -0.00000000000E+00 -0.74505805969E-08  0.93827000000E+00  0.93827000000E+00 0.  1.
     999902    2    1    2    0    0  0.91641817060E-02  0.15083612361E-01  0.16099939767E-01  0.10200405536E+01  0.10197607687E+01 0.  0.
     999903    2    3    3    0    0 -0.91685560205E-01  0.38560078551E-01 -0.79515637445E-01  0.12882556635E+00  0.19497906048E-01 0.  0.
         14    1    1    2    0    0 -0.91641817060E-02 -0.15083612361E-01 -0.16099939767E-01  0.23889446388E-01  0.00000000000E+00 0. -1.
     999901    1    3    3    0    0  0.10084974191E+00 -0.23476466190E-01  0.95615577212E-01  0.89121498726E+00  0.88000000000E+00 0. -1.
        -11    1    4    4    0    0 -0.11846067053E-01  0.12805259907E-01 -0.12915946568E-01  0.21711443587E-01  0.51100000000E-03 0.  1.
         11    1    4    4    0    0 -0.79839493152E-01  0.25754818644E-01 -0.66599690877E-01  0.10711412277E+00  0.51100000000E-03 0. -1.
</event>
<event>
 8    1  0.1082757E+005  0.1043930E+01  0.7957747E-01            NaN
         13   -1    0    0    0    0  0.00000000000E+00  0.00000000000E+00  0.74505805969E-08  0.10566000000E+00  0.10566000000E+00 0. -1.
     999900   -1    0    0    0    0 -0.00000000000E+00 -0.00000000000E+00 -0.74505805969E-08  0.93827000000E+00  0.93827000000E+00 0. -1.
     999902    2    1    2    0    0 -0.13696491855E-01  0.14883691580E-01  0.12755340215E-01  0.10200173074E+01  0.10197369712E+01 0.  0.
     999903    2    3    3    0    0 -0.18418133411E-01 -0.11001671837E+00  0.62870185661E-01  0.12977357444E+00  0.21109581232E-01 0.  0.
         14    1    1    2    0    0  0.13696491855E-01 -0.14883691580E-01 -0.12755340215E-01  0.23912692617E-01  0.00000000000E+00 0.  1.
     999901    1    3    3    0    0  0.47216415554E-02  0.12490040995E+00 -0.50114845446E-01  0.89024373294E+00  0.88000000000E+00 0. -1.
        -11    1    4    4    0    0 -0.13800698688E-01 -0.86930375094E-01  0.58855345404E-01  0.10588466462E+00  0.51100000000E-03 0. -1.
         11    1    4    4    0    0 -0.46174347226E-02 -0.23086343274E-01  0.40148402571E-02  0.23888909822E-01  0.51100000000E-03 0.  1.
</event>
<event>
 8    1  0.1082757E+005  0.1043930E+01  0.7957747E-01            NaN
         13   -1    0    0    0    0  0.00000000000E+00  0.00000000000E+00  0.74505805969E-08  0.10566000000E+00  0.10566000000E+00 0.  1.
     999900   -1    0    0    0    0 -0.00000000000E+00 -0.00000000000E+00 -0.74505805969E-08  0.93827000000E+00  0.93827000000E+00 0. -1.
     999902    2    1    2    0    0 -0.16022700781E-01 -0.12217775473E-01 -0.11745847273E-01  0.10206069233E+01  0.10203403971E+01 0.  0.
     999903    2    3    3    0    0 -0.47755593592E-01  0.28140010247E-01  0.11587367023E+00  0.12992040798E+00  0.19497385970E-01 0.  0.
         14    1    1    2    0    0  0.16022700781E-01  0.12217775473E-01  0.11745847273E-01  0.23323076684E-01  0.00000000000E+00 0.  1.
     999901    1    3    3    0    0  0.31732892811E-01 -0.40357785720E-01 -0.12761951751E+00  0.89068651534E+00  0.88000000000E+00 0. -1.
        -11    1    4    4    0    0 -0.33600180658E-01  0.28690695918E-01  0.93813954518E-01  0.10369883006E+00  0.51100000000E-03 0.  1.
         11    1    4    4    0    0 -0.14155412934E-01 -0.55068567131E-03  0.22059715717E-01  0.26221577919E-01  0.51100000000E-03 0. -1.
</event>
<event>
 8    1  0.1082757E+005  0.1043930E+01  0.7957747E-01            NaN
         13   -1    0    0    0    0  0.00000000000E+00  0.00000000000E+00  0.74505805969E-08  0.10566000000E+00  0.10566000000E+00 0.  1.
     999900   -1    0    0    0    0 -0.00000000000E+00 -0.00000000000E+00 -0.74505805969E-08  0.93827000000E+00  0.93827000000E+00 0. -1.
     999902    2    1    2    0    0  0.80643512640E-02  0.22472557879E-01  0.57292172476E-02  0.10193765166E+01  0.10190807667E+01 0.  0.
     999903    2    3    3    0    0 -0.49473481039E-01 -0.98593323379E-01 -0.59374510127E-01  0.12684862060E+00  0.19924139963E-01 0.  0.
         14    1    1    2    0    0 -0.80643512640E-02 -0.22472557879E-01 -0.57292172476E-02  0.24553483443E-01  0.00000000000E+00 0. -1.
     999901    1    3    3    0    0  0.57537832303E-01  0.12106588126E+00  0.65103727375E-01  0.89252789596E+00  0.88000000000E+00 0.  1.
        -11    1    4    4    0    0 -0.17957785993E-01 -0.22476991164E-01 -0.84243000134E-02  0.29982114023E-01  0.51100000000E-03 0.  1.
         11    1    4    4    0    0 -0.31515695046E-01 -0.76116332214E-01 -0.50950210114E-01  0.96866506573E-01  0.51100000000E-03 0. -1.
</event>
<event>
 8    1  0.1082757E+005  0.1043930E+01  0.7957747E-01            NaN
         13   -1    0    0    0    0  0.00000000000E+00  0.00000000000E+00  0.74505805969E-08  0.10566000000E+00  0.10566000000E+00 0. -1.
     999900   -1    0    0    0    0 -0.00000000000E+00 -0.00000000000E+00 -0.74505805969E-08  0.93827000000E+00  0.93827000000E+00 0.  1.
     999902    2    1    2    0    0 -0.16152800396E-01 -0.12094469252E-01  0.12206528834E-01  0.10203463511E+01  0.10200737659E+01 0.  0.
     999903    2    3    3    0    0 -0.10783080959E+00 -0.70750565425E-01 -0.25031553517E-01  0.13285997392E+00  0.19800706911E-01 0.  0.
         14    1    1    2    0    0  0.16152800396E-01  0.12094469252E-01 -0.12206528834E-01  0.23583648854E-01  0.00000000000E+00 0. -1.
     999901    1    3    3    0    0  0.91678009190E-01  0.58656096173E-01  0.37238082351E-01  0.88748637723E+00  0.88000000000E+00 0. -1.
        -11    1    4    4    0    0 -0.35882158756E-01 -0.33751847645E-01 -0.13929913946E-01  0.51195899836E-01  0.51100000000E-03 0.  1.
         11    1    4    4    0    0 -0.71948650830E-01 -0.36998717780E-01 -0.11101639571E-01  0.81664074082E-01  0.51100000000E-03 0. -1.
</event>
<event>
 8    1  0.1082757E+005  0.1043930E+01  0.7957747E-01            NaN
         13   -1    0    0    0    0  0.00000000000E+00  0.00000000000E+00  0.74505805969E-08  0.10566000000E+00  0.10566000000E+00 0.  1.
     999900   -1    0    0    0    0 -0.00000000000E+00 -0.00000000000E+00 -0.74505805969E-08  0.93827000000E+00  0.93827000000E+00 0. -1.
     999902    2    1    2    0    0 -0.20661511017E-01  0.69834413361E-02 -0.85192448819E-02  0.10205153887E+01  0.10202467420E+01 0.  0.
     999903    2    3    3    0    0  0.48242704271E-01 -0.42340972111E-02  0.11747027788E+00  0.12880524299E+00  0.21124354240E-01 0.  0.
         14    1    1    2    0    0  0.20661511017E-01 -0.69834413361E-02  0.85192448819E-02  0.23414611330E-01  0.00000000000E+00 0.  1.
     999901    1    3    3    0    0 -0.68904215288E-01  0.11217538547E-01 -0.12598952277E+00  0.89171014568E+00  0.88000000000E+00 0. -1.
        -11    1    4    4    0    0  0.23319951609E-01 -0.12613744715E-01  0.57276183389E-01  0.63116947038E-01  0.51100000000E-03 0. -1.
         11    1    4    4    0    0  0.24922752662E-01  0.83796475043E-02  0.60194094494E-01  0.65688295955E-01  0.51100000000E-03 0.  1.
</event>
<event>
 8    1  0.1335999E+005  0.1043930E+01  0.7957747E-01            NaN
         13   -1    0    0    0    0  0.00000000000E+00  0.00000000000E+00  0.74505805969E-08  0.10566000000E+00  0.10566000000E+00 0.  1.
     999900   -1    0    0    0    0 -0.00000000000E+00 -0.00000000000E+00 -0.74505805969E-08  0.93827000000E+00  0.93827000000E+00 0.  1.
     999902    2    1    2    0    0  0.23956994214E-01  0.21753939061E-03  0.51383463514E-02  0.10194271941E+01  0.10191326786E+01 0.  0.
     999903    2    3    3    0    0 -0.54681535294E-01 -0.10323282604E+00 -0.49482758644E-01  0.12820922885E+00  0.18492600807E-01 0.  0.
         14    1    1    2    0    0 -0.23956994214E-01 -0.21753939061E-03 -0.51383463514E-02  0.24502805929E-01  0.00000000000E+00 0. -1.
     999901    1    3    3    0    0  0.78638529508E-01  0.10345036543E+00  0.54621104995E-01  0.89121796523E+00  0.88000000000E+00 0. -1.
        -11    1    4    4    0    0 -0.30416326508E-01 -0.71545468258E-01 -0.26418564711E-01  0.82110344226E-01  0.51100000000E-03 0.  1.
         11    1    4    4    0    0 -0.24265208786E-01 -0.31687357778E-01 -0.23064193933E-01  0.46098884620E-01  0.51100000000E-03 0. -1.
</event>
<event>
 8    1  0.1082757E+005  0.1043930E+01  0.7957747E-01            NaN
         13   -1    0    0    0    0  0.00000000000E+00  0.00000000000E+00  0.74505805969E-08  0.10566000000E+00  0.10566000000E+00 0. -1.
     999900   -1    0    0    0    0 -0.00000000000E+00 -0.00000000000E+00 -0.74505805969E-08  0.93827000000E+00  0.93827000000E+00 0. -1.
     999902    2    1    2    0    0  0.16301492111E-01  0.26365662381E-02  0.17143232049E-01  0.10201270478E+01  0.10198493091E+01 0.  0.
     999903    2    3    3    0    0  0.18412774078E-01  0.60142313574E-01  0.11514095094E+00  0.13281936648E+00  0.20674075469E-01 0.  0.
         14    1    1    2    0    0 -0.16301492111E-01 -0.26365662381E-02 -0.17143232049E-01  0.23802952163E-01  0.00000000000E+00 0.  1.
     999901    1    3    3    0    0 -0.21112819665E-02 -0.57505747336E-01 -0.97997718895E-01  0.88730768136E+00  0.88000000000E+00 0. -1.
        -11    1    4    4    0    0  0.11898140698E-01  0.48520081056E-01  0.71782672172E-01  0.87457287649E-01  0.51100000000E-03 0.  1.
         11    1    4    4    0    0  0.65146333791E-02  0.11622232518E-01  0.43358278772E-01  0.45362078830E-01  0.51100000000E-03 0. -1.
</event>
<event>
 8    1  0.1082757E+005  0.1043930E+01  0.7957747E-01            NaN
         13   -1    0    0    0    0  0.00000000000E+00  0.00000000000E+00  0.74505805969E-08  0.10566000000E+00  0.10566000000E+00 0.  1.
     999900   -1    0    0    0    0 -0.00000000000E+00 -0.00000000000E+00 -0.74505805969E-08  0.93827000000E+00  0.93827000000E+00 0.  1.
     999902    2    1    2    0    0  0.17442232087E-01  0.13717219459E-02 -0.17069014996E-01  0.10194869160E+01  0.10191938518E+01 0.  0.
     999903    2    3    3    0    0 -0.55608107568E-01 -0.58649404552E-01 -0.10044860290E+00  0.13050376465E+00  0.20231077100E-01 0.  0.
         14    1    1    2    0    0 -0.17442232087E-01 -0.13717219459E-02  0.17069014996E-01  0.24443083975E-01  0.00000000000E+00 0.  1.
     999901    1    3    3    0    0  0.73050339655E-01  0.60021126498E-01  0.83379587909E-01  0.88898315138E+00  0.88000000000E+00 0. -1.
        -11    1    4    4    0    0 -0.14318553799E-01 -0.66653281823E-02 -0.28628049858E-01  0.32699754470E-01  0.51100000000E-03 0. -1.
         11    1    4    4    0    0 -0.41289553769E-01 -0.51984076369E-01 -0.71820553046E-01  0.97804010180E-01  0.51100000000E-03 0.  1.
</event>
<event>
 8    1  0.1082757E+005  0.1043930E+01  0.7957747E-01            NaN
         13   -1    0    0    0    0  0.00000000000E+00  0.00000000000E+00  0.74505805969E-08  0.10566000000E+00  0.10566000000E+00 0.  1.
     999900   -1    0    0    0    0 -0.00000000000E+00 -0.00000000000E+00 -0.74505805969E-08  0.93827000000E+00  0.93827000000E+00 0. -1.
     999902    2    1    2    0    0  0.60809840886E-02  0.44515419152E-02 -0.22147067797E-01  0.10205358297E+01  0.10202676573E+01 0.  0.
     999903    2    3    3    0    0  0.67341942690E-01 -0.79624506801E-01 -0.79198174081E-01  0.13257382839E+00  0.20699513674E-01 0.  0.
         14    1    1    2    0    0 -0.60809840886E-02 -0.44515419152E-02  0.22147067797E-01  0.23394170319E-01  0.00000000000E+00 0.  1.
     999901    1    3    3    0    0 -0.61260958601E-01  0.84076048717E-01  0.57051106284E-01  0.88796200130E+00  0.88000000000E+00 0.  1.
        -11    1    4    4    0    0  0.24595223221E-01 -0.43362568740E-01 -0.43069812113E-01  0.65882525828E-01  0.51100000000E-03 0. -1.
         11    1    4    4    0    0  0.42746719468E-01 -0.36261938062E-01 -0.36128361968E-01  0.66691302557E-01  0.51100000000E-03 0.  1.
</event>
<event>
 8    1  0.1082757E+005  0.1043930E+01  0.7957747E-01            NaN
         13   -1    0    0    0    0  0.00000000000E+00  0.00000000000E+00  0.74505805969E-08  0.10566000000E+00  0.10566000000E+00 0. -1.
     999900   -1    0    0    0    0 -0.00000000000E+00 -0.00000000000E+00 -0.74505805969E-08  0.93827000000E+00  0.93827000000E+00 0.  1.
     999902    2    1    2    0    0 -0.99246880991E-02 -0.20677541291E-01  0.46363323041E-02  0.10205300913E+01  0.10202617858E+01 0.  0.
     999903    2    3    3    0    0  0.25321866819E-02  0.10256149435E+00 -0.74480230351E-01  0.12834038948E+00  0.19966941833E-01 0.  0.
         14    1    1    2    0    0  0.99246880991E-02  0.20677541291E-01 -0.46363323041E-02  0.23399908652E-01  0.00000000000E+00 0.  1.
     999901    1    3    3    0    0 -0.12456874781E-01 -0.12323903564E+00  0.79116562655E-01  0.89218970187E+00  0.88000000000E+00 0. -1.
        -11    1    4    4    0    0  0.70406758491E-02  0.49513767013E-01 -0.46040690753E-01  0.67979339260E-01  0.51100000000E-03 0.  1.
         11    1    4    4    0    0 -0.45084891672E-02  0.53047727335E-01 -0.28439539599E-01  0.60361050219E-01  0.51100000000E-03 0. -1.
</event>
<event>
 7    1  0.1082757E+005  0.1043930E+01  0.7957747E-01            NaN
         13   -1    0    0    0    0  0.00000000000E+00  0.00000000000E+00  0.74505805969E-08  0.10566000000E+00  0.10566000000E+00 0. -1.
     999900   -1    0    0    0    0 -0.00000000000E+00 -0.00000000000E+00 -0.74505805969E-08  0.93827000000E+00  0.93827000000E+00 0.  1.
     999903    2    1    2    0    0  0.22508676158E-01 -0.59493669628E-01  0.77640826958E-01  0.10200033273E+00  0.18161295057E-01 0.  0.
         14    1    1    2    0    0 -0.10855035792E-01  0.48845228010E-01 -0.34410557850E-01  0.60727049928E-01  0.00000000000E+00 0.  1.
     999901    1    1    2    0    0 -0.11653640365E-01  0.10648441619E-01 -0.43230269108E-01  0.88120261734E+00  0.88000000000E+00 0.  1.
        -11    1    3    3    0    0  0.34103010716E-03 -0.15188163615E-01  0.28033925245E-01  0.31889789921E-01  0.51100000000E-03 0.  1.
         11    1    3    3    0    0  0.22167646050E-01 -0.44305506014E-01  0.49606901713E-01  0.70110542810E-01  0.51100000000E-03 0. -1.
</event>
<event>
 6    1  0.1082757E+005  0.1043930E+01  0.7957747E-01            NaN
         13   -1    0    0    0    0  0.00000000000E+00  0.00000000000E+00  0.74505805969E-08  0.10566000000E+00  0.10566000000E+00 0. -1.
     999900   -1    0    0    0    0 -0.00000000000E+00 -0.00000000000E+00 -0.74505805969E-08  0.93827000000E+00  0.93827000000E+00 0.  1.
         14    1    1    2    0    0 -0.46628328566E-01  0.16255624808E-01  0.31531347045E-01  0.58589010994E-01  0.00000000000E+00 0. -1.
     999901    1    1    2    0    0  0.81615535831E-01 -0.87507623486E-01 -0.65538111829E-01  0.89051329241E+00  0.88000000000E+00 0.  1.
        -11    1    1    2    0    0 -0.18543961201E-02 -0.23171322745E-02  0.10297771786E-01  0.10729077859E-01  0.51100000000E-03 0. -1.
         11    1    1    2    0    0 -0.33132811145E-01  0.73569130953E-01  0.23708992998E-01  0.84098618737E-01  0.51100000000E-03 0.  1.
</event>
<event>
 8    1  0.1082757E+005  0.1043930E+01  0.7957747E-01            NaN
         13   -1    0    0    0    0  0.00000000000E+00  0.00000000000E+00  0.74505805969E-08  0.10566000000E+00  0.10566000000E+00 0. -1.
     999900   -1    0    0    0    0 -0.00000000000E+00 -0.00000000000E+00 -0.74505805969E-08  0.93827000000E+00  0.93827000000E+00 0. -1.
     999902    2    1    2    0    0  0.21693668846E-01 -0.65882117196E-02 -0.72402498593E-02  0.10201299786E+01  0.10198523090E+01 0.  0.
     999903    2    3    3    0    0  0.70980923880E-02  0.47512309007E-01 -0.12041094767E+00  0.13111507204E+00  0.19610287469E-01 0.  0.
         14    1    1    2    0    0 -0.21693668846E-01  0.65882117196E-02  0.72402498593E-02  0.23800021422E-01  0.00000000000E+00 0. -1.
     999901    1    3    3    0    0  0.14595576458E-01 -0.54100520726E-01  0.11317069781E+00  0.88901490653E+00  0.88000000000E+00 0. -1.
        -11    1    4    4    0    0 -0.52897861784E-02  0.29196580843E-01 -0.65054781246E-01  0.71503900975E-01  0.51100000000E-03 0. -1.
         11    1    4    4    0    0  0.12387878566E-01  0.18315728163E-01 -0.55356166429E-01  0.59611171069E-01  0.51100000000E-03 0.  1.
</event>
<event>
 8    1  0.1082757E+005  0.1043930E+01  0.7957747E-01            NaN
         13   -1    0    0    0    0  0.00000000000E+00  0.00000000000E+00  0.74505805969E-08  0.10566000000E+00  0.10566000000E+00 0. -1.
     999900   -1    0    0    0    0 -0.00000000000E+00 -0.00000000000E+00 -0.74505805969E-08  0.93827000000E+00  0.93827000000E+00 0. -1.
     999902    2    1    2    0    0  0.26358456659E-02 -0.51940929312E-02  0.24801532602E-01  0.10184536913E+01  0.10181350004E+01 0.  0.
     999903    2    3    3    0    0 -0.10471446963E+00  0.24996193432E-01 -0.64671661108E-01  0.12691513582E+00  0.18305685286E-01 0.  0.
         14    1    1    2    0    0 -0.26358456659E-02  0.51940929312E-02 -0.24801532602E-01  0.25476308665E-01  0.00000000000E+00 0.  1.
     999901    1    3    3    0    0  0.10735031529E+00 -0.30190286363E-01  0.89473193710E-01  0.89153855552E+00  0.88000000000E+00 0.  1.
        -11    1    4    4    0    0 -0.29530209229E-01  0.12206703940E-01 -0.27078139955E-01  0.41887034541E-01  0.51100000000E-03 0.  1.
         11    1    4    4    0    0 -0.75184260397E-01  0.12789489492E-01 -0.37593521152E-01  0.85028101276E-01  0.51100000000E-03 0. -1.
</event>
<event>
 8    1  0.1082757E+005  0.1043930E+01  0.7957747E-01            NaN
         13   -1    0    0    0    0  0.00000000000E+00  0.00000000000E+00  0.74505805969E-08  0.10566000000E+00  0.10566000000E+00 0. -1.
     999900   -1    0    0    0    0 -0.00000000000E+00 -0.00000000000E+00 -0.74505805969E-08  0.93827000000E+00  0.93827000000E+00 0. -1.
     999902    2    1    2    0    0  0.12042622177E-01 -0.50639846334E-02  0.19843197741E-01  0.10201724499E+01  0.10198957821E+01 0.  0.
     999903    2    3    3    0    0 -0.62624598383E-01  0.90780602538E-01  0.66927037437E-01  0.13057801048E+00  0.20209660103E-01 0.  0.
         14    1    1    2    0    0 -0.12042622177E-01  0.50639846334E-02 -0.19843197741E-01  0.23757550081E-01  0.00000000000E+00 0.  1.
     999901    1    3    3    0    0  0.74667220560E-01 -0.95844587172E-01 -0.47083839697E-01  0.88959443944E+00  0.88000000000E+00 0. -1.
        -11    1    4    4    0    0 -0.25729338266E-01  0.21148863007E-01  0.20614182485E-01  0.39172425182E-01  0.51100000000E-03 0. -1.
         11    1    4    4    0    0 -0.36895260117E-01  0.69631739532E-01  0.46312854952E-01  0.91405585300E-01  0.51100000000E-03 0.  1.
</event>
<event>
 8    1  0.1082757E+005  0.1043930E+01  0.7957747E-01            NaN
         13   -1    0    0    0    0  0.00000000000E+00  0.00000000000E+00  0.74505805969E-08  0.10566000000E+00  0.10566000000E+00 0.  1.
     999900   -1    0    0    0    0 -0.00000000000E+00 -0.00000000000E+00 -0.74505805969E-08  0.93827000000E+00  0.93827000000E+00 0. -1.
     999902    2    1    2    0    0  0.12877590332E-01 -0.14552011290E-01 -0.85194881420E-02  0.10227126712E+01  0.10224925587E+01 0.  0.
     999903    2    3    3    0    0  0.13040581843E+00  0.23633317344E-01 -0.39563800202E-02  0.13406660793E+00  0.19849212821E-01 0.  0.
         14    1    1    2    0    0 -0.12877590332E-01  0.14552011290E-01  0.85194881420E-02  0.21217328850E-01  0.00000000000E+00 0. -1.
     999901    1    3    3    0    0 -0.11752822810E+00 -0.38185328633E-01 -0.45631081218E-02  0.88864606322E+00  0.88000000000E+00 0.  1.
        -11    1    4    4    0    0  0.74706141513E-01  0.22603834860E-01 -0.62951237307E-02  0.78306006372E-01  0.51100000000E-03 0. -1.
         11    1    4    4    0    0  0.55699676917E-01  0.10294824837E-02  0.23387437105E-02  0.55760601557E-01  0.51100000000E-03 0.  1.
</event>
<event>
 8    1  0.1082757E+005  0.1043930E+01  0.7957747E-01            NaN
         13   -1    0    0    0    0  0.00000000000E+00  0.00000000000E+00  0.74505805969E-08  0.10566000000E+00  0.10566000000E+00 0.  1.
     999900   -1    0    0    0    0 -0.00000000000E+00 -0.00000000000E+00 -0.74505805969E-08  0.93827000000E+00  0.93827000000E+00 0.  1.
     999902    2    1    2    0    0 -0.60036066548E-02 -0.86930716078E-02  0.20361147841E-01  0.10209911873E+01  0.10207334693E+01 0.  0.
     999903    2    3    3    0    0  0.81478514837E-01 -0.61249564008E-02  0.10272050799E+00  0.13282297068E+00  0.20351297472E-01 0.  0.
         14    1    1    2    0    0  0.60036066548E-02  0.86930716078E-02 -0.20361147841E-01  0.22938812703E-01  0.00000000000E+00 0. -1.
     999901    1    3    3    0    0 -0.87482121492E-01 -0.25681152069E-02 -0.82359360148E-01  0.88816821661E+00  0.88000000000E+00 0.  1.
        -11    1    4    4    0    0  0.52800471637E-01  0.43268456680E-02  0.56721538288E-01  0.77615755007E-01  0.51100000000E-03 0.  1.
         11    1    4    4    0    0  0.28678043201E-01 -0.10451802069E-01  0.45998969701E-01  0.55207215677E-01  0.51100000000E-03 0. -1.
</event>
<event>
 8    1  0.1082757E+005  0.1043930E+01  0.7957747E-01            NaN
         13   -1    0    0    0    0  0.00000000000E+00  0.00000000000E+00  0.74505805969E-08  0.10566000000E+00  0.10566000000E+00 0.  1.
     999900   -1    0    0    0    0 -0.00000000000E+00 -0.00000000000E+00 -0.74505805969E-08  0.93827000000E+00  0.93827000000E+00 0.  1.
     999902    2    1    2    0    0  0.90892277836E-02 -0.21823883015E-01  0.74132422468E-02  0.10191539613E+01  0.10188527591E+01 0.  0.
     999903    2    3    3    0    0 -0.10002178692E+00  0.61894041127E-01  0.45278286233E-01  0.12766774949E+00  0.20339637874E-01 0.  0.
         14    1    1    2    0    0 -0.90892277836E-02  0.21823883015E-01 -0.74132422468E-02  0.24776038670E-01  0.00000000000E+00 0.  1.
     999901    1    3    3    0    0  0.10911101470E+00 -0.83717924143E-01 -0.37865043986E-01  0.89148621184E+00  0.88000000000E+00 0.  1.
        -11    1    4    4    0    0 -0.72463613036E-01  0.48539629343E-01  0.42179682080E-01  0.96883732031E-01  0.51100000000E-03 0.  1.
         11    1    4    4    0    0 -0.27558173884E-01  0.13354411784E-01  0.30986041528E-02  0.30784017454E-01  0.51100000000E-03 0. -1.
</event>
<event>
 8    1  0.1082757E+005  0.1043930E+01  0.7957747E-01            NaN
         13   -1    0    0    0    0  0.00000000000E+00  0.00000000000E+00  0.74505805969E-08  0.10566000000E+00  0.10566000000E+00 0. -1.
     999900   -1    0    0    0    0 -0.00000000000E+00 -0.00000000000E+00 -0.74505805969E-08  0.93827000000E+00  0.93827000000E+00 0.  1.
     999902    2    1    2    0    0 -0.18063157753E-01 -0.12282361785E-01 -0.80208898357E-02  0.10206605189E+01  0.10203952303E+01 0.  0.
     999903    2    3    3    0    0  0.61274575028E-01 -0.28125729517E-01 -0.11057904355E+00  0.13101808336E+00  0.19808661986E-01 0.  0.
         14    1    1    2    0    0  0.18063157753E-01  0.12282361785E-01  0.80208898357E-02  0.23269481146E-01  0.00000000000E+00 0.  1.
     999901    1    3    3    0    0 -0.79337732781E-01  0.15843367731E-01  0.10255815371E+00  0.88964243550E+00  0.88000000000E+00 0. -1.
        -11    1    4    4    0    0  0.48971023338E-02 -0.55115715542E-02 -0.25011497234E-01  0.26080551128E-01  0.51100000000E-03 0.  1.
         11    1    4    4    0    0  0.56377472694E-01 -0.22614157962E-01 -0.85567546311E-01  0.10493753223E+00  0.51100000000E-03 0. -1.
</event>
<event>
 8    1  0.1082757E+005  0.1043930E+01  0.7957747E-01            NaN
         13   -1    0    0    0    0  0.00000000000E+00  0.00000000000E+00  0.74505805969E-08  0.10566000000E+00  0.10566000000E+00 0.  1.
     999900   -1    0    0    0    0 -0.00000000000E+00 -0.00000000000E+00 -0.74505805969E-08  0.93827000000E+00  0.93827000000E+00 0.  1.
     999902    2    1    2    0    0 -0.14437471922E-01  0.18049580746E-01 -0.63939936386E-02  0.10199485256E+01  0.10196665552E+01 0.  0.
     999903    2    3    3    0    0  0.48460395788E-01  0.45970405637E-01 -0.11076546409E+00  0.13111270381E+00  0.21444461073E-01 0.  0.
         14    1    1    2    0    0  0.14437471922E-01 -0.18049580746E-01  0.63939936386E-02  0.23981474418E-01  0.00000000000E+00 0. -1.
     999901    1    3    3    0    0 -0.62897867710E-01 -0.27920824891E-01  0.10437147045E+00  0.88883582177E+00  0.88000000000E+00 0. -1.
        -11    1    4    4    0    0  0.24254112332E-01  0.36795272306E-01 -0.65051384768E-01  0.78575427522E-01  0.51100000000E-03 0. -1.
         11    1    4    4    0    0  0.24206283456E-01  0.91751333311E-02 -0.45714079320E-01  0.52537276285E-01  0.51100000000E-03 0.  1.
</event>
<event>
 8    1  0.1082757E+005  0.1043930E+01  0.7957747E-01            NaN
         13   -1    0    0    0    0  0.00000000000E+00  0.00000000000E+00  0.74505805969E-08  0.10566000000E+00  0.10566000000E+00 0. -1.
     999900   -1    0    0    0    0 -0.00000000000E+00 -0.00000000000E+00 -0.74505805969E-08  0.93827000000E+00  0.93827000000E+00 0.  1.
     999902    2    1    2    0    0 -0.55626950594E-02 -0.18925310765E-01  0.12676497625E-01  0.10204820885E+01  0.10202126682E+01 0.  0.
     999903    2    3    3    0    0 -0.26420323234E-01  0.12420508985E+00  0.20321194744E-02  0.12861065432E+00  0.20288742440E-01 0.  0.
         14    1    1    2    0    0  0.55626950594E-02  0.18925310765E-01 -0.12676497625E-01  0.23447911547E-01  0.00000000000E+00 0. -1.
     999901    1    3    3    0    0  0.20857628175E-01 -0.14313040062E+00  0.10644378150E-01  0.89187143413E+00  0.88000000000E+00 0. -1.
        -11    1    4    4    0    0 -0.25111471590E-01  0.71254707185E-01 -0.94915383621E-03  0.75557801156E-01  0.51100000000E-03 0.  1.
         11    1    4    4    0    0 -0.13088516442E-02  0.52950382669E-01  0.29812733106E-02  0.53052853166E-01  0.51100000000E-03 0. -1.
</event>
<event>
 8    1  0.1082757E+005  0.1043930E+01  0.7957747E-01            NaN
         13   -1    0    0    0    0  0.00000000000E+00  0.00000000000E+00  0.74505805969E-08  0.10566000000E+00  0.10566000000E+00 0. -1.
     999900   -1    0    0    0    0 -0.00000000000E+00 -0.00000000000E+00 -0.74505805969E-08  0.93827000000E+00  0.93827000000E+00 0.  1.
     999902    2    1    2    0    0 -0.70237151641E-03  0.16527202248E-01  0.16148207758E-01  0.10208127693E+01  0.10205509804E+01 0.  0.
     999903    2    3    3    0    0 -0.25100112823E-01 -0.41929819454E-02  0.12977094723E+00  0.13293062471E+00  0.13507608213E-01 0.  0.
         14    1    1    2    0    0  0.70237151641E-03 -0.16527202248E-01 -0.16148207758E-01  0.23117230666E-01  0.00000000000E+00 0.  1.
     999901    1    3    3    0    0  0.24397741307E-01  0.20720184193E-01 -0.11362273947E+00  0.88788214462E+00  0.88000000000E+00 0.  1.
        -11    1    4    4    0    0 -0.22727965072E-01 -0.82348284224E-03  0.12216561451E+00  0.12426559061E+00  0.51100000000E-03 0. -1.
         11    1    4    4    0    0 -0.23721477512E-02 -0.33694991032E-02  0.76053327175E-02  0.86650340971E-02  0.51100000000E-03 0.  1.
</event>
<event>
 8    1  0.1082757E+005  0.1043930E+01  0.7957747E-01            NaN
         13   -1    0    0    0    0  0.00000000000E+00  0.00000000000E+00  0.74505805969E-08  0.10566000000E+00  0.10566000000E+00 0.  1.
     999900   -1    0    0    0    0 -0.00000000000E+00 -0.00000000000E+00 -0.74505805969E-08  0.93827000000E+00  0.93827000000E+00 0. -1.
     999902    2    1    2    0    0  0.16195616045E-02 -0.10905379657E-01 -0.22255429187E-01  0.10190934460E+01  0.10187907525E+01 0.  0.
     999903    2    3    3    0    0  0.89863528108E-01  0.26104351661E-01  0.84173672784E-01  0.12753084498E+00  0.20543085714E-01 0.  0.
         14    1    1    2    0    0 -0.16195616045E-02  0.10905379657E-01  0.22255429187E-01  0.24836553979E-01  0.00000000000E+00 0.  1.
     999901    1    3    3    0    0 -0.88243966503E-01 -0.37009731318E-01 -0.10642910197E+00  0.89156260105E+00  0.88000000000E+00 0. -1.
        -11    1    4    4    0    0  0.83241159869E-01  0.27301798486E-01  0.71135696092E-01  0.11284957810E+00  0.51100000000E-03 0.  1.
         11    1    4    4    0    0  0.66223682392E-02 -0.11974468246E-02  0.13037976692E-01  0.14681266880E-01  0.51100000000E-03 0. -1.
</event>
<event>
 7    1  0.1082757E+005  0.1043930E+01  0.7957747E-01            NaN
         13   -1    0    0    0    0  0.00000000000E+00  0.00000000000E+00  0.74505805969E-08  0.10566000000E+00  0.10566000000E+00 0.  1.
     999900   -1    0    0    0    0 -0.00000000000E+00 -0.00000000000E+00 -0.74505805969E-08  0.93827000000E+00  0.93827000000E+00 0.  1.
     999903    2    1    2    0    0 -0.74114749208E-01  0.27648860840E-01  0.78635588776E-01  0.11359584941E+00  0.21517565507E-01 0.  0.
         14    1    1    2    0    0 -0.46202983503E-02 -0.33747684713E-01 -0.30115752548E-01  0.45466602379E-01  0.00000000000E+00 0.  1.
     999901    1    1    2    0    0  0.78735047558E-01  0.60988238734E-02 -0.48519836228E-01  0.88486754821E+00  0.88000000000E+00 0.  1.
        -11    1    3    3    0    0 -0.46116552900E-01  0.26736084840E-01  0.44550679245E-01  0.69473583657E-01  0.51100000000E-03 0.  1.
         11    1    3    3    0    0 -0.27998196308E-01  0.91277599975E-03  0.34084909531E-01  0.44122265754E-01  0.51100000000E-03 0. -1.
</event>
<event>
 8    1  0.1082757E+005  0.1043930E+01  0.7957747E-01            NaN
         13   -1    0    0    0    0  0.00000000000E+00  0.00000000000E+00  0.74505805969E-08  0.10566000000E+00  0.10566000000E+00 0.  1.
     999900   -1    0    0    0    0 -0.00000000000E+00 -0.00000000000E+00 -0.74505805969E-08  0.93827000000E+00  0.93827000000E+00 0. -1.
     999902    2    1    2    0    0  0.20493418303E-01 -0.11402804928E-01  0.21737660230E-02  0.10203773056E+01  0.10201054438E+01 0.  0.
     999903    2    3    3    0    0  0.10055255623E+00 -0.83746430942E-01 -0.17404562276E-01  0.13357046265E+00  0.20343756916E-01 0.  0.
         14    1    1    2    0    0 -0.20493418303E-01  0.11402804928E-01 -0.21737660230E-02  0.23552694383E-01  0.00000000000E+00 0.  1.
     999901    1    3    3    0    0 -0.80059137926E-01  0.72343626014E-01  0.19578328299E-01  0.88680684296E+00  0.88000000000E+00 0.  1.
        -11    1    4    4    0    0  0.74370032964E-01 -0.65649685942E-01 -0.21413886705E-01  0.10148693873E+00  0.51100000000E-03 0. -1.
         11    1    4    4    0    0  0.26182523266E-01 -0.18096745000E-01  0.40093244282E-02  0.32083523926E-01  0.51100000000E-03 0.  1.
</event>
<event>
 8    1  0.1082757E+005  0.1043930E+01  0.7957747E-01            NaN
         13   -1    0    0    0    0  0.00000000000E+00  0.00000000000E+00  0.74505805969E-08  0.10566000000E+00  0.10566000000E+00 0. -1.
     999900   -1    0    0    0    0 -0.00000000000E+00 -0.00000000000E+00 -0.74505805969E-08  0.93827000000E+00  0.93827000000E+00 0.  1.
     999902    2    1    2    0    0 -0.12237849695E-01 -0.11277561815E-01 -0.14348217587E-01  0.10219568411E+01  0.10217205906E+01 0.  0.
     999903    2    3    3    0    0  0.40321540377E-01  0.11196420214E+00  0.48182073182E-01  0.12962222942E+00  0.17849397890E-01 0.  0.
         14    1    1    2    0    0  0.12237849695E-01  0.11277561815E-01  0.14348217587E-01  0.21973158935E-01  0.00000000000E+00 0.  1.
     999901    1    3    3    0    0 -0.52559390072E-01 -0.12324176396E+00 -0.62530290769E-01  0.89233461164E+00  0.88000000000E+00 0. -1.
        -11    1    4    4    0    0  0.83744339683E-02  0.42249390095E-01  0.11331574365E-01  0.44539957412E-01  0.51100000000E-03 0. -1.
         11    1    4    4    0    0  0.31947106409E-01  0.69714812048E-01  0.36850498817E-01  0.85082272013E-01  0.51100000000E-03 0.  1.
</event>
<event>
 8    1  0.1082757E+005  0.1043930E+01  0.7957747E-01            NaN
         13   -1    0    0    0    0  0.00000000000E+00  0.00000000000E+00  0.74505805969E-08  0.10566000000E+00  0.10566000000E+00 0. -1.
     999900   -1    0    0    0    0 -0.00000000000E+00 -0.00000000000E+00 -0.74505805969E-08  0.93827000000E+00  0.93827000000E+00 0. -1.
     999902    2    1    2    0    0 -0.15905669307E-01 -0.14963633391E-03  0.17293102964E-01  0.10204339553E+01  0.10201634148E+01 0.  0.
     999903    2    3    3    0    0 -0.19728815590E-01 -0.16415520992E-01 -0.12477425568E+00  0.12888343521E+00  0.19586462074E-01 0.  0.
         14    1    1    2    0    0  0.15905669307E-01  0.14963633391E-03 -0.17293102964E-01  0.23496044715E-01  0.00000000000E+00 0.  1.
     999901    1    3    3    0    0  0.38231462833E-02  0.16265884658E-01  0.14206735865E+00  0.89155052007E+00  0.88000000000E+00 0.  1.
        -11    1    4    4    0    0  0.33640660825E-03  0.37392835228E-02 -0.12469376438E-01  0.13032339790E-01  0.51100000000E-03 0. -1.
         11    1    4    4    0    0 -0.20065222198E-01 -0.20154804515E-01 -0.11230487925E+00  0.11585109542E+00  0.51100000000E-03 0.  1.
</event>
<event>
 8    1  0.1082757E+005  0.1043930E+01  0.7957747E-01            NaN
         13   -1    0    0    0    0  0.00000000000E+00  0.00000000000E+00  0.74505805969E-08  0.10566000000E+00  0.10566000000E+00 0. -1.
     999900   -1    0    0    0    0 -0.00000000000E+00 -0.00000000000E+00 -0.74505805969E-08  0.93827000000E+00  0.93827000000E+00 0.  1.
     999902    2    1    2    0    0 -0.21810506862E-01  0.72284738014E-02 -0.34129634218E-02  0.10207007649E+01  0.10204364038E+01 0.  0.
     999903    2    3    3    0    0 -0.54622715727E-01  0.61340839310E-01 -0.10221367256E+00  0.13291342030E+00  0.21725625346E-01 0.  0.
         14    1    1    2    0    0  0.21810506862E-01 -0.72284738014E-02  0.34129634218E-02  0.23229235080E-01  0.00000000000E+00 0.  1.
     999901    1    3    3    0    0  0.32812208865E-01 -0.54112365509E-01  0.98800709133E-01  0.88778734463E+00  0.88000000000E+00 0. -1.
        -11    1    4    4    0    0 -0.49906110375E-01  0.47391347307E-01 -0.73835094537E-01  0.10093781233E+00  0.51100000000E-03 0. -1.
         11    1    4    4    0    0 -0.47166053514E-02  0.13949492003E-01 -0.28378578018E-01  0.31975607961E-01  0.51100000000E-03 0.  1.
</event>
<event>
 8    1  0.1082757E+005  0.1043930E+01  0.7957747E-01            NaN
         13   -1    0    0    0    0  0.00000000000E+00  0.00000000000E+00  0.74505805969E-08  0.10566000000E+00  0.10566000000E+00 0. -1.
     999900   -1    0    0    0    0 -0.00000000000E+00 -0.00000000000E+00 -0.74505805969E-08  0.93827000000E+00  0.93827000000E+00 0.  1.
     999902    2    1    2    0    0  0.18602101531E-01  0.88179921898E-02  0.11119252610E-01  0.10205327150E+01  0.10202644703E+01 0.  0.
     999903    2    3    3    0    0 -0.11463886990E+00  0.24599810491E-01 -0.48284647585E-01  0.12838303829E+00  0.20089205089E-01 0.  0.
         14    1    1    2    0    0 -0.18602101531E-01 -0.88179921898E-02 -0.11119252610E-01  0.23397285019E-01  0.00000000000E+00 0.  1.
     999901    1    3    3    0    0  0.13324097143E+00 -0.15781818302E-01  0.59403900195E-01  0.89214967669E+00  0.88000000000E+00 0. -1.
        -11    1    4    4    0    0 -0.72245275997E-01  0.15715464796E-01 -0.19809200895E-01  0.76544244061E-01  0.51100000000E-03 0.  1.
         11    1    4    4    0    0 -0.42393593901E-01  0.88843456952E-02 -0.28475446690E-01  0.51838794233E-01  0.51100000000E-03 0. -1.
</event>
<event>
 8    1  0.1082757E+005  0.1043930E+01  0.7957747E-01            NaN
         13   -1    0    0    0    0  0.00000000000E+00  0.00000000000E+00  0.74505805969E-08  0.10566000000E+00  0.10566000000E+00 0.  1.
     999900   -1    0    0    0    0 -0.00000000000E+00 -0.00000000000E+00 -0.74505805969E-08  0.93827000000E+00  0.93827000000E+00 0.  1.
     999902    2    1    2    0    0 -0.87228444362E-02  0.20109282896E-01 -0.80309767582E-02  0.10205854533E+01  0.10203184305E+01 0.  0.
     999903    2    3    3    0    0  0.85633037428E-02  0.41888393179E-01 -0.12395732882E+00  0.13254713223E+00  0.19374086804E-01 0.  0.
         14    1    1    2    0    0  0.87228444362E-02 -0.20109282896E-01  0.80309767582E-02  0.23344546715E-01  0.00000000000E+00 0.  1.
     999901    1    3    3    0    0 -0.17286148179E-01 -0.21779110283E-01  0.11592635206E+00  0.88803832106E+00  0.88000000000E+00 0. -1.
        -11    1    4    4    0    0  0.11419549577E-01  0.12416443692E-01 -0.54113256106E-01  0.56684034736E-01  0.51100000000E-03 0. -1.
         11    1    4    4    0    0 -0.28562458343E-02  0.29471949487E-01 -0.69844072714E-01  0.75863097492E-01  0.51100000000E-03 0.  1.
</event>
<event>
 8    1  0.1082757E+005  0.1043930E+01  0.7957747E-01            NaN
         13   -1    0    0    0    0  0.00000000000E+00  0.00000000000E+00  0.74505805969E-08  0.10566000000E+00  0.10566000000E+00 0. -1.
     999900   -1    0    0    0    0 -0.00000000000E+00 -0.00000000000E+00 -0.74505805969E-08  0.93827000000E+00  0.93827000000E+00 0. -1.
     999902    2    1    2    0    0 -0.94107141081E-02  0.13728744574E-01 -0.17278157873E-01  0.10199388619E+01  0.10196566615E+01 0.  0.
     999903    2    3    3    0    0 -0.11087823416E+00  0.67559204443E-01  0.12429078726E-01  0.13197720961E+00  0.20131391976E-01 0.  0.
         14    1    1    2    0    0  0.94107141081E-02 -0.13728744574E-01  0.17278157873E-01  0.23991138095E-01  0.00000000000E+00 0. -1.
     999901    1    3    3    0    0  0.10146752006E+00 -0.53830459869E-01 -0.29707236600E-01  0.88796165229E+00  0.88000000000E+00 0. -1.
        -11    1    4    4    0    0 -0.81749160323E-01  0.42733107327E-01  0.18455126608E-02  0.92264352343E-01  0.51100000000E-03 0. -1.
         11    1    4    4    0    0 -0.29129073840E-01  0.24826097116E-01  0.10583566065E-01  0.39712857269E-01  0.51100000000E-03 0.  1.
</event>
<event>
 8    1  0.1082757E+005  0.1043930E+01  0.7957747E-01            NaN
         13   -1    0    0    0    0  0.00000000000E+00  0.00000000000E+00  0.74505805969E-08  0.10566000000E+00  0.10566000000E+00 0. -1.
     999900   -1    0    0    0    0 -0.00000000000E+00 -0.00000000000E+00 -0.74505805969E-08  0.93827000000E+00  0.93827000000E+00 0. -1.
     999902    2    1    2    0    0 -0.22525275018E-01 -0.15997478054E-02 -0.78181455781E-02  0.10200329163E+01  0.10197529504E+01 0.  0.
     999903    2    3    3    0    0 -0.54124376035E-01  0.11425909272E+00  0.27969394722E-01  0.13115580325E+00  0.20855918468E-01 0.  0.
         14    1    1    2    0    0  0.22525275018E-01  0.15997478054E-02  0.78181455781E-02  0.23897083670E-01  0.00000000000E+00 0. -1.
     999901    1    3    3    0    0  0.31599101018E-01 -0.11585884053E+00 -0.35787540300E-01  0.88887711308E+00  0.88000000000E+00 0. -1.
        -11    1    4    4    0    0 -0.20074553873E-01  0.46168723251E-01  0.89817149538E-03  0.50354806651E-01  0.51100000000E-03 0. -1.
         11    1    4    4    0    0 -0.34049822163E-01  0.68090369469E-01  0.27071223226E-01  0.80800996601E-01  0.51100000000E-03 0.  1.
</event>
<event>
 8    1  0.1082757E+005  0.1043930E+01  0.7957747E-01            NaN
         13   -1    0    0    0    0  0.00000000000E+00  0.00000000000E+00  0.74505805969E-08  0.10566000000E+00  0.10566000000E+00 0.  1.
     999900   -1    0    0    0    0 -0.00000000000E+00 -0.00000000000E+00 -0.74505805969E-08  0.93827000000E+00  0.93827000000E+00 0.  1.
     999902    2    1    2    0    0  0.17560539002E-01 -0.59794326518E-02  0.14893673795E-01  0.10201403454E+01  0.10198629206E+01 0.  0.
     999903    2    3    3    0    0 -0.10844637484E+00 -0.28973977254E-01 -0.58359022082E-01  0.12785538599E+00  0.18469344710E-01 0.  0.
         14    1    1    2    0    0 -0.17560539002E-01  0.59794326518E-02 -0.14893673795E-01  0.23789654558E-01  0.00000000000E+00 0.  1.
     999901    1    3    3    0    0  0.12600691384E+00  0.22994544602E-01  0.73252695877E-01  0.89228495946E+00  0.88000000000E+00 0. -1.
        -11    1    4    4    0    0 -0.81074577691E-01 -0.24288895523E-01 -0.52092290812E-01  0.99382621603E-01  0.51100000000E-03 0.  1.
         11    1    4    4    0    0 -0.27371797147E-01 -0.46850817311E-02 -0.62667312700E-02  0.28472764384E-01  0.51100000000E-03 0. -1.
</event>
<event>
 8    1  0.1082757E+005  0.1043930E+01  0.7957747E-01            NaN
         13   -1    0    0    0    0  0.00000000000E+00  0.00000000000E+00  0.74505805969E-08  0.10566000000E+00  0.10566000000E+00 0. -1.
     999900   -1    0    0    0    0 -0.00000000000E+00 -0.00000000000E+00 -0.74505805969E-08  0.93827000000E+00  0.93827000000E+00 0. -1.
     999902    2    1    2    0    0 -0.14773049392E-01 -0.16591316040E-01 -0.87118025859E-02  0.10200676812E+01  0.10197885388E+01 0.  0.
     999903    2    3    3    0    0 -0.57010397288E-01 -0.10400670602E+00 -0.57511666749E-01  0.13338460886E+00  0.20402984378E-01 0.  0.
         14    1    1    2    0    0  0.14773049392E-01  0.16591316040E-01  0.87118025859E-02  0.23862318843E-01  0.00000000000E+00 0.  1.
     999901    1    3    3    0    0  0.42237347896E-01  0.87415389979E-01  0.48799864163E-01  0.88668307230E+00  0.88000000000E+00 0.  1.
        -11    1    4    4    0    0 -0.24356505374E-01 -0.64040743896E-01 -0.36767263182E-01  0.77759558870E-01  0.51100000000E-03 0.  1.
         11    1    4    4    0    0 -0.32653891914E-01 -0.39965962123E-01 -0.20744403567E-01  0.55625049985E-01  0.51100000000E-03 0. -1.
</event>
<event>
 8    1  0.1082757E+005  0.1043930E+01  0.7957747E-01            NaN
         13   -1    0    0    0    0  0.00000000000E+00  0.00000000000E+00  0.74505805969E-08  0.10566000000E+00  0.10566000000E+00 0. -1.
     999900   -1    0    0    0    0 -0.00000000000E+00 -0.00000000000E+00 -0.74505805969E-08  0.93827000000E+00  0.93827000000E+00 0. -1.
     999902    2    1    2    0    0 -0.82202726369E-02 -0.71721153213E-02 -0.19740615257E-01  0.10213755323E+01  0.10211264731E+01 0.  0.
     999903    2    3    3    0    0 -0.10820156091E+00  0.28173534378E-02  0.71054167630E-01  0.13101620034E+00  0.20025852048E-01 0.  0.
         14    1    1    2    0    0  0.82202726369E-02  0.71721153213E-02  0.19740615257E-01  0.22554467653E-01  0.00000000000E+00 0. -1.
     999901    1    3    3    0    0  0.99981288273E-01 -0.99894687591E-02 -0.90794782887E-01  0.89035933201E+00  0.88000000000E+00 0. -1.
        -11    1    4    4    0    0 -0.66717319769E-01  0.34184452937E-02  0.32157735239E-01  0.74143560625E-01  0.51100000000E-03 0. -1.
         11    1    4    4    0    0 -0.41484241141E-01 -0.60109185595E-03  0.38896432392E-01  0.56872639716E-01  0.51100000000E-03 0.  1.
</event>
<event>
 8    1  0.1082757E+005  0.1043930E+01  0.7957747E-01            NaN
         13   -1    0    0    0    0  0.00000000000E+00  0.00000000000E+00  0.74505805969E-08  0.10566000000E+00  0.10566000000E+00 0.  1.
     999900   -1    0    0    0    0 -0.00000000000E+00 -0.00000000000E+00 -0.74505805969E-08  0.93827000000E+00  0.93827000000E+00 0.  1.
     999902    2    1    2    0    0 -0.15229080239E-01 -0.16365382910E-01  0.46820860767E-02  0.10210898474E+01  0.10208343665E+01 0.  0.
     999903    2    3    3    0    0 -0.70372111472E-01 -0.11374706196E+00  0.53747072707E-02  0.13400223893E+00  0.60896947634E-02 0.  0.
         14    1    1    2    0    0  0.15229080239E-01  0.16365382910E-01 -0.46820860767E-02  0.22840152643E-01  0.00000000000E+00 0. -1.
     999901    1    3    3    0    0  0.55143031233E-01  0.97381679047E-01 -0.69262119405E-03  0.88708760843E+00  0.88000000000E+00 0.  1.
        -11    1    4    4    0    0 -0.47422109176E-01 -0.77155560957E-01  0.64285055773E-02  0.90793302783E-01  0.51100000000E-03 0. -1.
         11    1    4    4    0    0 -0.22950002296E-01 -0.36591501000E-01 -0.10537983066E-02  0.43208936144E-01  0.51100000000E-03 0.  1.
</event>
<event>
 8    1  0.1082757E+005  0.1043930E+01  0.7957747E-01            NaN
         13   -1    0    0    0    0  0.00000000000E+00  0.00000000000E+00  0.74505805969E-08  0.10566000000E+00  0.10566000000E+00 0. -1.
     999900   -1    0    0    0    0 -0.00000000000E+00 -0.00000000000E+00 -0.74505805969E-08  0.93827000000E+00  0.93827000000E+00 0.  1.
     999902    2    1    2    0    0 -0.17135153222E-01 -0.11372727447E-01 -0.15421812253E-01  0.10182242672E+01  0.10178997365E+01 0.  0.
     999903    2    3    3    0    0 -0.15085481708E-01  0.12249539673E-01  0.12438465360E+00  0.12687245083E+00  0.15730662644E-01 0.  0.
         14    1    1    2    0    0  0.17135153222E-01  0.11372727447E-01  0.15421812253E-01  0.25705732798E-01  0.00000000000E+00 0. -1.
     999901    1    3    3    0    0 -0.20496715136E-02 -0.23622267120E-01 -0.13980646585E+00  0.89135181637E+00  0.88000000000E+00 0.  1.
        -11    1    4    4    0    0 -0.25067746132E-02  0.62435366772E-02  0.13281476328E-01  0.14897127362E-01  0.51100000000E-03 0.  1.
         11    1    4    4    0    0 -0.12578707095E-01  0.60060029956E-02  0.11110317727E+00  0.11197532347E+00  0.51100000000E-03 0. -1.
</event>
<event>
 8    1  0.1082757E+005  0.1043930E+01  0.7957747E-01            NaN
         13   -1    0    0    0    0  0.00000000000E+00  0.00000000000E+00  0.74505805969E-08  0.10566000000E+00  0.10566000000E+00 0.  1.
     999900   -1    0    0    0    0 -0.00000000000E+00 -0.00000000000E+00 -0.74505805969E-08  0.93827000000E+00  0.93827000000E+00 0. -1.
     999902    2    1    2    0    0  0.21387878564E-01  0.18930581467E-03 -0.98922713319E-02  0.10203644697E+01  0.10200923080E+01 0.  0.
     999903    2    3    3    0    0 -0.31920597436E-01  0.38430202326E-01  0.11714373334E+00  0.12882517934E+00  0.19428524897E-01 0.  0.
         14    1    1    2    0    0 -0.21387878564E-01 -0.18930581467E-03  0.98922713319E-02  0.23565530299E-01  0.00000000000E+00 0.  1.
     999901    1    3    3    0    0  0.53308476000E-01 -0.38240896511E-01 -0.12703600467E+00  0.89153929036E+00  0.88000000000E+00 0. -1.
        -11    1    4    4    0    0 -0.11803911205E-01  0.10758150765E-01  0.61166789973E-01  0.63219517905E-01  0.51100000000E-03 0. -1.
         11    1    4    4    0    0 -0.20116686232E-01  0.27672051561E-01  0.55976943365E-01  0.65605661433E-01  0.51100000000E-03 0.  1.
</event>
<event>
 8    1  0.1082757E+005  0.1043930E+01  0.7957747E-01            NaN
         13   -1    0    0    0    0  0.00000000000E+00  0.00000000000E+00  0.74505805969E-08  0.10566000000E+00  0.10566000000E+00 0. -1.
     999900   -1    0    0    0    0 -0.00000000000E+00 -0.00000000000E+00 -0.74505805969E-08  0.93827000000E+00  0.93827000000E+00 0. -1.
     999902    2    1    2    0    0 -0.22576393102E-02 -0.10160484986E-01 -0.21989876737E-01  0.10196012707E+01  0.10193109752E+01 0.  0.
     999903    2    3    3    0    0  0.11797866323E+00 -0.25869721478E-01  0.40390939791E-01  0.12909865148E+00  0.21138266978E-01 0.  0.
         14    1    1    2    0    0  0.22576393102E-02  0.10160484986E-01  0.21989876737E-01  0.24328729299E-01  0.00000000000E+00 0. -1.
     999901    1    3    3    0    0 -0.12023630254E+00  0.15709236492E-01 -0.62380816528E-01  0.89050261922E+00  0.88000000000E+00 0.  1.
        -11    1    4    4    0    0  0.87275892219E-01 -0.26814806718E-01  0.24616841867E-01  0.94564080107E-01  0.51100000000E-03 0. -1.
         11    1    4    4    0    0  0.30702771012E-01  0.94508524020E-03  0.15774097925E-01  0.34534571378E-01  0.51100000000E-03 0.  1.
</event>
<event>
 8    1  0.1082757E+005  0.1043930E+01  0.7957747E-01            NaN
         13   -1    0    0    0    0  0.00000000000E+00  0.00000000000E+00  0.74505805969E-08  0.10566000000E+00  0.10566000000E+00 0.  1.
     999900   -1    0    0    0    0 -0.00000000000E+00 -0.00000000000E+00 -0.74505805969E-08  0.93827000000E+00  0.93827000000E+00 0. -1.
     999902    2    1    2    0    0 -0.13046490350E-01  0.58972278157E-02  0.18648437915E-01  0.10204193122E+01  0.10201484305E+01 0.  0.
     999903    2    3    3    0    0 -0.19265720871E-02 -0.12825332314E+00 -0.50401687286E-02  0.12986826197E+00  0.19691002775E-01 0.  0.
         14    1    1    2    0    0  0.13046490350E-01 -0.58972278157E-02 -0.18648437915E-01  0.23510687847E-01  0.00000000000E+00 0.  1.
     999901    1    3    3    0    0 -0.11119918263E-01  0.13415055095E+00  0.23688606644E-01  0.89055105019E+00  0.88000000000E+00 0. -1.
        -11    1    4    4    0    0 -0.18835987924E-02 -0.13973478789E-01 -0.66002929692E-02  0.15576618444E-01  0.51100000000E-03 0. -1.
         11    1    4    4    0    0 -0.42973294741E-04 -0.11427984435E+00  0.15601242406E-02  0.11429164352E+00  0.51100000000E-03 0.  1.
</event>
<event>
 8    1  0.1082757E+005  0.1043930E+01  0.7957747E-01            NaN
         13   -1    0    0    0    0  0.00000000000E+00  0.00000000000E+00  0.74505805969E-08  0.10566000000E+00  0.10566000000E+00 0. -1.
     999900   -1    0    0    0    0 -0.00000000000E+00 -0.00000000000E+00 -0.74505805969E-08  0.93827000000E+00  0.93827000000E+00 0.  1.
     999902    2    1    2    0    0  0.94759602072E-03  0.23456875882E-01 -0.39686805052E-02  0.10201208969E+01  0.10198430129E+01 0.  0.
     999903    2    3    3    0    0  0.10673657164E+00 -0.63242638914E-01  0.28767792643E-01  0.12895324160E+00  0.20224379399E-01 0.  0.
         14    1    1    2    0    0 -0.94759602072E-03 -0.23456875882E-01  0.39686805052E-02  0.23809103077E-01  0.00000000000E+00 0. -1.
     999901    1    3    3    0    0 -0.10578897562E+00  0.86699514797E-01 -0.32736473149E-01  0.89116765533E+00  0.88000000000E+00 0.  1.
        -11    1    4    4    0    0  0.22156254859E-01 -0.82182635723E-02  0.12522608485E-01  0.26749136991E-01  0.51100000000E-03 0.  1.
         11    1    4    4    0    0  0.84580316781E-01 -0.55024375342E-01  0.16245184158E-01  0.10220410460E+00  0.51100000000E-03 0. -1.
</event>
<event>
 8    1  0.1082757E+005  0.1043930E+01  0.7957747E-01            NaN
         13   -1    0    0    0    0  0.00000000000E+00  0.00000000000E+00  0.74505805969E-08  0.10566000000E+00  0.10566000000E+00 0. -1.
     999900   -1    0    0    0    0 -0.00000000000E+00 -0.00000000000E+00 -0.74505805969E-08  0.93827000000E+00  0.93827000000E+00 0. -1.
     999902    2    1    2    0    0  0.18436992069E-01 -0.10589507629E-02 -0.14434351317E-01  0.10204908330E+01  0.10202216159E+01 0.  0.
     999903    2    3    3    0    0  0.21895225586E-01  0.22659607211E-01 -0.12842375281E+00  0.13281515288E+00  0.12423600363E-01 0.  0.
         14    1    1    2    0    0 -0.18436992069E-01  0.10589507629E-02  0.14434351317E-01  0.23439167034E-01  0.00000000000E+00 0. -1.
     999901    1    3    3    0    0 -0.34582335166E-02 -0.23718557974E-01  0.11398940149E+00  0.88767568009E+00  0.88000000000E+00 0.  1.
        -11    1    4    4    0    0  0.11517947446E-01  0.14990543940E-01 -0.52527701783E-01  0.55828309097E-01  0.51100000000E-03 0.  1.
         11    1    4    4    0    0  0.10377278140E-01  0.76690632713E-02 -0.75896051025E-01  0.76986843780E-01  0.51100000000E-03 0. -1.
</event>
<event>
 8    1  0.1082757E+005  0.1043930E+01  0.7957747E-01            NaN
         13   -1    0    0    0    0  0.00000000000E+00  0.00000000000E+00  0.74505805969E-08  0.10566000000E+00  0.10566000000E+00 0.  1.
     999900   -1    0    0    0    0 -0.00000000000E+00 -0.00000000000E+00 -0.74505805969E-08  0.93827000000E+00  0.93827000000E+00 0. -1.
     999902    2    1    2    0    0 -0.17236081112E-01  0.17703928277E-02 -0.14129598840E-01  0.10215723985E+01  0.10213277158E+01 0.  0.
     999903    2    3    3    0    0 -0.86568659732E-02  0.10848144914E+00  0.69333999690E-01  0.13116405128E+00  0.23529528210E-01 0.  0.
         14    1    1    2    0    0  0.17236081112E-01 -0.17703928277E-02  0.14129598840E-01  0.22357601532E-01  0.00000000000E+00 0.  1.
     999901    1    3    3    0    0 -0.85792151392E-02 -0.10671105631E+00 -0.83463598530E-01  0.89040834719E+00  0.88000000000E+00 0. -1.
        -11    1    4    4    0    0 -0.72726916263E-02  0.72147829359E-01  0.58646647472E-01  0.93262488201E-01  0.51100000000E-03 0.  1.
         11    1    4    4    0    0 -0.13841743470E-02  0.36333619782E-01  0.10687352218E-01  0.37901563074E-01  0.51100000000E-03 0. -1.
</event>
<event>
 8    1  0.1082757E+005  0.1043930E+01  0.7957747E-01            NaN
         13   -1    0    0    0    0  0.00000000000E+00  0.00000000000E+00  0.74505805969E-08  0.10566000000E+00  0.10566000000E+00 0. -1.
     999900   -1    0    0    0    0 -0.00000000000E+00 -0.00000000000E+00 -0.74505805969E-08  0.93827000000E+00  0.93827000000E+00 0.  1.
     999902    2    1    2    0    0  0.53188824424E-02 -0.15567421286E-01 -0.17100675684E-01  0.10202009413E+01  0.10199249445E+01 0.  0.
     999903    2    3    3    0    0 -0.72899983349E-01  0.97386227536E-01  0.34539676148E-01  0.12804431626E+00  0.20096587054E-01 0.  0.
         14    1    1    2    0    0 -0.53188824424E-02  0.15567421286E-01  0.17100675684E-01  0.23729058657E-01  0.00000000000E+00 0. -1.
     999901    1    3    3    0    0  0.78218865792E-01 -0.11295364882E+00 -0.51640351831E-01  0.89215662509E+00  0.88000000000E+00 0.  1.
        -11    1    4    4    0    0 -0.69693705492E-01  0.90989339891E-01  0.27234886606E-01  0.11780608103E+00  0.51100000000E-03 0.  1.
         11    1    4    4    0    0 -0.32062778574E-02  0.63968876453E-02  0.73047895415E-02  0.10238235223E-01  0.51100000000E-03 0. -1.
</event>
<event>
 8    1  0.1082757E+005  0.1043930E+01  0.7957747E-01            NaN
         13   -1    0    0    0    0  0.00000000000E+00  0.00000000000E+00  0.74505805969E-08  0.10566000000E+00  0.10566000000E+00 0.  1.
     999900   -1    0    0    0    0 -0.00000000000E+00 -0.00000000000E+00 -0.74505805969E-08  0.93827000000E+00  0.93827000000E+00 0.  1.
     999902    2    1    2    0    0 -0.88368933298E-02 -0.22811091762E-01  0.34191178539E-02  0.10192292519E+01  0.10189298999E+01 0.  0.
     999903    2    3    3    0    0 -0.12471829618E+00 -0.34381091674E-01 -0.11246050653E-01  0.13143567700E+00  0.20301494204E-01 0.  0.
         14    1    1    2    0    0  0.88368933298E-02  0.22811091762E-01 -0.34191178539E-02  0.24700748126E-01  0.00000000000E+00 0. -1.
     999901    1    3    3    0    0  0.11588140285E+00  0.11569999911E-01  0.14665168507E-01  0.88779357488E+00  0.88000000000E+00 0.  1.
        -11    1    4    4    0    0 -0.11376390371E+00 -0.35557084901E-01 -0.63292616246E-02  0.11936018075E+00  0.51100000000E-03 0.  1.
         11    1    4    4    0    0 -0.10954392463E-01  0.11759932278E-02 -0.49167890289E-02  0.12075496249E-01  0.51100000000E-03 0. -1.
</event>
<event>
 7    1  0.1082757E+005  0.1043930E+01  0.7957747E-01            NaN
         13   -1    0    0    0    0  0.00000000000E+00  0.00000000000E+00  0.74505805969E-08  0.10566000000E+00  0.10566000000E+00 0. -1.
     999900   -1    0    0    0    0 -0.00000000000E+00 -0.00000000000E+00 -0.74505805969E-08  0.93827000000E+00  0.93827000000E+00 0. -1.
     999903    2    1    2    0    0  0.30024782633E-02  0.59310259602E-01  0.24364436292E-01  0.67303220485E-01  0.20233041345E-01 0.  0.
         14    1    1    2    0    0 -0.62552796974E-02  0.44746920923E-01  0.72275439018E-01  0.85235875906E-01  0.00000000000E+00 0. -1.
     999901    1    1    2    0    0  0.32528014341E-02 -0.10405718053E+00 -0.96639875311E-01  0.89139090361E+00  0.88000000000E+00 0. -1.
        -11    1    3    3    0    0  0.11001864706E-01  0.34642297217E-01  0.18156219711E-01  0.40632981907E-01  0.51100000000E-03 0. -1.
         11    1    3    3    0    0 -0.79993864427E-02  0.24667962385E-01  0.62082165811E-02  0.26670238578E-01  0.51100000000E-03 0.  1.
</event>
<event>
 8    1  0.1082757E+005  0.1043930E+01  0.7957747E-01            NaN
         13   -1    0    0    0    0  0.00000000000E+00  0.00000000000E+00  0.74505805969E-08  0.10566000000E+00  0.10566000000E+00 0.  1.
     999900   -1    0    0    0    0 -0.00000000000E+00 -0.00000000000E+00 -0.74505805969E-08  0.93827000000E+00  0.93827000000E+00 0. -1.
     999902    2    1    2    0    0 -0.37740589761E-02  0.44824081715E-02 -0.23001900320E-01  0.10201934686E+01  0.10199172959E+01 0.  0.
     999903    2    3    3    0    0 -0.11859539110E+00  0.37400035464E-01 -0.40760222168E-01  0.13194639347E+00  0.16876776842E-01 0.  0.
         14    1    1    2    0    0  0.37740589761E-02 -0.44824081715E-02  0.23001900320E-01  0.23736531392E-01  0.00000000000E+00 0.  1.
     999901    1    3    3    0    0  0.11482133212E+00 -0.32917627292E-01  0.17758321848E-01  0.88824707514E+00  0.88000000000E+00 0.  1.
        -11    1    4    4    0    0 -0.41703971278E-01  0.20673748858E-01 -0.11133532917E-01  0.47862739040E-01  0.51100000000E-03 0. -1.
         11    1    4    4    0    0 -0.76891419819E-01  0.16726286605E-01 -0.29626689251E-01  0.84083654430E-01  0.51100000000E-03 0.  1.
</event>
<event>
 8    1  0.1082757E+005  0.1043930E+01  0.7957747E-01            NaN
         13   -1    0    0    0    0  0.00000000000E+00  0.00000000000E+00  0.74505805969E-08  0.10566000000E+00  0.10566000000E+00 0.  1.
     999900   -1    0    0    0    0 -0.00000000000E+00 -0.00000000000E+00 -0.74505805969E-08  0.93827000000E+00  0.93827000000E+00 0. -1.
     999902    2    1    2    0    0 -0.12667276126E-02  0.25596614288E-01  0.17703830894E-01  0.10127816952E+01  0.10123025957E+01 0.  0.
     999903    2    3    3    0    0 -0.91193627047E-01  0.49432346409E-01  0.70149083951E-01  0.12632498792E+00  0.16651549708E-01 0.  0.
         14    1    1    2    0    0  0.12667276126E-02 -0.25596614288E-01 -0.17703830894E-01  0.31148304772E-01  0.00000000000E+00 0. -1.
     999901    1    3    3    0    0  0.89926899434E-01 -0.23835732121E-01 -0.52445253057E-01  0.88645670731E+00  0.88000000000E+00 0. -1.
        -11    1    4    4    0    0 -0.76663974964E-01  0.47711932103E-01  0.62380327070E-01  0.10975135465E+00  0.51100000000E-03 0. -1.
         11    1    4    4    0    0 -0.14529652083E-01  0.17204143058E-02  0.77687568818E-02  0.16573633262E-01  0.51100000000E-03 0.  1.
</event>
<event>
 8    1  0.1082757E+005  0.1043930E+01  0.7957747E-01            NaN
         13   -1    0    0    0    0  0.00000000000E+00  0.00000000000E+00  0.74505805969E-08  0.10566000000E+00  0.10566000000E+00 0.  1.
     999900   -1    0    0    0    0 -0.00000000000E+00 -0.00000000000E+00 -0.74505805969E-08  0.93827000000E+00  0.93827000000E+00 0. -1.
     999902    2    1    2    0    0  0.13849717019E-01  0.13389895279E-01  0.12667723014E-01  0.10208740862E+01  0.10206137000E+01 0.  0.
     999903    2    3    3    0    0  0.60641266079E-01 -0.67706646471E-01  0.93882132641E-01  0.13218860834E+00  0.19960466336E-01 0.  0.
         14    1    1    2    0    0 -0.13849717019E-01 -0.13389895279E-01 -0.12667723014E-01  0.23055913850E-01  0.00000000000E+00 0. -1.
     999901    1    3    3    0    0 -0.46791549060E-01  0.81096541750E-01 -0.81214409627E-01  0.88868547781E+00  0.88000000000E+00 0.  1.
        -11    1    4    4    0    0  0.54989022051E-01 -0.56147470172E-01  0.70907077306E-01  0.10585086531E+00  0.51100000000E-03 0. -1.
         11    1    4    4    0    0  0.56522440287E-02 -0.11559176299E-01  0.22975055335E-01  0.26337743030E-01  0.51100000000E-03 0.  1.
</event>
<event>
 8    1  0.1082757E+005  0.1043930E+01  0.7957747E-01            NaN
         13   -1    0    0    0    0  0.00000000000E+00  0.00000000000E+00  0.74505805969E-08  0.10566000000E+00  0.10566000000E+00 0. -1.
     999900   -1    0    0    0    0 -0.00000000000E+00 -0.00000000000E+00 -0.74505805969E-08  0.93827000000E+00  0.93827000000E+00 0.  1.
     999902    2    1    2    0    0 -0.16939273584E-01 -0.16379654432E-01  0.30485884615E-02  0.10201702449E+01  0.10198935252E+01 0.  0.
     999903    2    3    3    0    0 -0.12530750382E-01  0.89831952378E-01 -0.89424977156E-01  0.12896224406E+00  0.20189959889E-01 0.  0.
         14    1    1    2    0    0  0.16939273584E-01  0.16379654432E-01 -0.30485884615E-02  0.23759755059E-01  0.00000000000E+00 0.  1.
     999901    1    3    3    0    0 -0.44085232020E-02 -0.10621160681E+00  0.92473565618E-01  0.89120800088E+00  0.88000000000E+00 0.  1.
        -11    1    4    4    0    0 -0.13717892086E-01  0.30994469740E-01 -0.28954247266E-01  0.44580794895E-01  0.51100000000E-03 0. -1.
         11    1    4    4    0    0  0.11871417045E-02  0.58837482638E-01 -0.60470729890E-01  0.84381449164E-01  0.51100000000E-03 0.  1.
</event>
<event>
 8    1  0.1082757E+005  0.1043930E+01  0.7957747E-01            NaN
         13   -1    0    0    0    0  0.00000000000E+00  0.00000000000E+00  0.74505805969E-08  0.10566000000E+00  0.10566000000E+00 0.  1.
     999900   -1    0    0    0    0 -0.00000000000E+00 -0.00000000000E+00 -0.74505805969E-08  0.93827000000E+00  0.93827000000E+00 0. -1.
     999902    2    1    2    0    0 -0.16242211844E-01  0.16528726560E-01 -0.48503380266E-02  0.10202544002E+01  0.10199796601E+01 0.  0.
     999903    2    3    3    0    0  0.10780961838E+00 -0.30782592318E-01  0.59054260697E-01  0.12800386631E+00  0.18085969110E-01 0.  0.
         14    1    1    2    0    0  0.16242211844E-01 -0.16528726560E-01  0.48503380266E-02  0.23675599808E-01  0.00000000000E+00 0.  1.
     999901    1    3    3    0    0 -0.12405183022E+00  0.47311318878E-01 -0.63904598724E-01  0.89225053388E+00  0.88000000000E+00 0. -1.
        -11    1    4    4    0    0  0.35148808166E-01 -0.74311578527E-02  0.28224792217E-01  0.45689832996E-01  0.51100000000E-03 0.  1.
         11    1    4    4    0    0  0.72660810214E-01 -0.23351434465E-01  0.30829468480E-01  0.82314033313E-01  0.51100000000E-03 0. -1.
</event>
<event>
 8    1  0.1082757E+005  0.1043930E+01  0.7957747E-01            NaN
         13   -1    0    0    0    0  0.00000000000E+00  0.00000000000E+00  0.74505805969E-08  0.10566000000E+00  0.10566000000E+00 0.  1.
     999900   -1    0    0    0    0 -0.00000000000E+00 -0.00000000000E+00 -0.74505805969E-08  0.93827000000E+00  0.93827000000E+00 0. -1.
     999902    2    1    2    0    0 -0.30151261201E-03 -0.17884294110E-01  0.62917359180E-02  0.10249688601E+01  0.10247934618E+01 0.  0.
     999903    2    3    3    0    0 -0.53737370371E-01  0.11898446611E+00 -0.83700482101E-02  0.13266654791E+00  0.22030594105E-01 0.  0.
         14    1    1    2    0    0  0.30151261201E-03  0.17884294110E-01 -0.62917359180E-02  0.18961139906E-01  0.00000000000E+00 0.  1.
     999901    1    3    3    0    0  0.53435857759E-01 -0.13686876022E+00  0.14661784128E-01  0.89230231219E+00  0.88000000000E+00 0. -1.
        -11    1    4    4    0    0 -0.66010624470E-02  0.38878950006E-01 -0.34787431532E-02  0.39591786445E-01  0.51100000000E-03 0.  1.
         11    1    4    4    0    0 -0.47136307924E-01  0.80105516105E-01 -0.48913050568E-02  0.93074761462E-01  0.51100000000E-03 0. -1.
</event>
<event>
 8    1  0.1082757E+005  0.1043930E+01  0.7957747E-01            NaN
         13   -1    0    0    0    0  0.00000000000E+00  0.00000000000E+00  0.74505805969E-08  0.10566000000E+00  0.10566000000E+00 0.  1.
     999900   -1    0    0    0    0 -0.00000000000E+00 -0.00000000000E+00 -0.74505805969E-08  0.93827000000E+00  0.93827000000E+00 0.  1.
     999902    2    1    2    0    0 -0.34606627722E-03 -0.23387616088E-01  0.61884286533E-02  0.10197350212E+01  0.10194479469E+01 0.  0.
     999903    2    3    3    0    0 -0.78019862749E-01  0.75282889697E-01 -0.65334101249E-01  0.12794773738E+00  0.18640446594E-01 0.  0.
         14    1    1    2    0    0  0.34606627722E-03  0.23387616088E-01 -0.61884286533E-02  0.24194978763E-01  0.00000000000E+00 0.  1.
     999901    1    3    3    0    0  0.77673796472E-01 -0.98670505786E-01  0.71522529902E-01  0.89178728386E+00  0.88000000000E+00 0.  1.
        -11    1    4    4    0    0 -0.22369207029E-01  0.27705552775E-01 -0.30398874860E-01  0.46822342866E-01  0.51100000000E-03 0. -1.
         11    1    4    4    0    0 -0.55650655720E-01  0.47577336922E-01 -0.34935226389E-01  0.81125394511E-01  0.51100000000E-03 0.  1.
</event>
<event>
 8    1  0.1082757E+005  0.1043930E+01  0.7957747E-01            NaN
         13   -1    0    0    0    0  0.00000000000E+00  0.00000000000E+00  0.74505805969E-08  0.10566000000E+00  0.10566000000E+00 0. -1.
     999900   -1    0    0    0    0 -0.00000000000E+00 -0.00000000000E+00 -0.74505805969E-08  0.93827000000E+00  0.93827000000E+00 0. -1.
     999902    2    1    2    0    0  0.47721461139E-02 -0.22749185217E-01 -0.34585256959E-02  0.10204297828E+01  0.10201591452E+01 0.  0.
     999903    2    3    3    0    0  0.53154118497E-01  0.59673298859E-01  0.99662884988E-01  0.12926857045E+00  0.19784078228E-01 0.  0.
         14    1    1    2    0    0 -0.47721461139E-02  0.22749185217E-01  0.34585256959E-02  0.23500217160E-01  0.00000000000E+00 0. -1.
     999901    1    3    3    0    0 -0.48381972383E-01 -0.82422484076E-01 -0.10312141068E+00  0.89116121239E+00  0.88000000000E+00 0. -1.
        -11    1    4    4    0    0  0.48169667358E-01  0.41879211898E-01  0.76471378805E-01  0.99610833446E-01  0.51100000000E-03 0. -1.
         11    1    4    4    0    0  0.49844511386E-02  0.17794086961E-01  0.23191506184E-01  0.29657737001E-01  0.51100000000E-03 0.  1.
</event>
<event>
 8    1  0.1082757E+005  0.1043930E+01  0.7957747E-01            NaN
         13   -1    0    0    0    0  0.00000000000E+00  0.00000000000E+00  0.74505805969E-08  0.10566000000E+00  0.10566000000E+00 0.  1.
     999900   -1    0    0    0    0 -0.00000000000E+00 -0.00000000000E+00 -0.74505805969E-08  0.93827000000E+00  0.93827000000E+00 0.  1.
     999902    2    1    2    0    0 -0.24789277989E-01  0.82558650897E-02 -0.30636292525E-02  0.10176230915E+01  0.10172830004E+01 0.  0.
     999903    2    3    3    0    0 -0.10891486927E+00 -0.56025019600E-01 -0.40518083479E-01  0.13048613284E+00  0.19587348072E-01 0.  0.
         14    1    1    2    0    0  0.24789277989E-01 -0.82558650897E-02  0.30636292525E-02  0.26306908519E-01  0.00000000000E+00 0. -1.
     999901    1    3    3    0    0  0.84125591285E-01  0.64280884690E-01  0.37454454226E-01  0.88713695864E+00  0.88000000000E+00 0. -1.
        -11    1    4    4    0    0 -0.79671370675E-01 -0.34546530606E-01 -0.35652287308E-01  0.93874047497E-01  0.51100000000E-03 0. -1.
         11    1    4    4    0    0 -0.29243498600E-01 -0.21478488993E-01 -0.48657961702E-02  0.36612085343E-01  0.51100000000E-03 0.  1.
</event>
<event>
 8    1  0.1082757E+005  0.1043930E+01  0.7957747E-01            NaN
         13   -1    0    0    0    0  0.00000000000E+00  0.00000000000E+00  0.74505805969E-08  0.10566000000E+00  0.10566000000E+00 0.  1.
     999900   -1    0    0    0    0 -0.00000000000E+00 -0.00000000000E+00 -0.74505805969E-08  0.93827000000E+00  0.93827000000E+00 0.  1.
     999902    2    1    2    0    0  0.71815264394E-02 -0.20820838783E-01 -0.88312295227E-02  0.10202008562E+01  0.10199248574E+01 0.  0.
     999903    2    3    3    0    0  0.12353808637E-01 -0.85486273250E-01  0.97089203615E-01  0.13147845351E+00  0.19993768470E-01 0.  0.
         14    1    1    2    0    0 -0.71815264394E-02  0.20820838783E-01  0.88312295227E-02  0.23729143780E-01  0.00000000000E+00 0.  1.
     999901    1    3    3    0    0 -0.51722821976E-02  0.64665434466E-01 -0.10592043314E+00  0.88872240271E+00  0.88000000000E+00 0.  1.
        -11    1    4    4    0    0 -0.16068242617E-02 -0.53489681806E-01  0.63316692072E-01  0.82903513556E-01  0.51100000000E-03 0. -1.
         11    1    4    4    0    0  0.13960632899E-01 -0.31996591443E-01  0.33772511542E-01  0.48574939957E-01  0.51100000000E-03 0.  1.
</event>
<event>
 8    1  0.1082757E+005  0.1043930E+01  0.7957747E-01            NaN
         13   -1    0    0    0    0  0.00000000000E+00  0.00000000000E+00  0.74505805969E-08  0.10566000000E+00  0.10566000000E+00 0.  1.
     999900   -1    0    0    0    0 -0.00000000000E+00 -0.00000000000E+00 -0.74505805969E-08  0.93827000000E+00  0.93827000000E+00 0. -1.
     999902    2    1    2    0    0  0.13234233049E-01  0.20505363732E-01 -0.44828683248E-02  0.10191164760E+01  0.10188143504E+01 0.  0.
     999903    2    3    3    0    0 -0.89295019929E-01 -0.67962737350E-02  0.88982461004E-01  0.12782898312E+00  0.20064412263E-01 0.  0.
         14    1    1    2    0    0 -0.13234233049E-01 -0.20505363732E-01  0.44828683248E-02  0.24813524026E-01  0.00000000000E+00 0. -1.
     999901    1    3    3    0    0  0.10252925298E+00  0.27301637467E-01 -0.93465329329E-01  0.89128749285E+00  0.88000000000E+00 0. -1.
        -11    1    4    4    0    0 -0.37553136903E-01  0.63964845777E-02  0.32208601260E-01  0.49887956686E-01  0.51100000000E-03 0.  1.
         11    1    4    4    0    0 -0.51741883026E-01 -0.13192758313E-01  0.56773859744E-01  0.77941026438E-01  0.51100000000E-03 0. -1.
</event>
<event>
 8    1  0.1082757E+005  0.1043930E+01  0.7957747E-01            NaN
         13   -1    0    0    0    0  0.00000000000E+00  0.00000000000E+00  0.74505805969E-08  0.10566000000E+00  0.10566000000E+00 0.  1.
     999900   -1    0    0    0    0 -0.00000000000E+00 -0.00000000000E+00 -0.74505805969E-08  0.93827000000E+00  0.93827000000E+00 0.  1.
     999902    2    1    2    0    0 -0.95553939211E-02  0.65189888668E-02  0.20716702194E-01  0.10202027052E+01  0.10199267499E+01 0.  0.
     999903    2    3    3    0    0 -0.10040018104E+00  0.16243160671E-01 -0.77689598209E-01  0.13001669384E+00  0.22904811385E-01 0.  0.
         14    1    1    2    0    0  0.95553939211E-02 -0.65189888668E-02 -0.20716702194E-01  0.23727294802E-01  0.00000000000E+00 0. -1.
     999901    1    3    3    0    0  0.90844787121E-01 -0.97241718041E-02  0.98406300403E-01  0.89018601136E+00  0.88000000000E+00 0. -1.
        -11    1    4    4    0    0 -0.28845588798E-01  0.24324640816E-02 -0.10220847534E-01  0.30703610861E-01  0.51100000000E-03 0. -1.
         11    1    4    4    0    0 -0.71554592244E-01  0.13810696589E-01 -0.67468750675E-01  0.99313082976E-01  0.51100000000E-03 0.  1.
</event>
<event>
 8    1  0.1082757E+005  0.1043930E+01  0.7957747E-01            NaN
         13   -1    0    0    0    0  0.00000000000E+00  0.00000000000E+00  0.74505805969E-08  0.10566000000E+00  0.10566000000E+00 0.  1.
     999900   -1    0    0    0    0 -0.00000000000E+00 -0.00000000000E+00 -0.74505805969E-08  0.93827000000E+00  0.93827000000E+00 0.  1.
     999902    2    1    2    0    0  0.79743717530E-02 -0.13313526805E-01  0.17739827127E-01  0.10203600601E+01  0.10200877953E+01 0.  0.
     999903    2    3    3    0    0  0.34240183386E-01  0.12253395079E+00  0.13443890373E-01  0.12953859363E+00  0.20311321941E-01 0.  0.
         14    1    1    2    0    0 -0.79743717530E-02  0.13313526805E-01 -0.17739827127E-01  0.23569939909E-01  0.00000000000E+00 0. -1.
     999901    1    3    3    0    0 -0.26265811633E-01 -0.13584747759E+00  0.42959367534E-02  0.89082146646E+00  0.88000000000E+00 0.  1.
        -11    1    4    4    0    0  0.29417349438E-01  0.11063182872E+00  0.18038467135E-01  0.11588972945E+00  0.51100000000E-03 0.  1.
         11    1    4    4    0    0  0.48228339481E-02  0.11902122060E-01 -0.45945767620E-02  0.13648864182E-01  0.51100000000E-03 0. -1.
</event>
<event>
 8    1  0.1082757E+005  0.1043930E+01  0.7957747E-01            NaN
         13   -1    0    0    0    0  0.00000000000E+00  0.00000000000E+00  0.74505805969E-08  0.10566000000E+00  0.10566000000E+00 0.  1.
     999900   -1    0    0    0    0 -0.00000000000E+00 -0.00000000000E+00 -0.74505805969E-08  0.93827000000E+00  0.93827000000E+00 0.  1.
     999902    2    1    2    0    0  0.23045093468E-01 -0.91247743356E-03  0.63382702099E-02  0.10200117514E+01  0.10197312834E+01 0.  0.
     999903    2    3    3    0    0  0.28225468432E-01  0.15616131756E-01  0.12616206139E+00  0.13172251237E+00  0.19834663872E-01 0.  0.
         14    1    1    2    0    0 -0.23045093468E-01  0.91247743356E-03 -0.63382702099E-02  0.23918248625E-01  0.00000000000E+00 0. -1.
     999901    1    3    3    0    0 -0.51803749634E-02 -0.16528609189E-01 -0.11982379118E+00  0.88828923901E+00  0.88000000000E+00 0.  1.
        -11    1    4    4    0    0  0.98598938277E-02  0.94883076741E-02  0.23077011189E-01  0.26833841604E-01  0.51100000000E-03 0. -1.
         11    1    4    4    0    0  0.18365574604E-01  0.61278240814E-02  0.10308505020E+00  0.10488867076E+00  0.51100000000E-03 0.  1.
</event>
<event>
 8    1  0.1082757E+005  0.1043930E+01  0.7957747E-01            NaN
         13   -1    0    0    0    0  0.00000000000E+00  0.00000000000E+00  0.74505805969E-08  0.10566000000E+00  0.10566000000E+00 0.  1.
     999900   -1    0    0    0    0 -0.00000000000E+00 -0.00000000000E+00 -0.74505805969E-08  0.93827000000E+00  0.93827000000E+00 0.  1.
     999902    2    1    2    0    0 -0.15994270948E-01 -0.15436609563E-01  0.10999908029E-01  0.10191287179E+01  0.10188268940E+01 0.  0.
     999903    2    3    3    0    0  0.11446952163E+00  0.51113612377E-01 -0.17382931717E-02  0.12693367476E+00  0.19830869156E-01 0.  0.
         14    1    1    2    0    0  0.15994270948E-01  0.15436609563E-01 -0.10999908029E-01  0.24801282116E-01  0.00000000000E+00 0. -1.
     999901    1    3    3    0    0 -0.13046379258E+00 -0.66550221941E-01  0.12738201201E-01  0.89219504313E+00  0.88000000000E+00 0. -1.
        -11    1    4    4    0    0  0.63578244822E-01  0.34761422564E-01  0.68750091192E-02  0.72787887624E-01  0.51100000000E-03 0. -1.
         11    1    4    4    0    0  0.50891276807E-01  0.16352189813E-01 -0.86133022909E-02  0.54145787131E-01  0.51100000000E-03 0.  1.
</event>
<event>
 8    1  0.1082757E+005  0.1043930E+01  0.7957747E-01            NaN
         13   -1    0    0    0    0  0.00000000000E+00  0.00000000000E+00  0.74505805969E-08  0.10566000000E+00  0.10566000000E+00 0. -1.
     999900   -1    0    0    0    0 -0.00000000000E+00 -0.00000000000E+00 -0.74505805969E-08  0.93827000000E+00  0.93827000000E+00 0. -1.
     999902    2    1    2    0    0 -0.35732927731E-02  0.15585010325E-01  0.18852012004E-01  0.10192103858E+01  0.10189105708E+01 0.  0.
     999903    2    3    3    0    0  0.10287356246E+00  0.14570425666E-02 -0.73213092615E-01  0.12791553229E+00  0.20423849883E-01 0.  0.
         14    1    1    2    0    0  0.35732927731E-02 -0.15585010325E-01 -0.18852012004E-01  0.24719614169E-01  0.00000000000E+00 0.  1.
     999901    1    3    3    0    0 -0.10644685523E+00  0.14127967759E-01  0.92065104619E-01  0.89129485354E+00  0.88000000000E+00 0.  1.
        -11    1    4    4    0    0  0.44920502185E-01 -0.89214552832E-02 -0.36099311717E-01  0.58316938434E-01  0.51100000000E-03 0. -1.
         11    1    4    4    0    0  0.57953060276E-01  0.10378497850E-01 -0.37113780898E-01  0.69598593855E-01  0.51100000000E-03 0.  1.
</event>
<event>
 8    1  0.1082757E+005  0.1043930E+01  0.7957747E-01            NaN
         13   -1    0    0    0    0  0.00000000000E+00  0.00000000000E+00  0.74505805969E-08  0.10566000000E+00  0.10566000000E+00 0.  1.
     999900   -1    0    0    0    0 -0.00000000000E+00 -0.00000000000E+00 -0.74505805969E-08  0.93827000000E+00  0.93827000000E+00 0.  1.
     999902    2    1    2    0    0 -0.80516533580E-02  0.43379644781E-02 -0.21584944065E-01  0.10204873707E+01  0.10202180732E+01 0.  0.
     999903    2    3    3    0    0 -0.68243049049E-01  0.91523658934E-01 -0.65225679946E-01  0.13305914079E+00  0.20412048786E-01 0.  0.
         14    1    1    2    0    0  0.80516533580E-02 -0.43379644781E-02  0.21584944065E-01  0.23442629287E-01  0.00000000000E+00 0.  1.
     999901    1    3    3    0    0  0.60191395691E-01 -0.87185694456E-01  0.43640735881E-01  0.88742822992E+00  0.88000000000E+00 0. -1.
        -11    1    4    4    0    0 -0.30630482761E-01  0.54393348901E-01 -0.28046394574E-01  0.68437739943E-01  0.51100000000E-03 0.  1.
         11    1    4    4    0    0 -0.37612566288E-01  0.37130310032E-01 -0.37179285373E-01  0.64621400849E-01  0.51100000000E-03 0. -1.
</event>
<event>
 8    1  0.1082757E+005  0.1043930E+01  0.7957747E-01            NaN
         13   -1    0    0    0    0  0.00000000000E+00  0.00000000000E+00  0.74505805969E-08  0.10566000000E+00  0.10566000000E+00 0.  1.
     999900   -1    0    0    0    0 -0.00000000000E+00 -0.00000000000E+00 -0.74505805969E-08  0.93827000000E+00  0.93827000000E+00 0. -1.
     999902    2    1    2    0    0 -0.91545146008E-02 -0.21002532569E-01  0.66343438537E-02  0.10200778297E+01  0.10197989275E+01 0.  0.
     999903    2    3    3    0    0  0.10182621992E+00 -0.43206293334E-01  0.66508190166E-01  0.13081149840E+00  0.21282525880E-01 0.  0.
         14    1    1    2    0    0  0.91545146008E-02  0.21002532569E-01 -0.66343438537E-02  0.23852170347E-01  0.00000000000E+00 0.  1.
     999901    1    3    3    0    0 -0.11098073452E+00  0.22203760765E-01 -0.59873846313E-01  0.88926633125E+00  0.88000000000E+00 0. -1.
        -11    1    4    4    0    0  0.81313136015E-01 -0.40310590735E-01  0.46378957387E-01  0.10192172793E+00  0.51100000000E-03 0. -1.
         11    1    4    4    0    0  0.20513083905E-01 -0.28957025986E-02  0.20129232779E-01  0.28889770475E-01  0.51100000000E-03 0.  1.
</event>
<event>
 8    1  0.1082757E+005  0.1043930E+01  0.7957747E-01            NaN
         13   -1    0    0    0    0  0.00000000000E+00  0.00000000000E+00  0.74505805969E-08  0.10566000000E+00  0.10566000000E+00 0. -1.
     999900   -1    0    0    0    0 -0.00000000000E+00 -0.00000000000E+00 -0.74505805969E-08  0.93827000000E+00  0.93827000000E+00 0. -1.
     999902    2    1    2    0    0  0.25014668825E-01 -0.32513003503E-02  0.10540257623E-02  0.10186829095E+01  0.10183699988E+01 0.  0.
     999903    2    3    3    0    0  0.10512153541E+00 -0.64169873943E-01  0.43440448856E-01  0.13193334417E+00  0.18735655268E-01 0.  0.
         14    1    1    2    0    0 -0.25014668825E-01  0.32513003503E-02 -0.10540257623E-02  0.25247090539E-01  0.00000000000E+00 0.  1.
     999901    1    3    3    0    0 -0.80106866584E-01  0.60918573592E-01 -0.42386423093E-01  0.88674956529E+00  0.88000000000E+00 0.  1.
        -11    1    4    4    0    0  0.46842844174E-01 -0.38212450652E-01  0.25879134849E-01  0.65760430174E-01  0.51100000000E-03 0. -1.
         11    1    4    4    0    0  0.58278691235E-01 -0.25957423291E-01  0.17561314006E-01  0.66172913995E-01  0.51100000000E-03 0.  1.
</event>
<event>
 8    1  0.1082757E+005  0.1043930E+01  0.7957747E-01            NaN
         13   -1    0    0    0    0  0.00000000000E+00  0.00000000000E+00  0.74505805969E-08  0.10566000000E+00  0.10566000000E+00 0. -1.
     999900   -1    0    0    0    0 -0.00000000000E+00 -0.00000000000E+00 -0.74505805969E-08  0.93827000000E+00  0.93827000000E+00 0. -1.
     999902    2    1    2    0    0  0.19861841599E-01 -0.14917575137E-01  0.41892144609E-03  0.10190864436E+01  0.10187835772E+01 0.  0.
     999903    2    3    3    0    0  0.36379042943E-01 -0.15863536282E-01  0.12271445838E+00  0.13047521750E+00  0.19744810384E-01 0.  0.
         14    1    1    2    0    0 -0.19861841599E-01  0.14917575137E-01 -0.41892144609E-03  0.24843556405E-01  0.00000000000E+00 0.  1.
     999901    1    3    3    0    0 -0.16517201343E-01  0.94596114492E-03 -0.12229553694E+00  0.88861122609E+00  0.88000000000E+00 0. -1.
        -11    1    4    4    0    0  0.44349961912E-02 -0.65825126369E-02  0.48461628372E-01  0.49109970569E-01  0.51100000000E-03 0.  1.
         11    1    4    4    0    0  0.31944046752E-01 -0.92810236449E-02  0.74252830011E-01  0.81365246933E-01  0.51100000000E-03 0. -1.
</event>
<event>
 8    1  0.1082757E+005  0.1043930E+01  0.7957747E-01            NaN
         13   -1    0    0    0    0  0.00000000000E+00  0.00000000000E+00  0.74505805969E-08  0.10566000000E+00  0.10566000000E+00 0. -1.
     999900   -1    0    0    0    0 -0.00000000000E+00 -0.00000000000E+00 -0.74505805969E-08  0.93827000000E+00  0.93827000000E+00 0.  1.
     999902    2    1    2    0    0  0.53153552170E-02  0.19713938053E-01 -0.10965063462E-01  0.10207540432E+01  0.10204909073E+01 0.  0.
     999903    2    3    3    0    0 -0.27165862408E-01  0.17899643040E-01  0.12396066038E+00  0.12987623338E+00  0.21052538421E-01 0.  0.
         14    1    1    2    0    0 -0.53153552170E-02 -0.19713938053E-01  0.10965063462E-01  0.23175956752E-01  0.00000000000E+00 0. -1.
     999901    1    3    3    0    0  0.32481217625E-01  0.18142950129E-02 -0.13492572384E+00  0.89087780987E+00  0.88000000000E+00 0.  1.
        -11    1    4    4    0    0 -0.21765722475E-01  0.17958664317E-01  0.67597028279E-01  0.73252164828E-01  0.51100000000E-03 0.  1.
         11    1    4    4    0    0 -0.54001399338E-02 -0.59021276830E-04  0.56363632098E-01  0.56624068550E-01  0.51100000000E-03 0. -1.
</event>
<event>
 8    1  0.1082757E+005  0.1043930E+01  0.7957747E-01            NaN
         13   -1    0    0    0    0  0.00000000000E+00  0.00000000000E+00  0.74505805969E-08  0.10566000000E+00  0.10566000000E+00 0. -1.
     999900   -1    0    0    0    0 -0.00000000000E+00 -0.00000000000E+00 -0.74505805969E-08  0.93827000000E+00  0.93827000000E+00 0. -1.
     999902    2    1    2    0    0  0.18587499862E-01  0.13227432450E-01 -0.21958610006E-02  0.10210109702E+01  0.10207537016E+01 0.  0.
     999903    2    3    3    0    0 -0.81708592912E-01  0.97661752329E-01 -0.23398162963E-01  0.13104580337E+00  0.20283405242E-01 0.  0.
         14    1    1    2    0    0 -0.18587499862E-01 -0.13227432450E-01  0.21958610006E-02  0.22919029776E-01  0.00000000000E+00 0.  1.
     999901    1    3    3    0    0  0.10029609277E+00 -0.84434319878E-01  0.21202301962E-01  0.88996516685E+00  0.88000000000E+00 0.  1.
        -11    1    4    4    0    0 -0.67404833963E-01  0.80913147007E-01 -0.11313653646E-01  0.10591793465E+00  0.51100000000E-03 0.  1.
         11    1    4    4    0    0 -0.14303758949E-01  0.16748605322E-01 -0.12084509317E-01  0.25127868726E-01  0.51100000000E-03 0. -1.
</event>
<event>
 8    1  0.1082757E+005  0.1043930E+01  0.7957747E-01            NaN
         13   -1    0    0    0    0  0.00000000000E+00  0.00000000000E+00  0.74505805969E-08  0.10566000000E+00  0.10566000000E+00 0.  1.
     999900   -1    0    0    0    0 -0.00000000000E+00 -0.00000000000E+00 -0.74505805969E-08  0.93827000000E+00  0.93827000000E+00 0.  1.
     999902    2    1    2    0    0  0.11703999509E-01 -0.13800045688E-01  0.16197069137E-01  0.10196448211E+01  0.10193555765E+01 0.  0.
     999903    2    3    3    0    0 -0.42579329812E-01  0.10641883642E+00 -0.51034032371E-01  0.12727758702E+00  0.21380917311E-01 0.  0.
         14    1    1    2    0    0 -0.11703999509E-01  0.13800045688E-01 -0.16197069137E-01  0.24285178898E-01  0.00000000000E+00 0.  1.
     999901    1    3    3    0    0  0.54283329321E-01 -0.12021888211E+00  0.67231101508E-01  0.89236723408E+00  0.88000000000E+00 0. -1.
        -11    1    4    4    0    0 -0.14006820389E-01  0.25232831610E-01 -0.22515029414E-01  0.36607027727E-01  0.51100000000E-03 0. -1.
         11    1    4    4    0    0 -0.28572509423E-01  0.81186004808E-01 -0.28519002957E-01  0.90670559291E-01  0.51100000000E-03 0.  1.
</event>
<event>
 8    1  0.1082757E+005  0.1043930E+01  0.7957747E-01            NaN
         13   -1    0    0    0    0  0.00000000000E+00  0.00000000000E+00  0.74505805969E-08  0.10566000000E+00  0.10566000000E+00 0. -1.
     999900   -1    0    0    0    0 -0.00000000000E+00 -0.00000000000E+00 -0.74505805969E-08  0.93827000000E+00  0.93827000000E+00 0. -1.
     999902    2    1    2    0    0  0.82369090023E-02  0.19156253897E-01 -0.12102830002E-01  0.10198201011E+01  0.10195350662E+01 0.  0.
     999903    2    3    3    0    0  0.91000282205E-01 -0.87061825122E-01 -0.21372148779E-01  0.12952915056E+00  0.21452723523E-01 0.  0.
         14    1    1    2    0    0 -0.82369090023E-02 -0.19156253897E-01  0.12102830002E-01  0.24109898949E-01  0.00000000000E+00 0. -1.
     999901    1    3    3    0    0 -0.82763373203E-01  0.10621807902E+00  0.92693187772E-02  0.89029095049E+00  0.88000000000E+00 0. -1.
        -11    1    4    4    0    0  0.99458401810E-02 -0.13589873587E-01 -0.98709339229E-02  0.19526926500E-01  0.51100000000E-03 0. -1.
         11    1    4    4    0    0  0.81054442024E-01 -0.73471951535E-01 -0.11501214856E-01  0.11000222406E+00  0.51100000000E-03 0.  1.
</event>
<event>
 7    1  0.1082757E+005  0.1043930E+01  0.7957747E-01            NaN
         13   -1    0    0    0    0  0.00000000000E+00  0.00000000000E+00  0.74505805969E-08  0.10566000000E+00  0.10566000000E+00 0.  1.
     999900   -1    0    0    0    0 -0.00000000000E+00 -0.00000000000E+00 -0.74505805969E-08  0.93827000000E+00  0.93827000000E+00 0. -1.
     999903    2    1    2    0    0 -0.10235545701E+00  0.21777174975E-01  0.32449961445E-01  0.11138466056E+00  0.20066332024E-01 0.  0.
         14    1    1    2    0    0  0.24837643908E-01  0.38940634986E-01 -0.67725649720E-02  0.46681358638E-01  0.00000000000E+00 0. -1.
     999901    1    1    2    0    0  0.77517813100E-01 -0.60717809961E-01 -0.25677396473E-01  0.88586398080E+00  0.88000000000E+00 0.  1.
        -11    1    3    3    0    0 -0.48520731540E-01  0.11167973308E-01  0.50382239120E-02  0.50046276966E-01  0.51100000000E-03 0. -1.
         11    1    3    3    0    0 -0.53834725468E-01  0.10609201667E-01  0.27411737533E-01  0.61338383593E-01  0.51100000000E-03 0.  1.
</event>
<event>
 8    1  0.1082757E+005  0.1043930E+01  0.7957747E-01            NaN
         13   -1    0    0    0    0  0.00000000000E+00  0.00000000000E+00  0.74505805969E-08  0.10566000000E+00  0.10566000000E+00 0.  1.
     999900   -1    0    0    0    0 -0.00000000000E+00 -0.00000000000E+00 -0.74505805969E-08  0.93827000000E+00  0.93827000000E+00 0. -1.
     999902    2    1    2    0    0  0.78788569186E-02 -0.14135564802E-01  0.19734900177E-01  0.10184083060E+01  0.10180884642E+01 0.  0.
     999903    2    3    3    0    0  0.12032036754E+00 -0.27737896476E-01 -0.33799909489E-01  0.12953593465E+00  0.19767213740E-01 0.  0.
         14    1    1    2    0    0 -0.78788569186E-02  0.14135564802E-01 -0.19734900177E-01  0.25521693980E-01  0.00000000000E+00 0. -1.
     999901    1    3    3    0    0 -0.11244151062E+00  0.13602331673E-01  0.53534809665E-01  0.88887237137E+00  0.88000000000E+00 0. -1.
        -11    1    4    4    0    0  0.89928493077E-01 -0.29130820160E-01 -0.23447448455E-01  0.97394981957E-01  0.51100000000E-03 0. -1.
         11    1    4    4    0    0  0.30391874461E-01  0.13929236840E-02 -0.10352461033E-01  0.32140952694E-01  0.51100000000E-03 0.  1.
</event>
<event>
 8    1  0.1082757E+005  0.1043930E+01  0.7957747E-01            NaN
         13   -1    0    0    0    0  0.00000000000E+00  0.00000000000E+00  0.74505805969E-08  0.10566000000E+00  0.10566000000E+00 0.  1.
     999900   -1    0    0    0    0 -0.00000000000E+00 -0.00000000000E+00 -0.74505805969E-08  0.93827000000E+00  0.93827000000E+00 0. -1.
     999902    2    1    2    0    0 -0.84280518436E-02 -0.12612097464E-01 -0.18997803962E-01  0.10196192284E+01  0.10193293665E+01 0.  0.
     999903    2    3    3    0    0 -0.43313281669E-01 -0.10322484733E+00 -0.68725252766E-01  0.13288337773E+00  0.20085373629E-01 0.  0.
         14    1    1    2    0    0  0.84280518436E-02  0.12612097464E-01  0.18997803962E-01  0.24310771598E-01  0.00000000000E+00 0.  1.
     999901    1    3    3    0    0  0.34885229826E-01  0.90612749868E-01  0.49727448805E-01  0.88673585067E+00  0.88000000000E+00 0.  1.
        -11    1    4    4    0    0 -0.13494457937E-01 -0.13163112796E-01 -0.11096306287E-01  0.21880517994E-01  0.51100000000E-03 0. -1.
         11    1    4    4    0    0 -0.29818823732E-01 -0.90061734537E-01 -0.57628946480E-01  0.11100285974E+00  0.51100000000E-03 0.  1.
</event>
<event>
 8    1  0.1082757E+005  0.1043930E+01  0.7957747E-01            NaN
         13   -1    0    0    0    0  0.00000000000E+00  0.00000000000E+00  0.74505805969E-08  0.10566000000E+00  0.10566000000E+00 0. -1.
     999900   -1    0    0    0    0 -0.00000000000E+00 -0.00000000000E+00 -0.74505805969E-08  0.93827000000E+00  0.93827000000E+00 0.  1.
     999902    2    1    2    0    0  0.19181275328E-02  0.10738652987E-01 -0.32529750553E-01  0.10096199060E+01  0.10090367545E+01 0.  0.
     999903    2    3    3    0    0  0.81990381945E-02  0.11670382806E+00 -0.22857244629E-01  0.12318794268E+00  0.31077449705E-01 0.  0.
         14    1    1    2    0    0 -0.19181275328E-02 -0.10738652987E-01  0.32529750553E-01  0.34310094028E-01  0.00000000000E+00 0. -1.
     999901    1    3    3    0    0 -0.62809106617E-02 -0.10596517507E+00 -0.96725059241E-02  0.88643196329E+00  0.88000000000E+00 0.  1.
        -11    1    4    4    0    0  0.16595540634E-01  0.10664426311E+00 -0.19981515646E-01  0.10976307626E+00  0.51100000000E-03 0.  1.
         11    1    4    4    0    0 -0.83965024394E-02  0.10059564952E-01 -0.28757289828E-02  0.13424866421E-01  0.51100000000E-03 0. -1.
</event>
<event>
 8    1  0.1082757E+005  0.1043930E+01  0.7957747E-01            NaN
         13   -1    0    0    0    0  0.00000000000E+00  0.00000000000E+00  0.74505805969E-08  0.10566000000E+00  0.10566000000E+00 0. -1.
     999900   -1    0    0    0    0 -0.00000000000E+00 -0.00000000000E+00 -0.74505805969E-08  0.93827000000E+00  0.93827000000E+00 0.  1.
     999902    2    1    2    0    0  0.70493979497E-02  0.17133271418E-01  0.16528878175E-01  0.10191016530E+01  0.10187991619E+01 0.  0.
     999903    2    3    3    0    0  0.21763677237E-01 -0.11804160576E+00  0.41478028943E-01  0.12830918696E+00  0.18312352025E-01 0.  0.
         14    1    1    2    0    0 -0.70493979497E-02 -0.17133271418E-01 -0.16528878175E-01  0.24828346998E-01  0.00000000000E+00 0.  1.
     999901    1    3    3    0    0 -0.14714279287E-01  0.13517487717E+00 -0.24949150769E-01  0.89079246604E+00  0.88000000000E+00 0.  1.
        -11    1    4    4    0    0  0.22566582215E-01 -0.74481707489E-01  0.25397482816E-01  0.81866162960E-01  0.51100000000E-03 0.  1.
         11    1    4    4    0    0 -0.80290497826E-03 -0.43559898267E-01  0.16080546128E-01  0.46443023999E-01  0.51100000000E-03 0. -1.
</event>
<event>
 8    1  0.1082757E+005  0.1043930E+01  0.7957747E-01            NaN
         13   -1    0    0    0    0  0.00000000000E+00  0.00000000000E+00  0.74505805969E-08  0.10566000000E+00  0.10566000000E+00 0.  1.
     999900   -1    0    0    0    0 -0.00000000000E+00 -0.00000000000E+00 -0.74505805969E-08  0.93827000000E+00  0.93827000000E+00 0. -1.
     999902    2    1    2    0    0  0.29922117657E-02  0.25472622267E-01  0.57088425634E-02  0.10176545609E+01  0.10173152936E+01 0.  0.
     999903    2    3    3    0    0 -0.84949084405E-01 -0.39183421461E-01 -0.82727292728E-01  0.12651202147E+00  0.20243496609E-01 0.  0.
         14    1    1    2    0    0 -0.29922117657E-02 -0.25472622267E-01 -0.57088425634E-02  0.26275439099E-01  0.00000000000E+00 0. -1.
     999901    1    3    3    0    0  0.87941296171E-01  0.64656043728E-01  0.88436135292E-01  0.89114253943E+00  0.88000000000E+00 0.  1.
        -11    1    4    4    0    0 -0.40838662749E-01 -0.85369555221E-02 -0.31425492671E-01  0.52235033219E-01  0.51100000000E-03 0. -1.
         11    1    4    4    0    0 -0.44110421656E-01 -0.30646465939E-01 -0.51301800057E-01  0.74276988249E-01  0.51100000000E-03 0.  1.
</event>
<event>
 8    1  0.1082757E+005  0.1043930E+01  0.7957747E-01            NaN
         13   -1    0    0    0    0  0.00000000000E+00  0.00000000000E+00  0.74505805969E-08  0.10566000000E+00  0.10566000000E+00 0. -1.
     999900   -1    0    0    0    0 -0.00000000000E+00 -0.00000000000E+00 -0.74505805969E-08  0.93827000000E+00  0.93827000000E+00 0.  1.
     999902    2    1    2    0    0  0.69599889473E-02  0.20991243261E-01  0.68300805384E-02  0.10207842933E+01  0.10205218516E+01 0.  0.
     999903    2    3    3    0    0 -0.27876199518E-01  0.97814519726E-01  0.84463283338E-01  0.13334849841E+00  0.17407269343E-01 0.  0.
         14    1    1    2    0    0 -0.69599889473E-02 -0.20991243261E-01 -0.68300805384E-02  0.23145706728E-01  0.00000000000E+00 0.  1.
     999901    1    3    3    0    0  0.34836188465E-01 -0.76823276465E-01 -0.77633202800E-01  0.88743579487E+00  0.88000000000E+00 0.  1.
        -11    1    4    4    0    0  0.40179348706E-03  0.22494706093E-01  0.22241203525E-01  0.31640251192E-01  0.51100000000E-03 0.  1.
         11    1    4    4    0    0 -0.28277993005E-01  0.75319813632E-01  0.62222079813E-01  0.10170824721E+00  0.51100000000E-03 0. -1.
</event>
<event>
 8    1  0.1082757E+005  0.1043930E+01  0.7957747E-01            NaN
         13   -1    0    0    0    0  0.00000000000E+00  0.00000000000E+00  0.74505805969E-08  0.10566000000E+00  0.10566000000E+00 0. -1.
     999900   -1    0    0    0    0 -0.00000000000E+00 -0.00000000000E+00 -0.74505805969E-08  0.93827000000E+00  0.93827000000E+00 0.  1.
     999902    2    1    2    0    0  0.21209617806E-01 -0.54723701371E-02 -0.72363517618E-02  0.10208614173E+01  0.10206007416E+01 0.  0.
     999903    2    3    3    0    0  0.64075771596E-03  0.11865284116E+00  0.50318893639E-01  0.13005125098E+00  0.17390501413E-01 0.  0.
         14    1    1    2    0    0 -0.21209617806E-01  0.54723701371E-02  0.72363517618E-02  0.23068582731E-01  0.00000000000E+00 0. -1.
     999901    1    3    3    0    0  0.20568860090E-01 -0.12412521130E+00 -0.57555245401E-01  0.89081016629E+00  0.88000000000E+00 0. -1.
        -11    1    4    4    0    0 -0.54372008585E-03  0.57036329576E-01  0.33567772681E-01  0.66185308089E-01  0.51100000000E-03 0. -1.
         11    1    4    4    0    0  0.11844778018E-02  0.61616511584E-01  0.16751120958E-01  0.63865942894E-01  0.51100000000E-03 0.  1.
</event>
<event>
 8    1  0.1082757E+005  0.1043930E+01  0.7957747E-01            NaN
         13   -1    0    0    0    0  0.00000000000E+00  0.00000000000E+00  0.74505805969E-08  0.10566000000E+00  0.10566000000E+00 0. -1.
     999900   -1    0    0    0    0 -0.00000000000E+00 -0.00000000000E+00 -0.74505805969E-08  0.93827000000E+00  0.93827000000E+00 0. -1.
     999902    2    1    2    0    0  0.11384986393E-01  0.13716603583E-01  0.15526648776E-01  0.10202902041E+01  0.10200163041E+01 0.  0.
     999903    2    3    3    0    0 -0.24035644319E-01  0.97792348042E-02 -0.12453032114E+00  0.12850206849E+00  0.18210850938E-01 0.  0.
         14    1    1    2    0    0 -0.11384986393E-01 -0.13716603583E-01 -0.15526648776E-01  0.23639795922E-01  0.00000000000E+00 0.  1.
     999901    1    3    3    0    0  0.35420630712E-01  0.39373687792E-02  0.14005696992E+00  0.89178813559E+00  0.88000000000E+00 0.  1.
        -11    1    4    4    0    0  0.11977774682E-02  0.54884673243E-02 -0.32101782910E-01  0.32593611820E-01  0.51100000000E-03 0.  1.
         11    1    4    4    0    0 -0.25233421787E-01  0.42907674799E-02 -0.92428538230E-01  0.95908456671E-01  0.51100000000E-03 0. -1.
</event>
<event>
 8    1  0.1082757E+005  0.1043930E+01  0.7957747E-01            NaN
         13   -1    0    0    0    0  0.00000000000E+00  0.00000000000E+00  0.74505805969E-08  0.10566000000E+00  0.10566000000E+00 0.  1.
     999900   -1    0    0    0    0 -0.00000000000E+00 -0.00000000000E+00 -0.74505805969E-08  0.93827000000E+00  0.93827000000E+00 0.  1.
     999902    2    1    2    0    0  0.67628922909E-02  0.12628629847E-01  0.18941059736E-01  0.10201816791E+01  0.10199052287E+01 0.  0.
     999903    2    3    3    0    0  0.12712628788E-01 -0.11617809731E+00  0.52992403384E-01  0.13013332850E+00  0.21622376011E-01 0.  0.
         14    1    1    2    0    0 -0.67628922909E-02 -0.12628629847E-01 -0.18941059736E-01  0.23748320948E-01  0.00000000000E+00 0. -1.
     999901    1    3    3    0    0 -0.59497364971E-02  0.12880672715E+00 -0.34051343649E-01  0.89004835056E+00  0.88000000000E+00 0. -1.
        -11    1    4    4    0    0 -0.20953781227E-02 -0.29575907362E-01  0.22160998196E-01  0.37020208911E-01  0.51100000000E-03 0.  1.
         11    1    4    4    0    0  0.14808006911E-01 -0.86602189944E-01  0.30831405188E-01  0.93113119584E-01  0.51100000000E-03 0. -1.
</event>
<event>
 8    1  0.1082757E+005  0.1043930E+01  0.7957747E-01            NaN
         13   -1    0    0    0    0  0.00000000000E+00  0.00000000000E+00  0.74505805969E-08  0.10566000000E+00  0.10566000000E+00 0.  1.
     999900   -1    0    0    0    0 -0.00000000000E+00 -0.00000000000E+00 -0.74505805969E-08  0.93827000000E+00  0.93827000000E+00 0.  1.
     999902    2    1    2    0    0 -0.19505071375E-01 -0.89505245928E-02  0.14230824160E-01  0.10181797368E+01  0.10178540663E+01 0.  0.
     999903    2    3    3    0    0  0.85704512868E-01 -0.79685051800E-02 -0.89507242140E-01  0.12586162793E+00  0.20514443407E-01 0.  0.
         14    1    1    2    0    0  0.19505071375E-01  0.89505245928E-02 -0.14230824160E-01  0.25750263224E-01  0.00000000000E+00 0. -1.
     999901    1    3    3    0    0 -0.10520958424E+00 -0.98201941279E-03  0.10373806630E+00  0.89231810885E+00  0.88000000000E+00 0. -1.
        -11    1    4    4    0    0  0.64309198312E-01 -0.23712849476E-02 -0.53912864011E-01  0.83953284669E-01  0.51100000000E-03 0. -1.
         11    1    4    4    0    0  0.21395314556E-01 -0.55972202324E-02 -0.35594378130E-01  0.41908343259E-01  0.51100000000E-03 0.  1.
</event>
<event>
 8    1  0.1082757E+005  0.1043930E+01  0.7957747E-01            NaN
         13   -1    0    0    0    0  0.00000000000E+00  0.00000000000E+00  0.74505805969E-08  0.10566000000E+00  0.10566000000E+00 0.  1.
     999900   -1    0    0    0    0 -0.00000000000E+00 -0.00000000000E+00 -0.74505805969E-08  0.93827000000E+00  0.93827000000E+00 0. -1.
     999902    2    1    2    0    0 -0.16774830183E-01  0.15177370743E-01  0.36632301136E-02  0.10210134827E+01  0.10207562711E+01 0.  0.
     999903    2    3    3    0    0 -0.29225253728E-01  0.89479909587E-01 -0.91343845625E-01  0.13269922256E+00  0.20115065486E-01 0.  0.
         14    1    1    2    0    0  0.16774830183E-01 -0.15177370743E-01 -0.36632301136E-02  0.22916517301E-01  0.00000000000E+00 0.  1.
     999901    1    3    3    0    0  0.12450423545E-01 -0.74302538843E-01  0.95007075739E-01  0.88831426014E+00  0.88000000000E+00 0.  1.
        -11    1    4    4    0    0 -0.23220257572E-01  0.51797738004E-01 -0.43596937413E-01  0.71576114010E-01  0.51100000000E-03 0. -1.
         11    1    4    4    0    0 -0.60049961564E-02  0.37682171582E-01 -0.47746908213E-01  0.61123108550E-01  0.51100000000E-03 0.  1.
</event>
<event>
 8    1  0.1082757E+005  0.1043930E+01  0.7957747E-01            NaN
         13   -1    0    0    0    0  0.00000000000E+00  0.00000000000E+00  0.74505805969E-08  0.10566000000E+00  0.10566000000E+00 0. -1.
     999900   -1    0    0    0    0 -0.00000000000E+00 -0.00000000000E+00 -0.74505805969E-08  0.93827000000E+00  0.93827000000E+00 0. -1.
     999902    2    1    2    0    0  0.22869791782E-01 -0.16297673874E-02 -0.28862116736E-02  0.10208212628E+01  0.10205596684E+01 0.  0.
     999903    2    3    3    0    0  0.10090672389E+00  0.17887409606E-01  0.82382687807E-01  0.13304794251E+00  0.20315545965E-01 0.  0.
         14    1    1    2    0    0 -0.22869791782E-01  0.16297673874E-02  0.28862116736E-02  0.23108737216E-01  0.00000000000E+00 0.  1.
     999901    1    3    3    0    0 -0.78036932106E-01 -0.19517176993E-01 -0.85268899481E-01  0.88777332027E+00  0.88000000000E+00 0. -1.
        -11    1    4    4    0    0  0.37377743438E-01  0.15807988434E-01  0.27062212239E-01  0.48781273611E-01  0.51100000000E-03 0. -1.
         11    1    4    4    0    0  0.63528980450E-01  0.20794211725E-02  0.55320475568E-01  0.84266668900E-01  0.51100000000E-03 0.  1.
</event>
<event>
 8    1  0.1082757E+005  0.1043930E+01  0.7957747E-01            NaN
         13   -1    0    0    0    0  0.00000000000E+00  0.00000000000E+00  0.74505805969E-08  0.10566000000E+00  0.10566000000E+00 0. -1.
     999900   -1    0    0    0    0 -0.00000000000E+00 -0.00000000000E+00 -0.74505805969E-08  0.93827000000E+00  0.93827000000E+00 0. -1.
     999902    2    1    2    0    0 -0.23017765533E-01  0.83784440807E-02  0.10012670578E-01  0.10174673957E+01  0.10171232137E+01 0.  0.
     999903    2    3    3    0    0  0.18033597153E-01 -0.66100979929E-01  0.10634979019E+00  0.12813436492E+00  0.20336848986E-01 0.  0.
         14    1    1    2    0    0  0.23017765533E-01 -0.83784440807E-02 -0.10012670578E-01  0.26462604321E-01  0.00000000000E+00 0.  1.
     999901    1    3    3    0    0 -0.41051362685E-01  0.74479424009E-01 -0.96337119613E-01  0.88933303076E+00  0.88000000000E+00 0. -1.
        -11    1    4    4    0    0  0.12432472571E-01 -0.24441016017E-01  0.27850499208E-01  0.39087607567E-01  0.51100000000E-03 0. -1.
         11    1    4    4    0    0  0.56011245813E-02 -0.41659963912E-01  0.78499290984E-01  0.89046757356E-01  0.51100000000E-03 0.  1.
</event>
<event>
 8    1  0.1082757E+005  0.1043930E+01  0.7957747E-01            NaN
         13   -1    0    0    0    0  0.00000000000E+00  0.00000000000E+00  0.74505805969E-08  0.10566000000E+00  0.10566000000E+00 0. -1.
     999900   -1    0    0    0    0 -0.00000000000E+00 -0.00000000000E+00 -0.74505805969E-08  0.93827000000E+00  0.93827000000E+00 0. -1.
     999902    2    1    2    0    0 -0.99544976237E-02  0.51884883651E-02 -0.19926426941E-01  0.10210591687E+01  0.10208029933E+01 0.  0.
     999903    2    3    3    0    0 -0.43765325901E-01 -0.10001910024E+00 -0.71078028350E-01  0.13267395092E+00  0.25121046472E-01 0.  0.
         14    1    1    2    0    0  0.99544976237E-02 -0.51884883651E-02  0.19926426941E-01  0.22870831316E-01  0.00000000000E+00 0. -1.
     999901    1    3    3    0    0  0.33810828277E-01  0.10520758860E+00  0.51151601410E-01  0.88838521776E+00  0.88000000000E+00 0. -1.
        -11    1    4    4    0    0 -0.19112265337E-01 -0.59129100245E-01 -0.27235281769E-01  0.67849472187E-01  0.51100000000E-03 0.  1.
         11    1    4    4    0    0 -0.24653060564E-01 -0.40889999993E-01 -0.43842746582E-01  0.64824478736E-01  0.51100000000E-03 0. -1.
</event>
<event>
 8    1  0.1082757E+005  0.1043930E+01  0.7957747E-01            NaN
         13   -1    0    0    0    0  0.00000000000E+00  0.00000000000E+00  0.74505805969E-08  0.10566000000E+00  0.10566000000E+00 0. -1.
     999900   -1    0    0    0    0 -0.00000000000E+00 -0.00000000000E+00 -0.74505805969E-08  0.93827000000E+00  0.93827000000E+00 0.  1.
     999902    2    1    2    0    0  0.98500802440E-02 -0.19232534055E-01 -0.71458408142E-02  0.10211708812E+01  0.10209172303E+01 0.  0.
     999903    2    3    3    0    0 -0.10279924023E+00 -0.41734855380E-02 -0.78416706320E-01  0.13100450316E+00  0.20685701470E-01 0.  0.
         14    1    1    2    0    0 -0.98500802440E-02  0.19232534055E-01  0.71458408142E-02  0.22759118786E-01  0.00000000000E+00 0.  1.
     999901    1    3    3    0    0  0.11264932047E+00 -0.15059048517E-01  0.71270865506E-01  0.89016637805E+00  0.88000000000E+00 0.  1.
        -11    1    4    4    0    0 -0.28038455831E-01 -0.34574728190E-02 -0.10964742290E-01  0.30308345685E-01  0.51100000000E-03 0. -1.
         11    1    4    4    0    0 -0.74760784398E-01 -0.71601271903E-03 -0.67451964030E-01  0.10069615748E+00  0.51100000000E-03 0.  1.
</event>
<event>
 8    1  0.1082757E+005  0.1043930E+01  0.7957747E-01            NaN
         13   -1    0    0    0    0  0.00000000000E+00  0.00000000000E+00  0.74505805969E-08  0.10566000000E+00  0.10566000000E+00 0.  1.
     999900   -1    0    0    0    0 -0.00000000000E+00 -0.00000000000E+00 -0.74505805969E-08  0.93827000000E+00  0.93827000000E+00 0. -1.
     999902    2    1    2    0    0  0.17037508894E-01  0.13182316636E-01 -0.77037395825E-02  0.10210521114E+01  0.10207957761E+01 0.  0.
     999903    2    3    3    0    0  0.76288899995E-01  0.29587351974E-01  0.10173590228E+00  0.13214441784E+00  0.20409451118E-01 0.  0.
         14    1    1    2    0    0 -0.17037508894E-01 -0.13182316636E-01  0.77037395825E-02  0.22877888556E-01  0.00000000000E+00 0. -1.
     999901    1    3    3    0    0 -0.59251391101E-01 -0.16405035338E-01 -0.10943964186E+00  0.88890769360E+00  0.88000000000E+00 0. -1.
        -11    1    4    4    0    0  0.21912187908E-01  0.99188138490E-03  0.36061162069E-01  0.42211329503E-01  0.51100000000E-03 0. -1.
         11    1    4    4    0    0  0.54376712087E-01  0.28595470589E-01  0.65674740212E-01  0.89933088341E-01  0.51100000000E-03 0.  1.
</event>
<event>
 8    1  0.1082757E+005  0.1043930E+01  0.7957747E-01            NaN
         13   -1    0    0    0    0  0.00000000000E+00  0.00000000000E+00  0.74505805969E-08  0.10566000000E+00  0.10566000000E+00 0.  1.
     999900   -1    0    0    0    0 -0.00000000000E+00 -0.00000000000E+00 -0.74505805969E-08  0.93827000000E+00  0.93827000000E+00 0. -1.
     999902    2    1    2    0    0 -0.15889603178E-01  0.70467532915E-02 -0.17517809150E-01  0.10192518749E+01  0.10189530777E+01 0.  0.
     999903    2    3    3    0    0 -0.11030846758E+00 -0.42945826067E-01 -0.54875571598E-01  0.13200344162E+00  0.20031930624E-01 0.  0.
         14    1    1    2    0    0  0.15889603178E-01 -0.70467532915E-02  0.17517809150E-01  0.24678125101E-01  0.00000000000E+00 0.  1.
     999901    1    3    3    0    0  0.94418864401E-01  0.49992579358E-01  0.37357762448E-01  0.88724843328E+00  0.88000000000E+00 0.  1.
        -11    1    4    4    0    0 -0.55778172598E-01 -0.31963896560E-01 -0.26243085042E-01  0.69439584210E-01  0.51100000000E-03 0.  1.
         11    1    4    4    0    0 -0.54530294980E-01 -0.10981929507E-01 -0.28632486556E-01  0.62563857407E-01  0.51100000000E-03 0. -1.
</event>
<event>
 8    1  0.1082757E+005  0.1043930E+01  0.7957747E-01            NaN
         13   -1    0    0    0    0  0.00000000000E+00  0.00000000000E+00  0.74505805969E-08  0.10566000000E+00  0.10566000000E+00 0. -1.
     999900   -1    0    0    0    0 -0.00000000000E+00 -0.00000000000E+00 -0.74505805969E-08  0.93827000000E+00  0.93827000000E+00 0.  1.
     999902    2    1    2    0    0  0.16098431851E-01  0.17858597087E-01 -0.34751833722E-02  0.10196366697E+01  0.10193472285E+01 0.  0.
     999903    2    3    3    0    0 -0.53845791443E-01 -0.15320459902E-01 -0.11487715006E+00  0.12924156505E+00  0.19301211942E-01 0.  0.
         14    1    1    2    0    0 -0.16098431851E-01 -0.17858597087E-01  0.34751833722E-02  0.24293330307E-01  0.00000000000E+00 0.  1.
     999901    1    3    3    0    0  0.69944223294E-01  0.33179056989E-01  0.11140196669E+00  0.89039510465E+00  0.88000000000E+00 0. -1.
        -11    1    4    4    0    0 -0.19066917061E-01 -0.58181375763E-02 -0.22436551877E-01  0.30017628691E-01  0.51100000000E-03 0.  1.
         11    1    4    4    0    0 -0.34778874381E-01 -0.95023223256E-02 -0.92440598182E-01  0.99223936356E-01  0.51100000000E-03 0. -1.
</event>
<event>
 8    1  0.1082757E+005  0.1043930E+01  0.7957747E-01            NaN
         13   -1    0    0    0    0  0.00000000000E+00  0.00000000000E+00  0.74505805969E-08  0.10566000000E+00  0.10566000000E+00 0. -1.
     999900   -1    0    0    0    0 -0.00000000000E+00 -0.00000000000E+00 -0.74505805969E-08  0.93827000000E+00  0.93827000000E+00 0. -1.
     999902    2    1    2    0    0  0.21218224070E-01 -0.85026566232E-02 -0.99550281190E-02  0.10189978764E+01  0.10186928199E+01 0.  0.
     999903    2    3    3    0    0 -0.73016663731E-01 -0.32154189296E-01 -0.99297403806E-01  0.12915425577E+00  0.21342968638E-01 0.  0.
         14    1    1    2    0    0 -0.21218224070E-01  0.85026566232E-02  0.99550281190E-02  0.24932123599E-01  0.00000000000E+00 0. -1.
     999901    1    3    3    0    0  0.94234887800E-01  0.23651532673E-01  0.89342375687E-01  0.88984362063E+00  0.88000000000E+00 0. -1.
        -11    1    4    4    0    0 -0.20418314106E-01 -0.29372815284E-02 -0.38112927262E-01  0.43340414386E-01  0.51100000000E-03 0.  1.
         11    1    4    4    0    0 -0.52598349624E-01 -0.29216907768E-01 -0.61184476545E-01  0.85813841388E-01  0.51100000000E-03 0. -1.
</event>
<event>
 7    1  0.1082757E+005  0.1043930E+01  0.7957747E-01            NaN
         13   -1    0    0    0    0  0.00000000000E+00  0.00000000000E+00  0.74505805969E-08  0.10566000000E+00  0.10566000000E+00 0.  1.
     999900   -1    0    0    0    0 -0.00000000000E+00 -0.00000000000E+00 -0.74505805969E-08  0.93827000000E+00  0.93827000000E+00 0.  1.
     999903    2    1    2    0    0 -0.42246858185E-01  0.81197549537E-01  0.32010423900E-01  0.99030869186E-01  0.20114838707E-01 0.  0.
         14    1    1    2    0    0 -0.47594176223E-01  0.23956219675E-01  0.34162502892E-02  0.53392666515E-01  0.00000000000E+00 0. -1.
     999901    1    1    2    0    0  0.89841034408E-01 -0.10515376921E+00 -0.35426674189E-01  0.89150646430E+00  0.88000000000E+00 0. -1.
        -11    1    3    3    0    0 -0.33554985175E-01  0.45497309742E-01  0.24016731887E-01  0.61424805701E-01  0.51100000000E-03 0.  1.
         11    1    3    3    0    0 -0.86918730093E-02  0.35700239796E-01  0.79936920124E-02  0.37606063485E-01  0.51100000000E-03 0. -1.
</event>
<event>
 8    1  0.1387048E+005  0.1043930E+01  0.7957747E-01            NaN
         13   -1    0    0    0    0  0.00000000000E+00  0.00000000000E+00  0.74505805969E-08  0.10566000000E+00  0.10566000000E+00 0.  1.
     999900   -1    0    0    0    0 -0.00000000000E+00 -0.00000000000E+00 -0.74505805969E-08  0.93827000000E+00  0.93827000000E+00 0.  1.
     999902    2    1    2    0    0  0.23637966858E-01  0.35604426429E-02 -0.17153317447E-02  0.10199639283E+01  0.10196823243E+01 0.  0.
     999903    2    3    3    0    0  0.22769268105E-01 -0.64747515889E-01 -0.10908596151E+00  0.13080973248E+00  0.22377639052E-01 0.  0.
         14    1    1    2    0    0 -0.23637966858E-01 -0.35604426429E-02  0.17153317447E-02  0.23966071685E-01  0.00000000000E+00 0. -1.
     999901    1    3    3    0    0  0.86869875277E-03  0.68307958532E-01  0.10737062976E+00  0.88915419584E+00  0.88000000000E+00 0. -1.
        -11    1    4    4    0    0  0.23443724241E-01 -0.33427077765E-01 -0.59958225977E-01  0.72541213924E-01  0.51100000000E-03 0. -1.
         11    1    4    4    0    0 -0.67445613601E-03 -0.31320438123E-01 -0.49127735531E-01  0.58268518556E-01  0.51100000000E-03 0.  1.
</event>
<event>
 8    1  0.1082757E+005  0.1043930E+01  0.7957747E-01            NaN
         13   -1    0    0    0    0  0.00000000000E+00  0.00000000000E+00  0.74505805969E-08  0.10566000000E+00  0.10566000000E+00 0. -1.
     999900   -1    0    0    0    0 -0.00000000000E+00 -0.00000000000E+00 -0.74505805969E-08  0.93827000000E+00  0.93827000000E+00 0.  1.
     999902    2    1    2    0    0  0.17776181289E-02 -0.43419271082E-02  0.20144036735E-01  0.10232468070E+01  0.10230377479E+01 0.  0.
     999903    2    3    3    0    0 -0.42801191391E-01  0.80067969794E-01  0.97282168111E-01  0.13472973216E+00  0.21105893093E-01 0.  0.
         14    1    1    2    0    0 -0.17776181289E-02  0.43419271082E-02 -0.20144036735E-01  0.20683193013E-01  0.00000000000E+00 0.  1.
     999901    1    3    3    0    0  0.44578809519E-01 -0.84409896902E-01 -0.77138131375E-01  0.88851707483E+00  0.88000000000E+00 0.  1.
        -11    1    4    4    0    0 -0.37418430311E-01  0.59813500707E-01  0.84868465986E-01  0.11036626040E+00  0.51100000000E-03 0.  1.
         11    1    4    4    0    0 -0.53827610791E-02  0.20254469087E-01  0.12413702125E-01  0.24363471761E-01  0.51100000000E-03 0. -1.
</event>
<event>
 8    1  0.1082757E+005  0.1043930E+01  0.7957747E-01            NaN
         13   -1    0    0    0    0  0.00000000000E+00  0.00000000000E+00  0.74505805969E-08  0.10566000000E+00  0.10566000000E+00 0.  1.
     999900   -1    0    0    0    0 -0.00000000000E+00 -0.00000000000E+00 -0.74505805969E-08  0.93827000000E+00  0.93827000000E+00 0.  1.
     999902    2    1    2    0    0 -0.82178780129E-02 -0.16154967777E-01 -0.15497486104E-01  0.10200828077E+01  0.10198040234E+01 0.  0.
     999903    2    3    3    0    0 -0.10122325913E+00 -0.79236493319E-01  0.22926954703E-01  0.13210436351E+00  0.20033660251E-01 0.  0.
         14    1    1    2    0    0  0.82178780129E-02  0.16154967777E-01  0.15497486104E-01  0.23847192255E-01  0.00000000000E+00 0.  1.
     999901    1    3    3    0    0  0.93005381117E-01  0.63081525542E-01 -0.38424440807E-01  0.88797844424E+00  0.88000000000E+00 0. -1.
        -11    1    4    4    0    0 -0.95522406084E-02 -0.14044705659E-02 -0.69371599472E-04  0.96687006175E-02  0.51100000000E-03 0. -1.
         11    1    4    4    0    0 -0.91671018522E-01 -0.77832022753E-01  0.22996326303E-01  0.12243566289E+00  0.51100000000E-03 0.  1.
</event>
<event>
 8    1  0.1082757E+005  0.1043930E+01  0.7957747E-01            NaN
         13   -1    0    0    0    0  0.00000000000E+00  0.00000000000E+00  0.74505805969E-08  0.10566000000E+00  0.10566000000E+00 0. -1.
     999900   -1    0    0    0    0 -0.00000000000E+00 -0.00000000000E+00 -0.74505805969E-08  0.93827000000E+00  0.93827000000E+00 0. -1.
     999902    2    1    2    0    0  0.14277949483E-01  0.14376908150E-01  0.11144761104E-01  0.10208050994E+01  0.10205431347E+01 0.  0.
     999903    2    3    3    0    0  0.55598446361E-01  0.25479772686E-01 -0.11478395376E+00  0.13081144866E+00  0.13995463766E-01 0.  0.
         14    1    1    2    0    0 -0.14277949483E-01 -0.14376908150E-01 -0.11144761104E-01  0.23124900637E-01  0.00000000000E+00 0.  1.
     999901    1    3    3    0    0 -0.41320496879E-01 -0.11102864537E-01  0.12592871486E+00  0.88999365070E+00  0.88000000000E+00 0.  1.
        -11    1    4    4    0    0  0.11057094079E-01  0.65187101278E-02 -0.13983796566E-01  0.18988433285E-01  0.51100000000E-03 0. -1.
         11    1    4    4    0    0  0.44541352282E-01  0.18961062559E-01 -0.10080015719E+00  0.11182301538E+00  0.51100000000E-03 0.  1.
</event>
<event>
 8    1  0.1082757E+005  0.1043930E+01  0.7957747E-01            NaN
         13   -1    0    0    0    0  0.00000000000E+00  0.00000000000E+00  0.74505805969E-08  0.10566000000E+00  0.10566000000E+00 0.  1.
     999900   -1    0    0    0    0 -0.00000000000E+00 -0.00000000000E+00 -0.74505805969E-08  0.93827000000E+00  0.93827000000E+00 0. -1.
     999902    2    1    2    0    0  0.23618772633E-02 -0.13110710497E-01 -0.19742028567E-01  0.10201136845E+01  0.10198356301E+01 0.  0.
     999903    2    3    3    0    0  0.12561228496E+00  0.18254591692E-01 -0.25510335192E-01  0.13095244006E+00  0.19649124793E-01 0.  0.
         14    1    1    2    0    0 -0.23618772633E-02  0.13110710497E-01  0.19742028567E-01  0.23816315540E-01  0.00000000000E+00 0.  1.
     999901    1    3    3    0    0 -0.12325040770E+00 -0.31365302190E-01  0.57683066241E-02  0.88916124440E+00  0.88000000000E+00 0. -1.
        -11    1    4    4    0    0  0.72110283432E-01  0.41533036527E-02 -0.22009150965E-01  0.75510308932E-01  0.51100000000E-03 0.  1.
         11    1    4    4    0    0  0.53502001530E-01  0.14101288040E-01 -0.35011842267E-02  0.55442131129E-01  0.51100000000E-03 0. -1.
</event>
<event>
 8    1  0.1082757E+005  0.1043930E+01  0.7957747E-01            NaN
         13   -1    0    0    0    0  0.00000000000E+00  0.00000000000E+00  0.74505805969E-08  0.10566000000E+00  0.10566000000E+00 0.  1.
     999900   -1    0    0    0    0 -0.00000000000E+00 -0.00000000000E+00 -0.74505805969E-08  0.93827000000E+00  0.93827000000E+00 0.  1.
     999902    2    1    2    0    0  0.75384182605E-02  0.21847258195E-01  0.46504949358E-02  0.10203554895E+01  0.10200831179E+01 0.  0.
     999903    2    3    3    0    0  0.14768009594E-01 -0.73230532319E-01  0.10396213053E+00  0.12965079425E+00  0.20503631252E-01 0.  0.
         14    1    1    2    0    0 -0.75384182605E-02 -0.21847258195E-01 -0.46504949358E-02  0.23574510465E-01  0.00000000000E+00 0.  1.
     999901    1    3    3    0    0 -0.72295913339E-02  0.95077790514E-01 -0.99311635592E-01  0.89070469529E+00  0.88000000000E+00 0.  1.
        -11    1    4    4    0    0  0.14447583368E-01 -0.48256263767E-01  0.82754827757E-01  0.96881485826E-01  0.51100000000E-03 0.  1.
         11    1    4    4    0    0  0.32042622653E-03 -0.24974268552E-01  0.21207302771E-01  0.32769308423E-01  0.51100000000E-03 0. -1.
</event>
<event>
 8    1  0.1082757E+005  0.1043930E+01  0.7957747E-01            NaN
         13   -1    0    0    0    0  0.00000000000E+00  0.00000000000E+00  0.74505805969E-08  0.10566000000E+00  0.10566000000E+00 0. -1.
     999900   -1    0    0    0    0 -0.00000000000E+00 -0.00000000000E+00 -0.74505805969E-08  0.93827000000E+00  0.93827000000E+00 0. -1.
     999902    2    1    2    0    0  0.14731671595E-01  0.14317216560E-01 -0.73679579047E-02  0.10221058931E+01  0.10218728713E+01 0.  0.
     999903    2    3    3    0    0  0.11992969802E+00  0.21470311710E-01  0.51324635588E-01  0.13387021939E+00  0.21045442972E-01 0.  0.
         14    1    1    2    0    0 -0.14731671595E-01 -0.14317216560E-01  0.73679579047E-02  0.21824106894E-01  0.00000000000E+00 0.  1.
     999901    1    3    3    0    0 -0.10519802642E+00 -0.71530951493E-02 -0.58692593493E-01  0.88823567372E+00  0.88000000000E+00 0.  1.
        -11    1    4    4    0    0  0.31193616637E-01 -0.33137206929E-02  0.15775885770E-01  0.35116408651E-01  0.51100000000E-03 0.  1.
         11    1    4    4    0    0  0.88736081379E-01  0.24784032403E-01  0.35548749819E-01  0.98753810738E-01  0.51100000000E-03 0. -1.
</event>
<event>
 8    1  0.1082757E+005  0.1043930E+01  0.7957747E-01            NaN
         13   -1    0    0    0    0  0.00000000000E+00  0.00000000000E+00  0.74505805969E-08  0.10566000000E+00  0.10566000000E+00 0. -1.
     999900   -1    0    0    0    0 -0.00000000000E+00 -0.00000000000E+00 -0.74505805969E-08  0.93827000000E+00  0.93827000000E+00 0.  1.
     999902    2    1    2    0    0  0.62617811581E-02 -0.10250179081E-01 -0.20860290360E-01  0.10198586937E+01  0.10195745815E+01 0.  0.
     999903    2    3    3    0    0  0.82103384896E-02 -0.32804817506E-03  0.12592581037E+00  0.12764324608E+00  0.19182577499E-01 0.  0.
         14    1    1    2    0    0 -0.62617811581E-02  0.10250179081E-01  0.20860290360E-01  0.24071306329E-01  0.00000000000E+00 0. -1.
     999901    1    3    3    0    0 -0.19485573315E-02 -0.99221309063E-02 -0.14678610073E+00  0.89221544759E+00  0.88000000000E+00 0.  1.
        -11    1    4    4    0    0  0.26854797615E-02  0.82589326792E-02  0.85628062196E-01  0.86068855732E-01  0.51100000000E-03 0. -1.
         11    1    4    4    0    0  0.55248587281E-02 -0.85869808542E-02  0.40297748169E-01  0.41574390346E-01  0.51100000000E-03 0.  1.
</event>
<event>
 8    1  0.1082757E+005  0.1043930E+01  0.7957747E-01            NaN
         13   -1    0    0    0    0  0.00000000000E+00  0.00000000000E+00  0.74505805969E-08  0.10566000000E+00  0.10566000000E+00 0. -1.
     999900   -1    0    0    0    0 -0.00000000000E+00 -0.00000000000E+00 -0.74505805969E-08  0.93827000000E+00  0.93827000000E+00 0. -1.
     999902    2    1    2    0    0  0.11275639205E-01  0.20361917441E-01 -0.88595830474E-02  0.10190253833E+01  0.10187210079E+01 0.  0.
     999903    2    3    3    0    0 -0.65942898841E-01 -0.55448827896E-01 -0.92925377570E-01  0.12842051607E+00  0.20824618304E-01 0.  0.
         14    1    1    2    0    0 -0.11275639205E-01 -0.20361917441E-01  0.88595830474E-02  0.24904616703E-01  0.00000000000E+00 0. -1.
     999901    1    3    3    0    0  0.77218538046E-01  0.75810745337E-01  0.84065794523E-01  0.89060486723E+00  0.88000000000E+00 0.  1.
        -11    1    4    4    0    0 -0.52941711820E-01 -0.36167155821E-01 -0.58006156135E-01  0.86463074669E-01  0.51100000000E-03 0. -1.
         11    1    4    4    0    0 -0.13001187021E-01 -0.19281672076E-01 -0.34919221435E-01  0.41957441397E-01  0.51100000000E-03 0.  1.
</event>
<event>
 8    1  0.1082757E+005  0.1043930E+01  0.7957747E-01            NaN
         13   -1    0    0    0    0  0.00000000000E+00  0.00000000000E+00  0.74505805969E-08  0.10566000000E+00  0.10566000000E+00 0.  1.
     999900   -1    0    0    0    0 -0.00000000000E+00 -0.00000000000E+00 -0.74505805969E-08  0.93827000000E+00  0.93827000000E+00 0.  1.
     999902    2    1    2    0    0 -0.22964504351E-01 -0.31057922782E-02  0.46088325627E-02  0.10203025638E+01  0.10200289534E+01 0.  0.
     999903    2    3    3    0    0  0.28677750221E-02 -0.64677319313E-01 -0.11134757450E+00  0.13018782512E+00  0.18952775402E-01 0.  0.
         14    1    1    2    0    0  0.22964504351E-01  0.31057922782E-02 -0.46088325627E-02  0.23627436241E-01  0.00000000000E+00 0.  1.
     999901    1    3    3    0    0 -0.25832279373E-01  0.61571527035E-01  0.11595640706E+00  0.89011473864E+00  0.88000000000E+00 0. -1.
        -11    1    4    4    0    0 -0.34793614584E-02 -0.22918308259E-01 -0.55623059968E-01  0.60262266227E-01  0.51100000000E-03 0. -1.
         11    1    4    4    0    0  0.63471364805E-02 -0.41759011055E-01 -0.55724514534E-01  0.69925558895E-01  0.51100000000E-03 0.  1.
</event>
<event>
 8    1  0.1082757E+005  0.1043930E+01  0.7957747E-01            NaN
         13   -1    0    0    0    0  0.00000000000E+00  0.00000000000E+00  0.74505805969E-08  0.10566000000E+00  0.10566000000E+00 0. -1.
     999900   -1    0    0    0    0 -0.00000000000E+00 -0.00000000000E+00 -0.74505805969E-08  0.93827000000E+00  0.93827000000E+00 0.  1.
     999902    2    1    2    0    0 -0.13848884021E-01 -0.60708244612E-02 -0.18888069812E-01  0.10197348418E+01  0.10194477632E+01 0.  0.
     999903    2    3    3    0    0 -0.13118096208E-01  0.10660607699E+00 -0.73660463594E-01  0.13086104127E+00  0.12720382361E-01 0.  0.
         14    1    1    2    0    0  0.13848884021E-01  0.60708244612E-02  0.18888069812E-01  0.24195158183E-01  0.00000000000E+00 0. -1.
     999901    1    3    3    0    0 -0.73078781282E-03 -0.11267690145E+00  0.54772393782E-01  0.88887380054E+00  0.88000000000E+00 0. -1.
        -11    1    4    4    0    0 -0.72045986253E-02  0.32988401975E-01 -0.17214365157E-01  0.37904305757E-01  0.51100000000E-03 0.  1.
         11    1    4    4    0    0 -0.59134975830E-02  0.73617675014E-01 -0.56446098438E-01  0.92956735517E-01  0.51100000000E-03 0. -1.
</event>
<event>
 8    1  0.1082757E+005  0.1043930E+01  0.7957747E-01            NaN
         13   -1    0    0    0    0  0.00000000000E+00  0.00000000000E+00  0.74505805969E-08  0.10566000000E+00  0.10566000000E+00 0.  1.
     999900   -1    0    0    0    0 -0.00000000000E+00 -0.00000000000E+00 -0.74505805969E-08  0.93827000000E+00  0.93827000000E+00 0. -1.
     999902    2    1    2    0    0  0.68595362082E-02 -0.16888818412E-01  0.58966612341E-02  0.10247712934E+01  0.10245921861E+01 0.  0.
     999903    2    3    3    0    0  0.10375487575E+00  0.81895384164E-01 -0.64680112050E-02  0.13387292063E+00  0.20203849122E-01 0.  0.
         14    1    1    2    0    0 -0.68595362082E-02  0.16888818412E-01 -0.58966612341E-02  0.19158706586E-01  0.00000000000E+00 0. -1.
     999901    1    3    3    0    0 -0.96895339544E-01 -0.98784202576E-01  0.12364672439E-01  0.89089837278E+00  0.88000000000E+00 0. -1.
        -11    1    4    4    0    0  0.69190647958E-01  0.51652634696E-01  0.51400747854E-02  0.86498681641E-01  0.51100000000E-03 0.  1.
         11    1    4    4    0    0  0.34564227794E-01  0.30242749469E-01 -0.11608085990E-01  0.47374238989E-01  0.51100000000E-03 0. -1.
</event>
<event>
 8    1  0.1082757E+005  0.1043930E+01  0.7957747E-01            NaN
         13   -1    0    0    0    0  0.00000000000E+00  0.00000000000E+00  0.74505805969E-08  0.10566000000E+00  0.10566000000E+00 0.  1.
     999900   -1    0    0    0    0 -0.00000000000E+00 -0.00000000000E+00 -0.74505805969E-08  0.93827000000E+00  0.93827000000E+00 0. -1.
     999902    2    1    2    0    0 -0.18555096726E-01 -0.23597465315E-03 -0.14661403087E-01  0.10202803903E+01  0.10200062602E+01 0.  0.
     999903    2    3    3    0    0  0.96201507621E-01 -0.68775189457E-01  0.45654951656E-01  0.12814544263E+00  0.18764943433E-01 0.  0.
         14    1    1    2    0    0  0.18555096726E-01  0.23597465315E-03  0.14661403087E-01  0.23649609701E-01  0.00000000000E+00 0. -1.
     999901    1    3    3    0    0 -0.11475660435E+00  0.68539214804E-01 -0.60316354744E-01  0.89213494767E+00  0.88000000000E+00 0. -1.
        -11    1    4    4    0    0  0.65142803411E-01 -0.36792817629E-01  0.33212150185E-01  0.81857219024E-01  0.51100000000E-03 0.  1.
         11    1    4    4    0    0  0.31058704209E-01 -0.31982371828E-01  0.12442801471E-01  0.46288223603E-01  0.51100000000E-03 0. -1.
</event>
<event>
 8    1  0.1082757E+005  0.1043930E+01  0.7957747E-01            NaN
         13   -1    0    0    0    0  0.00000000000E+00  0.00000000000E+00  0.74505805969E-08  0.10566000000E+00  0.10566000000E+00 0.  1.
     999900   -1    0    0    0    0 -0.00000000000E+00 -0.00000000000E+00 -0.74505805969E-08  0.93827000000E+00  0.93827000000E+00 0.  1.
     999902    2    1    2    0    0  0.24971450985E-01 -0.10105120075E-02  0.11164164999E-01  0.10165578777E+01  0.10161892962E+01 0.  0.
     999903    2    3    3    0    0 -0.92815359203E-01  0.44820008001E-01  0.68756133057E-01  0.12566450361E+00  0.20991369984E-01 0.  0.
         14    1    1    2    0    0 -0.24971450985E-01  0.10105120075E-02 -0.11164164999E-01  0.27372122295E-01  0.00000000000E+00 0. -1.
     999901    1    3    3    0    0  0.11778681019E+00 -0.45830520008E-01 -0.57591968058E-01  0.89089337409E+00  0.88000000000E+00 0.  1.
        -11    1    4    4    0    0 -0.26862081766E-01  0.19114213321E-01  0.31808911519E-01  0.45814763567E-01  0.51100000000E-03 0. -1.
         11    1    4    4    0    0 -0.65953277437E-01  0.25705794680E-01  0.36947221538E-01  0.79849740044E-01  0.51100000000E-03 0.  1.
</event>
<event>
 8    1  0.1082757E+005  0.1043930E+01  0.7957747E-01            NaN
         13   -1    0    0    0    0  0.00000000000E+00  0.00000000000E+00  0.74505805969E-08  0.10566000000E+00  0.10566000000E+00 0. -1.
     999900   -1    0    0    0    0 -0.00000000000E+00 -0.00000000000E+00 -0.74505805969E-08  0.93827000000E+00  0.93827000000E+00 0.  1.
     999902    2    1    2    0    0  0.17574642414E-01  0.97567128691E-02  0.16028016887E-01  0.10182208805E+01  0.10178962632E+01 0.  0.
     999903    2    3    3    0    0 -0.68016967447E-01  0.57142081381E-01 -0.88083101955E-01  0.12669947192E+00  0.20064845111E-01 0.  0.
         14    1    1    2    0    0 -0.17574642414E-01 -0.97567128691E-02 -0.16028016887E-01  0.25709119536E-01  0.00000000000E+00 0.  1.
     999901    1    3    3    0    0  0.85591609861E-01 -0.47385368512E-01  0.10411111884E+00  0.89152140854E+00  0.88000000000E+00 0. -1.
        -11    1    4    4    0    0 -0.23212268152E-01  0.80629874181E-02 -0.22185967664E-01  0.33110412880E-01  0.51100000000E-03 0.  1.
         11    1    4    4    0    0 -0.44804699294E-01  0.49079093963E-01 -0.65897134291E-01  0.93589059039E-01  0.51100000000E-03 0. -1.
</event>
<event>
 8    1  0.1082757E+005  0.1043930E+01  0.7957747E-01            NaN
         13   -1    0    0    0    0  0.00000000000E+00  0.00000000000E+00  0.74505805969E-08  0.10566000000E+00  0.10566000000E+00 0.  1.
     999900   -1    0    0    0    0 -0.00000000000E+00 -0.00000000000E+00 -0.74505805969E-08  0.93827000000E+00  0.93827000000E+00 0. -1.
     999902    2    1    2    0    0  0.20521035771E-01 -0.77192206508E-02 -0.23150268484E-01  0.10120452982E+01  0.10115429064E+01 0.  0.
     999903    2    3    3    0    0 -0.80758748265E-01  0.55626495151E-01 -0.70171397529E-01  0.12273024666E+00  0.22856203297E-01 0.  0.
         14    1    1    2    0    0 -0.20521035771E-01  0.77192206508E-02  0.23150268484E-01  0.31884701778E-01  0.00000000000E+00 0.  1.
     999901    1    3    3    0    0  0.10127978404E+00 -0.63345715801E-01  0.47021129045E-01  0.88931505157E+00  0.88000000000E+00 0.  1.
        -11    1    4    4    0    0 -0.43551330162E-01  0.30900443126E-01 -0.51880665034E-01  0.74454148774E-01  0.51100000000E-03 0.  1.
         11    1    4    4    0    0 -0.37207418102E-01  0.24726052025E-01 -0.18290732496E-01  0.48276097883E-01  0.51100000000E-03 0. -1.
</event>
<event>
 8    1  0.1082757E+005  0.1043930E+01  0.7957747E-01            NaN
         13   -1    0    0    0    0  0.00000000000E+00  0.00000000000E+00  0.74505805969E-08  0.10566000000E+00  0.10566000000E+00 0. -1.
     999900   -1    0    0    0    0 -0.00000000000E+00 -0.00000000000E+00 -0.74505805969E-08  0.93827000000E+00  0.93827000000E+00 0. -1.
     999902    2    1    2    0    0 -0.11615807287E-01 -0.63701317417E-02 -0.18462180807E-01  0.10212064950E+01  0.10209536463E+01 0.  0.
     999903    2    3    3    0    0 -0.99741001050E-01 -0.55501830960E-01  0.62619200468E-01  0.13173802228E+00  0.20125151373E-01 0.  0.
         14    1    1    2    0    0  0.11615807287E-01  0.63701317417E-02  0.18462180807E-01  0.22723504956E-01  0.00000000000E+00 0. -1.
     999901    1    3    3    0    0  0.88125193764E-01  0.49131699219E-01 -0.81081381275E-01  0.88946847276E+00  0.88000000000E+00 0. -1.
        -11    1    4    4    0    0 -0.80918185769E-01 -0.51214271709E-01  0.45909861184E-01  0.10620089872E+00  0.51100000000E-03 0.  1.
         11    1    4    4    0    0 -0.18822815281E-01 -0.42875592512E-02  0.16709339285E-01  0.25537123561E-01  0.51100000000E-03 0. -1.
</event>
<event>
 8    1  0.1082757E+005  0.1043930E+01  0.7957747E-01            NaN
         13   -1    0    0    0    0  0.00000000000E+00  0.00000000000E+00  0.74505805969E-08  0.10566000000E+00  0.10566000000E+00 0.  1.
     999900   -1    0    0    0    0 -0.00000000000E+00 -0.00000000000E+00 -0.74505805969E-08  0.93827000000E+00  0.93827000000E+00 0.  1.
     999902    2    1    2    0    0  0.15231207148E-01 -0.17966595748E-01 -0.30890538140E-02  0.10201743588E+01  0.10198977360E+01 0.  0.
     999903    2    3    3    0    0  0.53749149846E-01  0.85711596605E-01  0.78391585940E-01  0.12951623467E+00  0.19843522745E-01 0.  0.
         14    1    1    2    0    0 -0.15231207148E-01  0.17966595748E-01  0.30890538140E-02  0.23755641170E-01  0.00000000000E+00 0.  1.
     999901    1    3    3    0    0 -0.38517942697E-01 -0.10367819235E+00 -0.81480639754E-01  0.89065812416E+00  0.88000000000E+00 0.  1.
        -11    1    4    4    0    0  0.18676814743E-01  0.33657641224E-01  0.41948154374E-01  0.56934778458E-01  0.51100000000E-03 0. -1.
         11    1    4    4    0    0  0.35072335103E-01  0.52053955381E-01  0.36443431565E-01  0.72581456210E-01  0.51100000000E-03 0.  1.
</event>
<event>
 8    1  0.1082757E+005  0.1043930E+01  0.7957747E-01            NaN
         13   -1    0    0    0    0  0.00000000000E+00  0.00000000000E+00  0.74505805969E-08  0.10566000000E+00  0.10566000000E+00 0. -1.
     999900   -1    0    0    0    0 -0.00000000000E+00 -0.00000000000E+00 -0.74505805969E-08  0.93827000000E+00  0.93827000000E+00 0.  1.
     999902    2    1    2    0    0  0.13367414204E-01 -0.18131122806E-01 -0.36151880099E-02  0.10211156413E+01  0.10208607437E+01 0.  0.
     999903    2    3    3    0    0 -0.62159952123E-02  0.95883061386E-01 -0.85122469237E-01  0.12980975613E+00  0.19301242441E-01 0.  0.
         14    1    1    2    0    0 -0.13367414204E-01  0.18131122806E-01  0.36151880099E-02  0.22814358660E-01  0.00000000000E+00 0. -1.
     999901    1    3    3    0    0  0.19583409417E-01 -0.11401418419E+00  0.81507281227E-01  0.89130588521E+00  0.88000000000E+00 0. -1.
        -11    1    4    4    0    0  0.61714264054E-03  0.54038249871E-01 -0.36093336604E-01  0.64988486537E-01  0.51100000000E-03 0. -1.
         11    1    4    4    0    0 -0.68331378529E-02  0.41844811515E-01 -0.49029132632E-01  0.64821269590E-01  0.51100000000E-03 0.  1.
</event>
<event>
 8    1  0.1224260E+005  0.1043930E+01  0.7957747E-01            NaN
         13   -1    0    0    0    0  0.00000000000E+00  0.00000000000E+00  0.74505805969E-08  0.10566000000E+00  0.10566000000E+00 0.  1.
     999900   -1    0    0    0    0 -0.00000000000E+00 -0.00000000000E+00 -0.74505805969E-08  0.93827000000E+00  0.93827000000E+00 0. -1.
     999902    2    1    2    0    0 -0.20351488700E-01  0.94940507354E-03  0.12939463315E-01  0.10197946696E+01  0.10195090259E+01 0.  0.
     999903    2    3    3    0    0 -0.37748701598E-01 -0.11053174259E+00 -0.53712513923E-01  0.13009067649E+00  0.19907771458E-01 0.  0.
         14    1    1    2    0    0  0.20351488700E-01 -0.94940507354E-03 -0.12939463315E-01  0.24135330393E-01  0.00000000000E+00 0. -1.
     999901    1    3    3    0    0  0.17397212899E-01  0.11148114767E+00  0.66651977238E-01  0.88970399312E+00  0.88000000000E+00 0.  1.
        -11    1    4    4    0    0 -0.32653106887E-02 -0.37248767163E-01 -0.14536341556E-01  0.40121057512E-01  0.51100000000E-03 0.  1.
         11    1    4    4    0    0 -0.34483390909E-01 -0.73282975429E-01 -0.39176172367E-01  0.89969618976E-01  0.51100000000E-03 0. -1.
</event>
<event>
 8    1  0.1082757E+005  0.1043930E+01  0.7957747E-01            NaN
         13   -1    0    0    0    0  0.00000000000E+00  0.00000000000E+00  0.74505805969E-08  0.10566000000E+00  0.10566000000E+00 0.  1.
     999900   -1    0    0    0    0 -0.00000000000E+00 -0.00000000000E+00 -0.74505805969E-08  0.93827000000E+00  0.93827000000E+00 0.  1.
     999902    2    1    2    0    0 -0.19759563523E-01  0.58149422115E-02 -0.15029927879E-01  0.10184319092E+01  0.10181126662E+01 0.  0.
     999903    2    3    3    0    0 -0.90067392519E-01  0.23744715328E-01  0.87896051858E-01  0.12946710398E+00  0.18975467805E-01 0.  0.
         14    1    1    2    0    0  0.19759563523E-01 -0.58149422115E-02  0.15029927879E-01  0.25498090822E-01  0.00000000000E+00 0.  1.
     999901    1    3    3    0    0  0.70307828996E-01 -0.17929773117E-01 -0.10292597974E+00  0.88896480520E+00  0.88000000000E+00 0.  1.
        -11    1    4    4    0    0 -0.36890285949E-01  0.65827767214E-02  0.23630186565E-01  0.44304322417E-01  0.51100000000E-03 0. -1.
         11    1    4    4    0    0 -0.53177106571E-01  0.17161938607E-01  0.64265865293E-01  0.85162781559E-01  0.51100000000E-03 0.  1.
</event>
<event>
 8    1  0.1082757E+005  0.1043930E+01  0.7957747E-01            NaN
         13   -1    0    0    0    0  0.00000000000E+00  0.00000000000E+00  0.74505805969E-08  0.10566000000E+00  0.10566000000E+00 0.  1.
     999900   -1    0    0    0    0 -0.00000000000E+00 -0.00000000000E+00 -0.74505805969E-08  0.93827000000E+00  0.93827000000E+00 0.  1.
     999902    2    1    2    0    0 -0.21497181895E-02 -0.19167475375E-01  0.12520873320E-01  0.10209346598E+01  0.10206756556E+01 0.  0.
     999903    2    3    3    0    0  0.19255357395E-01 -0.11601072899E+00 -0.57890711127E-01  0.13256841540E+00  0.19844200624E-01 0.  0.
         14    1    1    2    0    0  0.21497181895E-02  0.19167475375E-01 -0.12520873320E-01  0.22995340164E-01  0.00000000000E+00 0.  1.
     999901    1    3    3    0    0 -0.21405075585E-01  0.96843253611E-01  0.70411584447E-01  0.88836624444E+00  0.88000000000E+00 0. -1.
        -11    1    4    4    0    0  0.18538848727E-01 -0.10036018084E+00 -0.42356411105E-01  0.11049969002E+00  0.51100000000E-03 0.  1.
         11    1    4    4    0    0  0.71650866800E-03 -0.15650548141E-01 -0.15534300022E-01  0.22068725381E-01  0.51100000000E-03 0. -1.
</event>
<event>
 8    1  0.1082757E+005  0.1043930E+01  0.7957747E-01            NaN
         13   -1    0    0    0    0  0.00000000000E+00  0.00000000000E+00  0.74505805969E-08  0.10566000000E+00  0.10566000000E+00 0. -1.
     999900   -1    0    0    0    0 -0.00000000000E+00 -0.00000000000E+00 -0.74505805969E-08  0.93827000000E+00  0.93827000000E+00 0.  1.
     999902    2    1    2    0    0  0.27235954175E-02  0.20137246593E-01 -0.14645109627E-01  0.10188819281E+01  0.10185739921E+01 0.  0.
     999903    2    3    3    0    0  0.10332508577E+00 -0.58962391499E-03 -0.77779627148E-01  0.13066110510E+00  0.18607336724E-01 0.  0.
         14    1    1    2    0    0 -0.27235954175E-02 -0.20137246593E-01  0.14645109627E-01  0.25048071948E-01  0.00000000000E+00 0.  1.
     999901    1    3    3    0    0 -0.10060149036E+00  0.20726870508E-01  0.63134517522E-01  0.88822082295E+00  0.88000000000E+00 0.  1.
        -11    1    4    4    0    0  0.45156247368E-01  0.11030113167E-02 -0.45486128855E-01  0.64105790297E-01  0.51100000000E-03 0. -1.
         11    1    4    4    0    0  0.58168838406E-01 -0.16926352317E-02 -0.32293498293E-01  0.66555314803E-01  0.51100000000E-03 0.  1.
</event>
<event>
 8    1  0.1082757E+005  0.1043930E+01  0.7957747E-01            NaN
         13   -1    0    0    0    0  0.00000000000E+00  0.00000000000E+00  0.74505805969E-08  0.10566000000E+00  0.10566000000E+00 0. -1.
     999900   -1    0    0    0    0 -0.00000000000E+00 -0.00000000000E+00 -0.74505805969E-08  0.93827000000E+00  0.93827000000E+00 0. -1.
     999902    2    1    2    0    0 -0.31387837261E-02  0.22945125789E-01 -0.52309381676E-02  0.10201877702E+01  0.10199114633E+01 0.  0.
     999903    2    3    3    0    0  0.70829464742E-01 -0.46259043074E-03 -0.10842160979E+00  0.13076799437E+00  0.18110654778E-01 0.  0.
         14    1    1    2    0    0  0.31387837261E-02 -0.22945125789E-01  0.52309381676E-02  0.23742229779E-01  0.00000000000E+00 0.  1.
     999901    1    3    3    0    0 -0.73968248468E-01  0.23407716220E-01  0.10319067163E+00  0.88941977585E+00  0.88000000000E+00 0.  1.
        -11    1    4    4    0    0  0.13942749292E-01  0.71919922219E-02 -0.24235411663E-01  0.28874578948E-01  0.51100000000E-03 0.  1.
         11    1    4    4    0    0  0.56886715449E-01 -0.76545826526E-02 -0.84186198130E-01  0.10189341542E+00  0.51100000000E-03 0. -1.
</event>
<event>
 8    1  0.1082757E+005  0.1043930E+01  0.7957747E-01            NaN
         13   -1    0    0    0    0  0.00000000000E+00  0.00000000000E+00  0.74505805969E-08  0.10566000000E+00  0.10566000000E+00 0.  1.
     999900   -1    0    0    0    0 -0.00000000000E+00 -0.00000000000E+00 -0.74505805969E-08  0.93827000000E+00  0.93827000000E+00 0.  1.
     999902    2    1    2    0    0 -0.66916639501E-02 -0.22920148645E-01 -0.41267532666E-02  0.10196989936E+01  0.10194110534E+01 0.  0.
     999903    2    3    3    0    0 -0.15064984134E-01  0.16722132660E-01 -0.12733001214E+00  0.13019313863E+00  0.15190058823E-01 0.  0.
         14    1    1    2    0    0  0.66916639501E-02  0.22920148645E-01  0.41267532666E-02  0.24231006435E-01  0.00000000000E+00 0. -1.
     999901    1    3    3    0    0  0.83733201839E-02 -0.39642281305E-01  0.12320325888E+00  0.88950585493E+00  0.88000000000E+00 0. -1.
        -11    1    4    4    0    0 -0.15487353334E-01  0.63957542062E-02 -0.82211268136E-01  0.83903024467E-01  0.51100000000E-03 0. -1.
         11    1    4    4    0    0  0.42236920037E-03  0.10326378454E-01 -0.45118744009E-01  0.46290114167E-01  0.51100000000E-03 0.  1.
</event>
<event>
 8    1  0.1082757E+005  0.1043930E+01  0.7957747E-01            NaN
         13   -1    0    0    0    0  0.00000000000E+00  0.00000000000E+00  0.74505805969E-08  0.10566000000E+00  0.10566000000E+00 0. -1.
     999900   -1    0    0    0    0 -0.00000000000E+00 -0.00000000000E+00 -0.74505805969E-08  0.93827000000E+00  0.93827000000E+00 0. -1.
     999902    2    1    2    0    0 -0.77413166581E-02 -0.22564492562E-01 -0.50533251452E-04  0.10200744585E+01  0.10197954765E+01 0.  0.
     999903    2    3    3    0    0 -0.81389954148E-01  0.92285424838E-01 -0.33249902322E-01  0.12894213191E+00  0.19483149208E-01 0.  0.
         14    1    1    2    0    0  0.77413166581E-02  0.22564492562E-01  0.50533251452E-04  0.23855541532E-01  0.00000000000E+00 0.  1.
     999901    1    3    3    0    0  0.73648637490E-01 -0.11484991740E+00  0.33199369070E-01  0.89113232656E+00  0.88000000000E+00 0. -1.
        -11    1    4    4    0    0 -0.51871399987E-01  0.49161395217E-01 -0.26603932046E-01  0.76259525553E-01  0.51100000000E-03 0.  1.
         11    1    4    4    0    0 -0.29518554161E-01  0.43124029622E-01 -0.66459702759E-02  0.52682606356E-01  0.51100000000E-03 0. -1.
</event>
<event>
 8    1  0.1082757E+005  0.1043930E+01  0.7957747E-01            NaN
         13   -1    0    0    0    0  0.00000000000E+00  0.00000000000E+00  0.74505805969E-08  0.10566000000E+00  0.10566000000E+00 0.  1.
     999900   -1    0    0    0    0 -0.00000000000E+00 -0.00000000000E+00 -0.74505805969E-08  0.93827000000E+00  0.93827000000E+00 0.  1.
     999902    2    1    2    0    0 -0.19849923646E-01  0.11048836253E-01 -0.18525272555E-02  0.10211368408E+01  0.10208824219E+01 0.  0.
     999903    2    3    3    0    0  0.37743717140E-02  0.12527998667E+00 -0.38876038872E-01  0.13266759341E+00  0.19494178638E-01 0.  0.
         14    1    1    2    0    0  0.19849923646E-01 -0.11048836253E-01  0.18525272555E-02  0.22793159249E-01  0.00000000000E+00 0.  1.
     999901    1    3    3    0    0 -0.23624295360E-01 -0.11423115042E+00  0.37023511617E-01  0.88846924734E+00  0.88000000000E+00 0. -1.
        -11    1    4    4    0    0  0.10221178710E-01  0.84678872178E-01 -0.31335309211E-01  0.90868842910E-01  0.51100000000E-03 0.  1.
         11    1    4    4    0    0 -0.64468069959E-02  0.40601114494E-01 -0.75407296612E-02  0.41798750501E-01  0.51100000000E-03 0. -1.
</event>
<event>
 8    1  0.1082757E+005  0.1043930E+01  0.7957747E-01            NaN
         13   -1    0    0    0    0  0.00000000000E+00  0.00000000000E+00  0.74505805969E-08  0.10566000000E+00  0.10566000000E+00 0. -1.
     999900   -1    0    0    0    0 -0.00000000000E+00 -0.00000000000E+00 -0.74505805969E-08  0.93827000000E+00  0.93827000000E+00 0.  1.
     999902    2    1    2    0    0 -0.20777763399E-01 -0.12290516809E-01 -0.39056486822E-03  0.10197861644E+01  0.10195003170E+01 0.  0.
     999903    2    3    3    0    0 -0.58812794418E-01 -0.10763665852E+00 -0.46250172550E-01  0.13263304690E+00  0.20195336713E-01 0.  0.
         14    1    1    2    0    0  0.20777763399E-01  0.12290516809E-01  0.39056486822E-03  0.24143835574E-01  0.00000000000E+00 0.  1.
     999901    1    3    3    0    0  0.38035031019E-01  0.95346141707E-01  0.45859607682E-01  0.88715311753E+00  0.88000000000E+00 0. -1.
        -11    1    4    4    0    0 -0.31956518395E-01 -0.68124768736E-01 -0.18922493413E-01  0.77592042512E-01  0.51100000000E-03 0.  1.
         11    1    4    4    0    0 -0.26856276023E-01 -0.39511889780E-01 -0.27327679138E-01  0.55041004386E-01  0.51100000000E-03 0. -1.
</event>
<event>
 8    1  0.1082757E+005  0.1043930E+01  0.7957747E-01            NaN
         13   -1    0    0    0    0  0.00000000000E+00  0.00000000000E+00  0.74505805969E-08  0.10566000000E+00  0.10566000000E+00 0. -1.
     999900   -1    0    0    0    0 -0.00000000000E+00 -0.00000000000E+00 -0.74505805969E-08  0.93827000000E+00  0.93827000000E+00 0.  1.
     999902    2    1    2    0    0  0.11220649310E-01 -0.17210982575E-01 -0.10099348405E-01  0.10210363823E+01  0.10207796904E+01 0.  0.
     999903    2    3    3    0    0 -0.65264443280E-01  0.10818058369E+00 -0.17254542918E-01  0.12883449313E+00  0.18388070121E-01 0.  0.
         14    1    1    2    0    0 -0.11220649310E-01  0.17210982575E-01  0.10099348405E-01  0.22893617677E-01  0.00000000000E+00 0. -1.
     999901    1    3    3    0    0  0.76485092590E-01 -0.12539156627E+00  0.71551945133E-02  0.89220188920E+00  0.88000000000E+00 0. -1.
        -11    1    4    4    0    0 -0.49261332399E-01  0.82199429813E-01 -0.50450683693E-02  0.95964258801E-01  0.51100000000E-03 0. -1.
         11    1    4    4    0    0 -0.16003110882E-01  0.25981153880E-01 -0.12209474549E-01  0.32870234325E-01  0.51100000000E-03 0.  1.
</event>
<event>
 8    1  0.1082757E+005  0.1043930E+01  0.7957747E-01            NaN
         13   -1    0    0    0    0  0.00000000000E+00  0.00000000000E+00  0.74505805969E-08  0.10566000000E+00  0.10566000000E+00 0.  1.
     999900   -1    0    0    0    0 -0.00000000000E+00 -0.00000000000E+00 -0.74505805969E-08  0.93827000000E+00  0.93827000000E+00 0.  1.
     999902    2    1    2    0    0  0.10974607171E-01  0.18486488407E-01 -0.10601811796E-01  0.10199593790E+01  0.10196776668E+01 0.  0.
     999903    2    3    3    0    0 -0.15835980961E-01  0.12810328198E+00  0.20111103407E-01  0.13222184337E+00  0.20418869608E-01 0.  0.
         14    1    1    2    0    0 -0.10974607171E-01 -0.18486488407E-01  0.10601811796E-01  0.23970620967E-01  0.00000000000E+00 0. -1.
     999901    1    3    3    0    0  0.26810588132E-01 -0.10961679357E+00 -0.30712915203E-01  0.88773753567E+00  0.88000000000E+00 0.  1.
        -11    1    4    4    0    0 -0.14666669265E-01  0.93287024104E-01  0.59736572142E-02  0.94623072001E-01  0.51100000000E-03 0.  1.
         11    1    4    4    0    0 -0.11693116964E-02  0.34816257877E-01  0.14137446193E-01  0.37598771366E-01  0.51100000000E-03 0. -1.
</event>
<event>
 7    1  0.1082757E+005  0.1043930E+01  0.7957747E-01            NaN
         13   -1    0    0    0    0  0.00000000000E+00  0.00000000000E+00  0.74505805969E-08  0.10566000000E+00  0.10566000000E+00 0. -1.
     999900   -1    0    0    0    0 -0.00000000000E+00 -0.00000000000E+00 -0.74505805969E-08  0.93827000000E+00  0.93827000000E+00 0. -1.
     999903    2    1    2    0    0  0.11650177977E+00  0.59545632464E-01  0.54082137641E-01  0.14298691718E+00  0.20050781474E-01 0.  0.
         14    1    1    2    0    0  0.46060027728E-02  0.64817473290E-02  0.26805497267E-02  0.83912845749E-02  0.00000000000E+00 0. -1.
     999901    1    1    2    0    0 -0.12110778254E+00 -0.66027379793E-01 -0.56762687368E-01  0.89255179825E+00  0.88000000000E+00 0. -1.
        -11    1    3    3    0    0  0.70426429731E-01  0.25636645271E-01  0.26716960531E-01  0.79568691623E-01  0.51100000000E-03 0. -1.
         11    1    3    3    0    0  0.46075350037E-01  0.33908987193E-01  0.27365177110E-01  0.63418225557E-01  0.51100000000E-03 0.  1.
</event>
<event>
 7    1  0.1082757E+005  0.1043930E+01  0.7957747E-01            NaN
         13   -1    0    0    0    0  0.00000000000E+00  0.00000000000E+00  0.74505805969E-08  0.10566000000E+00  0.10566000000E+00 0.  1.
     999900   -1    0    0    0    0 -0.00000000000E+00 -0.00000000000E+00 -0.74505805969E-08  0.93827000000E+00  0.93827000000E+00 0. -1.
     999903    2    1    2    0    0 -0.32381504764E-01  0.58970839388E-02 -0.86216134972E-01  0.94346913236E-01  0.19615826717E-01 0.  0.
         14    1    1    2    0    0  0.23681534720E-01 -0.40152381725E-01 -0.38019777869E-01  0.60154238039E-01  0.00000000000E+00 0. -1.
     999901    1    1    2    0    0  0.86999700439E-02  0.34255297786E-01  0.12423591284E+00  0.88942884873E+00  0.88000000000E+00 0.  1.
        -11    1    3    3    0    0 -0.95353044766E-02  0.64741664923E-02 -0.51530328004E-01  0.52805991028E-01  0.51100000000E-03 0. -1.
         11    1    3    3    0    0 -0.22846200287E-01 -0.57708255353E-03 -0.34685806968E-01  0.41540922208E-01  0.51100000000E-03 0.  1.
</event>
<event>
 8    1  0.1082757E+005  0.1043930E+01  0.7957747E-01            NaN
         13   -1    0    0    0    0  0.00000000000E+00  0.00000000000E+00  0.74505805969E-08  0.10566000000E+00  0.10566000000E+00 0. -1.
     999900   -1    0    0    0    0 -0.00000000000E+00 -0.00000000000E+00 -0.74505805969E-08  0.93827000000E+00  0.93827000000E+00 0.  1.
     999902    2    1    2    0    0 -0.20444941908E-01  0.10185699235E-01 -0.83897447328E-03  0.10210728786E+01  0.10208170137E+01 0.  0.
     999903    2    3    3    0    0  0.48201092188E-01 -0.24013440710E-01  0.11681319052E+00  0.12993658654E+00  0.18390334940E-01 0.  0.
         14    1    1    2    0    0  0.20444941908E-01 -0.10185699235E-01  0.83897447328E-03  0.22857121356E-01  0.00000000000E+00 0.  1.
     999901    1    3    3    0    0 -0.68646034096E-01  0.34199139945E-01 -0.11765216500E+00  0.89113629210E+00  0.88000000000E+00 0.  1.
        -11    1    4    4    0    0  0.28457489528E-01 -0.11678386289E-01  0.45555456297E-01  0.54970666141E-01  0.51100000000E-03 0.  1.
         11    1    4    4    0    0  0.19743602660E-01 -0.12335054421E-01  0.71257734227E-01  0.74965920402E-01  0.51100000000E-03 0. -1.
</event>
<event>
 8    1  0.1082757E+005  0.1043930E+01  0.7957747E-01            NaN
         13   -1    0    0    0    0  0.00000000000E+00  0.00000000000E+00  0.74505805969E-08  0.10566000000E+00  0.10566000000E+00 0.  1.
     999900   -1    0    0    0    0 -0.00000000000E+00 -0.00000000000E+00 -0.74505805969E-08  0.93827000000E+00  0.93827000000E+00 0.  1.
     999902    2    1    2    0    0  0.12729586808E-01  0.10886916127E-01 -0.16029521551E-01  0.10207456759E+01  0.10204823477E+01 0.  0.
     999903    2    3    3    0    0  0.46911620758E-01 -0.94920948058E-01  0.71747741182E-01  0.12941601554E+00  0.19750447392E-01 0.  0.
         14    1    1    2    0    0 -0.12729586808E-01 -0.10886916127E-01  0.16029521551E-01  0.23184324105E-01  0.00000000000E+00 0.  1.
     999901    1    3    3    0    0 -0.34182033950E-01  0.10580786419E+00 -0.87777262733E-01  0.89132966035E+00  0.88000000000E+00 0.  1.
        -11    1    4    4    0    0  0.25369796266E-01 -0.64133173335E-01  0.37168795005E-01  0.78348394544E-01  0.51100000000E-03 0.  1.
         11    1    4    4    0    0  0.21541824492E-01 -0.30787774724E-01  0.34578946176E-01  0.51067621000E-01  0.51100000000E-03 0. -1.
</event>
<event>
 7    1  0.1082757E+005  0.1043930E+01  0.7957747E-01            NaN
         13   -1    0    0    0    0  0.00000000000E+00  0.00000000000E+00  0.74505805969E-08  0.10566000000E+00  0.10566000000E+00 0.  1.
     999900   -1    0    0    0    0 -0.00000000000E+00 -0.00000000000E+00 -0.74505805969E-08  0.93827000000E+00  0.93827000000E+00 0. -1.
     999903    2    1    2    0    0 -0.32106453388E-01  0.37080652554E-01  0.10800130306E-01  0.51743006364E-01  0.12445752285E-01 0.  0.
         14    1    1    2    0    0 -0.25416869013E-01  0.14482203315E-01 -0.10011296541E+00  0.10429936379E+00  0.00000000000E+00 0. -1.
     999901    1    1    2    0    0  0.57523322401E-01 -0.51562855869E-01  0.89312835104E-01  0.88788762985E+00  0.88000000000E+00 0.  1.
        -11    1    3    3    0    0 -0.13155354036E-01  0.19666157136E-01  0.10767985978E-01  0.26000609979E-01  0.51100000000E-03 0.  1.
         11    1    3    3    0    0 -0.18951099352E-01  0.17414495419E-01  0.32144327560E-04  0.25742396384E-01  0.51100000000E-03 0. -1.
</event>
<event>
 8    1  0.1082757E+005  0.1043930E+01  0.7957747E-01            NaN
         13   -1    0    0    0    0  0.00000000000E+00  0.00000000000E+00  0.74505805969E-08  0.10566000000E+00  0.10566000000E+00 0.  1.
     999900   -1    0    0    0    0 -0.00000000000E+00 -0.00000000000E+00 -0.74505805969E-08  0.93827000000E+00  0.93827000000E+00 0. -1.
     999902    2    1    2    0    0 -0.16678687343E-01  0.12809029035E-01  0.18356095919E-01  0.10160159159E+01  0.10156323868E+01 0.  0.
     999903    2    3    3    0    0 -0.93411341301E-01  0.76382259473E-01  0.44263939201E-01  0.13001327920E+00  0.19601739956E-01 0.  0.
         14    1    1    2    0    0  0.16678687343E-01 -0.12809029035E-01 -0.18356095919E-01  0.27914084146E-01  0.00000000000E+00 0.  1.
     999901    1    3    3    0    0  0.76732653959E-01 -0.63573230437E-01 -0.25907843282E-01  0.88600263665E+00  0.88000000000E+00 0. -1.
        -11    1    4    4    0    0 -0.51239514446E-01  0.34248667357E-01  0.30780430926E-01  0.68892344316E-01  0.51100000000E-03 0.  1.
         11    1    4    4    0    0 -0.42171826856E-01  0.42133592115E-01  0.13483508276E-01  0.61120934886E-01  0.51100000000E-03 0. -1.
</event>
<event>
 8    1  0.1082757E+005  0.1043930E+01  0.7957747E-01            NaN
         13   -1    0    0    0    0  0.00000000000E+00  0.00000000000E+00  0.74505805969E-08  0.10566000000E+00  0.10566000000E+00 0. -1.
     999900   -1    0    0    0    0 -0.00000000000E+00 -0.00000000000E+00 -0.74505805969E-08  0.93827000000E+00  0.93827000000E+00 0.  1.
     999902    2    1    2    0    0 -0.18381729614E-02  0.13562986625E-01  0.13013335318E-01  0.10250440163E+01  0.10248700185E+01 0.  0.
     999903    2    3    3    0    0  0.65848350814E-01 -0.86605840503E-01 -0.73057481029E-01  0.13261841999E+00  0.20338949667E-01 0.  0.
         14    1    1    2    0    0  0.18381729614E-02 -0.13562986625E-01 -0.13013335318E-01  0.18885983748E-01  0.00000000000E+00 0.  1.
     999901    1    3    3    0    0 -0.67686523775E-01  0.10016882713E+00  0.86070816346E-01  0.89242559626E+00  0.88000000000E+00 0. -1.
        -11    1    4    4    0    0  0.61785857873E-01 -0.69471238359E-01 -0.59413164418E-01  0.11033553561E+00  0.51100000000E-03 0.  1.
         11    1    4    4    0    0  0.40624929409E-02 -0.17134602144E-01 -0.13644316611E-01  0.22282884380E-01  0.51100000000E-03 0. -1.
</event>
<event>
 8    1  0.1082757E+005  0.1043930E+01  0.7957747E-01            NaN
         13   -1    0    0    0    0  0.00000000000E+00  0.00000000000E+00  0.74505805969E-08  0.10566000000E+00  0.10566000000E+00 0.  1.
     999900   -1    0    0    0    0 -0.00000000000E+00 -0.00000000000E+00 -0.74505805969E-08  0.93827000000E+00  0.93827000000E+00 0. -1.
     999902    2    1    2    0    0  0.23836206401E-02 -0.21441559648E-01  0.13786604158E-01  0.10183274106E+01  0.10180055121E+01 0.  0.
     999903    2    3    3    0    0 -0.41135426607E-01  0.76680106319E-01  0.92755599450E-01  0.12829489943E+00  0.16852832487E-01 0.  0.
         14    1    1    2    0    0 -0.23836206401E-02  0.21441559648E-01 -0.13786604158E-01  0.25602589355E-01  0.00000000000E+00 0. -1.
     999901    1    3    3    0    0  0.43519047247E-01 -0.98121665966E-01 -0.78968995292E-01  0.89003251122E+00  0.88000000000E+00 0.  1.
        -11    1    4    4    0    0 -0.15424574482E-01  0.39453818254E-01  0.35169980165E-01  0.55060965290E-01  0.51100000000E-03 0.  1.
         11    1    4    4    0    0 -0.25710852124E-01  0.37226288064E-01  0.57585619285E-01  0.73233934139E-01  0.51100000000E-03 0. -1.
</event>
<event>
 8    1  0.1082757E+005  0.1043930E+01  0.7957747E-01            NaN
         13   -1    0    0    0    0  0.00000000000E+00  0.00000000000E+00  0.74505805969E-08  0.10566000000E+00  0.10566000000E+00 0. -1.
     999900   -1    0    0    0    0 -0.00000000000E+00 -0.00000000000E+00 -0.74505805969E-08  0.93827000000E+00  0.93827000000E+00 0. -1.
     999902    2    1    2    0    0  0.25068007182E-02 -0.16064740824E-01  0.16442407011E-01  0.10208061444E+01  0.10205442038E+01 0.  0.
     999903    2    3    3    0    0 -0.25397778456E-02 -0.41493575412E-01 -0.12117832522E+00  0.12973288173E+00  0.20451572688E-01 0.  0.
         14    1    1    2    0    0 -0.25068007182E-02  0.16064740824E-01 -0.16442407011E-01  0.23123855558E-01  0.00000000000E+00 0.  1.
     999901    1    3    3    0    0  0.50465785638E-02  0.25428834588E-01  0.13762073223E+00  0.89107326271E+00  0.88000000000E+00 0.  1.
        -11    1    4    4    0    0  0.36786129159E-03 -0.32286557442E-01 -0.11138150761E+00  0.11596835117E+00  0.51100000000E-03 0.  1.
         11    1    4    4    0    0 -0.29076391372E-02 -0.92070179692E-02 -0.97968176107E-02  0.13764530560E-01  0.51100000000E-03 0. -1.
</event>
<event>
 8    1  0.1082757E+005  0.1043930E+01  0.7957747E-01            NaN
         13   -1    0    0    0    0  0.00000000000E+00  0.00000000000E+00  0.74505805969E-08  0.10566000000E+00  0.10566000000E+00 0. -1.
     999900   -1    0    0    0    0 -0.00000000000E+00 -0.00000000000E+00 -0.74505805969E-08  0.93827000000E+00  0.93827000000E+00 0.  1.
     999902    2    1    2    0    0  0.17379587415E-01 -0.11499613867E-01  0.45332699528E-02  0.10226029816E+01  0.10223805633E+01 0.  0.
     999903    2    3    3    0    0  0.24624311261E-01  0.58059924834E-01 -0.11407620812E+00  0.13189583346E+00  0.20144926095E-01 0.  0.
         14    1    1    2    0    0 -0.17379587415E-01  0.11499613867E-01 -0.45332699528E-02  0.21327018410E-01  0.00000000000E+00 0.  1.
     999901    1    3    3    0    0 -0.72447238467E-02 -0.69559538701E-01  0.11860947807E+00  0.89070714813E+00  0.88000000000E+00 0. -1.
        -11    1    4    4    0    0  0.15314722249E-01  0.16179198240E-01 -0.50477224767E-01  0.55177155730E-01  0.51100000000E-03 0.  1.
         11    1    4    4    0    0  0.93095890119E-02  0.41880726594E-01 -0.63598983353E-01  0.76718677726E-01  0.51100000000E-03 0. -1.
</event>
<event>
 8    1  0.1082757E+005  0.1043930E+01  0.7957747E-01            NaN
         13   -1    0    0    0    0  0.00000000000E+00  0.00000000000E+00  0.74505805969E-08  0.10566000000E+00  0.10566000000E+00 0.  1.
     999900   -1    0    0    0    0 -0.00000000000E+00 -0.00000000000E+00 -0.74505805969E-08  0.93827000000E+00  0.93827000000E+00 0. -1.
     999902    2    1    2    0    0  0.21024428061E-02 -0.24932523780E-01 -0.54087240565E-02  0.10183310683E+01  0.10180092629E+01 0.  0.
     999903    2    3    3    0    0  0.61912324947E-01  0.62614957611E-01 -0.87646459597E-01  0.12815983273E+00  0.31452693832E-01 0.  0.
         14    1    1    2    0    0 -0.21024428061E-02  0.24932523780E-01  0.54087240565E-02  0.25598931691E-01  0.00000000000E+00 0.  1.
     999901    1    3    3    0    0 -0.59809882141E-01 -0.87547481392E-01  0.82237735541E-01  0.89017123558E+00  0.88000000000E+00 0.  1.
        -11    1    4    4    0    0  0.70830241845E-02  0.39664604481E-02  0.14093872824E-02  0.82552730783E-02  0.51100000000E-03 0.  1.
         11    1    4    4    0    0  0.54829300762E-01  0.58648497163E-01 -0.89055846880E-01  0.11990455965E+00  0.51100000000E-03 0. -1.
</event>
<event>
 8    1  0.1082757E+005  0.1043930E+01  0.7957747E-01            NaN
         13   -1    0    0    0    0  0.00000000000E+00  0.00000000000E+00  0.74505805969E-08  0.10566000000E+00  0.10566000000E+00 0.  1.
     999900   -1    0    0    0    0 -0.00000000000E+00 -0.00000000000E+00 -0.74505805969E-08  0.93827000000E+00  0.93827000000E+00 0.  1.
     999902    2    1    2    0    0 -0.96798323143E-02 -0.10535408516E-01  0.19500949229E-01  0.10197436194E+01  0.10194567515E+01 0.  0.
     999903    2    3    3    0    0 -0.92510471639E-01 -0.83283692197E-01 -0.36432290147E-01  0.13110322257E+00  0.19141119461E-01 0.  0.
         14    1    1    2    0    0  0.96798323143E-02  0.10535408516E-01 -0.19500949229E-01  0.24186380611E-01  0.00000000000E+00 0. -1.
     999901    1    3    3    0    0  0.82830639325E-01  0.72748283681E-01  0.55933239376E-01  0.88864039682E+00  0.88000000000E+00 0. -1.
        -11    1    4    4    0    0 -0.62973838044E-01 -0.51666203219E-01 -0.32328831783E-01  0.87638549272E-01  0.51100000000E-03 0.  1.
         11    1    4    4    0    0 -0.29536633595E-01 -0.31617488978E-01 -0.41034583639E-02  0.43464673299E-01  0.51100000000E-03 0. -1.
</event>
<event>
 8    1  0.1082757E+005  0.1043930E+01  0.7957747E-01            NaN
         13   -1    0    0    0    0  0.00000000000E+00  0.00000000000E+00  0.74505805969E-08  0.10566000000E+00  0.10566000000E+00 0.  1.
     999900   -1    0    0    0    0 -0.00000000000E+00 -0.00000000000E+00 -0.74505805969E-08  0.93827000000E+00  0.93827000000E+00 0. -1.
     999902    2    1    2    0    0 -0.31111944721E-02 -0.22773016866E-01 -0.86012022466E-03  0.10209293558E+01  0.10206702307E+01 0.  0.
     999903    2    3    3    0    0  0.10850023780E+00 -0.64144685622E-01  0.33536125732E-01  0.13224953237E+00  0.21872923600E-01 0.  0.
         14    1    1    2    0    0  0.31111944721E-02  0.22773016866E-01  0.86012022466E-03  0.23000644231E-01  0.00000000000E+00 0. -1.
     999901    1    3    3    0    0 -0.11161143227E+00  0.41371668755E-01 -0.34396245956E-01  0.88867982340E+00  0.88000000000E+00 0. -1.
        -11    1    4    4    0    0  0.85448206660E-01 -0.49333064083E-01  0.16659476321E-01  0.10006471159E+00  0.51100000000E-03 0. -1.
         11    1    4    4    0    0  0.23052031135E-01 -0.14811621538E-01  0.16876649411E-01  0.32184820776E-01  0.51100000000E-03 0.  1.
</event>
<event>
 8    1  0.1082757E+005  0.1043930E+01  0.7957747E-01            NaN
         13   -1    0    0    0    0  0.00000000000E+00  0.00000000000E+00  0.74505805969E-08  0.10566000000E+00  0.10566000000E+00 0.  1.
     999900   -1    0    0    0    0 -0.00000000000E+00 -0.00000000000E+00 -0.74505805969E-08  0.93827000000E+00  0.93827000000E+00 0. -1.
     999902    2    1    2    0    0  0.44303331526E-02 -0.15571433972E-01 -0.21473837890E-01  0.10170371920E+01  0.10166815759E+01 0.  0.
     999903    2    3    3    0    0  0.39242167560E-01  0.11122109873E+00 -0.43186887417E-01  0.12700367203E+00  0.18834674068E-01 0.  0.
         14    1    1    2    0    0 -0.44303331526E-02  0.15571433972E-01  0.21473837890E-01  0.26892807989E-01  0.00000000000E+00 0.  1.
     999901    1    3    3    0    0 -0.34811834407E-01 -0.12679253270E+00  0.21713049526E-01  0.89003351998E+00  0.88000000000E+00 0.  1.
        -11    1    4    4    0    0  0.30494761294E-01  0.98320427404E-01 -0.42568177916E-01  0.11139635453E+00  0.51100000000E-03 0. -1.
         11    1    4    4    0    0  0.87474062656E-02  0.12900671328E-01 -0.61870950071E-03  0.15607317500E-01  0.51100000000E-03 0.  1.
</event>
<event>
 8    1  0.1082757E+005  0.1043930E+01  0.7957747E-01            NaN
         13   -1    0    0    0    0  0.00000000000E+00  0.00000000000E+00  0.74505805969E-08  0.10566000000E+00  0.10566000000E+00 0. -1.
     999900   -1    0    0    0    0 -0.00000000000E+00 -0.00000000000E+00 -0.74505805969E-08  0.93827000000E+00  0.93827000000E+00 0.  1.
     999902    2    1    2    0    0  0.49063235983E-02 -0.29128716336E-01 -0.73709117073E-02  0.10134852227E+01  0.10130278437E+01 0.  0.
     999903    2    3    3    0    0 -0.34433981964E-01 -0.57740141101E-01  0.10358840345E+00  0.12518446118E+00  0.20517528646E-01 0.  0.
         14    1    1    2    0    0 -0.49063235983E-02  0.29128716336E-01  0.73709117073E-02  0.30444777319E-01  0.00000000000E+00 0. -1.
     999901    1    3    3    0    0  0.39340305563E-01  0.28611424765E-01 -0.11095931516E+00  0.88830076150E+00  0.88000000000E+00 0.  1.
        -11    1    4    4    0    0 -0.11026026795E-01 -0.33981923236E-01  0.41987109210E-01  0.55131867686E-01  0.51100000000E-03 0.  1.
         11    1    4    4    0    0 -0.23407955169E-01 -0.23758217865E-01  0.61601294243E-01  0.70052593491E-01  0.51100000000E-03 0. -1.
</event>
<event>
 8    1  0.1082757E+005  0.1043930E+01  0.7957747E-01            NaN
         13   -1    0    0    0    0  0.00000000000E+00  0.00000000000E+00  0.74505805969E-08  0.10566000000E+00  0.10566000000E+00 0. -1.
     999900   -1    0    0    0    0 -0.00000000000E+00 -0.00000000000E+00 -0.74505805969E-08  0.93827000000E+00  0.93827000000E+00 0.  1.
     999902    2    1    2    0    0  0.10236509292E-01  0.78926490259E-02 -0.18718746955E-01  0.10211819997E+01  0.10209285993E+01 0.  0.
     999903    2    3    3    0    0 -0.43749803723E-01  0.55598129262E-01  0.10632553403E+00  0.12942732094E+00  0.21002735937E-01 0.  0.
         14    1    1    2    0    0 -0.10236509292E-01 -0.78926490259E-02  0.18718746955E-01  0.22748000323E-01  0.00000000000E+00 0. -1.
     999901    1    3    3    0    0  0.53986313014E-01 -0.47705480236E-01 -0.12504428098E+00  0.89175467873E+00  0.88000000000E+00 0.  1.
        -11    1    4    4    0    0 -0.28002542491E-01  0.29703506281E-01  0.43412968677E-01  0.59593520132E-01  0.51100000000E-03 0.  1.
         11    1    4    4    0    0 -0.15747261232E-01  0.25894622980E-01  0.62912565352E-01  0.69833800811E-01  0.51100000000E-03 0. -1.
</event>
<event>
 8    1  0.1082757E+005  0.1043930E+01  0.7957747E-01            NaN
         13   -1    0    0    0    0  0.00000000000E+00  0.00000000000E+00  0.74505805969E-08  0.10566000000E+00  0.10566000000E+00 0. -1.
     999900   -1    0    0    0    0 -0.00000000000E+00 -0.00000000000E+00 -0.74505805969E-08  0.93827000000E+00  0.93827000000E+00 0.  1.
     999902    2    1    2    0    0 -0.13688921318E-01  0.18599153819E-01 -0.76471502763E-03  0.10208237264E+01  0.10205621885E+01 0.  0.
     999903    2    3    3    0    0 -0.47367323784E-01 -0.82693832273E-01  0.86737480067E-01  0.13006498357E+00  0.17651522410E-01 0.  0.
         14    1    1    2    0    0  0.13688921318E-01 -0.18599153819E-01  0.76471502763E-03  0.23106273579E-01  0.00000000000E+00 0. -1.
     999901    1    3    3    0    0  0.33678402466E-01  0.10129298609E+00 -0.87502195095E-01  0.89075874285E+00  0.88000000000E+00 0.  1.
        -11    1    4    4    0    0 -0.32878731454E-02 -0.58667834289E-02  0.10509477063E-02  0.68260434882E-02  0.51100000000E-03 0. -1.
         11    1    4    4    0    0 -0.44079450639E-01 -0.76827048844E-01  0.85686532361E-01  0.12323894008E+00  0.51100000000E-03 0.  1.
</event>
<event>
 8    1  0.1082757E+005  0.1043930E+01  0.7957747E-01            NaN
         13   -1    0    0    0    0  0.00000000000E+00  0.00000000000E+00  0.74505805969E-08  0.10566000000E+00  0.10566000000E+00 0.  1.
     999900   -1    0    0    0    0 -0.00000000000E+00 -0.00000000000E+00 -0.74505805969E-08  0.93827000000E+00  0.93827000000E+00 0.  1.
     999902    2    1    2    0    0  0.20851447979E-01 -0.62772983655E-02  0.98085372372E-02  0.10200470613E+01  0.10197674306E+01 0.  0.
     999903    2    3    3    0    0 -0.11172028880E+00  0.41807740395E-01 -0.39983779826E-01  0.12742916367E+00  0.20252876826E-01 0.  0.
         14    1    1    2    0    0 -0.20851447979E-01  0.62772983655E-02 -0.98085372372E-02  0.23882938687E-01  0.00000000000E+00 0. -1.
     999901    1    3    3    0    0  0.13257173678E+00 -0.48085038761E-01  0.49792317063E-01  0.89261789764E+00  0.88000000000E+00 0. -1.
        -11    1    4    4    0    0 -0.28464830120E-01  0.15678740815E-02 -0.87401317882E-02  0.29822069136E-01  0.51100000000E-03 0. -1.
         11    1    4    4    0    0 -0.83255458678E-01  0.40239866314E-01 -0.31243648038E-01  0.97607094539E-01  0.51100000000E-03 0.  1.
</event>
<event>
 8    1  0.1082757E+005  0.1043930E+01  0.7957747E-01            NaN
         13   -1    0    0    0    0  0.00000000000E+00  0.00000000000E+00  0.74505805969E-08  0.10566000000E+00  0.10566000000E+00 0.  1.
     999900   -1    0    0    0    0 -0.00000000000E+00 -0.00000000000E+00 -0.74505805969E-08  0.93827000000E+00  0.93827000000E+00 0. -1.
     999902    2    1    2    0    0 -0.88283056294E-02  0.22132222685E-01  0.14277985097E-01  0.10161516790E+01  0.10157719230E+01 0.  0.
     999903    2    3    3    0    0  0.10625502354E+00 -0.68453931766E-02 -0.62318972703E-01  0.12488798688E+00  0.19400141047E-01 0.  0.
         14    1    1    2    0    0  0.88283056294E-02 -0.22132222685E-01 -0.14277985097E-01  0.27778321038E-01  0.00000000000E+00 0. -1.
     999901    1    3    3    0    0 -0.11508332917E+00  0.28977615861E-01  0.76596957800E-01  0.89126369208E+00  0.88000000000E+00 0. -1.
        -11    1    4    4    0    0  0.35064061230E-01 -0.11338810977E-01 -0.22813455853E-01  0.43344802609E-01  0.51100000000E-03 0. -1.
         11    1    4    4    0    0  0.71190962315E-01  0.44934177999E-02 -0.39505516851E-01  0.81543184274E-01  0.51100000000E-03 0.  1.
</event>
<event>
 8    1  0.1082757E+005  0.1043930E+01  0.7957747E-01            NaN
         13   -1    0    0    0    0  0.00000000000E+00  0.00000000000E+00  0.74505805969E-08  0.10566000000E+00  0.10566000000E+00 0.  1.
     999900   -1    0    0    0    0 -0.00000000000E+00 -0.00000000000E+00 -0.74505805969E-08  0.93827000000E+00  0.93827000000E+00 0. -1.
     999902    2    1    2    0    0 -0.71699549568E-02  0.15826957442E-01  0.14875712897E-01  0.10210567040E+01  0.10208004727E+01 0.  0.
     999903    2    3    3    0    0 -0.17800264087E-01 -0.11940473103E+00  0.44485303206E-01  0.13017099815E+00  0.19778962703E-01 0.  0.
         14    1    1    2    0    0  0.71699549568E-02 -0.15826957442E-01 -0.14875712897E-01  0.22873296005E-01  0.00000000000E+00 0. -1.
     999901    1    3    3    0    0  0.10630309131E-01  0.13523168847E+00 -0.29609590309E-01  0.89088570584E+00  0.88000000000E+00 0. -1.
        -11    1    4    4    0    0 -0.46915812047E-02 -0.84605718039E-01  0.25972157411E-01  0.88628170131E-01  0.51100000000E-03 0. -1.
         11    1    4    4    0    0 -0.13108682883E-01 -0.34799012986E-01  0.18513145795E-01  0.41542828020E-01  0.51100000000E-03 0.  1.
</event>
<event>
 8    1  0.1082757E+005  0.1043930E+01  0.7957747E-01            NaN
         13   -1    0    0    0    0  0.00000000000E+00  0.00000000000E+00  0.74505805969E-08  0.10566000000E+00  0.10566000000E+00 0.  1.
     999900   -1    0    0    0    0 -0.00000000000E+00 -0.00000000000E+00 -0.74505805969E-08  0.93827000000E+00  0.93827000000E+00 0.  1.
     999902    2    1    2    0    0  0.15300733832E-01 -0.10914995652E-01 -0.13947576743E-01  0.10205252038E+01  0.10202567849E+01 0.  0.
     999903    2    3    3    0    0  0.75189601765E-01 -0.10643502823E+00 -0.19681762757E-01  0.13331404859E+00  0.20084131001E-01 0.  0.
         14    1    1    2    0    0 -0.15300733832E-01  0.10914995652E-01  0.13947576743E-01  0.23404796152E-01  0.00000000000E+00 0.  1.
     999901    1    3    3    0    0 -0.59888867933E-01  0.95520032579E-01  0.57341860135E-02  0.88721115526E+00  0.88000000000E+00 0. -1.
        -11    1    4    4    0    0  0.26419543084E-01 -0.45009799969E-01 -0.16789038520E-01  0.54827067087E-01  0.51100000000E-03 0.  1.
         11    1    4    4    0    0  0.48770058681E-01 -0.61425228263E-01 -0.28927242368E-02  0.78486981502E-01  0.51100000000E-03 0. -1.
</event>
<event>
 8    1  0.1082757E+005  0.1043930E+01  0.7957747E-01            NaN
         13   -1    0    0    0    0  0.00000000000E+00  0.00000000000E+00  0.74505805969E-08  0.10566000000E+00  0.10566000000E+00 0. -1.
     999900   -1    0    0    0    0 -0.00000000000E+00 -0.00000000000E+00 -0.74505805969E-08  0.93827000000E+00  0.93827000000E+00 0. -1.
     999902    2    1    2    0    0  0.21859616009E-01 -0.44269396893E-02  0.57909819538E-02  0.10208870818E+01  0.10206269924E+01 0.  0.
     999903    2    3    3    0    0  0.42130815320E-02  0.11264479406E+00 -0.61681674852E-01  0.13039859202E+00  0.22193785239E-01 0.  0.
         14    1    1    2    0    0 -0.21859616009E-01  0.44269396893E-02 -0.57909819538E-02  0.23042918198E-01  0.00000000000E+00 0.  1.
     999901    1    3    3    0    0  0.17646534477E-01 -0.11707173375E+00  0.67472656806E-01  0.89048848978E+00  0.88000000000E+00 0.  1.
        -11    1    4    4    0    0 -0.90869975175E-03  0.55402351469E-01 -0.42414003066E-01  0.69781480786E-01  0.51100000000E-03 0. -1.
         11    1    4    4    0    0  0.51217812838E-02  0.57242442589E-01 -0.19267671786E-01  0.60617111232E-01  0.51100000000E-03 0.  1.
</event>
<event>
 8    1  0.1082757E+005  0.1043930E+01  0.7957747E-01            NaN
         13   -1    0    0    0    0  0.00000000000E+00  0.00000000000E+00  0.74505805969E-08  0.10566000000E+00  0.10566000000E+00 0. -1.
     999900   -1    0    0    0    0 -0.00000000000E+00 -0.00000000000E+00 -0.74505805969E-08  0.93827000000E+00  0.93827000000E+00 0.  1.
     999902    2    1    2    0    0  0.17559097632E-01  0.12572894304E-01  0.84519144409E-02  0.10207387422E+01  0.10204752547E+01 0.  0.
     999903    2    3    3    0    0  0.11263881921E+00  0.41332889307E-01  0.55735316541E-01  0.13388869237E+00  0.20587498671E-01 0.  0.
         14    1    1    2    0    0 -0.17559097632E-01 -0.12572894304E-01 -0.84519144409E-02  0.23191257805E-01  0.00000000000E+00 0.  1.
     999901    1    3    3    0    0 -0.95079721580E-01 -0.28759995003E-01 -0.47283402100E-01  0.88685004983E+00  0.88000000000E+00 0.  1.
        -11    1    4    4    0    0  0.72783054860E-01  0.36517783038E-01  0.34123733227E-01  0.88292762121E-01  0.51100000000E-03 0.  1.
         11    1    4    4    0    0  0.39855764353E-01  0.48151062694E-02  0.21611583314E-01  0.45595930245E-01  0.51100000000E-03 0. -1.
</event>
<event>
 8    1  0.1082757E+005  0.1043930E+01  0.7957747E-01            NaN
         13   -1    0    0    0    0  0.00000000000E+00  0.00000000000E+00  0.74505805969E-08  0.10566000000E+00  0.10566000000E+00 0.  1.
     999900   -1    0    0    0    0 -0.00000000000E+00 -0.00000000000E+00 -0.74505805969E-08  0.93827000000E+00  0.93827000000E+00 0.  1.
     999902    2    1    2    0    0 -0.75268501186E-03 -0.81812066668E-03  0.23078226430E-01  0.10208250137E+01  0.10205635052E+01 0.  0.
     999903    2    3    3    0    0 -0.76697486059E-01 -0.10466112642E+00  0.37071229672E-02  0.13125982650E+00  0.19466472236E-01 0.  0.
         14    1    1    2    0    0  0.75268501186E-03  0.81812066668E-03 -0.23078226430E-01  0.23104986287E-01  0.00000000000E+00 0. -1.
     999901    1    3    3    0    0  0.75944801047E-01  0.10384300575E+00  0.19371103463E-01  0.88956518721E+00  0.88000000000E+00 0. -1.
        -11    1    4    4    0    0 -0.36233583822E-01 -0.53399157053E-01 -0.75953765935E-02  0.64979176951E-01  0.51100000000E-03 0. -1.
         11    1    4    4    0    0 -0.40463902236E-01 -0.51261969366E-01  0.11302499561E-01  0.66280649550E-01  0.51100000000E-03 0.  1.
</event>
<event>
 8    1  0.1082757E+005  0.1043930E+01  0.7957747E-01            NaN
         13   -1    0    0    0    0  0.00000000000E+00  0.00000000000E+00  0.74505805969E-08  0.10566000000E+00  0.10566000000E+00 0.  1.
     999900   -1    0    0    0    0 -0.00000000000E+00 -0.00000000000E+00 -0.74505805969E-08  0.93827000000E+00  0.93827000000E+00 0. -1.
     999902    2    1    2    0    0  0.16726683420E-01 -0.10903615258E-01  0.12912933053E-01  0.10201515517E+01  0.10198743912E+01 0.  0.
     999903    2    3    3    0    0 -0.41486915998E-01 -0.58431878579E-01  0.10871110333E+00  0.13176816126E+00  0.20231057851E-01 0.  0.
         14    1    1    2    0    0 -0.16726683420E-01  0.10903615258E-01 -0.12912933053E-01  0.23778448308E-01  0.00000000000E+00 0. -1.
     999901    1    3    3    0    0  0.58213599418E-01  0.47528263321E-01 -0.95798170272E-01  0.88838339043E+00  0.88000000000E+00 0. -1.
        -11    1    4    4    0    0 -0.34049258397E-01 -0.51272376029E-01  0.77975446684E-01  0.99341028521E-01  0.51100000000E-03 0. -1.
         11    1    4    4    0    0 -0.74376576002E-02 -0.71595025500E-02  0.30735656641E-01  0.32427132737E-01  0.51100000000E-03 0.  1.
</event>
<event>
 8    1  0.1082757E+005  0.1043930E+01  0.7957747E-01            NaN
         13   -1    0    0    0    0  0.00000000000E+00  0.00000000000E+00  0.74505805969E-08  0.10566000000E+00  0.10566000000E+00 0. -1.
     999900   -1    0    0    0    0 -0.00000000000E+00 -0.00000000000E+00 -0.74505805969E-08  0.93827000000E+00  0.93827000000E+00 0. -1.
     999902    2    1    2    0    0 -0.19730058113E-01  0.42674150675E-02  0.71290448590E-02  0.10225218402E+01  0.10222977083E+01 0.  0.
     999903    2    3    3    0    0  0.19165905875E-01 -0.39143343404E-02  0.12979560306E+00  0.13312489760E+00  0.22196527382E-01 0.  0.
         14    1    1    2    0    0  0.19730058113E-01 -0.42674150675E-02 -0.71290448590E-02  0.21408159778E-01  0.00000000000E+00 0.  1.
     999901    1    3    3    0    0 -0.38895963988E-01  0.81817494079E-02 -0.12266655820E+00  0.88939694262E+00  0.88000000000E+00 0. -1.
        -11    1    4    4    0    0  0.16686093509E-01  0.65390799082E-02  0.95972946314E-01  0.97633256771E-01  0.51100000000E-03 0.  1.
         11    1    4    4    0    0  0.24798123660E-02 -0.10453414249E-01  0.33822656743E-01  0.35491640833E-01  0.51100000000E-03 0. -1.
</event>
<event>
 8    1  0.1082757E+005  0.1043930E+01  0.7957747E-01            NaN
         13   -1    0    0    0    0  0.00000000000E+00  0.00000000000E+00  0.74505805969E-08  0.10566000000E+00  0.10566000000E+00 0. -1.
     999900   -1    0    0    0    0 -0.00000000000E+00 -0.00000000000E+00 -0.74505805969E-08  0.93827000000E+00  0.93827000000E+00 0.  1.
     999902    2    1    2    0    0  0.68041875933E-03 -0.23156829807E-01  0.36841830820E-02  0.10204720602E+01  0.10202024067E+01 0.  0.
     999903    2    3    3    0    0  0.82050232084E-01 -0.98964084046E-01  0.27545244985E-01  0.13315186058E+00  0.21084281781E-01 0.  0.
         14    1    1    2    0    0 -0.68041875933E-03  0.23156829807E-01 -0.36841830820E-02  0.23457939837E-01  0.00000000000E+00 0.  1.
     999901    1    3    3    0    0 -0.81369813325E-01  0.75807254239E-01 -0.23861061903E-01  0.88732019958E+00  0.88000000000E+00 0.  1.
        -11    1    4    4    0    0  0.55664621599E-02 -0.27000605007E-02  0.53900894653E-02  0.82213145621E-02  0.51100000000E-03 0.  1.
         11    1    4    4    0    0  0.76483769924E-01 -0.96264023545E-01  0.22155155519E-01  0.12493054602E+00  0.51100000000E-03 0. -1.
</event>
<event>
 8    1  0.1082757E+005  0.1043930E+01  0.7957747E-01            NaN
         13   -1    0    0    0    0  0.00000000000E+00  0.00000000000E+00  0.74505805969E-08  0.10566000000E+00  0.10566000000E+00 0. -1.
     999900   -1    0    0    0    0 -0.00000000000E+00 -0.00000000000E+00 -0.74505805969E-08  0.93827000000E+00  0.93827000000E+00 0.  1.
     999902    2    1    2    0    0  0.63908809780E-02  0.22428662581E-01 -0.34874962648E-02  0.10203492686E+01  0.10200767515E+01 0.  0.
     999903    2    3    3    0    0  0.10944197063E-01 -0.60317702766E-01 -0.11276501812E+00  0.12972630095E+00  0.18840465203E-01 0.  0.
         14    1    1    2    0    0 -0.63908809780E-02 -0.22428662581E-01  0.34874962648E-02  0.23580731436E-01  0.00000000000E+00 0.  1.
     999901    1    3    3    0    0 -0.45533160855E-02  0.82746365347E-01  0.10927752186E+00  0.89062296762E+00  0.88000000000E+00 0. -1.
        -11    1    4    4    0    0 -0.21867328072E-02 -0.32827614574E-01 -0.68437734158E-01  0.75936938683E-01  0.51100000000E-03 0.  1.
         11    1    4    4    0    0  0.13130929871E-01 -0.27490088192E-01 -0.44327283963E-01  0.53789362263E-01  0.51100000000E-03 0. -1.
</event>
<event>
 8    1  0.1082757E+005  0.1043930E+01  0.7957747E-01            NaN
         13   -1    0    0    0    0  0.00000000000E+00  0.00000000000E+00  0.74505805969E-08  0.10566000000E+00  0.10566000000E+00 0.  1.
     999900   -1    0    0    0    0 -0.00000000000E+00 -0.00000000000E+00 -0.74505805969E-08  0.93827000000E+00  0.93827000000E+00 0.  1.
     999902    2    1    2    0    0  0.88127975763E-02  0.66967127476E-02 -0.21166027394E-01  0.10200446053E+01  0.10197649164E+01 0.  0.
     999903    2    3    3    0    0 -0.12031008902E+00  0.70691034471E-02  0.40387116822E-01  0.12849446761E+00  0.18847261282E-01 0.  0.
         14    1    1    2    0    0 -0.88127975763E-02 -0.66967127476E-02  0.21166027394E-01  0.23885394667E-01  0.00000000000E+00 0.  1.
     999901    1    3    3    0    0  0.12912288659E+00 -0.37239069950E-03 -0.61553144216E-01  0.89155013773E+00  0.88000000000E+00 0.  1.
        -11    1    4    4    0    0 -0.10293393683E+00 -0.52090828402E-03  0.32424328202E-01  0.10792249476E+00  0.51100000000E-03 0.  1.
         11    1    4    4    0    0 -0.17376152190E-01  0.75900117311E-02  0.79627886197E-02  0.20571972842E-01  0.51100000000E-03 0. -1.
</event>
<event>
 8    1  0.1082757E+005  0.1043930E+01  0.7957747E-01            NaN
         13   -1    0    0    0    0  0.00000000000E+00  0.00000000000E+00  0.74505805969E-08  0.10566000000E+00  0.10566000000E+00 0. -1.
     999900   -1    0    0    0    0 -0.00000000000E+00 -0.00000000000E+00 -0.74505805969E-08  0.93827000000E+00  0.93827000000E+00 0. -1.
     999902    2    1    2    0    0  0.19341480543E-01  0.25677090503E-02 -0.12949778562E-01  0.10205124262E+01  0.10202437107E+01 0.  0.
     999903    2    3    3    0    0  0.11284315311E+00 -0.26708072879E-01  0.59949618899E-01  0.13207899798E+00  0.20099913909E-01 0.  0.
         14    1    1    2    0    0 -0.19341480543E-01 -0.25677090503E-02  0.12949778562E-01  0.23417573832E-01  0.00000000000E+00 0.  1.
     999901    1    3    3    0    0 -0.93501672569E-01  0.29275781929E-01 -0.72899397461E-01  0.88843342819E+00  0.88000000000E+00 0. -1.
        -11    1    4    4    0    0  0.45372381243E-01 -0.19801847199E-01  0.30399364234E-01  0.58096029115E-01  0.51100000000E-03 0. -1.
         11    1    4    4    0    0  0.67470771868E-01 -0.69062256801E-02  0.29550254665E-01  0.73982968860E-01  0.51100000000E-03 0.  1.
</event>
<event>
 8    1  0.1082757E+005  0.1043930E+01  0.7957747E-01            NaN
         13   -1    0    0    0    0  0.00000000000E+00  0.00000000000E+00  0.74505805969E-08  0.10566000000E+00  0.10566000000E+00 0. -1.
     999900   -1    0    0    0    0 -0.00000000000E+00 -0.00000000000E+00 -0.74505805969E-08  0.93827000000E+00  0.93827000000E+00 0. -1.
     999902    2    1    2    0    0  0.18949649741E-02  0.23128386559E-01 -0.30014880087E-02  0.10205308101E+01  0.10202625213E+01 0.  0.
     999903    2    3    3    0    0  0.51260018978E-01  0.65260395749E-01  0.10081450076E+00  0.13205471349E+00  0.19707231933E-01 0.  0.
         14    1    1    2    0    0 -0.18949649741E-02 -0.23128386559E-01  0.30014880087E-02  0.23399189886E-01  0.00000000000E+00 0. -1.
     999901    1    3    3    0    0 -0.49365054004E-01 -0.42132009190E-01 -0.10381598877E+00  0.88847609663E+00  0.88000000000E+00 0. -1.
        -11    1    4    4    0    0  0.73290213359E-02  0.18673221646E-01  0.15363561622E-01  0.25272592013E-01  0.51100000000E-03 0.  1.
         11    1    4    4    0    0  0.43930997643E-01  0.46587174103E-01  0.85450939142E-01  0.10678212147E+00  0.51100000000E-03 0. -1.
</event>
<event>
 8    1  0.1082757E+005  0.1043930E+01  0.7957747E-01            NaN
         13   -1    0    0    0    0  0.00000000000E+00  0.00000000000E+00  0.74505805969E-08  0.10566000000E+00  0.10566000000E+00 0. -1.
     999900   -1    0    0    0    0 -0.00000000000E+00 -0.00000000000E+00 -0.74505805969E-08  0.93827000000E+00  0.93827000000E+00 0.  1.
     999902    2    1    2    0    0  0.22727651778E-01 -0.34792140246E-02 -0.69776858028E-02  0.10199021165E+01  0.10196190407E+01 0.  0.
     999903    2    3    3    0    0 -0.98492572479E-01 -0.28088099270E-01 -0.75301088945E-01  0.12862885459E+00  0.19631609292E-01 0.  0.
         14    1    1    2    0    0 -0.22727651778E-01  0.34792140246E-02  0.69776858028E-02  0.24027883484E-01  0.00000000000E+00 0. -1.
     999901    1    3    3    0    0  0.12122022426E+00  0.24608885245E-01  0.68323403143E-01  0.89127326192E+00  0.88000000000E+00 0. -1.
        -11    1    4    4    0    0 -0.71972901724E-02 -0.23858308620E-02 -0.13293058028E-01  0.15312076524E-01  0.51100000000E-03 0. -1.
         11    1    4    4    0    0 -0.91295282307E-01 -0.25702268408E-01 -0.62008030917E-01  0.11331677807E+00  0.51100000000E-03 0.  1.
</event>
<event>
 8    1  0.1082757E+005  0.1043930E+01  0.7957747E-01            NaN
         13   -1    0    0    0    0  0.00000000000E+00  0.00000000000E+00  0.74505805969E-08  0.10566000000E+00  0.10566000000E+00 0. -1.
     999900   -1    0    0    0    0 -0.00000000000E+00 -0.00000000000E+00 -0.74505805969E-08  0.93827000000E+00  0.93827000000E+00 0. -1.
     999902    2    1    2    0    0  0.12105325469E-01 -0.19203818702E-01  0.54563782569E-02  0.10205826742E+01  0.10203155871E+01 0.  0.
     999903    2    3    3    0    0 -0.45346132663E-01 -0.12282496339E+00 -0.45578675816E-02  0.13258588549E+00  0.20396065661E-01 0.  0.
         14    1    1    2    0    0 -0.12105325469E-01  0.19203818702E-01 -0.54563782569E-02  0.23347325781E-01  0.00000000000E+00 0.  1.
     999901    1    3    3    0    0  0.57451458132E-01  0.10362114469E+00  0.10014245839E-01  0.88799678873E+00  0.88000000000E+00 0. -1.
        -11    1    4    4    0    0 -0.38121917606E-01 -0.75270527898E-01 -0.42468698473E-02  0.84482128267E-01  0.51100000000E-03 0. -1.
         11    1    4    4    0    0 -0.72242150573E-02 -0.47554435496E-01 -0.31099773426E-03  0.48103757225E-01  0.51100000000E-03 0.  1.
</event>
<event>
 8    1  0.1082757E+005  0.1043930E+01  0.7957747E-01            NaN
         13   -1    0    0    0    0  0.00000000000E+00  0.00000000000E+00  0.74505805969E-08  0.10566000000E+00  0.10566000000E+00 0. -1.
     999900   -1    0    0    0    0 -0.00000000000E+00 -0.00000000000E+00 -0.74505805969E-08  0.93827000000E+00  0.93827000000E+00 0.  1.
     999902    2    1    2    0    0  0.12708536315E-01  0.11138246306E-01 -0.16444675517E-01  0.10203504585E+01  0.10200779692E+01 0.  0.
     999903    2    3    3    0    0 -0.96872838365E-01  0.24442818593E-01 -0.82316350005E-01  0.13101128424E+00  0.20153831538E-01 0.  0.
         14    1    1    2    0    0 -0.12708536315E-01 -0.11138246306E-01  0.16444675517E-01  0.23579541533E-01  0.00000000000E+00 0. -1.
     999901    1    3    3    0    0  0.10958137468E+00 -0.13304572287E-01  0.65871674488E-01  0.88933917423E+00  0.88000000000E+00 0. -1.
        -11    1    4    4    0    0 -0.33079347348E-01  0.11583727314E-01 -0.40926900543E-01  0.53885974692E-01  0.51100000000E-03 0. -1.
         11    1    4    4    0    0 -0.63793491017E-01  0.12859091279E-01 -0.41389449462E-01  0.77125309545E-01  0.51100000000E-03 0.  1.
</event>
<event>
 8    1  0.1082757E+005  0.1043930E+01  0.7957747E-01            NaN
         13   -1    0    0    0    0  0.00000000000E+00  0.00000000000E+00  0.74505805969E-08  0.10566000000E+00  0.10566000000E+00 0. -1.
     999900   -1    0    0    0    0 -0.00000000000E+00 -0.00000000000E+00 -0.74505805969E-08  0.93827000000E+00  0.93827000000E+00 0. -1.
     999902    2    1    2    0    0 -0.38282542937E-02  0.23552143008E-01 -0.35341927558E-02  0.10198084435E+01  0.10195231296E+01 0.  0.
     999903    2    3    3    0    0 -0.71116381098E-01 -0.90191364930E-01  0.52957086349E-01  0.12814901172E+00  0.20632359090E-01 0.  0.
         14    1    1    2    0    0  0.38282542937E-02 -0.23552143008E-01  0.35341927558E-02  0.24121556534E-01  0.00000000000E+00 0.  1.
     999901    1    3    3    0    0  0.67288126805E-01  0.11374350794E+00 -0.56491279105E-01  0.89165943175E+00  0.88000000000E+00 0. -1.
        -11    1    4    4    0    0 -0.54781860811E-01 -0.54668999500E-01  0.31624499819E-01  0.83606948814E-01  0.51100000000E-03 0. -1.
         11    1    4    4    0    0 -0.16334520287E-01 -0.35522365431E-01  0.21332586530E-01  0.44542062906E-01  0.51100000000E-03 0.  1.
</event>
<event>
 8    1  0.1082757E+005  0.1043930E+01  0.7957747E-01            NaN
         13   -1    0    0    0    0  0.00000000000E+00  0.00000000000E+00  0.74505805969E-08  0.10566000000E+00  0.10566000000E+00 0.  1.
     999900   -1    0    0    0    0 -0.00000000000E+00 -0.00000000000E+00 -0.74505805969E-08  0.93827000000E+00  0.93827000000E+00 0. -1.
     999902    2    1    2    0    0 -0.11074896312E-01 -0.16045464352E-01 -0.14209862130E-01  0.10198046930E+01  0.10195192894E+01 0.  0.
     999903    2    3    3    0    0 -0.69744072966E-01 -0.19486872831E-01 -0.10929301432E+00  0.13273382697E+00  0.20720326190E-01 0.  0.
         14    1    1    2    0    0  0.11074896312E-01  0.16045464352E-01  0.14209862130E-01  0.24125306969E-01  0.00000000000E+00 0.  1.
     999901    1    3    3    0    0  0.58669176653E-01  0.34414084791E-02  0.95083152187E-01  0.88707086606E+00  0.88000000000E+00 0.  1.
        -11    1    4    4    0    0 -0.45872557779E-01 -0.38997631147E-02 -0.58050246121E-01  0.74091780281E-01  0.51100000000E-03 0.  1.
         11    1    4    4    0    0 -0.23871515186E-01 -0.15587109716E-01 -0.51242768197E-01  0.58642046690E-01  0.51100000000E-03 0. -1.
</event>
<event>
 8    1  0.1082757E+005  0.1043930E+01  0.7957747E-01            NaN
         13   -1    0    0    0    0  0.00000000000E+00  0.00000000000E+00  0.74505805969E-08  0.10566000000E+00  0.10566000000E+00 0.  1.
     999900   -1    0    0    0    0 -0.00000000000E+00 -0.00000000000E+00 -0.74505805969E-08  0.93827000000E+00  0.93827000000E+00 0.  1.
     999902    2    1    2    0    0 -0.51719624529E-02  0.21990823326E-01  0.72617421790E-02  0.10202007268E+01  0.10199247250E+01 0.  0.
     999903    2    3    3    0    0 -0.92377061016E-01  0.10399055641E-01  0.91349770684E-01  0.13182586516E+00  0.19789299147E-01 0.  0.
         14    1    1    2    0    0  0.51719624529E-02 -0.21990823326E-01 -0.72617421790E-02  0.23729273180E-01  0.00000000000E+00 0.  1.
     999901    1    3    3    0    0  0.87205098563E-01  0.11591767686E-01 -0.84088028505E-01  0.88837486166E+00  0.88000000000E+00 0.  1.
        -11    1    4    4    0    0 -0.44945229719E-01  0.14686964478E-01  0.42081355541E-01  0.63299938430E-01  0.51100000000E-03 0.  1.
         11    1    4    4    0    0 -0.47431831297E-01 -0.42879088373E-02  0.49268415142E-01  0.68525926729E-01  0.51100000000E-03 0. -1.
</event>
<event>
 8    1  0.1082757E+005  0.1043930E+01  0.7957747E-01            NaN
         13   -1    0    0    0    0  0.00000000000E+00  0.00000000000E+00  0.74505805969E-08  0.10566000000E+00  0.10566000000E+00 0. -1.
     999900   -1    0    0    0    0 -0.00000000000E+00 -0.00000000000E+00 -0.74505805969E-08  0.93827000000E+00  0.93827000000E+00 0. -1.
     999902    2    1    2    0    0 -0.13968875300E-01  0.10044420551E-01 -0.20121626131E-01  0.10174554896E+01  0.10171109938E+01 0.  0.
     999903    2    3    3    0    0  0.35509495404E-01  0.83906582202E-01 -0.90793638805E-01  0.13015719623E+00  0.19904071988E-01 0.  0.
         14    1    1    2    0    0  0.13968875300E-01 -0.10044420551E-01  0.20121626131E-01  0.26474510374E-01  0.00000000000E+00 0. -1.
     999901    1    3    3    0    0 -0.49478370705E-01 -0.73862161651E-01  0.70672012674E-01  0.88729829340E+00  0.88000000000E+00 0.  1.
        -11    1    4    4    0    0  0.24724810864E-01  0.75356703484E-01 -0.80089868380E-01  0.11271467150E+00  0.51100000000E-03 0. -1.
         11    1    4    4    0    0  0.10784684540E-01  0.85498787184E-02 -0.10703770425E-01  0.17442524732E-01  0.51100000000E-03 0.  1.
</event>
<event>
 8    1  0.1082757E+005  0.1043930E+01  0.7957747E-01            NaN
         13   -1    0    0    0    0  0.00000000000E+00  0.00000000000E+00  0.74505805969E-08  0.10566000000E+00  0.10566000000E+00 0. -1.
     999900   -1    0    0    0    0 -0.00000000000E+00 -0.00000000000E+00 -0.74505805969E-08  0.93827000000E+00  0.93827000000E+00 0. -1.
     999902    2    1    2    0    0 -0.19010226747E-02 -0.19405984331E-01 -0.12060775325E-01  0.10210025401E+01  0.10207450801E+01 0.  0.
     999903    2    3    3    0    0 -0.46597323635E-01 -0.12296946353E+00 -0.14635132742E-01  0.13379919203E+00  0.19880572115E-01 0.  0.
         14    1    1    2    0    0  0.19010226747E-02  0.19405984331E-01  0.12060775325E-01  0.22927459879E-01  0.00000000000E+00 0. -1.
     999901    1    3    3    0    0  0.44696300960E-01  0.10356347920E+00  0.25743574171E-02  0.88720334809E+00  0.88000000000E+00 0. -1.
        -11    1    4    4    0    0 -0.32174869008E-01 -0.57722246648E-01 -0.96874540828E-02  0.66792124097E-01  0.51100000000E-03 0.  1.
         11    1    4    4    0    0 -0.14422454626E-01 -0.65247216881E-01 -0.49476786595E-02  0.67007067936E-01  0.51100000000E-03 0. -1.
</event>
<event>
 8    1  0.1082757E+005  0.1043930E+01  0.7957747E-01            NaN
         13   -1    0    0    0    0  0.00000000000E+00  0.00000000000E+00  0.74505805969E-08  0.10566000000E+00  0.10566000000E+00 0.  1.
     999900   -1    0    0    0    0 -0.00000000000E+00 -0.00000000000E+00 -0.74505805969E-08  0.93827000000E+00  0.93827000000E+00 0. -1.
     999902    2    1    2    0    0 -0.26808922582E-02 -0.21186876430E-01  0.10915766762E-01  0.10199461538E+01  0.10196641269E+01 0.  0.
     999903    2    3    3    0    0  0.63162578985E-01 -0.18761411242E-01  0.11231242456E+00  0.13167675330E+00  0.19575104463E-01 0.  0.
         14    1    1    2    0    0  0.26808922582E-02  0.21186876430E-01 -0.10915766762E-01  0.23983846234E-01  0.00000000000E+00 0. -1.
     999901    1    3    3    0    0 -0.65843471243E-01 -0.24254651875E-02 -0.10139665780E+00  0.88826940046E+00  0.88000000000E+00 0. -1.
        -11    1    4    4    0    0 -0.12668825174E-02 -0.12721938787E-02  0.44282435839E-02  0.48056145097E-02  0.51100000000E-03 0.  1.
         11    1    4    4    0    0  0.64429461502E-01 -0.17489217364E-01  0.10788418097E+00  0.12687113879E+00  0.51100000000E-03 0. -1.
</event>
<event>
 8    1  0.1082757E+005  0.1043930E+01  0.7957747E-01            NaN
         13   -1    0    0    0    0  0.00000000000E+00  0.00000000000E+00  0.74505805969E-08  0.10566000000E+00  0.10566000000E+00 0. -1.
     999900   -1    0    0    0    0 -0.00000000000E+00 -0.00000000000E+00 -0.74505805969E-08  0.93827000000E+00  0.93827000000E+00 0.  1.
     999902    2    1    2    0    0 -0.14703657585E-01  0.13187660150E-01 -0.13123900218E-01  0.10202161078E+01  0.10199404678E+01 0.  0.
     999903    2    3    3    0    0  0.11851203344E+00 -0.43917073379E-01  0.71725892534E-02  0.12812905015E+00  0.19793838743E-01 0.  0.
         14    1    1    2    0    0  0.14703657585E-01 -0.13187660150E-01  0.13123900218E-01  0.23713892206E-01  0.00000000000E+00 0.  1.
     999901    1    3    3    0    0 -0.13321569102E+00  0.57104733529E-01 -0.20296489472E-01  0.89208705764E+00  0.88000000000E+00 0.  1.
        -11    1    4    4    0    0  0.56378847454E-01 -0.10522535177E-01  0.46588315839E-02  0.57543583652E-01  0.51100000000E-03 0.  1.
         11    1    4    4    0    0  0.62133185986E-01 -0.33394538202E-01  0.25137576696E-02  0.70585466501E-01  0.51100000000E-03 0. -1.
</event>
<event>
 8    1  0.1082757E+005  0.1043930E+01  0.7957747E-01            NaN
         13   -1    0    0    0    0  0.00000000000E+00  0.00000000000E+00  0.74505805969E-08  0.10566000000E+00  0.10566000000E+00 0.  1.
     999900   -1    0    0    0    0 -0.00000000000E+00 -0.00000000000E+00 -0.74505805969E-08  0.93827000000E+00  0.93827000000E+00 0.  1.
     999902    2    1    2    0    0 -0.19963124463E-01  0.94764933698E-02  0.12088285720E-01  0.10187415718E+01  0.10184301317E+01 0.  0.
     999903    2    3    3    0    0 -0.12975830840E+00 -0.80542299861E-02  0.81574663339E-02  0.13173663378E+00  0.19644520981E-01 0.  0.
         14    1    1    2    0    0  0.19963124463E-01 -0.94764933698E-02 -0.12088285720E-01  0.25188428227E-01  0.00000000000E+00 0.  1.
     999901    1    3    3    0    0  0.10979518393E+00  0.17530723356E-01  0.39308193859E-02  0.88700493799E+00  0.88000000000E+00 0. -1.
        -11    1    4    4    0    0 -0.88114979384E-01  0.17100898650E-02  0.11255072136E-01  0.88848814112E-01  0.51100000000E-03 0. -1.
         11    1    4    4    0    0 -0.41643329013E-01 -0.97643198511E-02 -0.30976058018E-02  0.42887819672E-01  0.51100000000E-03 0.  1.
</event>
<event>
 8    1  0.1082757E+005  0.1043930E+01  0.7957747E-01            NaN
         13   -1    0    0    0    0  0.00000000000E+00  0.00000000000E+00  0.74505805969E-08  0.10566000000E+00  0.10566000000E+00 0. -1.
     999900   -1    0    0    0    0 -0.00000000000E+00 -0.00000000000E+00 -0.74505805969E-08  0.93827000000E+00  0.93827000000E+00 0.  1.
     999902    2    1    2    0    0  0.18647628022E-01  0.11021016258E-01  0.56278973222E-02  0.10215498736E+01  0.10213046921E+01 0.  0.
     999903    2    3    3    0    0 -0.61028705704E-01  0.94212370724E-01  0.67219924266E-01  0.13190798080E+00  0.16754804160E-01 0.  0.
         14    1    1    2    0    0 -0.18647628022E-01 -0.11021016258E-01 -0.56278973222E-02  0.22380126418E-01  0.00000000000E+00 0.  1.
     999901    1    3    3    0    0  0.79676333726E-01 -0.83191354466E-01 -0.61592026944E-01  0.88964189278E+00  0.88000000000E+00 0.  1.
        -11    1    4    4    0    0 -0.14516458204E-01  0.31144589739E-01  0.27711200016E-01  0.44146174875E-01  0.51100000000E-03 0. -1.
         11    1    4    4    0    0 -0.46512247500E-01  0.63067780985E-01  0.39508724250E-01  0.87761805922E-01  0.51100000000E-03 0.  1.
</event>
<event>
 8    1  0.1173563E+005  0.1043930E+01  0.7957747E-01            NaN
         13   -1    0    0    0    0  0.00000000000E+00  0.00000000000E+00  0.74505805969E-08  0.10566000000E+00  0.10566000000E+00 0. -1.
     999900   -1    0    0    0    0 -0.00000000000E+00 -0.00000000000E+00 -0.74505805969E-08  0.93827000000E+00  0.93827000000E+00 0. -1.
     999902    2    1    2    0    0 -0.10019921378E-02 -0.35571526351E-02  0.23197178321E-01  0.10204402915E+01  0.10201698987E+01 0.  0.
     999903    2    3    3    0    0 -0.38744486958E-02 -0.10602267631E+00  0.77419565654E-01  0.13283255053E+00  0.19871539723E-01 0.  0.
         14    1    1    2    0    0  0.10019921378E-02  0.35571526351E-02 -0.23197178321E-01  0.23489708495E-01  0.00000000000E+00 0.  1.
     999901    1    3    3    0    0  0.28724565580E-02  0.10246552367E+00 -0.54222387333E-01  0.88760774097E+00  0.88000000000E+00 0. -1.
        -11    1    4    4    0    0  0.59982933942E-02 -0.77661372419E-01  0.56646783099E-01  0.96314004413E-01  0.51100000000E-03 0. -1.
         11    1    4    4    0    0 -0.98727420900E-02 -0.28361303887E-01  0.20772782555E-01  0.36518546119E-01  0.51100000000E-03 0.  1.
</event>
<event>
 8    1  0.1082757E+005  0.1043930E+01  0.7957747E-01            NaN
         13   -1    0    0    0    0  0.00000000000E+00  0.00000000000E+00  0.74505805969E-08  0.10566000000E+00  0.10566000000E+00 0. -1.
     999900   -1    0    0    0    0 -0.00000000000E+00 -0.00000000000E+00 -0.74505805969E-08  0.93827000000E+00  0.93827000000E+00 0.  1.
     999902    2    1    2    0    0  0.10898357945E-01  0.13885142662E-01  0.14894012075E-01  0.10208344812E+01  0.10205731895E+01 0.  0.
     999903    2    3    3    0    0  0.54147525628E-01  0.35342672334E-01 -0.11138267441E+00  0.13051054149E+00  0.21114977176E-01 0.  0.
         14    1    1    2    0    0 -0.10898357945E-01 -0.13885142662E-01 -0.14894012075E-01  0.23095518793E-01  0.00000000000E+00 0.  1.
     999901    1    3    3    0    0 -0.43249167683E-01 -0.21457529672E-01  0.12627668649E+00  0.89032393972E+00  0.88000000000E+00 0. -1.
        -11    1    4    4    0    0  0.24525214606E-02 -0.15437001466E-02 -0.13596872086E-01  0.13911647033E-01  0.51100000000E-03 0.  1.
         11    1    4    4    0    0  0.51695004167E-01  0.36886372481E-01 -0.97785802326E-01  0.11659889446E+00  0.51100000000E-03 0. -1.
</event>
<event>
 8    1  0.1082757E+005  0.1043930E+01  0.7957747E-01            NaN
         13   -1    0    0    0    0  0.00000000000E+00  0.00000000000E+00  0.74505805969E-08  0.10566000000E+00  0.10566000000E+00 0. -1.
     999900   -1    0    0    0    0 -0.00000000000E+00 -0.00000000000E+00 -0.74505805969E-08  0.93827000000E+00  0.93827000000E+00 0.  1.
     999902    2    1    2    0    0  0.12119710992E-01  0.94637135463E-02 -0.18742861650E-01  0.10196865652E+01  0.10193983260E+01 0.  0.
     999903    2    3    3    0    0 -0.91129436492E-01 -0.71834158574E-01  0.48840517543E-01  0.12736529815E+00  0.19282180521E-01 0.  0.
         14    1    1    2    0    0 -0.12119710992E-01 -0.94637135463E-02  0.18742861650E-01  0.24243434811E-01  0.00000000000E+00 0. -1.
     999901    1    3    3    0    0  0.10324914748E+00  0.81297872120E-01 -0.67583379193E-01  0.89232126704E+00  0.88000000000E+00 0. -1.
        -11    1    4    4    0    0 -0.70197797330E-01 -0.61653700592E-01  0.45240605129E-01  0.10380695073E+00  0.51100000000E-03 0.  1.
         11    1    4    4    0    0 -0.20931639161E-01 -0.10180457982E-01  0.35999124137E-02  0.23558347419E-01  0.51100000000E-03 0. -1.
</event>
<event>
 8    1  0.1082757E+005  0.1043930E+01  0.7957747E-01            NaN
         13   -1    0    0    0    0  0.00000000000E+00  0.00000000000E+00  0.74505805969E-08  0.10566000000E+00  0.10566000000E+00 0.  1.
     999900   -1    0    0    0    0 -0.00000000000E+00 -0.00000000000E+00 -0.74505805969E-08  0.93827000000E+00  0.93827000000E+00 0. -1.
     999902    2    1    2    0    0  0.20029939715E-01  0.78244417859E-02  0.11874787635E-01  0.10193651683E+01  0.10190691416E+01 0.  0.
     999903    2    3    3    0    0  0.67519318033E-01  0.11128836092E+00  0.78918812268E-02  0.13202313327E+00  0.20588063173E-01 0.  0.
         14    1    1    2    0    0 -0.20029939715E-01 -0.78244417859E-02 -0.11874787635E-01  0.24564831683E-01  0.00000000000E+00 0. -1.
     999901    1    3    3    0    0 -0.47489378317E-01 -0.10346391914E+00  0.39829064083E-02  0.88734203505E+00  0.88000000000E+00 0. -1.
        -11    1    4    4    0    0  0.41481480612E-01  0.55616139887E-01  0.12040429855E-01  0.70420886971E-01  0.51100000000E-03 0. -1.
         11    1    4    4    0    0  0.26037837420E-01  0.55672221034E-01 -0.41485486286E-02  0.61602246299E-01  0.51100000000E-03 0.  1.
</event>
<event>
 8    1  0.1082757E+005  0.1043930E+01  0.7957747E-01            NaN
         13   -1    0    0    0    0  0.00000000000E+00  0.00000000000E+00  0.74505805969E-08  0.10566000000E+00  0.10566000000E+00 0.  1.
     999900   -1    0    0    0    0 -0.00000000000E+00 -0.00000000000E+00 -0.74505805969E-08  0.93827000000E+00  0.93827000000E+00 0. -1.
     999902    2    1    2    0    0  0.15727748474E-01  0.67167183826E-03  0.19509360535E-01  0.10188615265E+01  0.10185530825E+01 0.  0.
     999903    2    3    3    0    0 -0.62744244468E-01  0.69028285434E-01  0.88331772940E-01  0.13006064624E+00  0.20286083560E-01 0.  0.
         14    1    1    2    0    0 -0.15727748474E-01 -0.67167183826E-03 -0.19509360535E-01  0.25068473500E-01  0.00000000000E+00 0. -1.
     999901    1    3    3    0    0  0.78471992942E-01 -0.68356613596E-01 -0.68822412405E-01  0.88880088026E+00  0.88000000000E+00 0.  1.
        -11    1    4    4    0    0 -0.22699178193E-01  0.15636290150E-01  0.17073262695E-01  0.32426897482E-01  0.51100000000E-03 0.  1.
         11    1    4    4    0    0 -0.40045066275E-01  0.53391995284E-01  0.71258510246E-01  0.97633748759E-01  0.51100000000E-03 0. -1.
</event>
<event>
 8    1  0.1082757E+005  0.1043930E+01  0.7957747E-01            NaN
         13   -1    0    0    0    0  0.00000000000E+00  0.00000000000E+00  0.74505805969E-08  0.10566000000E+00  0.10566000000E+00 0.  1.
     999900   -1    0    0    0    0 -0.00000000000E+00 -0.00000000000E+00 -0.74505805969E-08  0.93827000000E+00  0.93827000000E+00 0. -1.
     999902    2    1    2    0    0  0.10870673025E-01  0.94074845515E-02  0.25118035434E-01  0.10149888873E+01  0.10145761940E+01 0.  0.
     999903    2    3    3    0    0  0.83901506646E-01 -0.85272266809E-01 -0.34299429382E-01  0.12491687166E+00  0.10814419349E-01 0.  0.
         14    1    1    2    0    0 -0.10870673025E-01 -0.94074845515E-02 -0.25118035434E-01  0.28941112654E-01  0.00000000000E+00 0.  1.
     999901    1    3    3    0    0 -0.73030833620E-01  0.94679751361E-01  0.59417464816E-01  0.89007201568E+00  0.88000000000E+00 0.  1.
        -11    1    4    4    0    0  0.21948758492E-01 -0.18284535408E-01 -0.11977699449E-01  0.30980617158E-01  0.51100000000E-03 0. -1.
         11    1    4    4    0    0  0.61952748154E-01 -0.66987731401E-01 -0.22321729933E-01  0.93936254504E-01  0.51100000000E-03 0.  1.
</event>
<event>
 8    1  0.1082757E+005  0.1043930E+01  0.7957747E-01            NaN
         13   -1    0    0    0    0  0.00000000000E+00  0.00000000000E+00  0.74505805969E-08  0.10566000000E+00  0.10566000000E+00 0.  1.
     999900   -1    0    0    0    0 -0.00000000000E+00 -0.00000000000E+00 -0.74505805969E-08  0.93827000000E+00  0.93827000000E+00 0. -1.
     999902    2    1    2    0    0 -0.80369796676E-02  0.17032967128E-01 -0.12282309802E-01  0.10214451130E+01  0.10211976051E+01 0.  0.
     999903    2    3    3    0    0 -0.10085765658E+00 -0.33844812491E-01  0.73783653781E-01  0.13093313852E+00  0.19537680880E-01 0.  0.
         14    1    1    2    0    0  0.80369796676E-02 -0.17032967128E-01  0.12282309802E-01  0.22484887045E-01  0.00000000000E+00 0.  1.
     999901    1    3    3    0    0  0.92820676914E-01  0.50877779619E-01 -0.86065963582E-01  0.89051197443E+00  0.88000000000E+00 0. -1.
        -11    1    4    4    0    0 -0.41370500360E-01 -0.45915571430E-02  0.24222808639E-01  0.48162291021E-01  0.51100000000E-03 0.  1.
         11    1    4    4    0    0 -0.59487156222E-01 -0.29253255348E-01  0.49560845141E-01  0.82770847500E-01  0.51100000000E-03 0. -1.
</event>
<event>
 8    1  0.1082757E+005  0.1043930E+01  0.7957747E-01            NaN
         13   -1    0    0    0    0  0.00000000000E+00  0.00000000000E+00  0.74505805969E-08  0.10566000000E+00  0.10566000000E+00 0.  1.
     999900   -1    0    0    0    0 -0.00000000000E+00 -0.00000000000E+00 -0.74505805969E-08  0.93827000000E+00  0.93827000000E+00 0.  1.
     999902    2    1    2    0    0 -0.14863629603E-01 -0.90532741029E-02 -0.14578044354E-01  0.10212273871E+01  0.10209750082E+01 0.  0.
     999903    2    3    3    0    0  0.37161229978E-01  0.12273541616E+00 -0.40595488573E-02  0.12983214160E+00  0.19873743002E-01 0.  0.
         14    1    1    2    0    0  0.14863629603E-01  0.90532741029E-02  0.14578044354E-01  0.22702612937E-01  0.00000000000E+00 0.  1.
     999901    1    3    3    0    0 -0.52024859581E-01 -0.13178869026E+00 -0.10518495497E-01  0.89139524547E+00  0.88000000000E+00 0. -1.
        -11    1    4    4    0    0  0.26457758296E-01  0.10887313064E+00 -0.60024486788E-02  0.11220366331E+00  0.51100000000E-03 0.  1.
         11    1    4    4    0    0  0.10703471681E-01  0.13862285518E-01  0.19428998216E-02  0.17628478282E-01  0.51100000000E-03 0. -1.
</event>
<event>
 8    1  0.1082757E+005  0.1043930E+01  0.7957747E-01            NaN
         13   -1    0    0    0    0  0.00000000000E+00  0.00000000000E+00  0.74505805969E-08  0.10566000000E+00  0.10566000000E+00 0.  1.
     999900   -1    0    0    0    0 -0.00000000000E+00 -0.00000000000E+00 -0.74505805969E-08  0.93827000000E+00  0.93827000000E+00 0. -1.
     999902    2    1    2    0    0 -0.21309575308E-01 -0.61678649692E-02  0.78551295018E-02  0.10203961177E+01  0.10201246950E+01 0.  0.
     999903    2    3    3    0    0  0.10428980453E+00 -0.60685180038E-01  0.41478370272E-01  0.12917343832E+00  0.20156080039E-01 0.  0.
         14    1    1    2    0    0  0.21309575308E-01  0.61678649692E-02 -0.78551295018E-02  0.23533882331E-01  0.00000000000E+00 0.  1.
     999901    1    3    3    0    0 -0.12559937984E+00  0.54517315069E-01 -0.33623240771E-01  0.89122267934E+00  0.88000000000E+00 0. -1.
        -11    1    4    4    0    0  0.43071187201E-01 -0.21419112317E-01  0.26479187022E-01  0.54911874906E-01  0.51100000000E-03 0. -1.
         11    1    4    4    0    0  0.61218617331E-01 -0.39266067721E-01  0.14999183251E-01  0.74261563418E-01  0.51100000000E-03 0.  1.
</event>
<event>
 8    1  0.1082757E+005  0.1043930E+01  0.7957747E-01            NaN
         13   -1    0    0    0    0  0.00000000000E+00  0.00000000000E+00  0.74505805969E-08  0.10566000000E+00  0.10566000000E+00 0.  1.
     999900   -1    0    0    0    0 -0.00000000000E+00 -0.00000000000E+00 -0.74505805969E-08  0.93827000000E+00  0.93827000000E+00 0.  1.
     999902    2    1    2    0    0  0.10381425641E-01  0.13339916199E-01 -0.16474615019E-01  0.10203261803E+01  0.10200531231E+01 0.  0.
     999903    2    3    3    0    0  0.79764376000E-01  0.98839555548E-01 -0.35187044209E-01  0.13326680401E+00  0.19756000380E-01 0.  0.
         14    1    1    2    0    0 -0.10381425641E-01 -0.13339916199E-01  0.16474615019E-01  0.23603819660E-01  0.00000000000E+00 0.  1.
     999901    1    3    3    0    0 -0.69382950359E-01 -0.85499639350E-01  0.18712429190E-01  0.88705937633E+00  0.88000000000E+00 0.  1.
        -11    1    4    4    0    0  0.10963707516E-01  0.57156154879E-02 -0.65191741085E-02  0.13986847213E-01  0.51100000000E-03 0. -1.
         11    1    4    4    0    0  0.68800668484E-01  0.93123940060E-01 -0.28667870101E-01  0.11927995680E+00  0.51100000000E-03 0.  1.
</event>
<event>
 8    1  0.1082757E+005  0.1043930E+01  0.7957747E-01            NaN
         13   -1    0    0    0    0  0.00000000000E+00  0.00000000000E+00  0.74505805969E-08  0.10566000000E+00  0.10566000000E+00 0. -1.
     999900   -1    0    0    0    0 -0.00000000000E+00 -0.00000000000E+00 -0.74505805969E-08  0.93827000000E+00  0.93827000000E+00 0. -1.
     999902    2    1    2    0    0 -0.61818917906E-03  0.10064436610E-01 -0.22488128614E-01  0.10192846968E+01  0.10189867036E+01 0.  0.
     999903    2    3    3    0    0 -0.70263875861E-01 -0.10332687839E+00 -0.26769363734E-01  0.12926984243E+00  0.19509927714E-01 0.  0.
         14    1    1    2    0    0  0.61818917906E-03 -0.10064436610E-01  0.22488128614E-01  0.24645303218E-01  0.00000000000E+00 0. -1.
     999901    1    3    3    0    0  0.69645686682E-01  0.11339131500E+00  0.42812351196E-02  0.89001485435E+00  0.88000000000E+00 0. -1.
        -11    1    4    4    0    0 -0.22866195669E-01 -0.30033799739E-01  0.72108617001E-03  0.37758086782E-01  0.51100000000E-03 0.  1.
         11    1    4    4    0    0 -0.47397680192E-01 -0.73293078647E-01 -0.27490449904E-01  0.91511755650E-01  0.51100000000E-03 0. -1.
</event>
<event>
 8    1  0.1082757E+005  0.1043930E+01  0.7957747E-01            NaN
         13   -1    0    0    0    0  0.00000000000E+00  0.00000000000E+00  0.74505805969E-08  0.10566000000E+00  0.10566000000E+00 0. -1.
     999900   -1    0    0    0    0 -0.00000000000E+00 -0.00000000000E+00 -0.74505805969E-08  0.93827000000E+00  0.93827000000E+00 0. -1.
     999902    2    1    2    0    0  0.92679369942E-02  0.93949740899E-02  0.20165274821E-01  0.10198302385E+01  0.10195454462E+01 0.  0.
     999903    2    3    3    0    0  0.81287314223E-01  0.22040859825E-01 -0.95901384454E-01  0.12920226989E+00  0.20067985703E-01 0.  0.
         14    1    1    2    0    0 -0.92679369942E-02 -0.93949740899E-02 -0.20165274821E-01  0.24099761469E-01  0.00000000000E+00 0.  1.
     999901    1    3    3    0    0 -0.72019377228E-01 -0.12645885735E-01  0.11606665928E+00  0.89062796864E+00  0.88000000000E+00 0.  1.
        -11    1    4    4    0    0  0.36462312208E-01  0.47145844998E-04 -0.36374999459E-01  0.51506350491E-01  0.51100000000E-03 0.  1.
         11    1    4    4    0    0  0.44825002014E-01  0.21993713980E-01 -0.59526384996E-01  0.77695919403E-01  0.51100000000E-03 0. -1.
</event>
<event>
 8    1  0.1082757E+005  0.1043930E+01  0.7957747E-01            NaN
         13   -1    0    0    0    0  0.00000000000E+00  0.00000000000E+00  0.74505805969E-08  0.10566000000E+00  0.10566000000E+00 0.  1.
     999900   -1    0    0    0    0 -0.00000000000E+00 -0.00000000000E+00 -0.74505805969E-08  0.93827000000E+00  0.93827000000E+00 0. -1.
     999902    2    1    2    0    0 -0.12968135184E-01  0.13800923132E-02 -0.19168025197E-01  0.10207461613E+01  0.10204828443E+01 0.  0.
     999903    2    3    3    0    0 -0.11269532095E+00 -0.49542422487E-01  0.41872287685E-01  0.13155296867E+00  0.19955152260E-01 0.  0.
         14    1    1    2    0    0  0.12968135184E-01 -0.13800923132E-02  0.19168025197E-01  0.23183838658E-01  0.00000000000E+00 0.  1.
     999901    1    3    3    0    0  0.99727185761E-01  0.50922514800E-01 -0.61040312882E-01  0.88919319267E+00  0.88000000000E+00 0. -1.
        -11    1    4    4    0    0 -0.10394264836E+00 -0.39076962347E-01  0.36715816470E-01  0.11695894765E+00  0.51100000000E-03 0. -1.
         11    1    4    4    0    0 -0.87526725844E-02 -0.10465460140E-01  0.51564712144E-02  0.14594021026E-01  0.51100000000E-03 0.  1.
</event>
<event>
 8    1  0.1082757E+005  0.1043930E+01  0.7957747E-01            NaN
         13   -1    0    0    0    0  0.00000000000E+00  0.00000000000E+00  0.74505805969E-08  0.10566000000E+00  0.10566000000E+00 0. -1.
     999900   -1    0    0    0    0 -0.00000000000E+00 -0.00000000000E+00 -0.74505805969E-08  0.93827000000E+00  0.93827000000E+00 0. -1.
     999902    2    1    2    0    0 -0.22955808259E-01  0.34432500906E-02  0.12948957585E-01  0.10173499209E+01  0.10170026356E+01 0.  0.
     999903    2    3    3    0    0  0.11233605740E+00 -0.11349910444E-02  0.53974499049E-01  0.12605426607E+00  0.18861427624E-01 0.  0.
         14    1    1    2    0    0  0.22955808259E-01 -0.34432500906E-02 -0.12948957585E-01  0.26580079130E-01  0.00000000000E+00 0. -1.
     999901    1    3    3    0    0 -0.13529186566E+00  0.45782411351E-02 -0.41025541463E-01  0.89129565480E+00  0.88000000000E+00 0. -1.
        -11    1    4    4    0    0  0.93564214204E-01  0.60097756228E-02  0.42822664611E-01  0.10307483353E+00  0.51100000000E-03 0. -1.
         11    1    4    4    0    0  0.18771843192E-01 -0.71447666672E-02  0.11151834438E-01  0.22979432541E-01  0.51100000000E-03 0.  1.
</event>
<event>
 8    1  0.1082757E+005  0.1043930E+01  0.7957747E-01            NaN
         13   -1    0    0    0    0  0.00000000000E+00  0.00000000000E+00  0.74505805969E-08  0.10566000000E+00  0.10566000000E+00 0.  1.
     999900   -1    0    0    0    0 -0.00000000000E+00 -0.00000000000E+00 -0.74505805969E-08  0.93827000000E+00  0.93827000000E+00 0. -1.
     999902    2    1    2    0    0  0.76367444736E-02 -0.38845836828E-02  0.22649348490E-01  0.10197142439E+01  0.10194266704E+01 0.  0.
     999903    2    3    3    0    0 -0.58635898266E-02  0.41289134273E-01  0.12426252549E+00  0.13261325666E+00  0.20147612931E-01 0.  0.
         14    1    1    2    0    0 -0.76367444736E-02  0.38845836828E-02 -0.22649348490E-01  0.24215756101E-01  0.00000000000E+00 0. -1.
     999901    1    3    3    0    0  0.13500334300E-01 -0.45173717955E-01 -0.10161317700E+00  0.88710098724E+00  0.88000000000E+00 0. -1.
        -11    1    4    4    0    0 -0.48887625643E-02  0.38626886173E-01  0.87920415550E-01  0.96157147037E-01  0.51100000000E-03 0.  1.
         11    1    4    4    0    0 -0.97482726229E-03  0.26622480998E-02  0.36342109938E-01  0.36456109623E-01  0.51100000000E-03 0. -1.
</event>
<event>
 8    1  0.1082757E+005  0.1043930E+01  0.7957747E-01            NaN
         13   -1    0    0    0    0  0.00000000000E+00  0.00000000000E+00  0.74505805969E-08  0.10566000000E+00  0.10566000000E+00 0. -1.
     999900   -1    0    0    0    0 -0.00000000000E+00 -0.00000000000E+00 -0.74505805969E-08  0.93827000000E+00  0.93827000000E+00 0. -1.
     999902    2    1    2    0    0  0.17470253143E-01  0.14982734162E-01  0.37671360675E-02  0.10206086925E+01  0.10203422072E+01 0.  0.
     999903    2    3    3    0    0 -0.42857150387E-01  0.11136318086E+00  0.52673260695E-01  0.13194655474E+00  0.19923040069E-01 0.  0.
         14    1    1    2    0    0 -0.17470253143E-01 -0.14982734162E-01 -0.37671360675E-02  0.23321307468E-01  0.00000000000E+00 0.  1.
     999901    1    3    3    0    0  0.60327403531E-01 -0.96380446693E-01 -0.48906124628E-01  0.88866213779E+00  0.88000000000E+00 0.  1.
        -11    1    4    4    0    0 -0.55463342071E-02  0.32599607925E-01  0.21194807028E-01  0.39280748796E-01  0.51100000000E-03 0.  1.
         11    1    4    4    0    0 -0.37310816180E-01  0.78763572930E-01  0.31478453667E-01  0.92665805943E-01  0.51100000000E-03 0. -1.
</event>
<event>
 8    1  0.1082757E+005  0.1043930E+01  0.7957747E-01            NaN
         13   -1    0    0    0    0  0.00000000000E+00  0.00000000000E+00  0.74505805969E-08  0.10566000000E+00  0.10566000000E+00 0.  1.
     999900   -1    0    0    0    0 -0.00000000000E+00 -0.00000000000E+00 -0.74505805969E-08  0.93827000000E+00  0.93827000000E+00 0. -1.
     999902    2    1    2    0    0  0.14047463245E-02 -0.16716147381E-01 -0.17294681514E-01  0.10198362476E+01  0.10195515990E+01 0.  0.
     999903    2    3    3    0    0  0.15275015962E-01 -0.12217711438E+00  0.41399169463E-01  0.13148982415E+00  0.20374229577E-01 0.  0.
         14    1    1    2    0    0 -0.14047463245E-02  0.16716147381E-01  0.17294681514E-01  0.24093752389E-01  0.00000000000E+00 0.  1.
     999901    1    3    3    0    0 -0.13870269638E-01  0.10546096700E+00 -0.58693850977E-01  0.88834642346E+00  0.88000000000E+00 0. -1.
        -11    1    4    4    0    0  0.67929839353E-02 -0.12695026206E-01  0.90454530782E-02  0.17011456831E-01  0.51100000000E-03 0.  1.
         11    1    4    4    0    0  0.84820320268E-02 -0.10948208817E+00  0.32353716385E-01  0.11447836732E+00  0.51100000000E-03 0. -1.
</event>
<event>
 8    1  0.1082757E+005  0.1043930E+01  0.7957747E-01            NaN
         13   -1    0    0    0    0  0.00000000000E+00  0.00000000000E+00  0.74505805969E-08  0.10566000000E+00  0.10566000000E+00 0. -1.
     999900   -1    0    0    0    0 -0.00000000000E+00 -0.00000000000E+00 -0.74505805969E-08  0.93827000000E+00  0.93827000000E+00 0. -1.
     999902    2    1    2    0    0 -0.15475882117E-01  0.14186245955E-01  0.10941828673E-01  0.10202556232E+01  0.10199809119E+01 0.  0.
     999903    2    3    3    0    0  0.13317504090E-01 -0.12572731668E+00 -0.12077864115E-01  0.12844018807E+00  0.19138783540E-01 0.  0.
         14    1    1    2    0    0  0.15475882117E-01 -0.14186245955E-01 -0.10941828673E-01  0.23674376788E-01  0.00000000000E+00 0.  1.
     999901    1    3    3    0    0 -0.28793386207E-01  0.13991356264E+00  0.23019692788E-01  0.89181543514E+00  0.88000000000E+00 0.  1.
        -11    1    4    4    0    0 -0.18997606893E-02 -0.64905678150E-01 -0.10052791324E-01  0.65709024351E-01  0.51100000000E-03 0.  1.
         11    1    4    4    0    0  0.15217264779E-01 -0.60821638531E-01 -0.20250727912E-02  0.62731163721E-01  0.51100000000E-03 0. -1.
</event>
<event>
 8    1  0.1082757E+005  0.1043930E+01  0.7957747E-01            NaN
         13   -1    0    0    0    0  0.00000000000E+00  0.00000000000E+00  0.74505805969E-08  0.10566000000E+00  0.10566000000E+00 0. -1.
     999900   -1    0    0    0    0 -0.00000000000E+00 -0.00000000000E+00 -0.74505805969E-08  0.93827000000E+00  0.93827000000E+00 0. -1.
     999902    2    1    2    0    0 -0.49803586282E-02  0.13548519599E-01 -0.18078309334E-01  0.10207957910E+01  0.10205336131E+01 0.  0.
     999903    2    3    3    0    0 -0.11206076414E+00  0.51950504552E-01 -0.45120928479E-01  0.13306146765E+00  0.20322061994E-01 0.  0.
         14    1    1    2    0    0  0.49803586282E-02 -0.13548519599E-01  0.18078309334E-01  0.23134208951E-01  0.00000000000E+00 0.  1.
     999901    1    3    3    0    0  0.10708040551E+00 -0.38401984952E-01  0.27042619144E-01  0.88773432340E+00  0.88000000000E+00 0. -1.
        -11    1    4    4    0    0 -0.82516859987E-01  0.40820436112E-01 -0.24220428611E-01  0.95195748170E-01  0.51100000000E-03 0. -1.
         11    1    4    4    0    0 -0.29543904151E-01  0.11130068440E-01 -0.20900499868E-01  0.37865719479E-01  0.51100000000E-03 0.  1.
</event>
<event>
 8    1  0.1082757E+005  0.1043930E+01  0.7957747E-01            NaN
         13   -1    0    0    0    0  0.00000000000E+00  0.00000000000E+00  0.74505805969E-08  0.10566000000E+00  0.10566000000E+00 0.  1.
     999900   -1    0    0    0    0 -0.00000000000E+00 -0.00000000000E+00 -0.74505805969E-08  0.93827000000E+00  0.93827000000E+00 0.  1.
     999902    2    1    2    0    0 -0.71042922935E-02  0.24380559785E-01 -0.52699567023E-02  0.10179944046E+01  0.10176639685E+01 0.  0.
     999903    2    3    3    0    0  0.11234221778E+00 -0.21593601563E-01  0.51448023282E-01  0.12692873838E+00  0.19415148794E-01 0.  0.
         14    1    1    2    0    0  0.71042922935E-02 -0.24380559785E-01  0.52699567023E-02  0.25935595387E-01  0.00000000000E+00 0. -1.
     999901    1    3    3    0    0 -0.11944651008E+00  0.45974161348E-01 -0.56717979984E-01  0.89106566623E+00  0.88000000000E+00 0. -1.
        -11    1    4    4    0    0  0.87582162545E-01 -0.99722367191E-02  0.33986701242E-01  0.94474534577E-01  0.51100000000E-03 0.  1.
         11    1    4    4    0    0  0.24760055239E-01 -0.11621364844E-01  0.17461322040E-01  0.32454203806E-01  0.51100000000E-03 0. -1.
</event>
<event>
 8    1  0.1082757E+005  0.1043930E+01  0.7957747E-01            NaN
         13   -1    0    0    0    0  0.00000000000E+00  0.00000000000E+00  0.74505805969E-08  0.10566000000E+00  0.10566000000E+00 0. -1.
     999900   -1    0    0    0    0 -0.00000000000E+00 -0.00000000000E+00 -0.74505805969E-08  0.93827000000E+00  0.93827000000E+00 0. -1.
     999902    2    1    2    0    0  0.48651460091E-02 -0.36152527652E-02  0.22654561494E-01  0.10204785852E+01  0.10202090835E+01 0.  0.
     999903    2    3    3    0    0  0.39692717923E-01  0.11780079533E+00 -0.31513798246E-01  0.12981084264E+00  0.20129484559E-01 0.  0.
         14    1    1    2    0    0 -0.48651460091E-02  0.36152527652E-02 -0.22654561494E-01  0.23451414770E-01  0.00000000000E+00 0.  1.
     999901    1    3    3    0    0 -0.34827571914E-01 -0.12141604810E+00  0.54168359740E-01  0.89066774259E+00  0.88000000000E+00 0.  1.
        -11    1    4    4    0    0  0.25753492107E-01  0.53096840312E-01 -0.21793608820E-01  0.62910565991E-01  0.51100000000E-03 0. -1.
         11    1    4    4    0    0  0.13939225816E-01  0.64703955021E-01 -0.97201894260E-02  0.66900276645E-01  0.51100000000E-03 0.  1.
</event>
<event>
 8    1  0.1082757E+005  0.1043930E+01  0.7957747E-01            NaN
         13   -1    0    0    0    0  0.00000000000E+00  0.00000000000E+00  0.74505805969E-08  0.10566000000E+00  0.10566000000E+00 0. -1.
     999900   -1    0    0    0    0 -0.00000000000E+00 -0.00000000000E+00 -0.74505805969E-08  0.93827000000E+00  0.93827000000E+00 0. -1.
     999902    2    1    2    0    0 -0.14495504716E-01  0.17907773078E-01  0.82672925207E-03  0.10208759011E+01  0.10206155564E+01 0.  0.
     999903    2    3    3    0    0 -0.70211633152E-02 -0.67126053735E-01  0.10954320122E+00  0.13008642613E+00  0.19171893630E-01 0.  0.
         14    1    1    2    0    0  0.14495504716E-01 -0.17907773078E-01 -0.82672925207E-03  0.23054098873E-01  0.00000000000E+00 0.  1.
     999901    1    3    3    0    0 -0.74743414004E-02  0.85033826813E-01 -0.10871647197E+00  0.89078947499E+00  0.88000000000E+00 0. -1.
        -11    1    4    4    0    0 -0.12427721755E-01 -0.56033378386E-01  0.84316936074E-01  0.10199899309E+00  0.51100000000E-03 0. -1.
         11    1    4    4    0    0  0.54065584399E-02 -0.11092675349E-01  0.25226265150E-01  0.28087433044E-01  0.51100000000E-03 0.  1.
</event>
<event>
 8    1  0.1082757E+005  0.1043930E+01  0.7957747E-01            NaN
         13   -1    0    0    0    0  0.00000000000E+00  0.00000000000E+00  0.74505805969E-08  0.10566000000E+00  0.10566000000E+00 0. -1.
     999900   -1    0    0    0    0 -0.00000000000E+00 -0.00000000000E+00 -0.74505805969E-08  0.93827000000E+00  0.93827000000E+00 0. -1.
     999902    2    1    2    0    0 -0.24105417438E-02  0.24564863270E-01 -0.26418840529E-02  0.10191061653E+01  0.10188037855E+01 0.  0.
     999903    2    3    3    0    0  0.12349866297E+00  0.21842296386E-01  0.26015742472E-01  0.12967837183E+00  0.20264639040E-01 0.  0.
         14    1    1    2    0    0  0.24105417438E-02 -0.24564863270E-01  0.26418840529E-02  0.24823834723E-01  0.00000000000E+00 0. -1.
     999901    1    3    3    0    0 -0.12590920472E+00  0.27225668849E-02 -0.28657626525E-01  0.88942779345E+00  0.88000000000E+00 0. -1.
        -11    1    4    4    0    0  0.91446914476E-01  0.12278239536E-01  0.27233539300E-01  0.96204054577E-01  0.51100000000E-03 0.  1.
         11    1    4    4    0    0  0.32051748499E-01  0.95640568498E-02 -0.12177968271E-02  0.33474317250E-01  0.51100000000E-03 0. -1.
</event>
<event>
 8    1  0.1082757E+005  0.1043930E+01  0.7957747E-01            NaN
         13   -1    0    0    0    0  0.00000000000E+00  0.00000000000E+00  0.74505805969E-08  0.10566000000E+00  0.10566000000E+00 0. -1.
     999900   -1    0    0    0    0 -0.00000000000E+00 -0.00000000000E+00 -0.74505805969E-08  0.93827000000E+00  0.93827000000E+00 0. -1.
     999902    2    1    2    0    0  0.20783805440E-02 -0.11041365411E-01  0.19730166858E-01  0.10212251349E+01  0.10209727054E+01 0.  0.
     999903    2    3    3    0    0 -0.67953931516E-01 -0.10908322545E+00 -0.25026317325E-01  0.13188837418E+00  0.15853699980E-01 0.  0.
         14    1    1    2    0    0 -0.20783805440E-02  0.11041365411E-01 -0.19730166858E-01  0.22704865118E-01  0.00000000000E+00 0.  1.
     999901    1    3    3    0    0  0.70032312060E-01  0.98041860039E-01  0.44756484183E-01  0.88933676070E+00  0.88000000000E+00 0.  1.
        -11    1    4    4    0    0 -0.35711547433E-01 -0.46517666348E-01 -0.16904569884E-01  0.61034691008E-01  0.51100000000E-03 0.  1.
         11    1    4    4    0    0 -0.32242384083E-01 -0.62565559101E-01 -0.81217474409E-02  0.70853683175E-01  0.51100000000E-03 0. -1.
</event>
<event>
 7    1  0.1082757E+005  0.1043930E+01  0.7957747E-01            NaN
         13   -1    0    0    0    0  0.00000000000E+00  0.00000000000E+00  0.74505805969E-08  0.10566000000E+00  0.10566000000E+00 0. -1.
     999900   -1    0    0    0    0 -0.00000000000E+00 -0.00000000000E+00 -0.74505805969E-08  0.93827000000E+00  0.93827000000E+00 0.  1.
     999902    2    1    2    0    0 -0.89070530760E-02 -0.29486947212E-02 -0.21588641169E-01  0.10203906750E+01  0.10201191253E+01 0.  0.
         14    1    1    2    0    0  0.89070530760E-02  0.29486947212E-02  0.21588641169E-01  0.23539325024E-01  0.00000000000E+00 0. -1.
     999901    1    3    3    0    0  0.50259003288E-01 -0.10275009657E+00 -0.65613719405E-01  0.88982510075E+00  0.88000000000E+00 0.  1.
        -11    1    3    3    0    0 -0.15708875534E-01  0.63464408506E-01  0.15751065000E-01  0.67252190204E-01  0.51100000000E-03 0. -1.
         11    1    3    3    0    0 -0.43457180829E-01  0.36336993338E-01  0.28274013236E-01  0.63313384019E-01  0.51100000000E-03 0.  1.
</event>
<event>
 8    1  0.1082757E+005  0.1043930E+01  0.7957747E-01            NaN
         13   -1    0    0    0    0  0.00000000000E+00  0.00000000000E+00  0.74505805969E-08  0.10566000000E+00  0.10566000000E+00 0.  1.
     999900   -1    0    0    0    0 -0.00000000000E+00 -0.00000000000E+00 -0.74505805969E-08  0.93827000000E+00  0.93827000000E+00 0. -1.
     999902    2    1    2    0    0  0.11757577034E-01 -0.19045312193E-01  0.74869316921E-02  0.10203287568E+01  0.10200557599E+01 0.  0.
     999903    2    3    3    0    0  0.83043383557E-01  0.50734439312E-01 -0.83881999886E-01  0.12999221280E+00  0.19788850364E-01 0.  0.
         14    1    1    2    0    0 -0.11757577034E-01  0.19045312193E-01 -0.74869316921E-02  0.23601243196E-01  0.00000000000E+00 0. -1.
     999901    1    3    3    0    0 -0.71285806523E-01 -0.69779751505E-01  0.91368931578E-01  0.89033654400E+00  0.88000000000E+00 0.  1.
        -11    1    4    4    0    0  0.40783985575E-01  0.20440623160E-01 -0.27393982152E-01  0.53215072429E-01  0.51100000000E-03 0. -1.
         11    1    4    4    0    0  0.42259397983E-01  0.30293816152E-01 -0.56488017734E-01  0.76777140370E-01  0.51100000000E-03 0.  1.
</event>
<event>
 8    1  0.1082757E+005  0.1043930E+01  0.7957747E-01            NaN
         13   -1    0    0    0    0  0.00000000000E+00  0.00000000000E+00  0.74505805969E-08  0.10566000000E+00  0.10566000000E+00 0.  1.
     999900   -1    0    0    0    0 -0.00000000000E+00 -0.00000000000E+00 -0.74505805969E-08  0.93827000000E+00  0.93827000000E+00 0.  1.
     999902    2    1    2    0    0 -0.50397077252E-02 -0.18430123403E-01  0.12487711113E-01  0.10211043339E+01  0.10208491807E+01 0.  0.
     999903    2    3    3    0    0 -0.25655801962E-01 -0.30779676790E-01  0.12551916142E+00  0.13354946601E+00  0.21789706530E-01 0.  0.
         14    1    1    2    0    0  0.50397077252E-02  0.18430123403E-01 -0.12487711113E-01  0.22825666068E-01  0.00000000000E+00 0. -1.
     999901    1    3    3    0    0  0.20616094237E-01  0.12349553387E-01 -0.11303145031E+00  0.88755486792E+00  0.88000000000E+00 0.  1.
        -11    1    4    4    0    0 -0.16557796074E-01 -0.22899235201E-01  0.53275211829E-01  0.60307917391E-01  0.51100000000E-03 0.  1.
         11    1    4    4    0    0 -0.90980058886E-02 -0.78804415894E-02  0.72243949591E-01  0.73241548621E-01  0.51100000000E-03 0. -1.
</event>
<event>
 8    1  0.1082757E+005  0.1043930E+01  0.7957747E-01            NaN
         13   -1    0    0    0    0  0.00000000000E+00  0.00000000000E+00  0.74505805969E-08  0.10566000000E+00  0.10566000000E+00 0.  1.
     999900   -1    0    0    0    0 -0.00000000000E+00 -0.00000000000E+00 -0.74505805969E-08  0.93827000000E+00  0.93827000000E+00 0. -1.
     999902    2    1    2    0    0 -0.96357222548E-02  0.18880645093E-01  0.12662839706E-01  0.10192384344E+01  0.10189393077E+01 0.  0.
     999903    2    3    3    0    0  0.48559385424E-01  0.10689921637E+00 -0.53497768710E-01  0.13046896735E+00  0.19356751076E-01 0.  0.
         14    1    1    2    0    0  0.96357222548E-02 -0.18880645093E-01 -0.12662839706E-01  0.24691565602E-01  0.00000000000E+00 0. -1.
     999901    1    3    3    0    0 -0.58195107679E-01 -0.88018571274E-01  0.66160608416E-01  0.88876946705E+00  0.88000000000E+00 0. -1.
        -11    1    4    4    0    0  0.23289260617E-01  0.40719766013E-01 -0.12215906857E-01  0.48476576876E-01  0.51100000000E-03 0. -1.
         11    1    4    4    0    0  0.25270124807E-01  0.66179450354E-01 -0.41281861853E-01  0.81992390476E-01  0.51100000000E-03 0.  1.
</event>
<event>
 8    1  0.1082757E+005  0.1043930E+01  0.7957747E-01            NaN
         13   -1    0    0    0    0  0.00000000000E+00  0.00000000000E+00  0.74505805969E-08  0.10566000000E+00  0.10566000000E+00 0.  1.
     999900   -1    0    0    0    0 -0.00000000000E+00 -0.00000000000E+00 -0.74505805969E-08  0.93827000000E+00  0.93827000000E+00 0. -1.
     999902    2    1    2    0    0  0.17684149132E-01 -0.56208553827E-02  0.11897983434E-01  0.10218871972E+01  0.10216494304E+01 0.  0.
     999903    2    3    3    0    0  0.22619486208E-01  0.43192832559E-01  0.12272967197E+00  0.13357936943E+00  0.20090137241E-01 0.  0.
         14    1    1    2    0    0 -0.17684149132E-01  0.56208553827E-02 -0.11897983434E-01  0.22042802806E-01  0.00000000000E+00 0. -1.
     999901    1    3    3    0    0 -0.49353370758E-02 -0.48813687941E-01 -0.11083168854E+00  0.88830782776E+00  0.88000000000E+00 0. -1.
        -11    1    4    4    0    0 -0.33871603411E-02  0.20645483714E-02  0.11301338381E-01  0.11988185241E-01  0.51100000000E-03 0.  1.
         11    1    4    4    0    0  0.26006646549E-01  0.41128284187E-01  0.11142833359E+00  0.12159118419E+00  0.51100000000E-03 0. -1.
</event>
<event>
 8    1  0.1082757E+005  0.1043930E+01  0.7957747E-01            NaN
         13   -1    0    0    0    0  0.00000000000E+00  0.00000000000E+00  0.74505805969E-08  0.10566000000E+00  0.10566000000E+00 0.  1.
     999900   -1    0    0    0    0 -0.00000000000E+00 -0.00000000000E+00 -0.74505805969E-08  0.93827000000E+00  0.93827000000E+00 0.  1.
     999902    2    1    2    0    0 -0.14617171760E-01  0.18948754868E-01 -0.88941942828E-02  0.10183991615E+01  0.10180790875E+01 0.  0.
     999903    2    3    3    0    0  0.43338264399E-02 -0.95280324807E-01  0.80187497484E-01  0.12635489649E+00  0.20938069799E-01 0.  0.
         14    1    1    2    0    0  0.14617171760E-01 -0.18948754868E-01  0.88941942828E-02  0.25530838475E-01  0.00000000000E+00 0.  1.
     999901    1    3    3    0    0 -0.18950998200E-01  0.11422907968E+00 -0.89081691767E-01  0.89204426504E+00  0.88000000000E+00 0.  1.
        -11    1    4    4    0    0  0.10905694838E-01 -0.54443086613E-01  0.38093521775E-01  0.67337666889E-01  0.51100000000E-03 0.  1.
         11    1    4    4    0    0 -0.65718683986E-02 -0.40837238194E-01  0.42093975709E-01  0.59017229599E-01  0.51100000000E-03 0. -1.
</event>
<event>
 8    1  0.1082757E+005  0.1043930E+01  0.7957747E-01            NaN
         13   -1    0    0    0    0  0.00000000000E+00  0.00000000000E+00  0.74505805969E-08  0.10566000000E+00  0.10566000000E+00 0.  1.
     999900   -1    0    0    0    0 -0.00000000000E+00 -0.00000000000E+00 -0.74505805969E-08  0.93827000000E+00  0.93827000000E+00 0.  1.
     999902    2    1    2    0    0  0.20667201648E-01 -0.10936354741E-01 -0.36457169947E-02  0.10202650823E+01  0.10199905930E+01 0.  0.
     999903    2    3    3    0    0 -0.14398910321E-01 -0.12579699404E+00 -0.30145977925E-01  0.13171296646E+00  0.20182002440E-01 0.  0.
         14    1    1    2    0    0 -0.20667201648E-01  0.10936354741E-01  0.36457169947E-02  0.23664917735E-01  0.00000000000E+00 0.  1.
     999901    1    3    3    0    0  0.35066111969E-01  0.11486063930E+00  0.26500260931E-01  0.88855211580E+00  0.88000000000E+00 0. -1.
        -11    1    4    4    0    0  0.57904078635E-03 -0.68883323514E-01 -0.10600313872E-01  0.69698459967E-01  0.51100000000E-03 0.  1.
         11    1    4    4    0    0 -0.14977951108E-01 -0.56913670521E-01 -0.19545664053E-01  0.62014506496E-01  0.51100000000E-03 0. -1.
</event>
<event>
 8    1  0.1082757E+005  0.1043930E+01  0.7957747E-01            NaN
         13   -1    0    0    0    0  0.00000000000E+00  0.00000000000E+00  0.74505805969E-08  0.10566000000E+00  0.10566000000E+00 0.  1.
     999900   -1    0    0    0    0 -0.00000000000E+00 -0.00000000000E+00 -0.74505805969E-08  0.93827000000E+00  0.93827000000E+00 0. -1.
     999902    2    1    2    0    0 -0.52250625256E-02 -0.16752358380E-01  0.14936676930E-01  0.10208855406E+01  0.10206254161E+01 0.  0.
     999903    2    3    3    0    0  0.74299690082E-01 -0.61519632423E-01  0.89310504342E-01  0.13304559937E+00  0.20485512101E-01 0.  0.
         14    1    1    2    0    0  0.52250625256E-02  0.16752358380E-01 -0.14936676930E-01  0.23044459365E-01  0.00000000000E+00 0. -1.
     999901    1    3    3    0    0 -0.79524752607E-01  0.44767274043E-01 -0.74373827413E-01  0.88783994127E+00  0.88000000000E+00 0. -1.
        -11    1    4    4    0    0  0.15066770549E-01 -0.23370418902E-01  0.30435809785E-01  0.41228433062E-01  0.51100000000E-03 0. -1.
         11    1    4    4    0    0  0.59232919533E-01 -0.38149213521E-01  0.58874694557E-01  0.91817166308E-01  0.51100000000E-03 0.  1.
</event>
<event>
 8    1  0.1083496E+005  0.1043930E+01  0.7957747E-01            NaN
         13   -1    0    0    0    0  0.00000000000E+00  0.00000000000E+00  0.74505805969E-08  0.10566000000E+00  0.10566000000E+00 0.  1.
     999900   -1    0    0    0    0 -0.00000000000E+00 -0.00000000000E+00 -0.74505805969E-08  0.93827000000E+00  0.93827000000E+00 0. -1.
     999902    2    1    2    0    0  0.17836759260E-01 -0.14367770755E-01  0.51561823616E-02  0.10204530105E+01  0.10201829138E+01 0.  0.
     999903    2    3    3    0    0 -0.61892473815E-01  0.51718755457E-01 -0.98180010708E-01  0.12837535229E+00  0.18314163717E-01 0.  0.
         14    1    1    2    0    0 -0.17836759260E-01  0.14367770755E-01 -0.51561823616E-02  0.23476989456E-01  0.00000000000E+00 0. -1.
     999901    1    3    3    0    0  0.79729233075E-01 -0.66086526212E-01  0.10333619307E+00  0.89207765825E+00  0.88000000000E+00 0.  1.
        -11    1    4    4    0    0 -0.21327244380E-01  0.28453623010E-01 -0.48567259801E-01  0.60195513627E-01  0.51100000000E-03 0. -1.
         11    1    4    4    0    0 -0.40565229435E-01  0.23265132447E-01 -0.49612750907E-01  0.68179838666E-01  0.51100000000E-03 0.  1.
</event>
<event>
 8    1  0.1082757E+005  0.1043930E+01  0.7957747E-01            NaN
         13   -1    0    0    0    0  0.00000000000E+00  0.00000000000E+00  0.74505805969E-08  0.10566000000E+00  0.10566000000E+00 0. -1.
     999900   -1    0    0    0    0 -0.00000000000E+00 -0.00000000000E+00 -0.74505805969E-08  0.93827000000E+00  0.93827000000E+00 0.  1.
     999902    2    1    2    0    0 -0.19853303318E-01 -0.46150299333E-02 -0.13583424317E-01  0.10194358870E+01  0.10191415830E+01 0.  0.
     999903    2    3    3    0    0  0.10661094792E+00 -0.67798232519E-01 -0.24383309559E-02  0.12808324243E+00  0.20901602449E-01 0.  0.
         14    1    1    2    0    0  0.19853303318E-01  0.46150299333E-02  0.13583424317E-01  0.24494112968E-01  0.00000000000E+00 0.  1.
     999901    1    3    3    0    0 -0.12646425124E+00  0.63183202586E-01 -0.11145093361E-01  0.89135264460E+00  0.88000000000E+00 0. -1.
        -11    1    4    4    0    0  0.27142355151E-01 -0.28606672356E-01  0.12128602705E-03  0.39437608672E-01  0.51100000000E-03 0.  1.
         11    1    4    4    0    0  0.79468592768E-01 -0.39191560163E-01 -0.25596169830E-02  0.88645633760E-01  0.51100000000E-03 0. -1.
</event>
<event>
 8    1  0.1082757E+005  0.1043930E+01  0.7957747E-01            NaN
         13   -1    0    0    0    0  0.00000000000E+00  0.00000000000E+00  0.74505805969E-08  0.10566000000E+00  0.10566000000E+00 0.  1.
     999900   -1    0    0    0    0 -0.00000000000E+00 -0.00000000000E+00 -0.74505805969E-08  0.93827000000E+00  0.93827000000E+00 0.  1.
     999902    2    1    2    0    0 -0.13286313273E-01 -0.19670320931E-01 -0.55514501406E-02  0.10195524233E+01  0.10192609468E+01 0.  0.
     999903    2    3    3    0    0  0.10080422265E+00  0.68339342616E-01 -0.31757852907E-01  0.12744865873E+00  0.20070932612E-01 0.  0.
         14    1    1    2    0    0  0.13286313273E-01  0.19670320931E-01  0.55514501406E-02  0.24377576676E-01  0.00000000000E+00 0.  1.
     999901    1    3    3    0    0 -0.11409053593E+00 -0.88009663547E-01  0.26206402766E-01  0.89210376460E+00  0.88000000000E+00 0. -1.
        -11    1    4    4    0    0  0.45799859256E-01  0.42163017797E-01 -0.11943559566E-01  0.63389722461E-01  0.51100000000E-03 0. -1.
         11    1    4    4    0    0  0.55004363397E-01  0.26176324819E-01 -0.19814293341E-01  0.64058936264E-01  0.51100000000E-03 0.  1.
</event>
<event>
 8    1  0.1082757E+005  0.1043930E+01  0.7957747E-01            NaN
         13   -1    0    0    0    0  0.00000000000E+00  0.00000000000E+00  0.74505805969E-08  0.10566000000E+00  0.10566000000E+00 0.  1.
     999900   -1    0    0    0    0 -0.00000000000E+00 -0.00000000000E+00 -0.74505805969E-08  0.93827000000E+00  0.93827000000E+00 0. -1.
     999902    2    1    2    0    0  0.22833005514E-01  0.50342068919E-02 -0.18513049014E-02  0.10204754331E+01  0.10202058580E+01 0.  0.
     999903    2    3    3    0    0 -0.24868033937E-01  0.35091603986E-01 -0.12162655831E+00  0.13057378255E+00  0.20165644512E-01 0.  0.
         14    1    1    2    0    0 -0.22833005514E-01 -0.50342068919E-02  0.18513049014E-02  0.23454566925E-01  0.00000000000E+00 0.  1.
     999901    1    3    3    0    0  0.47701039450E-01 -0.30057397094E-01  0.11977525341E+00  0.88990165053E+00  0.88000000000E+00 0.  1.
        -11    1    4    4    0    0 -0.94222490775E-02  0.49886677777E-02 -0.52929960728E-01  0.53995439137E-01  0.51100000000E-03 0.  1.
         11    1    4    4    0    0 -0.15445784859E-01  0.30102936208E-01 -0.68696597586E-01  0.76578343409E-01  0.51100000000E-03 0. -1.
</event>
<event>
 8    1  0.1082757E+005  0.1043930E+01  0.7957747E-01            NaN
         13   -1    0    0    0    0  0.00000000000E+00  0.00000000000E+00  0.74505805969E-08  0.10566000000E+00  0.10566000000E+00 0.  1.
     999900   -1    0    0    0    0 -0.00000000000E+00 -0.00000000000E+00 -0.74505805969E-08  0.93827000000E+00  0.93827000000E+00 0. -1.
     999902    2    1    2    0    0 -0.11297190656E-01  0.21736517921E-02 -0.24846056211E-01  0.10165497555E+01  0.10161809522E+01 0.  0.
     999903    2    3    3    0    0  0.40828657297E-01  0.11804875159E+00  0.10462197889E-01  0.12672347158E+00  0.18625081334E-01 0.  0.
         14    1    1    2    0    0  0.11297190656E-01 -0.21736517921E-02  0.24846056211E-01  0.27380244485E-01  0.00000000000E+00 0.  1.
     999901    1    3    3    0    0 -0.52125847953E-01 -0.11587509980E+00 -0.35308254100E-01  0.88982628394E+00  0.88000000000E+00 0. -1.
        -11    1    4    4    0    0  0.24920840924E-01  0.48785362762E-01 -0.66959915071E-03  0.54788405856E-01  0.51100000000E-03 0.  1.
         11    1    4    4    0    0  0.15907816373E-01  0.69263388830E-01  0.11131797040E-01  0.71935065721E-01  0.51100000000E-03 0. -1.
</event>
<event>
 8    1  0.1082757E+005  0.1043930E+01  0.7957747E-01            NaN
         13   -1    0    0    0    0  0.00000000000E+00  0.00000000000E+00  0.74505805969E-08  0.10566000000E+00  0.10566000000E+00 0. -1.
     999900   -1    0    0    0    0 -0.00000000000E+00 -0.00000000000E+00 -0.74505805969E-08  0.93827000000E+00  0.93827000000E+00 0. -1.
     999902    2    1    2    0    0 -0.18721061624E-01  0.11084058588E-01 -0.10801856874E-01  0.10196397836E+01  0.10193504175E+01 0.  0.
     999903    2    3    3    0    0 -0.23002617257E-02  0.12351095955E+00 -0.41305561133E-01  0.13181101250E+00  0.20192704196E-01 0.  0.
         14    1    1    2    0    0  0.18721061624E-01 -0.11084058588E-01  0.10801856874E-01  0.24290216447E-01  0.00000000000E+00 0. -1.
     999901    1    3    3    0    0 -0.16420799898E-01 -0.11242690097E+00  0.30503704260E-01  0.88782877105E+00  0.88000000000E+00 0.  1.
        -11    1    4    4    0    0  0.82091505972E-02  0.68100778868E-01 -0.19186540402E-01  0.71228440173E-01  0.51100000000E-03 0. -1.
         11    1    4    4    0    0 -0.10509412323E-01  0.55410180686E-01 -0.22119020731E-01  0.60582572331E-01  0.51100000000E-03 0.  1.
</event>
<event>
 8    1  0.1082757E+005  0.1043930E+01  0.7957747E-01            NaN
         13   -1    0    0    0    0  0.00000000000E+00  0.00000000000E+00  0.74505805969E-08  0.10566000000E+00  0.10566000000E+00 0. -1.
     999900   -1    0    0    0    0 -0.00000000000E+00 -0.00000000000E+00 -0.74505805969E-08  0.93827000000E+00  0.93827000000E+00 0. -1.
     999902    2    1    2    0    0 -0.19222308632E-02  0.24001294700E-01 -0.21989878957E-02  0.10197516488E+01  0.10194649737E+01 0.  0.
     999903    2    3    3    0    0  0.75753909051E-01  0.36254141402E-01  0.98001710892E-01  0.13058130798E+00  0.19852585489E-01 0.  0.
         14    1    1    2    0    0  0.19222308632E-02 -0.24001294700E-01  0.21989878957E-02  0.24178351196E-01  0.00000000000E+00 0. -1.
     999901    1    3    3    0    0 -0.77676139914E-01 -0.12252846701E-01 -0.10020069879E+00  0.88917034082E+00  0.88000000000E+00 0. -1.
        -11    1    4    4    0    0  0.28134229869E-01  0.59031240281E-02  0.43178681697E-01  0.51875248796E-01  0.51100000000E-03 0. -1.
         11    1    4    4    0    0  0.47619679182E-01  0.30351017374E-01  0.54823029196E-01  0.78706059183E-01  0.51100000000E-03 0.  1.
</event>
<event>
 8    1  0.1082757E+005  0.1043930E+01  0.7957747E-01            NaN
         13   -1    0    0    0    0  0.00000000000E+00  0.00000000000E+00  0.74505805969E-08  0.10566000000E+00  0.10566000000E+00 0. -1.
     999900   -1    0    0    0    0 -0.00000000000E+00 -0.00000000000E+00 -0.74505805969E-08  0.93827000000E+00  0.93827000000E+00 0.  1.
     999902    2    1    2    0    0 -0.20282785056E-01 -0.12583821534E-01 -0.32333343160E-03  0.10200585007E+01  0.10197791410E+01 0.  0.
     999903    2    3    3    0    0 -0.79574195396E-01 -0.87438843092E-01  0.57589596962E-01  0.13300007360E+00  0.19870934688E-01 0.  0.
         14    1    1    2    0    0  0.20282785056E-01  0.12583821534E-01  0.32333343160E-03  0.23871499294E-01  0.00000000000E+00 0. -1.
     999901    1    3    3    0    0  0.59291410339E-01  0.74855021558E-01 -0.57912930394E-01  0.88705842711E+00  0.88000000000E+00 0. -1.
        -11    1    4    4    0    0 -0.19532988480E-01 -0.18069420186E-01  0.22227367262E-01  0.34675042339E-01  0.51100000000E-03 0. -1.
         11    1    4    4    0    0 -0.60041206916E-01 -0.69369422906E-01  0.35362229700E-01  0.98325031261E-01  0.51100000000E-03 0.  1.
</event>
<event>
 8    1  0.1082757E+005  0.1043930E+01  0.7957747E-01            NaN
         13   -1    0    0    0    0  0.00000000000E+00  0.00000000000E+00  0.74505805969E-08  0.10566000000E+00  0.10566000000E+00 0.  1.
     999900   -1    0    0    0    0 -0.00000000000E+00 -0.00000000000E+00 -0.74505805969E-08  0.93827000000E+00  0.93827000000E+00 0.  1.
     999902    2    1    2    0    0  0.74621664169E-02  0.29159227934E-02  0.22420635651E-01  0.10201209379E+01  0.10198430549E+01 0.  0.
     999903    2    3    3    0    0  0.80105232995E-01  0.35871864066E-01 -0.92701033593E-01  0.12904512303E+00  0.18855321873E-01 0.  0.
         14    1    1    2    0    0 -0.74621664169E-02 -0.29159227934E-02 -0.22420635651E-01  0.23809062064E-01  0.00000000000E+00 0. -1.
     999901    1    3    3    0    0 -0.72643066578E-01 -0.32955941272E-01  0.11512166924E+00  0.89107581491E+00  0.88000000000E+00 0.  1.
        -11    1    4    4    0    0  0.42425428652E-01  0.19168542961E-01 -0.35539332200E-01  0.58571796027E-01  0.51100000000E-03 0.  1.
         11    1    4    4    0    0  0.37679804342E-01  0.16703321105E-01 -0.57161701394E-01  0.70473327000E-01  0.51100000000E-03 0. -1.
</event>
<event>
 8    1  0.1082757E+005  0.1043930E+01  0.7957747E-01            NaN
         13   -1    0    0    0    0  0.00000000000E+00  0.00000000000E+00  0.74505805969E-08  0.10566000000E+00  0.10566000000E+00 0.  1.
     999900   -1    0    0    0    0 -0.00000000000E+00 -0.00000000000E+00 -0.74505805969E-08  0.93827000000E+00  0.93827000000E+00 0. -1.
     999902    2    1    2    0    0 -0.94778770368E-02  0.13822106096E-01 -0.16378592996E-01  0.10204962833E+01  0.10202271929E+01 0.  0.
     999903    2    3    3    0    0  0.65039364290E-01 -0.51145833662E-01 -0.99670859521E-01  0.13105193197E+00  0.19857326757E-01 0.  0.
         14    1    1    2    0    0  0.94778770368E-02 -0.13822106096E-01  0.16378592996E-01  0.23433716704E-01  0.00000000000E+00 0.  1.
     999901    1    3    3    0    0 -0.74517241327E-01  0.64967939757E-01  0.83292266525E-01  0.88944435133E+00  0.88000000000E+00 0.  1.
        -11    1    4    4    0    0  0.48707769211E-01 -0.26311626280E-01 -0.64971995445E-01  0.85360235310E-01  0.51100000000E-03 0.  1.
         11    1    4    4    0    0  0.16331595079E-01 -0.24834207381E-01 -0.34698864076E-01  0.45691696656E-01  0.51100000000E-03 0. -1.
</event>
<event>
 8    1  0.1082757E+005  0.1043930E+01  0.7957747E-01            NaN
         13   -1    0    0    0    0  0.00000000000E+00  0.00000000000E+00  0.74505805969E-08  0.10566000000E+00  0.10566000000E+00 0. -1.
     999900   -1    0    0    0    0 -0.00000000000E+00 -0.00000000000E+00 -0.74505805969E-08  0.93827000000E+00  0.93827000000E+00 0.  1.
     999902    2    1    2    0    0  0.20596368914E-01 -0.72590725058E-02 -0.84542381636E-02  0.10205125132E+01  0.10202437997E+01 0.  0.
     999903    2    3    3    0    0 -0.43340324624E-02 -0.55942270463E-01 -0.11787455120E+00  0.13205070557E+00  0.19865990017E-01 0.  0.
         14    1    1    2    0    0 -0.20596368914E-01  0.72590725058E-02  0.84542381636E-02  0.23417486821E-01  0.00000000000E+00 0. -1.
     999901    1    3    3    0    0  0.24930401376E-01  0.48683197957E-01  0.10942031303E+00  0.88846180761E+00  0.88000000000E+00 0. -1.
        -11    1    4    4    0    0 -0.28803614811E-02 -0.90935236569E-02 -0.40278319004E-01  0.41395564467E-01  0.51100000000E-03 0.  1.
         11    1    4    4    0    0 -0.14536709813E-02 -0.46848746806E-01 -0.77596232194E-01  0.90655141103E-01  0.51100000000E-03 0. -1.
</event>
<event>
 8    1  0.1155116E+005  0.1043930E+01  0.7957747E-01            NaN
         13   -1    0    0    0    0  0.00000000000E+00  0.00000000000E+00  0.74505805969E-08  0.10566000000E+00  0.10566000000E+00 0. -1.
     999900   -1    0    0    0    0 -0.00000000000E+00 -0.00000000000E+00 -0.74505805969E-08  0.93827000000E+00  0.93827000000E+00 0.  1.
     999902    2    1    2    0    0 -0.24361948529E-01  0.17814063547E-01  0.22718054875E-02  0.10136644008E+01  0.10132124708E+01 0.  0.
     999903    2    3    3    0    0  0.11488134784E+00  0.75869125885E-02  0.35247641182E-01  0.12204750102E+00  0.19947705924E-01 0.  0.
         14    1    1    2    0    0  0.24361948529E-01 -0.17814063547E-01 -0.22718054875E-02  0.30265599223E-01  0.00000000000E+00 0. -1.
     999901    1    3    3    0    0 -0.13924329637E+00  0.10227150958E-01 -0.32975835695E-01  0.89161689976E+00  0.88000000000E+00 0.  1.
        -11    1    4    4    0    0  0.45080687328E-01 -0.45166217215E-02  0.20273600056E-01  0.49638173032E-01  0.51100000000E-03 0. -1.
         11    1    4    4    0    0  0.69800660510E-01  0.12103534310E-01  0.14974041127E-01  0.72409327984E-01  0.51100000000E-03 0.  1.
</event>
<event>
 8    1  0.1082757E+005  0.1043930E+01  0.7957747E-01            NaN
         13   -1    0    0    0    0  0.00000000000E+00  0.00000000000E+00  0.74505805969E-08  0.10566000000E+00  0.10566000000E+00 0. -1.
     999900   -1    0    0    0    0 -0.00000000000E+00 -0.00000000000E+00 -0.74505805969E-08  0.93827000000E+00  0.93827000000E+00 0. -1.
     999902    2    1    2    0    0 -0.14873604315E-01 -0.85030322875E-02 -0.11546269119E-01  0.10232698453E+01  0.10230612563E+01 0.  0.
     999903    2    3    3    0    0 -0.95868429780E-01 -0.74438586772E-01  0.55126472189E-01  0.13458941139E+00  0.18534365231E-01 0.  0.
         14    1    1    2    0    0  0.14873604315E-01  0.85030322875E-02  0.11546269119E-01  0.20660154742E-01  0.00000000000E+00 0. -1.
     999901    1    3    3    0    0  0.80994825465E-01  0.65935554484E-01 -0.66672741308E-01  0.88868043386E+00  0.88000000000E+00 0.  1.
        -11    1    4    4    0    0 -0.62066987483E-01 -0.36868471640E-01  0.34282972795E-01  0.79919825331E-01  0.51100000000E-03 0. -1.
         11    1    4    4    0    0 -0.33801442297E-01 -0.37570115132E-01  0.20843499394E-01  0.54669586064E-01  0.51100000000E-03 0.  1.
</event>
<event>
 8    1  0.1082757E+005  0.1043930E+01  0.7957747E-01            NaN
         13   -1    0    0    0    0  0.00000000000E+00  0.00000000000E+00  0.74505805969E-08  0.10566000000E+00  0.10566000000E+00 0.  1.
     999900   -1    0    0    0    0 -0.00000000000E+00 -0.00000000000E+00 -0.74505805969E-08  0.93827000000E+00  0.93827000000E+00 0. -1.
     999902    2    1    2    0    0 -0.26541781832E-01  0.12391712280E-02 -0.74113897991E-02  0.10163450326E+01  0.10159706171E+01 0.  0.
     999903    2    3    3    0    0 -0.71231124826E-01 -0.89068524106E-01  0.55529243390E-01  0.12836184552E+00  0.19651752693E-01 0.  0.
         14    1    1    2    0    0  0.26541781832E-01 -0.12391712280E-02  0.74113897991E-02  0.27584967408E-01  0.00000000000E+00 0.  1.
     999901    1    3    3    0    0  0.44689342994E-01  0.90307695334E-01 -0.62940633189E-01  0.88798318707E+00  0.88000000000E+00 0. -1.
        -11    1    4    4    0    0 -0.34228460169E-01 -0.33990023769E-01  0.32308231970E-01  0.58060246084E-01  0.51100000000E-03 0.  1.
         11    1    4    4    0    0 -0.37002664656E-01 -0.55078500337E-01  0.23221011421E-01  0.70301599437E-01  0.51100000000E-03 0. -1.
</event>
<event>
 8    1  0.1082757E+005  0.1043930E+01  0.7957747E-01            NaN
         13   -1    0    0    0    0  0.00000000000E+00  0.00000000000E+00  0.74505805969E-08  0.10566000000E+00  0.10566000000E+00 0.  1.
     999900   -1    0    0    0    0 -0.00000000000E+00 -0.00000000000E+00 -0.74505805969E-08  0.93827000000E+00  0.93827000000E+00 0. -1.
     999902    2    1    2    0    0  0.16387977334E-01 -0.42164131575E-02 -0.84333917607E-02  0.10250232277E+01  0.10248488432E+01 0.  0.
     999903    2    3    3    0    0 -0.10124548085E+00 -0.84052229653E-01 -0.17172177085E-01  0.13357061853E+00  0.15192161381E-01 0.  0.
         14    1    1    2    0    0 -0.16387977334E-01  0.42164131575E-02  0.84333917607E-02  0.18906772268E-01  0.00000000000E+00 0.  1.
     999901    1    3    3    0    0  0.11763345818E+00  0.79835816496E-01  0.87387853240E-02  0.89145260920E+00  0.88000000000E+00 0. -1.
        -11    1    4    4    0    0 -0.73115011748E-01 -0.58212210729E-01 -0.54783389741E-02  0.93620188741E-01  0.51100000000E-03 0.  1.
         11    1    4    4    0    0 -0.28130469100E-01 -0.25840018924E-01 -0.11693838111E-01  0.39950429792E-01  0.51100000000E-03 0. -1.
</event>
<event>
 8    1  0.1082757E+005  0.1043930E+01  0.7957747E-01            NaN
         13   -1    0    0    0    0  0.00000000000E+00  0.00000000000E+00  0.74505805969E-08  0.10566000000E+00  0.10566000000E+00 0.  1.
     999900   -1    0    0    0    0 -0.00000000000E+00 -0.00000000000E+00 -0.74505805969E-08  0.93827000000E+00  0.93827000000E+00 0. -1.
     999902    2    1    2    0    0  0.14066068039E-01  0.13795621355E-01 -0.11613821593E-01  0.10210596198E+01  0.10208034546E+01 0.  0.
     999903    2    3    3    0    0  0.12610239685E+00  0.30970891143E-01  0.21460114806E-01  0.13317392100E+00  0.20340750159E-01 0.  0.
         14    1    1    2    0    0 -0.14066068039E-01 -0.13795621355E-01  0.11613821593E-01  0.22870380203E-01  0.00000000000E+00 0.  1.
     999901    1    3    3    0    0 -0.11203632881E+00 -0.17175269788E-01 -0.33073936399E-01  0.88788569880E+00  0.88000000000E+00 0. -1.
        -11    1    4    4    0    0  0.29415919793E-01  0.13348535744E-01  0.11901934964E-01  0.34429593676E-01  0.51100000000E-03 0.  1.
         11    1    4    4    0    0  0.96686477055E-01  0.17622355399E-01  0.95581798419E-02  0.98744327321E-01  0.51100000000E-03 0. -1.
</event>
<event>
 8    1  0.1082757E+005  0.1043930E+01  0.7957747E-01            NaN
         13   -1    0    0    0    0  0.00000000000E+00  0.00000000000E+00  0.74505805969E-08  0.10566000000E+00  0.10566000000E+00 0.  1.
     999900   -1    0    0    0    0 -0.00000000000E+00 -0.00000000000E+00 -0.74505805969E-08  0.93827000000E+00  0.93827000000E+00 0.  1.
     999902    2    1    2    0    0  0.37822787825E-02  0.51585839291E-02  0.22813332615E-01  0.10202368625E+01  0.10199617104E+01 0.  0.
     999903    2    3    3    0    0  0.73830693371E-02 -0.68106822800E-01 -0.10679730578E+00  0.12772372358E+00  0.14650461318E-01 0.  0.
         14    1    1    2    0    0 -0.37822787825E-02 -0.51585839291E-02 -0.22813332615E-01  0.23693137528E-01  0.00000000000E+00 0. -1.
     999901    1    3    3    0    0 -0.36007905547E-02  0.73265406729E-01  0.12961063840E+00  0.89251313890E+00  0.88000000000E+00 0. -1.
        -11    1    4    4    0    0  0.94020448880E-02 -0.47898685372E-01 -0.65390734992E-01  0.81602033383E-01  0.51100000000E-03 0.  1.
         11    1    4    4    0    0 -0.20189755509E-02 -0.20208137428E-01 -0.41406570791E-01  0.46121690193E-01  0.51100000000E-03 0. -1.
</event>
<event>
 8    1  0.1183374E+005  0.1043930E+01  0.7957747E-01            NaN
         13   -1    0    0    0    0  0.00000000000E+00  0.00000000000E+00  0.74505805969E-08  0.10566000000E+00  0.10566000000E+00 0. -1.
     999900   -1    0    0    0    0 -0.00000000000E+00 -0.00000000000E+00 -0.74505805969E-08  0.93827000000E+00  0.93827000000E+00 0. -1.
     999902    2    1    2    0    0 -0.11715467728E-01 -0.17326046924E-01 -0.12136922231E-01  0.10197484168E+01  0.10194616641E+01 0.  0.
     999903    2    3    3    0    0 -0.73907593849E-01 -0.10526271580E+00 -0.27272625951E-01  0.13305241035E+00  0.20410193722E-01 0.  0.
         14    1    1    2    0    0  0.11715467728E-01  0.17326046924E-01  0.12136922231E-01  0.24181583227E-01  0.00000000000E+00 0. -1.
     999901    1    3    3    0    0  0.62192126121E-01  0.87936668871E-01  0.15135703720E-01  0.88669600643E+00  0.88000000000E+00 0.  1.
        -11    1    4    4    0    0 -0.29750841262E-01 -0.51509491395E-01 -0.37016589266E-02  0.59601205184E-01  0.51100000000E-03 0. -1.
         11    1    4    4    0    0 -0.44156752587E-01 -0.53753224400E-01 -0.23570967025E-01  0.73451205163E-01  0.51100000000E-03 0.  1.
</event>
<event>
 8    1  0.1082757E+005  0.1043930E+01  0.7957747E-01            NaN
         13   -1    0    0    0    0  0.00000000000E+00  0.00000000000E+00  0.74505805969E-08  0.10566000000E+00  0.10566000000E+00 0.  1.
     999900   -1    0    0    0    0 -0.00000000000E+00 -0.00000000000E+00 -0.74505805969E-08  0.93827000000E+00  0.93827000000E+00 0. -1.
     999902    2    1    2    0    0 -0.20502868416E-01  0.74190852735E-02 -0.42459943731E-03  0.10221219573E+01  0.10218892821E+01 0.  0.
     999903    2    3    3    0    0  0.72904242809E-01 -0.20233026265E-01 -0.10476098756E+00  0.13062007312E+00  0.19035099583E-01 0.  0.
         14    1    1    2    0    0  0.20502868416E-01 -0.74190852735E-02  0.42459943731E-03  0.21808042650E-01  0.00000000000E+00 0. -1.
     999901    1    3    3    0    0 -0.93407111224E-01  0.27652111538E-01  0.10433638812E+00  0.89150188423E+00  0.88000000000E+00 0.  1.
        -11    1    4    4    0    0  0.36367717280E-01 -0.13352138550E-02 -0.56467438072E-01  0.67180550308E-01  0.51100000000E-03 0.  1.
         11    1    4    4    0    0  0.36536525528E-01 -0.18897812410E-01 -0.48293549486E-01  0.63439522811E-01  0.51100000000E-03 0. -1.
</event>
<event>
 8    1  0.1082757E+005  0.1043930E+01  0.7957747E-01            NaN
         13   -1    0    0    0    0  0.00000000000E+00  0.00000000000E+00  0.74505805969E-08  0.10566000000E+00  0.10566000000E+00 0.  1.
     999900   -1    0    0    0    0 -0.00000000000E+00 -0.00000000000E+00 -0.74505805969E-08  0.93827000000E+00  0.93827000000E+00 0. -1.
     999902    2    1    2    0    0 -0.67273897159E-02  0.15271293973E-01 -0.14171642754E-01  0.10220369497E+01  0.10218024373E+01 0.  0.
     999903    2    3    3    0    0  0.76074079172E-02  0.10565464572E+00 -0.81027411973E-01  0.13476904736E+00  0.19403036268E-01 0.  0.
         14    1    1    2    0    0  0.67273897159E-02 -0.15271293973E-01  0.14171642754E-01  0.21893050275E-01  0.00000000000E+00 0.  1.
     999901    1    3    3    0    0 -0.14334797633E-01 -0.90383351749E-01  0.66855769220E-01  0.88726790237E+00  0.88000000000E+00 0.  1.
        -11    1    4    4    0    0  0.13919491761E-01  0.72425121496E-01 -0.58353899404E-01  0.94045675984E-01  0.51100000000E-03 0.  1.
         11    1    4    4    0    0 -0.63120838435E-02  0.33229524226E-01 -0.22673512569E-01  0.40723371373E-01  0.51100000000E-03 0. -1.
</event>
<event>
 8    1  0.1082757E+005  0.1043930E+01  0.7957747E-01            NaN
         13   -1    0    0    0    0  0.00000000000E+00  0.00000000000E+00  0.74505805969E-08  0.10566000000E+00  0.10566000000E+00 0.  1.
     999900   -1    0    0    0    0 -0.00000000000E+00 -0.00000000000E+00 -0.74505805969E-08  0.93827000000E+00  0.93827000000E+00 0. -1.
     999902    2    1    2    0    0  0.23931689282E-01  0.24868816756E-02  0.97815215142E-03  0.10198495699E+01  0.10195652397E+01 0.  0.
     999903    2    3    3    0    0  0.52983898531E-02 -0.56313063405E-01  0.11665508482E+00  0.13013850099E+00  0.11330780202E-01 0.  0.
         14    1    1    2    0    0 -0.23931689282E-01 -0.24868816756E-02 -0.97815215142E-03  0.24080430104E-01  0.00000000000E+00 0. -1.
     999901    1    3    3    0    0  0.18633299429E-01  0.58799945080E-01 -0.11567693267E+00  0.88971106891E+00  0.88000000000E+00 0.  1.
        -11    1    4    4    0    0  0.56522350662E-02 -0.30557629288E-01  0.52592868698E-01  0.61089994498E-01  0.51100000000E-03 0.  1.
         11    1    4    4    0    0 -0.35384521305E-03 -0.25755434117E-01  0.64062216121E-01  0.69048506489E-01  0.51100000000E-03 0. -1.
</event>
<event>
 8    1  0.1082757E+005  0.1043930E+01  0.7957747E-01            NaN
         13   -1    0    0    0    0  0.00000000000E+00  0.00000000000E+00  0.74505805969E-08  0.10566000000E+00  0.10566000000E+00 0.  1.
     999900   -1    0    0    0    0 -0.00000000000E+00 -0.00000000000E+00 -0.74505805969E-08  0.93827000000E+00  0.93827000000E+00 0. -1.
     999902    2    1    2    0    0 -0.11353560311E-01 -0.99456781823E-02 -0.17805700676E-01  0.10205877031E+01  0.10203207324E+01 0.  0.
     999903    2    3    3    0    0 -0.10409752202E+00 -0.58277169212E-01  0.52082642235E-01  0.13164352270E+00  0.19618687647E-01 0.  0.
         14    1    1    2    0    0  0.11353560311E-01  0.99456781823E-02  0.17805700676E-01  0.23342296862E-01  0.00000000000E+00 0.  1.
     999901    1    3    3    0    0  0.92743961708E-01  0.48331491030E-01 -0.69888342911E-01  0.88894418044E+00  0.88000000000E+00 0. -1.
        -11    1    4    4    0    0 -0.13672231440E-01 -0.11336910190E-01  0.14891800046E-01  0.23183663964E-01  0.51100000000E-03 0. -1.
         11    1    4    4    0    0 -0.90425290579E-01 -0.46940259022E-01  0.37190842189E-01  0.10845985874E+00  0.51100000000E-03 0.  1.
</event>
<event>
 8    1  0.1082757E+005  0.1043930E+01  0.7957747E-01            NaN
         13   -1    0    0    0    0  0.00000000000E+00  0.00000000000E+00  0.74505805969E-08  0.10566000000E+00  0.10566000000E+00 0.  1.
     999900   -1    0    0    0    0 -0.00000000000E+00 -0.00000000000E+00 -0.74505805969E-08  0.93827000000E+00  0.93827000000E+00 0. -1.
     999902    2    1    2    0    0  0.21752956167E-01 -0.83020915506E-02  0.49902482639E-02  0.10201178518E+01  0.10198398958E+01 0.  0.
     999903    2    3    3    0    0 -0.14180374244E-01 -0.56758849942E-01  0.11586100382E+00  0.13111189784E+00  0.18544742878E-01 0.  0.
         14    1    1    2    0    0 -0.21752956167E-01  0.83020915506E-02 -0.49902482639E-02  0.23812148241E-01  0.00000000000E+00 0. -1.
     999901    1    3    3    0    0  0.35933330410E-01  0.48456758392E-01 -0.11087075556E+00  0.88900595392E+00  0.88000000000E+00 0. -1.
        -11    1    4    4    0    0 -0.12428358903E-01 -0.46433621313E-01  0.76261806427E-01  0.90148042318E-01  0.51100000000E-03 0. -1.
         11    1    4    4    0    0 -0.17520153405E-02 -0.10325228629E-01  0.39599197392E-01  0.40963855521E-01  0.51100000000E-03 0.  1.
</event>
<event>
 8    1  0.1082757E+005  0.1043930E+01  0.7957747E-01            NaN
         13   -1    0    0    0    0  0.00000000000E+00  0.00000000000E+00  0.74505805969E-08  0.10566000000E+00  0.10566000000E+00 0.  1.
     999900   -1    0    0    0    0 -0.00000000000E+00 -0.00000000000E+00 -0.74505805969E-08  0.93827000000E+00  0.93827000000E+00 0. -1.
     999902    2    1    2    0    0 -0.21192666902E-01 -0.36545797024E-03  0.50409368106E-02  0.10221429916E+01  0.10219107699E+01 0.  0.
     999903    2    3    3    0    0 -0.12286593637E-01  0.88411938428E-01  0.96458792414E-01  0.13291975274E+00  0.19892983550E-01 0.  0.
         14    1    1    2    0    0  0.21192666902E-01  0.36545797024E-03 -0.50409368106E-02  0.21787008374E-01  0.00000000000E+00 0.  1.
     999901    1    3    3    0    0 -0.89060732651E-02 -0.88777396398E-01 -0.91417855604E-01  0.88922323889E+00  0.88000000000E+00 0. -1.
        -11    1    4    4    0    0 -0.42621322393E-02  0.10998368229E-01  0.23217416853E-01  0.26046870086E-01  0.51100000000E-03 0.  1.
         11    1    4    4    0    0 -0.80244613979E-02  0.77413570199E-01  0.73241375561E-01  0.10687288265E+00  0.51100000000E-03 0. -1.
</event>
<event>
 8    1  0.1082757E+005  0.1043930E+01  0.7957747E-01            NaN
         13   -1    0    0    0    0  0.00000000000E+00  0.00000000000E+00  0.74505805969E-08  0.10566000000E+00  0.10566000000E+00 0. -1.
     999900   -1    0    0    0    0 -0.00000000000E+00 -0.00000000000E+00 -0.74505805969E-08  0.93827000000E+00  0.93827000000E+00 0. -1.
     999902    2    1    2    0    0  0.79497979162E-02 -0.89383297644E-02 -0.18486253983E-01  0.10219110397E+01  0.10216737926E+01 0.  0.
     999903    2    3    3    0    0  0.83586290799E-02 -0.88859968030E-01 -0.98747518596E-01  0.13465149144E+00  0.20346771703E-01 0.  0.
         14    1    1    2    0    0 -0.79497979162E-02  0.89383297644E-02  0.18486253983E-01  0.22018960289E-01  0.00000000000E+00 0.  1.
     999901    1    3    3    0    0 -0.40883116371E-03  0.79921638266E-01  0.80261264613E-01  0.88725954827E+00  0.88000000000E+00 0.  1.
        -11    1    4    4    0    0  0.56165549641E-02 -0.82021295508E-01 -0.80932673817E-01  0.11536636173E+00  0.51100000000E-03 0. -1.
         11    1    4    4    0    0  0.27420741157E-02 -0.68386725225E-02 -0.17814844779E-01  0.19285129707E-01  0.51100000000E-03 0.  1.
</event>
<event>
 8    1  0.1082757E+005  0.1043930E+01  0.7957747E-01            NaN
         13   -1    0    0    0    0  0.00000000000E+00  0.00000000000E+00  0.74505805969E-08  0.10566000000E+00  0.10566000000E+00 0. -1.
     999900   -1    0    0    0    0 -0.00000000000E+00 -0.00000000000E+00 -0.74505805969E-08  0.93827000000E+00  0.93827000000E+00 0.  1.
     999902    2    1    2    0    0  0.34081439222E-02 -0.20202590307E-01  0.74481620859E-02  0.10221301097E+01  0.10218976103E+01 0.  0.
     999903    2    3    3    0    0 -0.70944911356E-01  0.25443602472E-01  0.10666256575E+00  0.13226750812E+00  0.20910127122E-01 0.  0.
         14    1    1    2    0    0 -0.34081439222E-02  0.20202590307E-01 -0.74481620859E-02  0.21799890333E-01  0.00000000000E+00 0.  1.
     999901    1    3    3    0    0  0.74353055278E-01 -0.45646192779E-01 -0.99214403666E-01  0.88986260155E+00  0.88000000000E+00 0.  1.
        -11    1    4    4    0    0 -0.35205170706E-01  0.49093539273E-02  0.36915350667E-01  0.51249488156E-01  0.51100000000E-03 0. -1.
         11    1    4    4    0    0 -0.35739740650E-01  0.20534248545E-01  0.69747215085E-01  0.81018019959E-01  0.51100000000E-03 0.  1.
</event>
<event>
 8    1  0.1082757E+005  0.1043930E+01  0.7957747E-01            NaN
         13   -1    0    0    0    0  0.00000000000E+00  0.00000000000E+00  0.74505805969E-08  0.10566000000E+00  0.10566000000E+00 0. -1.
     999900   -1    0    0    0    0 -0.00000000000E+00 -0.00000000000E+00 -0.74505805969E-08  0.93827000000E+00  0.93827000000E+00 0.  1.
     999902    2    1    2    0    0  0.11363063354E-01  0.18520596376E-01 -0.10744160781E-01  0.10196901838E+01  0.10194020317E+01 0.  0.
     999903    2    3    3    0    0  0.15564046514E-01 -0.11132406506E+00  0.57151571493E-01  0.12756512819E+00  0.19268440567E-01 0.  0.
         14    1    1    2    0    0 -0.11363063354E-01 -0.18520596376E-01  0.10744160781E-01  0.24239816208E-01  0.00000000000E+00 0.  1.
     999901    1    3    3    0    0 -0.42009831600E-02  0.12984466144E+00 -0.67895732274E-01  0.89212505560E+00  0.88000000000E+00 0.  1.
        -11    1    4    4    0    0  0.17574660053E-01 -0.10151886603E+00  0.46814424179E-01  0.11316713422E+00  0.51100000000E-03 0. -1.
         11    1    4    4    0    0 -0.20106135396E-02 -0.98051990291E-02  0.10337147314E-01  0.14397993971E-01  0.51100000000E-03 0.  1.
</event>
<event>
 8    1  0.1082757E+005  0.1043930E+01  0.7957747E-01            NaN
         13   -1    0    0    0    0  0.00000000000E+00  0.00000000000E+00  0.74505805969E-08  0.10566000000E+00  0.10566000000E+00 0.  1.
     999900   -1    0    0    0    0 -0.00000000000E+00 -0.00000000000E+00 -0.74505805969E-08  0.93827000000E+00  0.93827000000E+00 0. -1.
     999902    2    1    2    0    0 -0.19271075324E-01  0.15946613450E-01 -0.84599014763E-02  0.10175247210E+01  0.10171820482E+01 0.  0.
     999903    2    3    3    0    0 -0.53309269714E-01  0.39697347724E-01  0.10833594040E+00  0.12883806942E+00  0.21090625796E-01 0.  0.
         14    1    1    2    0    0  0.19271075324E-01 -0.15946613450E-01  0.84599014763E-02  0.26405278973E-01  0.00000000000E+00 0.  1.
     999901    1    3    3    0    0  0.34038194390E-01 -0.23750734274E-01 -0.11679584188E+00  0.88868665160E+00  0.88000000000E+00 0. -1.
        -11    1    4    4    0    0 -0.21264733982E-01  0.62698850471E-02  0.24375275221E-01  0.32953232511E-01  0.51100000000E-03 0.  1.
         11    1    4    4    0    0 -0.32044535732E-01  0.33427462677E-01  0.83960665181E-01  0.95884836913E-01  0.51100000000E-03 0. -1.
</event>
<event>
 8    1  0.1082757E+005  0.1043930E+01  0.7957747E-01            NaN
         13   -1    0    0    0    0  0.00000000000E+00  0.00000000000E+00  0.74505805969E-08  0.10566000000E+00  0.10566000000E+00 0. -1.
     999900   -1    0    0    0    0 -0.00000000000E+00 -0.00000000000E+00 -0.74505805969E-08  0.93827000000E+00  0.93827000000E+00 0.  1.
     999902    2    1    2    0    0 -0.29303300965E-02 -0.17011677230E-01 -0.12292839910E-01  0.10227380697E+01  0.10225184895E+01 0.  0.
     999903    2    3    3    0    0 -0.11237147785E-01 -0.11041207535E+00 -0.74861256641E-01  0.13554730985E+00  0.21254778041E-01 0.  0.
         14    1    1    2    0    0  0.29303300965E-02  0.17011677230E-01  0.12292839910E-01  0.21191930297E-01  0.00000000000E+00 0. -1.
     999901    1    3    3    0    0  0.83068176885E-02  0.93400398119E-01  0.62568416731E-01  0.88719075985E+00  0.88000000000E+00 0. -1.
        -11    1    4    4    0    0 -0.11000965941E-01 -0.49082154159E-01 -0.23371078826E-01  0.55466634611E-01  0.51100000000E-03 0.  1.
         11    1    4    4    0    0 -0.23618184355E-03 -0.61329921190E-01 -0.51490177815E-01  0.80080675243E-01  0.51100000000E-03 0. -1.
</event>
<event>
 8    1  0.1082757E+005  0.1043930E+01  0.7957747E-01            NaN
         13   -1    0    0    0    0  0.00000000000E+00  0.00000000000E+00  0.74505805969E-08  0.10566000000E+00  0.10566000000E+00 0. -1.
     999900   -1    0    0    0    0 -0.00000000000E+00 -0.00000000000E+00 -0.74505805969E-08  0.93827000000E+00  0.93827000000E+00 0.  1.
     999902    2    1    2    0    0 -0.21004771738E-01 -0.73822845178E-02 -0.89266590749E-02  0.10199428409E+01  0.10196607352E+01 0.  0.
     999903    2    3    3    0    0 -0.71859323391E-01  0.68896016740E-01  0.83229257451E-01  0.13039392282E+00  0.12846880241E-01 0.  0.
         14    1    1    2    0    0  0.21004771738E-01  0.73822845178E-02  0.89266590749E-02  0.23987159121E-01  0.00000000000E+00 0. -1.
     999901    1    3    3    0    0  0.50854551653E-01 -0.76278301257E-01 -0.92155916526E-01  0.88954891806E+00  0.88000000000E+00 0. -1.
        -11    1    4    4    0    0 -0.32919632303E-01  0.34092629866E-01  0.31663502629E-01  0.56998667720E-01  0.51100000000E-03 0.  1.
         11    1    4    4    0    0 -0.38939691089E-01  0.34803386873E-01  0.51565754822E-01  0.73395255101E-01  0.51100000000E-03 0. -1.
</event>
<event>
 8    1  0.1082757E+005  0.1043930E+01  0.7957747E-01            NaN
         13   -1    0    0    0    0  0.00000000000E+00  0.00000000000E+00  0.74505805969E-08  0.10566000000E+00  0.10566000000E+00 0.  1.
     999900   -1    0    0    0    0 -0.00000000000E+00 -0.00000000000E+00 -0.74505805969E-08  0.93827000000E+00  0.93827000000E+00 0.  1.
     999902    2    1    2    0    0 -0.10680788137E-01 -0.20322230572E-01 -0.56297125996E-02  0.10202917692E+01  0.10200179059E+01 0.  0.
     999903    2    3    3    0    0  0.58127618779E-01  0.93837417815E-01 -0.62781326347E-01  0.12842107840E+00  0.19136284715E-01 0.  0.
         14    1    1    2    0    0  0.10680788137E-01  0.20322230572E-01  0.56297125996E-02  0.23638230784E-01  0.00000000000E+00 0. -1.
     999901    1    3    3    0    0 -0.68808406916E-01 -0.11415964839E+00  0.57151613747E-01  0.89187069082E+00  0.88000000000E+00 0. -1.
        -11    1    4    4    0    0  0.32547753415E-01  0.34628990889E-01 -0.27051577998E-01  0.54686124891E-01  0.51100000000E-03 0. -1.
         11    1    4    4    0    0  0.25579865363E-01  0.59208426926E-01 -0.35729748349E-01  0.73734953510E-01  0.51100000000E-03 0.  1.
</event>
<event>
 8    1  0.1082757E+005  0.1043930E+01  0.7957747E-01            NaN
         13   -1    0    0    0    0  0.00000000000E+00  0.00000000000E+00  0.74505805969E-08  0.10566000000E+00  0.10566000000E+00 0.  1.
     999900   -1    0    0    0    0 -0.00000000000E+00 -0.00000000000E+00 -0.74505805969E-08  0.93827000000E+00  0.93827000000E+00 0. -1.
     999902    2    1    2    0    0 -0.16171519034E-01 -0.10346473034E-01 -0.14201583993E-01  0.10200500394E+01  0.10197704792E+01 0.  0.
     999903    2    3    3    0    0 -0.31472231714E-01  0.20902309036E-01 -0.12515480806E+00  0.13240077523E+00  0.20948303244E-01 0.  0.
         14    1    1    2    0    0  0.16171519034E-01  0.10346473034E-01  0.14201583993E-01  0.23879960637E-01  0.00000000000E+00 0.  1.
     999901    1    3    3    0    0  0.15300712680E-01 -0.31248782070E-01  0.11095322406E+00  0.88764926414E+00  0.88000000000E+00 0.  1.
        -11    1    4    4    0    0 -0.11509967263E-01 -0.19832007325E-02 -0.49829455542E-01  0.51182498886E-01  0.51100000000E-03 0. -1.
         11    1    4    4    0    0 -0.19962264451E-01  0.22885509768E-01 -0.75325352516E-01  0.81218276342E-01  0.51100000000E-03 0.  1.
</event>
<event>
 8    1  0.1082757E+005  0.1043930E+01  0.7957747E-01            NaN
         13   -1    0    0    0    0  0.00000000000E+00  0.00000000000E+00  0.74505805969E-08  0.10566000000E+00  0.10566000000E+00 0. -1.
     999900   -1    0    0    0    0 -0.00000000000E+00 -0.00000000000E+00 -0.74505805969E-08  0.93827000000E+00  0.93827000000E+00 0. -1.
     999902    2    1    2    0    0  0.18413291320E-01  0.52323352731E-03 -0.11822338825E-01  0.10220418579E+01  0.10218074518E+01 0.  0.
     999903    2    3    3    0    0 -0.12141145834E+00 -0.26363842940E-02  0.41273037413E-01  0.12941648137E+00  0.17247298150E-01 0.  0.
         14    1    1    2    0    0 -0.18413291320E-01 -0.52323352731E-03  0.11822338825E-01  0.21888142129E-01  0.00000000000E+00 0.  1.
     999901    1    3    3    0    0  0.13982474966E+00  0.31596178213E-02 -0.53095376238E-01  0.89262537650E+00  0.88000000000E+00 0.  1.
        -11    1    4    4    0    0 -0.25957335856E-01 -0.45232198260E-02  0.28738102132E-02  0.26509671979E-01  0.51100000000E-03 0.  1.
         11    1    4    4    0    0 -0.95454122484E-01  0.18868355320E-02  0.38399227200E-01  0.10290680939E+00  0.51100000000E-03 0. -1.
</event>
<event>
 8    1  0.1082757E+005  0.1043930E+01  0.7957747E-01            NaN
         13   -1    0    0    0    0  0.00000000000E+00  0.00000000000E+00  0.74505805969E-08  0.10566000000E+00  0.10566000000E+00 0. -1.
     999900   -1    0    0    0    0 -0.00000000000E+00 -0.00000000000E+00 -0.74505805969E-08  0.93827000000E+00  0.93827000000E+00 0.  1.
     999902    2    1    2    0    0 -0.15606097970E-01 -0.91918846549E-02  0.15072938896E-01  0.10203665850E+01  0.10200944728E+01 0.  0.
     999903    2    3    3    0    0  0.81887295560E-01 -0.62643915532E-01 -0.76566419326E-01  0.12864922323E+00  0.76430845918E-02 0.  0.
         14    1    1    2    0    0  0.15606097970E-01  0.91918846549E-02 -0.15072938896E-01  0.23563414955E-01  0.00000000000E+00 0.  1.
     999901    1    3    3    0    0 -0.97493393530E-01  0.53452030878E-01  0.91639358222E-01  0.89171736181E+00  0.88000000000E+00 0. -1.
        -11    1    4    4    0    0  0.64533245389E-01 -0.49503338555E-01 -0.64112281733E-01  0.10356527448E+00  0.51100000000E-03 0. -1.
         11    1    4    4    0    0  0.17354050171E-01 -0.13140576977E-01 -0.12454137593E-01  0.25083948748E-01  0.51100000000E-03 0.  1.
</event>
<event>
 8    1  0.1082757E+005  0.1043930E+01  0.7957747E-01            NaN
         13   -1    0    0    0    0  0.00000000000E+00  0.00000000000E+00  0.74505805969E-08  0.10566000000E+00  0.10566000000E+00 0.  1.
     999900   -1    0    0    0    0 -0.00000000000E+00 -0.00000000000E+00 -0.74505805969E-08  0.93827000000E+00  0.93827000000E+00 0. -1.
     999902    2    1    2    0    0 -0.20088034347E-01 -0.99086598573E-02 -0.10206585093E-01  0.10193152678E+01  0.10190180224E+01 0.  0.
     999903    2    3    3    0    0  0.54336325456E-01  0.11348049732E+00  0.50006870502E-02  0.12746599206E+00  0.19806885786E-01 0.  0.
         14    1    1    2    0    0  0.20088034347E-01  0.99086598573E-02  0.10206585093E-01  0.24614732242E-01  0.00000000000E+00 0.  1.
     999901    1    3    3    0    0 -0.74424359802E-01 -0.12338915718E+00 -0.15207272143E-01  0.89184927570E+00  0.88000000000E+00 0.  1.
        -11    1    4    4    0    0  0.18782014831E-01  0.44618627724E-01  0.11284911643E-01  0.49711129266E-01  0.51100000000E-03 0. -1.
         11    1    4    4    0    0  0.35554310624E-01  0.68861869595E-01 -0.62842245926E-02  0.77754862792E-01  0.51100000000E-03 0.  1.
</event>
<event>
 8    1  0.1082757E+005  0.1043930E+01  0.7957747E-01            NaN
         13   -1    0    0    0    0  0.00000000000E+00  0.00000000000E+00  0.74505805969E-08  0.10566000000E+00  0.10566000000E+00 0. -1.
     999900   -1    0    0    0    0 -0.00000000000E+00 -0.00000000000E+00 -0.74505805969E-08  0.93827000000E+00  0.93827000000E+00 0. -1.
     999902    2    1    2    0    0 -0.55099752627E-02 -0.26082267791E-01  0.75333151147E-02  0.10162280983E+01  0.10158504577E+01 0.  0.
     999903    2    3    3    0    0 -0.11578278188E+00 -0.52658832277E-01  0.70827162402E-02  0.12894764169E+00  0.19968080356E-01 0.  0.
         14    1    1    2    0    0  0.55099752627E-02  0.26082267791E-01 -0.75333151147E-02  0.27701901688E-01  0.00000000000E+00 0.  1.
     999901    1    3    3    0    0  0.11027280661E+00  0.26576564486E-01  0.45059887452E-03  0.88728045662E+00  0.88000000000E+00 0. -1.
        -11    1    4    4    0    0 -0.49548764101E-01 -0.26066202985E-01  0.12499655983E-01  0.57367495001E-01  0.51100000000E-03 0.  1.
         11    1    4    4    0    0 -0.66234017775E-01 -0.26592629292E-01 -0.54169397425E-02  0.71580146692E-01  0.51100000000E-03 0. -1.
</event>
<event>
 8    1  0.1082757E+005  0.1043930E+01  0.7957747E-01            NaN
         13   -1    0    0    0    0  0.00000000000E+00  0.00000000000E+00  0.74505805969E-08  0.10566000000E+00  0.10566000000E+00 0. -1.
     999900   -1    0    0    0    0 -0.00000000000E+00 -0.00000000000E+00 -0.74505805969E-08  0.93827000000E+00  0.93827000000E+00 0. -1.
     999902    2    1    2    0    0 -0.19288152663E-01  0.60777185451E-02 -0.11541534934E-01  0.10206452727E+01  0.10203796324E+01 0.  0.
     999903    2    3    3    0    0  0.60693149056E-01  0.10653081116E+00  0.38020440966E-01  0.12994654594E+00  0.20200960374E-01 0.  0.
         14    1    1    2    0    0  0.19288152663E-01 -0.60777185451E-02  0.11541534934E-01  0.23284727280E-01  0.00000000000E+00 0. -1.
     999901    1    3    3    0    0 -0.79981301719E-01 -0.10045309262E+00 -0.49561975899E-01  0.89069872678E+00  0.88000000000E+00 0. -1.
        -11    1    4    4    0    0  0.18938089574E-01  0.36624518545E-01  0.31149248838E-02  0.41351789241E-01  0.51100000000E-03 0.  1.
         11    1    4    4    0    0  0.41755059481E-01  0.69906292618E-01  0.34905516082E-01  0.88594756695E-01  0.51100000000E-03 0. -1.
</event>
<event>
 8    1  0.1082757E+005  0.1043930E+01  0.7957747E-01            NaN
         13   -1    0    0    0    0  0.00000000000E+00  0.00000000000E+00  0.74505805969E-08  0.10566000000E+00  0.10566000000E+00 0. -1.
     999900   -1    0    0    0    0 -0.00000000000E+00 -0.00000000000E+00 -0.74505805969E-08  0.93827000000E+00  0.93827000000E+00 0. -1.
     999902    2    1    2    0    0 -0.10879593440E-01  0.58050229270E-02  0.21994126297E-01  0.10187148173E+01  0.10184027070E+01 0.  0.
     999903    2    3    3    0    0  0.71537097520E-01  0.15367104288E-01  0.10648714873E+00  0.13078294204E+00  0.20272169768E-01 0.  0.
         14    1    1    2    0    0  0.10879593440E-01 -0.58050229270E-02 -0.21994126297E-01  0.25215182652E-01  0.00000000000E+00 0.  1.
     999901    1    3    3    0    0 -0.82416690960E-01 -0.95620813606E-02 -0.84493022438E-01  0.88793187531E+00  0.88000000000E+00 0.  1.
        -11    1    4    4    0    0  0.55581318018E-01  0.34573654405E-02  0.72958721036E-01  0.91784924604E-01  0.51100000000E-03 0.  1.
         11    1    4    4    0    0  0.15955779501E-01  0.11909738847E-01  0.33528427698E-01  0.38998017435E-01  0.51100000000E-03 0. -1.
</event>
<event>
 8    1  0.1082757E+005  0.1043930E+01  0.7957747E-01            NaN
         13   -1    0    0    0    0  0.00000000000E+00  0.00000000000E+00  0.74505805969E-08  0.10566000000E+00  0.10566000000E+00 0. -1.
     999900   -1    0    0    0    0 -0.00000000000E+00 -0.00000000000E+00 -0.74505805969E-08  0.93827000000E+00  0.93827000000E+00 0.  1.
     999902    2    1    2    0    0  0.33996066237E-02  0.18477922828E-01 -0.15541036824E-01  0.10195473262E+01  0.10192557263E+01 0.  0.
     999903    2    3    3    0    0 -0.88550319160E-01 -0.89895586506E-01 -0.87685336248E-02  0.12811843211E+00  0.20373266008E-01 0.  0.
         14    1    1    2    0    0 -0.33996066237E-02 -0.18477922828E-01  0.15541036824E-01  0.24382673824E-01  0.00000000000E+00 0. -1.
     999901    1    3    3    0    0  0.91949925784E-01  0.10837350933E+00 -0.67725031992E-02  0.89142889407E+00  0.88000000000E+00 0. -1.
        -11    1    4    4    0    0 -0.68159379303E-01 -0.76847422693E-01 -0.12993034830E-01  0.10353891750E+00  0.51100000000E-03 0. -1.
         11    1    4    4    0    0 -0.20390939858E-01 -0.13048163812E-01  0.42245012047E-02  0.24579514612E-01  0.51100000000E-03 0.  1.
</event>
<event>
 8    1  0.1082757E+005  0.1043930E+01  0.7957747E-01            NaN
         13   -1    0    0    0    0  0.00000000000E+00  0.00000000000E+00  0.74505805969E-08  0.10566000000E+00  0.10566000000E+00 0. -1.
     999900   -1    0    0    0    0 -0.00000000000E+00 -0.00000000000E+00 -0.74505805969E-08  0.93827000000E+00  0.93827000000E+00 0. -1.
     999902    2    1    2    0    0 -0.50372229036E-02  0.24376656967E-01 -0.53098769266E-02  0.10184782847E+01  0.10181602165E+01 0.  0.
     999903    2    3    3    0    0  0.66341117481E-01  0.11109324098E+00  0.69840315331E-02  0.13125465245E+00  0.20884325025E-01 0.  0.
         14    1    1    2    0    0  0.50372229036E-02 -0.24376656967E-01  0.53098769266E-02  0.25451715314E-01  0.00000000000E+00 0. -1.
     999901    1    3    3    0    0 -0.71378340384E-01 -0.86716584016E-01 -0.12293908460E-01  0.88722363224E+00  0.88000000000E+00 0. -1.
        -11    1    4    4    0    0  0.11069330899E-01  0.79588728528E-02 -0.24542085636E-02  0.13862106778E-01  0.51100000000E-03 0. -1.
         11    1    4    4    0    0  0.55271786582E-01  0.10313436813E+00  0.94382400967E-02  0.11739254567E+00  0.51100000000E-03 0.  1.
</event>
<event>
 8    1  0.1082757E+005  0.1043930E+01  0.7957747E-01            NaN
         13   -1    0    0    0    0  0.00000000000E+00  0.00000000000E+00  0.74505805969E-08  0.10566000000E+00  0.10566000000E+00 0. -1.
     999900   -1    0    0    0    0 -0.00000000000E+00 -0.00000000000E+00 -0.74505805969E-08  0.93827000000E+00  0.93827000000E+00 0.  1.
     999902    2    1    2    0    0  0.26406326046E-02 -0.22120858596E-01  0.18597983675E-02  0.10215745940E+01  0.10213299599E+01 0.  0.
     999903    2    3    3    0    0 -0.64390534852E-01 -0.77976665852E-02  0.11316510995E+00  0.13191892828E+00  0.19731116137E-01 0.  0.
         14    1    1    2    0    0 -0.26406326046E-02  0.22120858596E-01 -0.18597983675E-02  0.22355405958E-01  0.00000000000E+00 0. -1.
     999901    1    3    3    0    0  0.67031167457E-01 -0.14323192011E-01 -0.11130531159E+00  0.88965566576E+00  0.88000000000E+00 0.  1.
        -11    1    4    4    0    0 -0.10656683455E-01 -0.55815234732E-02  0.35206905744E-01  0.37208945693E-01  0.51100000000E-03 0. -1.
         11    1    4    4    0    0 -0.53733851398E-01 -0.22161431120E-02  0.77958204211E-01  0.94709982584E-01  0.51100000000E-03 0.  1.
</event>
<event>
 8    1  0.1082757E+005  0.1043930E+01  0.7957747E-01            NaN
         13   -1    0    0    0    0  0.00000000000E+00  0.00000000000E+00  0.74505805969E-08  0.10566000000E+00  0.10566000000E+00 0. -1.
     999900   -1    0    0    0    0 -0.00000000000E+00 -0.00000000000E+00 -0.74505805969E-08  0.93827000000E+00  0.93827000000E+00 0.  1.
     999902    2    1    2    0    0 -0.96085371123E-02 -0.39178371061E-02  0.20919903333E-01  0.10205780025E+01  0.10203108072E+01 0.  0.
     999903    2    3    3    0    0  0.95726172639E-01 -0.50559750501E-01 -0.66702876488E-01  0.12875480211E+00  0.20217241047E-01 0.  0.
         14    1    1    2    0    0  0.96085371123E-02  0.39178371061E-02 -0.20919903333E-01  0.23351997527E-01  0.00000000000E+00 0.  1.
     999901    1    3    3    0    0 -0.10533470975E+00  0.46641913395E-01  0.87622779821E-01  0.89182320036E+00  0.88000000000E+00 0. -1.
        -11    1    4    4    0    0  0.76101889311E-01 -0.48822230752E-01 -0.54335394789E-01  0.10548793305E+00  0.51100000000E-03 0. -1.
         11    1    4    4    0    0  0.19624283328E-01 -0.17375197494E-02 -0.12367481699E-01  0.23266869055E-01  0.51100000000E-03 0.  1.
</event>
<event>
 8    1  0.1082757E+005  0.1043930E+01  0.7957747E-01            NaN
         13   -1    0    0    0    0  0.00000000000E+00  0.00000000000E+00  0.74505805969E-08  0.10566000000E+00  0.10566000000E+00 0.  1.
     999900   -1    0    0    0    0 -0.00000000000E+00 -0.00000000000E+00 -0.74505805969E-08  0.93827000000E+00  0.93827000000E+00 0. -1.
     999902    2    1    2    0    0  0.18425464069E-01 -0.35315206358E-02  0.14075604334E-01  0.10204759598E+01  0.10202063970E+01 0.  0.
     999903    2    3    3    0    0 -0.62160589426E-01 -0.98031058308E-01 -0.53230542605E-01  0.12921034729E+00  0.19692534359E-01 0.  0.
         14    1    1    2    0    0 -0.18425464069E-01  0.35315206358E-02 -0.14075604334E-01  0.23454040196E-01  0.00000000000E+00 0.  1.
     999901    1    3    3    0    0  0.80586053495E-01  0.94499537673E-01  0.67306146939E-01  0.89126561252E+00  0.88000000000E+00 0.  1.
        -11    1    4    4    0    0 -0.53326808055E-01 -0.68059970149E-01 -0.40182504635E-01  0.95345701496E-01  0.51100000000E-03 0. -1.
         11    1    4    4    0    0 -0.88337813711E-02 -0.29971088160E-01 -0.13048037970E-01  0.33864645792E-01  0.51100000000E-03 0.  1.
</event>
<event>
 8    1  0.1082757E+005  0.1043930E+01  0.7957747E-01            NaN
         13   -1    0    0    0    0  0.00000000000E+00  0.00000000000E+00  0.74505805969E-08  0.10566000000E+00  0.10566000000E+00 0. -1.
     999900   -1    0    0    0    0 -0.00000000000E+00 -0.00000000000E+00 -0.74505805969E-08  0.93827000000E+00  0.93827000000E+00 0.  1.
     999902    2    1    2    0    0  0.79970972657E-03  0.97718391401E-02 -0.21543433925E-01  0.10202604432E+01  0.10199858450E+01 0.  0.
     999903    2    3    3    0    0  0.50526375602E-01 -0.90186013234E-01  0.72720732416E-01  0.12821221206E+00  0.21532180185E-01 0.  0.
         14    1    1    2    0    0 -0.79970972657E-03 -0.97718391401E-02  0.21543433925E-01  0.23669556842E-01  0.00000000000E+00 0. -1.
     999901    1    3    3    0    0 -0.49726665875E-01  0.99957852374E-01 -0.94264166341E-01  0.89204823110E+00  0.88000000000E+00 0. -1.
        -11    1    4    4    0    0  0.30226998615E-01 -0.66722567523E-01  0.59952421900E-01  0.94657944595E-01  0.51100000000E-03 0. -1.
         11    1    4    4    0    0  0.20299376986E-01 -0.23463445711E-01  0.12768310516E-01  0.33554267464E-01  0.51100000000E-03 0.  1.
</event>
<event>
 8    1  0.1082757E+005  0.1043930E+01  0.7957747E-01            NaN
         13   -1    0    0    0    0  0.00000000000E+00  0.00000000000E+00  0.74505805969E-08  0.10566000000E+00  0.10566000000E+00 0.  1.
     999900   -1    0    0    0    0 -0.00000000000E+00 -0.00000000000E+00 -0.74505805969E-08  0.93827000000E+00  0.93827000000E+00 0. -1.
     999902    2    1    2    0    0  0.26805540149E-01  0.73041658860E-02  0.13824095984E-01  0.10128978642E+01  0.10124223871E+01 0.  0.
     999903    2    3    3    0    0  0.78738047908E-01  0.78032572551E-01  0.59431932177E-01  0.12735872471E+00  0.19983183653E-01 0.  0.
         14    1    1    2    0    0 -0.26805540149E-01 -0.73041658860E-02 -0.13824095984E-01  0.31032135791E-01  0.00000000000E+00 0. -1.
     999901    1    3    3    0    0 -0.51932507758E-01 -0.70728406665E-01 -0.45607836194E-01  0.88553913950E+00  0.88000000000E+00 0. -1.
        -11    1    4    4    0    0  0.50562493448E-01  0.36812096719E-01  0.36444965620E-01  0.72389176322E-01  0.51100000000E-03 0. -1.
         11    1    4    4    0    0  0.28175554460E-01  0.41220475832E-01  0.22986966557E-01  0.54969548383E-01  0.51100000000E-03 0.  1.
</event>
<event>
 8    1  0.1082757E+005  0.1043930E+01  0.7957747E-01            NaN
         13   -1    0    0    0    0  0.00000000000E+00  0.00000000000E+00  0.74505805969E-08  0.10566000000E+00  0.10566000000E+00 0.  1.
     999900   -1    0    0    0    0 -0.00000000000E+00 -0.00000000000E+00 -0.74505805969E-08  0.93827000000E+00  0.93827000000E+00 0.  1.
     999902    2    1    2    0    0 -0.15025820581E-01  0.32313588041E-02  0.18407496686E-01  0.10199497394E+01  0.10196677979E+01 0.  0.
     999903    2    3    3    0    0 -0.59623996168E-01 -0.27070167878E-01 -0.10925729411E+00  0.12910436641E+00  0.21046762263E-01 0.  0.
         14    1    1    2    0    0  0.15025820581E-01 -0.32313588041E-02 -0.18407496686E-01  0.23980260592E-01  0.00000000000E+00 0. -1.
     999901    1    3    3    0    0  0.44598175587E-01  0.30301526682E-01  0.12766479079E+00  0.89084537300E+00  0.88000000000E+00 0. -1.
        -11    1    4    4    0    0 -0.59539395441E-01 -0.23089309556E-01 -0.96394215650E-01  0.11562941562E+00  0.51100000000E-03 0. -1.
         11    1    4    4    0    0 -0.84600726921E-04 -0.39808583225E-02 -0.12863078460E-01  0.13474950787E-01  0.51100000000E-03 0.  1.
</event>
<event>
 8    1  0.1082757E+005  0.1043930E+01  0.7957747E-01            NaN
         13   -1    0    0    0    0  0.00000000000E+00  0.00000000000E+00  0.74505805969E-08  0.10566000000E+00  0.10566000000E+00 0.  1.
     999900   -1    0    0    0    0 -0.00000000000E+00 -0.00000000000E+00 -0.74505805969E-08  0.93827000000E+00  0.93827000000E+00 0.  1.
     999902    2    1    2    0    0 -0.11167110077E-01 -0.20038035682E-01 -0.45804414864E-02  0.10205375297E+01  0.10202693967E+01 0.  0.
     999903    2    3    3    0    0  0.11257035062E+00 -0.61385296324E-01  0.15981222068E-01  0.13068173402E+00  0.19546807979E-01 0.  0.
         14    1    1    2    0    0  0.11167110077E-01  0.20038035682E-01  0.45804414864E-02  0.23392470277E-01  0.00000000000E+00 0.  1.
     999901    1    3    3    0    0 -0.12373746070E+00  0.41347260642E-01 -0.20561663554E-01  0.88985579571E+00  0.88000000000E+00 0.  1.
        -11    1    4    4    0    0  0.49738679746E-01 -0.17934907250E-01  0.11781730073E-01  0.54172570970E-01  0.51100000000E-03 0. -1.
         11    1    4    4    0    0  0.62831670879E-01 -0.43450389074E-01  0.41994919949E-02  0.76509163047E-01  0.51100000000E-03 0.  1.
</event>
<event>
 8    1  0.1082757E+005  0.1043930E+01  0.7957747E-01            NaN
         13   -1    0    0    0    0  0.00000000000E+00  0.00000000000E+00  0.74505805969E-08  0.10566000000E+00  0.10566000000E+00 0. -1.
     999900   -1    0    0    0    0 -0.00000000000E+00 -0.00000000000E+00 -0.74505805969E-08  0.93827000000E+00  0.93827000000E+00 0.  1.
     999902    2    1    2    0    0 -0.22269003184E-01  0.27626852759E-03 -0.92317779745E-02  0.10198216912E+01  0.10195366945E+01 0.  0.
     999903    2    3    3    0    0 -0.86599468944E-02 -0.42007694568E-01 -0.12253179629E+00  0.13144675119E+00  0.20605004578E-01 0.  0.
         14    1    1    2    0    0  0.22269003184E-01 -0.27626852759E-03  0.92317779745E-02  0.24108308768E-01  0.00000000000E+00 0.  1.
     999901    1    3    3    0    0 -0.13609056289E-01  0.42283963095E-01  0.11330001831E+00  0.88837494004E+00  0.88000000000E+00 0. -1.
        -11    1    4    4    0    0 -0.13771700691E-01 -0.27942336133E-01 -0.66304479940E-01  0.73259668779E-01  0.51100000000E-03 0.  1.
         11    1    4    4    0    0  0.51117537971E-02 -0.14065358435E-01 -0.56227316346E-01  0.58187082409E-01  0.51100000000E-03 0. -1.
</event>
<event>
 8    1  0.1082757E+005  0.1043930E+01  0.7957747E-01            NaN
         13   -1    0    0    0    0  0.00000000000E+00  0.00000000000E+00  0.74505805969E-08  0.10566000000E+00  0.10566000000E+00 0. -1.
     999900   -1    0    0    0    0 -0.00000000000E+00 -0.00000000000E+00 -0.74505805969E-08  0.93827000000E+00  0.93827000000E+00 0. -1.
     999902    2    1    2    0    0  0.15525610308E-01 -0.11820132421E-01  0.14450875338E-01  0.10196485687E+01  0.10193594145E+01 0.  0.
     999903    2    3    3    0    0 -0.65793995213E-02 -0.11306367041E+00 -0.60767140480E-01  0.13038109753E+00  0.21906692317E-01 0.  0.
         14    1    1    2    0    0 -0.15525610308E-01  0.11820132421E-01 -0.14450875338E-01  0.24281431258E-01  0.00000000000E+00 0. -1.
     999901    1    3    3    0    0  0.22105009830E-01  0.10124353799E+00  0.75218015818E-01  0.88926747121E+00  0.88000000000E+00 0.  1.
        -11    1    4    4    0    0 -0.12722662241E-01 -0.52787011998E-01 -0.34554304577E-01  0.64363000675E-01  0.51100000000E-03 0.  1.
         11    1    4    4    0    0  0.61432627198E-02 -0.60276658410E-01 -0.26212835903E-01  0.66018096860E-01  0.51100000000E-03 0. -1.
</event>
<event>
 8    1  0.1082757E+005  0.1043930E+01  0.7957747E-01            NaN
         13   -1    0    0    0    0  0.00000000000E+00  0.00000000000E+00  0.74505805969E-08  0.10566000000E+00  0.10566000000E+00 0. -1.
     999900   -1    0    0    0    0 -0.00000000000E+00 -0.00000000000E+00 -0.74505805969E-08  0.93827000000E+00  0.93827000000E+00 0. -1.
     999902    2    1    2    0    0 -0.28590734858E-02  0.22715011275E-01  0.31383086593E-02  0.10208216677E+01  0.10205600827E+01 0.  0.
     999903    2    3    3    0    0  0.12645295727E+00 -0.89109085687E-02 -0.25221898954E-01  0.13035768673E+00  0.16947790703E-01 0.  0.
         14    1    1    2    0    0  0.28590734858E-02 -0.22715011275E-01 -0.31383086593E-02  0.23108332257E-01  0.00000000000E+00 0. -1.
     999901    1    3    3    0    0 -0.12931203075E+00  0.31625919844E-01  0.28360207613E-01  0.89046398101E+00  0.88000000000E+00 0.  1.
        -11    1    4    4    0    0  0.32282769263E-01 -0.70270302227E-02 -0.12426879987E-01  0.35302192740E-01  0.51100000000E-03 0.  1.
         11    1    4    4    0    0  0.94170188005E-01 -0.18838783460E-02 -0.12795018966E-01  0.95055493991E-01  0.51100000000E-03 0. -1.
</event>
<event>
 8    1  0.1562782E+005  0.1043930E+01  0.7957747E-01            NaN
         13   -1    0    0    0    0  0.00000000000E+00  0.00000000000E+00  0.74505805969E-08  0.10566000000E+00  0.10566000000E+00 0.  1.
     999900   -1    0    0    0    0 -0.00000000000E+00 -0.00000000000E+00 -0.74505805969E-08  0.93827000000E+00  0.93827000000E+00 0.  1.
     999902    2    1    2    0    0  0.72031965320E-02 -0.29708758521E-02  0.22649842368E-01  0.10199773905E+01  0.10196961065E+01 0.  0.
     999903    2    3    3    0    0 -0.17122745466E-01 -0.50190424974E-01  0.12032343200E+00  0.13298158024E+00  0.19852083590E-01 0.  0.
         14    1    1    2    0    0 -0.72031965320E-02  0.29708758521E-02 -0.22649842368E-01  0.23952609521E-01  0.00000000000E+00 0. -1.
     999901    1    3    3    0    0  0.24325941998E-01  0.47219549122E-01 -0.97673589633E-01  0.88699581024E+00  0.88000000000E+00 0.  1.
        -11    1    4    4    0    0  0.16671988851E-02 -0.24698345149E-01  0.47409536770E-01  0.53485634548E-01  0.51100000000E-03 0.  1.
         11    1    4    4    0    0 -0.18789944351E-01 -0.25492079825E-01  0.72913895230E-01  0.79495945690E-01  0.51100000000E-03 0. -1.
</event>
<event>
 8    1  0.1082757E+005  0.1043930E+01  0.7957747E-01            NaN
         13   -1    0    0    0    0  0.00000000000E+00  0.00000000000E+00  0.74505805969E-08  0.10566000000E+00  0.10566000000E+00 0. -1.
     999900   -1    0    0    0    0 -0.00000000000E+00 -0.00000000000E+00 -0.74505805969E-08  0.93827000000E+00  0.93827000000E+00 0. -1.
     999902    2    1    2    0    0  0.71539375886E-02  0.11724770350E-01 -0.19160071835E-01  0.10203554923E+01  0.10200831207E+01 0.  0.
     999903    2    3    3    0    0  0.96622649551E-01 -0.29779934212E-01  0.78340819992E-01  0.12949427140E+00  0.20216363652E-01 0.  0.
         14    1    1    2    0    0 -0.71539375886E-02 -0.11724770350E-01  0.19160071835E-01  0.23574507747E-01  0.00000000000E+00 0. -1.
     999901    1    3    3    0    0 -0.89468711962E-01  0.41504704562E-01 -0.97500891827E-01  0.89086122086E+00  0.88000000000E+00 0.  1.
        -11    1    4    4    0    0  0.56040407726E-01 -0.27281591220E-01  0.44385170470E-01  0.76518736243E-01  0.51100000000E-03 0.  1.
         11    1    4    4    0    0  0.40582241824E-01 -0.24983429928E-02  0.33955649522E-01  0.52975535152E-01  0.51100000000E-03 0. -1.
</event>
<event>
 8    1  0.1082757E+005  0.1043930E+01  0.7957747E-01            NaN
         13   -1    0    0    0    0  0.00000000000E+00  0.00000000000E+00  0.74505805969E-08  0.10566000000E+00  0.10566000000E+00 0. -1.
     999900   -1    0    0    0    0 -0.00000000000E+00 -0.00000000000E+00 -0.74505805969E-08  0.93827000000E+00  0.93827000000E+00 0.  1.
     999902    2    1    2    0    0 -0.14508935214E-02  0.14746386786E-01 -0.16822217848E-01  0.10215124170E+01  0.10212664050E+01 0.  0.
     999903    2    3    3    0    0 -0.81252227117E-01 -0.33910624529E-01 -0.97821111603E-01  0.13286367963E+00  0.18219018166E-01 0.  0.
         14    1    1    2    0    0  0.14508935214E-02 -0.14746386786E-01  0.16822217848E-01  0.22417583023E-01  0.00000000000E+00 0. -1.
     999901    1    3    3    0    0  0.79801333595E-01  0.48657011316E-01  0.80998893754E-01  0.88864873734E+00  0.88000000000E+00 0. -1.
        -11    1    4    4    0    0 -0.42533135247E-01 -0.25826272622E-01 -0.46878002545E-01  0.68365723832E-01  0.51100000000E-03 0.  1.
         11    1    4    4    0    0 -0.38719091870E-01 -0.80843519075E-02 -0.50943109058E-01  0.64497955801E-01  0.51100000000E-03 0. -1.
</event>
<event>
 8    1  0.1082757E+005  0.1043930E+01  0.7957747E-01            NaN
         13   -1    0    0    0    0  0.00000000000E+00  0.00000000000E+00  0.74505805969E-08  0.10566000000E+00  0.10566000000E+00 0. -1.
     999900   -1    0    0    0    0 -0.00000000000E+00 -0.00000000000E+00 -0.74505805969E-08  0.93827000000E+00  0.93827000000E+00 0.  1.
     999902    2    1    2    0    0  0.17820997933E-01 -0.97805622547E-02 -0.11434455539E-01  0.10206063181E+01  0.10203397779E+01 0.  0.
     999903    2    3    3    0    0 -0.39015045069E-01 -0.97773709854E-01 -0.77002453593E-01  0.13197124551E+00  0.20128579244E-01 0.  0.
         14    1    1    2    0    0 -0.17820997933E-01  0.97805622547E-02  0.11434455539E-01  0.23323681931E-01  0.00000000000E+00 0. -1.
     999901    1    3    3    0    0  0.56836043002E-01  0.87993147600E-01  0.65567998053E-01  0.88863507256E+00  0.88000000000E+00 0. -1.
        -11    1    4    4    0    0 -0.84432777439E-02 -0.41344665386E-01 -0.22807565876E-01  0.47969953900E-01  0.51100000000E-03 0. -1.
         11    1    4    4    0    0 -0.30571767325E-01 -0.56429044468E-01 -0.54194887717E-01  0.84001291613E-01  0.51100000000E-03 0.  1.
</event>
<event>
 8    1  0.1082757E+005  0.1043930E+01  0.7957747E-01            NaN
         13   -1    0    0    0    0  0.00000000000E+00  0.00000000000E+00  0.74505805969E-08  0.10566000000E+00  0.10566000000E+00 0.  1.
     999900   -1    0    0    0    0 -0.00000000000E+00 -0.00000000000E+00 -0.74505805969E-08  0.93827000000E+00  0.93827000000E+00 0.  1.
     999902    2    1    2    0    0 -0.13020613603E-01  0.19652937046E-01  0.36515261660E-02  0.10200740163E+01  0.10197950239E+01 0.  0.
     999903    2    3    3    0    0 -0.75379485757E-01  0.70861176823E-01  0.80784636579E-01  0.13302247923E+00  0.21574272191E-01 0.  0.
         14    1    1    2    0    0  0.13020613603E-01 -0.19652937046E-01 -0.36515261660E-02  0.23855983662E-01  0.00000000000E+00 0. -1.
     999901    1    3    3    0    0  0.62358872154E-01 -0.51208239777E-01 -0.77133110413E-01  0.88705153710E+00  0.88000000000E+00 0.  1.
        -11    1    4    4    0    0 -0.51360840855E-02  0.29938381357E-02  0.12482786028E-01  0.13835587972E-01  0.51100000000E-03 0. -1.
         11    1    4    4    0    0 -0.70243401671E-01  0.67867338688E-01  0.68301850550E-01  0.11918689126E+00  0.51100000000E-03 0.  1.
</event>
<event>
 8    1  0.1082757E+005  0.1043930E+01  0.7957747E-01            NaN
         13   -1    0    0    0    0  0.00000000000E+00  0.00000000000E+00  0.74505805969E-08  0.10566000000E+00  0.10566000000E+00 0. -1.
     999900   -1    0    0    0    0 -0.00000000000E+00 -0.00000000000E+00 -0.74505805969E-08  0.93827000000E+00  0.93827000000E+00 0.  1.
     999902    2    1    2    0    0  0.12716378183E-01 -0.18935392536E-01 -0.90896096429E-02  0.10193764592E+01  0.10190807078E+01 0.  0.
     999903    2    3    3    0    0 -0.41420610042E-01  0.56278916580E-01 -0.10676829002E+00  0.12913540731E+00  0.19836891857E-01 0.  0.
         14    1    1    2    0    0 -0.12716378183E-01  0.18935392536E-01  0.90896096429E-02  0.24553540845E-01  0.00000000000E+00 0.  1.
     999901    1    3    3    0    0  0.54136988225E-01 -0.75214309116E-01  0.97678680381E-01  0.89024105185E+00  0.88000000000E+00 0. -1.
        -11    1    4    4    0    0 -0.20196376061E-01  0.11911569669E-01 -0.34822760316E-01  0.41984102408E-01  0.51100000000E-03 0. -1.
         11    1    4    4    0    0 -0.21224233981E-01  0.44367346911E-01 -0.71945529709E-01  0.87151304902E-01  0.51100000000E-03 0.  1.
</event>
<event>
 8    1  0.1082757E+005  0.1043930E+01  0.7957747E-01            NaN
         13   -1    0    0    0    0  0.00000000000E+00  0.00000000000E+00  0.74505805969E-08  0.10566000000E+00  0.10566000000E+00 0.  1.
     999900   -1    0    0    0    0 -0.00000000000E+00 -0.00000000000E+00 -0.74505805969E-08  0.93827000000E+00  0.93827000000E+00 0. -1.
     999902    2    1    2    0    0 -0.29213675838E-02  0.10968435678E-01  0.21264156304E-01  0.10198259482E+01  0.10195410533E+01 0.  0.
     999903    2    3    3    0    0 -0.25833256989E-01 -0.12456813220E+00  0.66735038427E-02  0.12903528646E+00  0.20518108373E-01 0.  0.
         14    1    1    2    0    0  0.29213675838E-02 -0.10968435678E-01 -0.21264156304E-01  0.24104051798E-01  0.00000000000E+00 0. -1.
     999901    1    3    3    0    0  0.22911889405E-01  0.13553656788E+00  0.14590652461E-01  0.89079066174E+00  0.88000000000E+00 0. -1.
        -11    1    4    4    0    0 -0.10875368184E-01 -0.68722877293E-01  0.13303630052E-01  0.70840350014E-01  0.51100000000E-03 0.  1.
         11    1    4    4    0    0 -0.14957888805E-01 -0.55845254908E-01 -0.66301262088E-02  0.58194936445E-01  0.51100000000E-03 0. -1.
</event>
<event>
 8    1  0.1082757E+005  0.1043930E+01  0.7957747E-01            NaN
         13   -1    0    0    0    0  0.00000000000E+00  0.00000000000E+00  0.74505805969E-08  0.10566000000E+00  0.10566000000E+00 0.  1.
     999900   -1    0    0    0    0 -0.00000000000E+00 -0.00000000000E+00 -0.74505805969E-08  0.93827000000E+00  0.93827000000E+00 0. -1.
     999902    2    1    2    0    0 -0.22922884359E-01  0.32410844876E-04 -0.72874761060E-02  0.10198765806E+01  0.10195928955E+01 0.  0.
     999903    2    3    3    0    0  0.59559516180E-01  0.10370805043E+00 -0.44438034366E-01  0.12918463124E+00  0.20278914119E-01 0.  0.
         14    1    1    2    0    0  0.22922884359E-01 -0.32410844876E-04  0.72874761060E-02  0.24053419420E-01  0.00000000000E+00 0. -1.
     999901    1    3    3    0    0 -0.82482400539E-01 -0.10367563959E+00  0.37150558260E-01  0.89069194934E+00  0.88000000000E+00 0. -1.
        -11    1    4    4    0    0  0.34034833734E-01  0.62150692813E-01 -0.15716808365E-01  0.72583453421E-01  0.51100000000E-03 0.  1.
         11    1    4    4    0    0  0.25524682446E-01  0.41557357620E-01 -0.28721226000E-01  0.56601177817E-01  0.51100000000E-03 0. -1.
</event>
<event>
 8    1  0.1082757E+005  0.1043930E+01  0.7957747E-01            NaN
         13   -1    0    0    0    0  0.00000000000E+00  0.00000000000E+00  0.74505805969E-08  0.10566000000E+00  0.10566000000E+00 0. -1.
     999900   -1    0    0    0    0 -0.00000000000E+00 -0.00000000000E+00 -0.74505805969E-08  0.93827000000E+00  0.93827000000E+00 0.  1.
     999902    2    1    2    0    0  0.12501845531E-01  0.19291536473E-01  0.41847643592E-02  0.10205639611E+01  0.10202964407E+01 0.  0.
     999903    2    3    3    0    0 -0.11828464793E+00 -0.29624248661E-01 -0.35659358467E-01  0.12866407040E+00  0.20346968345E-01 0.  0.
         14    1    1    2    0    0 -0.12501845531E-01 -0.19291536473E-01 -0.41847643592E-02  0.23366038901E-01  0.00000000000E+00 0.  1.
     999901    1    3    3    0    0  0.13078649346E+00  0.48915785135E-01  0.39844122826E-01  0.89189989070E+00  0.88000000000E+00 0.  1.
        -11    1    4    4    0    0 -0.69782954090E-01 -0.73579792292E-02 -0.22560732069E-01  0.73709214433E-01  0.51100000000E-03 0.  1.
         11    1    4    4    0    0 -0.48501693839E-01 -0.22266269432E-01 -0.13098626398E-01  0.54954855966E-01  0.51100000000E-03 0. -1.
</event>
<event>
 8    1  0.1082757E+005  0.1043930E+01  0.7957747E-01            NaN
         13   -1    0    0    0    0  0.00000000000E+00  0.00000000000E+00  0.74505805969E-08  0.10566000000E+00  0.10566000000E+00 0. -1.
     999900   -1    0    0    0    0 -0.00000000000E+00 -0.00000000000E+00 -0.74505805969E-08  0.93827000000E+00  0.93827000000E+00 0. -1.
     999902    2    1    2    0    0 -0.74494618451E-02 -0.22422118159E-01 -0.17622902132E-02  0.10202371418E+01  0.10199619963E+01 0.  0.
     999903    2    3    3    0    0 -0.88690814359E-01 -0.23711477784E-01 -0.92502717229E-01  0.13184778743E+00  0.19969767763E-01 0.  0.
         14    1    1    2    0    0  0.74494618451E-02  0.22422118159E-01  0.17622902132E-02  0.23692858234E-01  0.00000000000E+00 0. -1.
     999901    1    3    3    0    0  0.81241352514E-01  0.12893596251E-02  0.90740427016E-01  0.88838935434E+00  0.88000000000E+00 0.  1.
        -11    1    4    4    0    0 -0.63966907027E-01 -0.25923441545E-01 -0.65266329498E-01  0.94993393998E-01  0.51100000000E-03 0. -1.
         11    1    4    4    0    0 -0.24723907332E-01  0.22119637613E-02 -0.27236387731E-01  0.36854393430E-01  0.51100000000E-03 0.  1.
</event>
<event>
 8    1  0.1082757E+005  0.1043930E+01  0.7957747E-01            NaN
         13   -1    0    0    0    0  0.00000000000E+00  0.00000000000E+00  0.74505805969E-08  0.10566000000E+00  0.10566000000E+00 0.  1.
     999900   -1    0    0    0    0 -0.00000000000E+00 -0.00000000000E+00 -0.74505805969E-08  0.93827000000E+00  0.93827000000E+00 0. -1.
     999902    2    1    2    0    0 -0.51877900651E-02  0.69475849986E-02  0.22008858196E-01  0.10202747270E+01  0.10200004640E+01 0.  0.
     999903    2    3    3    0    0 -0.12589229313E+00 -0.27842743797E-01  0.15423281019E-01  0.13132967025E+00  0.19634582753E-01 0.  0.
         14    1    1    2    0    0  0.51877900651E-02 -0.69475849986E-02 -0.22008858196E-01  0.23655273031E-01  0.00000000000E+00 0. -1.
     999901    1    3    3    0    0  0.12070450306E+00  0.34790328796E-01  0.65855771773E-02  0.88894505672E+00  0.88000000000E+00 0.  1.
        -11    1    4    4    0    0 -0.57362897474E-01 -0.90598556334E-02 -0.22013479993E-02  0.58117897800E-01  0.51100000000E-03 0.  1.
         11    1    4    4    0    0 -0.68529395654E-01 -0.18782888164E-01  0.17624629018E-01  0.73211772451E-01  0.51100000000E-03 0. -1.
</event>
<event>
 8    1  0.1082757E+005  0.1043930E+01  0.7957747E-01            NaN
         13   -1    0    0    0    0  0.00000000000E+00  0.00000000000E+00  0.74505805969E-08  0.10566000000E+00  0.10566000000E+00 0. -1.
     999900   -1    0    0    0    0 -0.00000000000E+00 -0.00000000000E+00 -0.74505805969E-08  0.93827000000E+00  0.93827000000E+00 0.  1.
     999902    2    1    2    0    0  0.20199106802E-01 -0.12354094819E-01  0.10561898216E-01  0.10180035412E+01  0.10176733408E+01 0.  0.
     999903    2    3    3    0    0  0.15279485843E-01 -0.12567456667E+00 -0.21807817910E-01  0.13013331948E+00  0.20773553406E-01 0.  0.
         14    1    1    2    0    0 -0.20199106802E-01  0.12354094819E-01 -0.10561898216E-01  0.25926458846E-01  0.00000000000E+00 0. -1.
     999901    1    3    3    0    0  0.49196209584E-02  0.11332047185E+00  0.32369716126E-01  0.88787022167E+00  0.88000000000E+00 0. -1.
        -11    1    4    4    0    0  0.77127003967E-03 -0.45923473555E-01  0.93304559860E-03  0.45942267858E-01  0.51100000000E-03 0. -1.
         11    1    4    4    0    0  0.14508215804E-01 -0.79751093117E-01 -0.22740863509E-01  0.84191051623E-01  0.51100000000E-03 0.  1.
</event>
<event>
 8    1  0.1082757E+005  0.1043930E+01  0.7957747E-01            NaN
         13   -1    0    0    0    0  0.00000000000E+00  0.00000000000E+00  0.74505805969E-08  0.10566000000E+00  0.10566000000E+00 0.  1.
     999900   -1    0    0    0    0 -0.00000000000E+00 -0.00000000000E+00 -0.74505805969E-08  0.93827000000E+00  0.93827000000E+00 0. -1.
     999902    2    1    2    0    0  0.14303358719E-01 -0.18355057353E-01  0.48079618561E-02  0.10201684618E+01  0.10198917000E+01 0.  0.
     999903    2    3    3    0    0  0.49003633274E-01  0.11416414001E+00 -0.28132736577E-01  0.12896111423E+00  0.20117434677E-01 0.  0.
         14    1    1    2    0    0 -0.14303358719E-01  0.18355057353E-01 -0.48079618561E-02  0.23761538214E-01  0.00000000000E+00 0. -1.
     999901    1    3    3    0    0 -0.34700274555E-01 -0.13251919736E+00  0.32940698434E-01  0.89120734756E+00  0.88000000000E+00 0. -1.
        -11    1    4    4    0    0  0.21302338933E-01  0.74357249972E-01 -0.16711542713E-01  0.79134866199E-01  0.51100000000E-03 0.  1.
         11    1    4    4    0    0  0.27701294341E-01  0.39806890037E-01 -0.11421193865E-01  0.49826248031E-01  0.51100000000E-03 0. -1.
</event>
<event>
 8    1  0.1082757E+005  0.1043930E+01  0.7957747E-01            NaN
         13   -1    0    0    0    0  0.00000000000E+00  0.00000000000E+00  0.74505805969E-08  0.10566000000E+00  0.10566000000E+00 0.  1.
     999900   -1    0    0    0    0 -0.00000000000E+00 -0.00000000000E+00 -0.74505805969E-08  0.93827000000E+00  0.93827000000E+00 0.  1.
     999902    2    1    2    0    0 -0.10899766744E-01 -0.68739044515E-03 -0.20985897710E-01  0.10202723306E+01  0.10199980114E+01 0.  0.
     999903    2    3    3    0    0 -0.68008549084E-01  0.33264106280E-01  0.10281553333E+00  0.12912648869E+00  0.19260131714E-01 0.  0.
         14    1    1    2    0    0  0.10899766744E-01  0.68739044515E-03  0.20985897710E-01  0.23657669441E-01  0.00000000000E+00 0.  1.
     999901    1    3    3    0    0  0.57108782340E-01 -0.33951496725E-01 -0.12380143104E+00  0.89114584187E+00  0.88000000000E+00 0. -1.
        -11    1    4    4    0    0 -0.65300147833E-01  0.35455367338E-01  0.10017327138E+00  0.12472424704E+00  0.51100000000E-03 0.  1.
         11    1    4    4    0    0 -0.27084012508E-02 -0.21912610579E-02  0.26422619473E-02  0.44022416514E-02  0.51100000000E-03 0. -1.
</event>
<event>
 8    1  0.1082757E+005  0.1043930E+01  0.7957747E-01            NaN
         13   -1    0    0    0    0  0.00000000000E+00  0.00000000000E+00  0.74505805969E-08  0.10566000000E+00  0.10566000000E+00 0.  1.
     999900   -1    0    0    0    0 -0.00000000000E+00 -0.00000000000E+00 -0.74505805969E-08  0.93827000000E+00  0.93827000000E+00 0. -1.
     999902    2    1    2    0    0  0.16667247142E-01  0.17060992496E-01 -0.77833931219E-02  0.10188410423E+01  0.10185320877E+01 0.  0.
     999903    2    3    3    0    0  0.12529950017E+00  0.13779507573E-01  0.31701941651E-01  0.13127649463E+00  0.18402862992E-01 0.  0.
         14    1    1    2    0    0 -0.16667247142E-01 -0.17060992496E-01  0.77833931219E-02  0.25088957745E-01  0.00000000000E+00 0. -1.
     999901    1    3    3    0    0 -0.10863225303E+00  0.32814849229E-02 -0.39485334773E-01  0.88756454763E+00  0.88000000000E+00 0. -1.
        -11    1    4    4    0    0  0.61891914104E-01  0.34508542736E-02  0.24392765564E-01  0.66616706309E-01  0.51100000000E-03 0. -1.
         11    1    4    4    0    0  0.63407586064E-01  0.10328653300E-01  0.73091760876E-02  0.64659788320E-01  0.51100000000E-03 0.  1.
</event>
<event>
 8    1  0.1082757E+005  0.1043930E+01  0.7957747E-01            NaN
         13   -1    0    0    0    0  0.00000000000E+00  0.00000000000E+00  0.74505805969E-08  0.10566000000E+00  0.10566000000E+00 0. -1.
     999900   -1    0    0    0    0 -0.00000000000E+00 -0.00000000000E+00 -0.74505805969E-08  0.93827000000E+00  0.93827000000E+00 0.  1.
     999902    2    1    2    0    0  0.22652916452E-01  0.85538954290E-03  0.19124849341E-02  0.10211804085E+01  0.10209269723E+01 0.  0.
     999903    2    3    3    0    0 -0.43813856337E-01  0.72299966027E-01  0.97419245654E-01  0.13065039736E+00  0.20786481448E-01 0.  0.
         14    1    1    2    0    0 -0.22652916452E-01 -0.85538954290E-03 -0.19124849341E-02  0.22749591505E-01  0.00000000000E+00 0. -1.
     999901    1    3    3    0    0  0.66466772789E-01 -0.71444576484E-01 -0.95506760720E-01  0.89053001114E+00  0.88000000000E+00 0.  1.
        -11    1    4    4    0    0 -0.18314430834E-01  0.40487651944E-01  0.64078025611E-01  0.77980272017E-01  0.51100000000E-03 0. -1.
         11    1    4    4    0    0 -0.25499425503E-01  0.31812314083E-01  0.33341220044E-01  0.52670125339E-01  0.51100000000E-03 0.  1.
</event>
<event>
 8    1  0.1082757E+005  0.1043930E+01  0.7957747E-01            NaN
         13   -1    0    0    0    0  0.00000000000E+00  0.00000000000E+00  0.74505805969E-08  0.10566000000E+00  0.10566000000E+00 0.  1.
     999900   -1    0    0    0    0 -0.00000000000E+00 -0.00000000000E+00 -0.74505805969E-08  0.93827000000E+00  0.93827000000E+00 0.  1.
     999902    2    1    2    0    0  0.13256003785E-01  0.27036286876E-01 -0.26469744138E-02  0.10137027124E+01  0.10132519431E+01 0.  0.
     999903    2    3    3    0    0 -0.28062459193E-01  0.10390983167E+00  0.60140236585E-01  0.12715943021E+00  0.31111378963E-01 0.  0.
         14    1    1    2    0    0 -0.13256003785E-01 -0.27036286876E-01  0.26469744138E-02  0.30227287638E-01  0.00000000000E+00 0. -1.
     999901    1    3    3    0    0  0.41318462978E-01 -0.76873544790E-01 -0.62787210999E-01  0.88654328216E+00  0.88000000000E+00 0.  1.
        -11    1    4    4    0    0 -0.30293729475E-02  0.17776959277E-01 -0.18344782487E-02  0.18133499746E-01  0.51100000000E-03 0. -1.
         11    1    4    4    0    0 -0.25033086246E-01  0.86132872389E-01  0.61974714834E-01  0.10902593046E+00  0.51100000000E-03 0.  1.
</event>
<event>
 8    1  0.1082757E+005  0.1043930E+01  0.7957747E-01            NaN
         13   -1    0    0    0    0  0.00000000000E+00  0.00000000000E+00  0.74505805969E-08  0.10566000000E+00  0.10566000000E+00 0.  1.
     999900   -1    0    0    0    0 -0.00000000000E+00 -0.00000000000E+00 -0.74505805969E-08  0.93827000000E+00  0.93827000000E+00 0. -1.
     999902    2    1    2    0    0 -0.33155176654E-01  0.28628989706E-03  0.69950877618E-02  0.10100437350E+01  0.10094751447E+01 0.  0.
     999903    2    3    3    0    0  0.84248536583E-01 -0.63480640100E-01 -0.49376652779E-01  0.11817624130E+00  0.19999064576E-01 0.  0.
         14    1    1    2    0    0  0.33155176654E-01 -0.28628989706E-03 -0.69950877618E-02  0.33886264970E-01  0.00000000000E+00 0.  1.
     999901    1    3    3    0    0 -0.11740371324E+00  0.63766929997E-01  0.56371740541E-01  0.89186749373E+00  0.88000000000E+00 0. -1.
        -11    1    4    4    0    0  0.24759587808E-01 -0.25281317963E-01 -0.25247809187E-01  0.43472925093E-01  0.51100000000E-03 0. -1.
         11    1    4    4    0    0  0.59488948774E-01 -0.38199322137E-01 -0.24128843592E-01  0.74703316205E-01  0.51100000000E-03 0.  1.
</event>
<event>
 8    1  0.1082757E+005  0.1043930E+01  0.7957747E-01            NaN
         13   -1    0    0    0    0  0.00000000000E+00  0.00000000000E+00  0.74505805969E-08  0.10566000000E+00  0.10566000000E+00 0.  1.
     999900   -1    0    0    0    0 -0.00000000000E+00 -0.00000000000E+00 -0.74505805969E-08  0.93827000000E+00  0.93827000000E+00 0.  1.
     999902    2    1    2    0    0  0.37127019755E-03  0.87598808003E-03  0.24547604627E-01  0.10193639647E+01  0.10190679087E+01 0.  0.
     999903    2    3    3    0    0 -0.68106169148E-01 -0.71752660066E-01 -0.78310205924E-01  0.12776775038E+00  0.20129957330E-01 0.  0.
         14    1    1    2    0    0 -0.37127019755E-03 -0.87598808003E-03 -0.24547604627E-01  0.24566035284E-01  0.00000000000E+00 0. -1.
     999901    1    3    3    0    0  0.68477439346E-01  0.72628648146E-01  0.10285781055E+00  0.89159621434E+00  0.88000000000E+00 0.  1.
        -11    1    4    4    0    0 -0.45154950442E-01 -0.42470475336E-01 -0.37100133244E-01  0.72245358553E-01  0.51100000000E-03 0.  1.
         11    1    4    4    0    0 -0.22951218706E-01 -0.29282184730E-01 -0.41210072680E-01  0.55522391825E-01  0.51100000000E-03 0. -1.
</event>
<event>
 8    1  0.1082757E+005  0.1043930E+01  0.7957747E-01            NaN
         13   -1    0    0    0    0  0.00000000000E+00  0.00000000000E+00  0.74505805969E-08  0.10566000000E+00  0.10566000000E+00 0. -1.
     999900   -1    0    0    0    0 -0.00000000000E+00 -0.00000000000E+00 -0.74505805969E-08  0.93827000000E+00  0.93827000000E+00 0.  1.
     999902    2    1    2    0    0 -0.16230139677E-01 -0.43974100889E-02 -0.16789156184E-01  0.10201680469E+01  0.10198912753E+01 0.  0.
     999903    2    3    3    0    0 -0.86629618263E-01 -0.72593355182E-01  0.63472840805E-01  0.13109619285E+00  0.19568451232E-01 0.  0.
         14    1    1    2    0    0  0.16230139677E-01  0.43974100889E-02  0.16789156184E-01  0.23761953093E-01  0.00000000000E+00 0. -1.
     999901    1    3    3    0    0  0.70399478586E-01  0.68195945093E-01 -0.80261996988E-01  0.88907185406E+00  0.88000000000E+00 0.  1.
        -11    1    4    4    0    0 -0.67333934104E-01 -0.44879692646E-01  0.43955951591E-01  0.92089262649E-01  0.51100000000E-03 0.  1.
         11    1    4    4    0    0 -0.19295684158E-01 -0.27713662536E-01  0.19516889213E-01  0.39006930203E-01  0.51100000000E-03 0. -1.
</event>
<event>
 8    1  0.1082757E+005  0.1043930E+01  0.7957747E-01            NaN
         13   -1    0    0    0    0  0.00000000000E+00  0.00000000000E+00  0.74505805969E-08  0.10566000000E+00  0.10566000000E+00 0.  1.
     999900   -1    0    0    0    0 -0.00000000000E+00 -0.00000000000E+00 -0.74505805969E-08  0.93827000000E+00  0.93827000000E+00 0. -1.
     999902    2    1    2    0    0  0.23134878911E-01 -0.58920067536E-03 -0.38181792305E-02  0.10204747602E+01  0.10202051696E+01 0.  0.
     999903    2    3    3    0    0 -0.10211810279E+00 -0.20593314564E-01 -0.73061982256E-01  0.12868825089E+00  0.19246328064E-01 0.  0.
         14    1    1    2    0    0 -0.23134878911E-01  0.58920067536E-03  0.38181792305E-02  0.23455239762E-01  0.00000000000E+00 0.  1.
     999901    1    3    3    0    0  0.12525298170E+00  0.20004113889E-01  0.69243803026E-01  0.89178650935E+00  0.88000000000E+00 0.  1.
        -11    1    4    4    0    0 -0.25894555830E-01 -0.11673997268E-01 -0.26932232209E-01  0.39146091588E-01  0.51100000000E-03 0.  1.
         11    1    4    4    0    0 -0.76223546960E-01 -0.89193172960E-02 -0.46129750047E-01  0.89542159302E-01  0.51100000000E-03 0. -1.
</event>
<event>
 8    1  0.1082757E+005  0.1043930E+01  0.7957747E-01            NaN
         13   -1    0    0    0    0  0.00000000000E+00  0.00000000000E+00  0.74505805969E-08  0.10566000000E+00  0.10566000000E+00 0. -1.
     999900   -1    0    0    0    0 -0.00000000000E+00 -0.00000000000E+00 -0.74505805969E-08  0.93827000000E+00  0.93827000000E+00 0.  1.
     999902    2    1    2    0    0  0.45027966895E-03  0.20877174556E-01  0.10674399060E-01  0.10204778793E+01  0.10202083612E+01 0.  0.
     999903    2    3    3    0    0  0.77926910486E-02 -0.44599370621E-02 -0.12747611578E+00  0.12930929539E+00  0.19751372278E-01 0.  0.
         14    1    1    2    0    0 -0.45027966895E-03 -0.20877174556E-01 -0.10674399060E-01  0.23452120683E-01  0.00000000000E+00 0.  1.
     999901    1    3    3    0    0 -0.73424113797E-02  0.25337111618E-01  0.13815051484E+00  0.89116858393E+00  0.88000000000E+00 0. -1.
        -11    1    4    4    0    0 -0.16463354822E-02  0.62066148042E-02 -0.59974961031E-01  0.60319893563E-01  0.51100000000E-03 0.  1.
         11    1    4    4    0    0  0.94390265309E-02 -0.10666551866E-01 -0.67501154751E-01  0.68989401825E-01  0.51100000000E-03 0. -1.
</event>
<event>
 8    1  0.1082757E+005  0.1043930E+01  0.7957747E-01            NaN
         13   -1    0    0    0    0  0.00000000000E+00  0.00000000000E+00  0.74505805969E-08  0.10566000000E+00  0.10566000000E+00 0.  1.
     999900   -1    0    0    0    0 -0.00000000000E+00 -0.00000000000E+00 -0.74505805969E-08  0.93827000000E+00  0.93827000000E+00 0. -1.
     999902    2    1    2    0    0  0.12862681351E-01 -0.17461386734E-01 -0.92474918789E-02  0.10203532168E+01  0.10200807921E+01 0.  0.
     999903    2    3    3    0    0 -0.40041538082E-01 -0.43171412329E-01  0.11394745386E+00  0.12982704849E+00  0.20098374697E-01 0.  0.
         14    1    1    2    0    0 -0.12862681351E-01  0.17461386734E-01  0.92474918789E-02  0.23576783162E-01  0.00000000000E+00 0. -1.
     999901    1    3    3    0    0  0.52904219433E-01  0.25710025594E-01 -0.12319494574E+00  0.89052616834E+00  0.88000000000E+00 0.  1.
        -11    1    4    4    0    0  0.21733012584E-03 -0.82716078747E-02  0.22639109108E-01  0.24109274386E-01  0.51100000000E-03 0. -1.
         11    1    4    4    0    0 -0.40258868208E-01 -0.34899804454E-01  0.91308344750E-01  0.10571777411E+00  0.51100000000E-03 0.  1.
</event>
<event>
 8    1  0.1082757E+005  0.1043930E+01  0.7957747E-01            NaN
         13   -1    0    0    0    0  0.00000000000E+00  0.00000000000E+00  0.74505805969E-08  0.10566000000E+00  0.10566000000E+00 0.  1.
     999900   -1    0    0    0    0 -0.00000000000E+00 -0.00000000000E+00 -0.74505805969E-08  0.93827000000E+00  0.93827000000E+00 0.  1.
     999902    2    1    2    0    0  0.11900129287E-01 -0.19772921416E-01 -0.39091965968E-02  0.10205235198E+01  0.10202550618E+01 0.  0.
     999903    2    3    3    0    0 -0.12369743154E-01  0.25950343534E-01 -0.12598601571E+00  0.13058959334E+00  0.18834406257E-01 0.  0.
         14    1    1    2    0    0 -0.11900129287E-01  0.19772921416E-01  0.39091965968E-02  0.23406480223E-01  0.00000000000E+00 0. -1.
     999901    1    3    3    0    0  0.24269872441E-01 -0.45723264950E-01  0.12207681911E+00  0.88993392644E+00  0.88000000000E+00 0. -1.
        -11    1    4    4    0    0 -0.14684001904E-01  0.10093061913E-01 -0.77411096116E-01  0.79436948164E-01  0.51100000000E-03 0. -1.
         11    1    4    4    0    0  0.23142587501E-02  0.15857281621E-01 -0.48574919590E-01  0.51152645173E-01  0.51100000000E-03 0.  1.
</event>
<event>
 8    1  0.1082757E+005  0.1043930E+01  0.7957747E-01            NaN
         13   -1    0    0    0    0  0.00000000000E+00  0.00000000000E+00  0.74505805969E-08  0.10566000000E+00  0.10566000000E+00 0. -1.
     999900   -1    0    0    0    0 -0.00000000000E+00 -0.00000000000E+00 -0.74505805969E-08  0.93827000000E+00  0.93827000000E+00 0.  1.
     999902    2    1    2    0    0 -0.75714919961E-03 -0.42821988648E-02  0.23192283706E-01  0.10203335485E+01  0.10200606637E+01 0.  0.
     999903    2    3    3    0    0 -0.88052392096E-01  0.69621037394E-01  0.66266597971E-01  0.13188684532E+00  0.20064031501E-01 0.  0.
         14    1    1    2    0    0  0.75714919961E-03  0.42821988648E-02 -0.23192283706E-01  0.23596451545E-01  0.00000000000E+00 0.  1.
     999901    1    3    3    0    0  0.87295242897E-01 -0.73903236259E-01 -0.43074314266E-01  0.88844670313E+00  0.88000000000E+00 0.  1.
        -11    1    4    4    0    0 -0.16866036546E-01  0.18910751938E-01  0.70295496480E-02  0.26301243637E-01  0.51100000000E-03 0.  1.
         11    1    4    4    0    0 -0.71186355551E-01  0.50710285456E-01  0.59237048323E-01  0.10558560168E+00  0.51100000000E-03 0. -1.
</event>
<event>
 8    1  0.1082757E+005  0.1043930E+01  0.7957747E-01            NaN
         13   -1    0    0    0    0  0.00000000000E+00  0.00000000000E+00  0.74505805969E-08  0.10566000000E+00  0.10566000000E+00 0.  1.
     999900   -1    0    0    0    0 -0.00000000000E+00 -0.00000000000E+00 -0.74505805969E-08  0.93827000000E+00  0.93827000000E+00 0.  1.
     999902    2    1    2    0    0  0.15934602052E-01  0.67476465459E-02 -0.14904710118E-01  0.10210915968E+01  0.10208361555E+01 0.  0.
     999903    2    3    3    0    0 -0.11649159030E+00  0.26751862673E-01 -0.47756110818E-01  0.13035253311E+00  0.20619990321E-01 0.  0.
         14    1    1    2    0    0 -0.15934602052E-01 -0.67476465459E-02  0.14904710118E-01  0.22838403188E-01  0.00000000000E+00 0.  1.
     999901    1    3    3    0    0  0.13242619235E+00 -0.20004216128E-01  0.32851400701E-01  0.89073906371E+00  0.88000000000E+00 0. -1.
        -11    1    4    4    0    0 -0.39143162842E-01  0.81948259202E-02 -0.57771844714E-02  0.40410139205E-01  0.51100000000E-03 0.  1.
         11    1    4    4    0    0 -0.77348427453E-01  0.18557036753E-01 -0.41978926347E-01  0.89942393902E-01  0.51100000000E-03 0. -1.
</event>
<event>
 8    1  0.1082757E+005  0.1043930E+01  0.7957747E-01            NaN
         13   -1    0    0    0    0  0.00000000000E+00  0.00000000000E+00  0.74505805969E-08  0.10566000000E+00  0.10566000000E+00 0.  1.
     999900   -1    0    0    0    0 -0.00000000000E+00 -0.00000000000E+00 -0.74505805969E-08  0.93827000000E+00  0.93827000000E+00 0.  1.
     999902    2    1    2    0    0 -0.65873905491E-02 -0.12527472484E-01 -0.19134673332E-01  0.10201294327E+01  0.10198517502E+01 0.  0.
     999903    2    3    3    0    0 -0.59810291112E-01 -0.87425412103E-01  0.73445700279E-01  0.13051518815E+00  0.20480962944E-01 0.  0.
         14    1    1    2    0    0  0.65873905491E-02  0.12527472484E-01  0.19134673332E-01  0.23800567317E-01  0.00000000000E+00 0.  1.
     999901    1    3    3    0    0  0.53222900563E-01  0.74897939619E-01 -0.92580373612E-01  0.88961424454E+00  0.88000000000E+00 0. -1.
        -11    1    4    4    0    0 -0.12939135942E-01 -0.30134127203E-01  0.14370692814E-01  0.35808725112E-01  0.51100000000E-03 0. -1.
         11    1    4    4    0    0 -0.46871155170E-01 -0.57291284900E-01  0.59075007465E-01  0.94706463034E-01  0.51100000000E-03 0.  1.
</event>
<event>
 8    1  0.1082757E+005  0.1043930E+01  0.7957747E-01            NaN
         13   -1    0    0    0    0  0.00000000000E+00  0.00000000000E+00  0.74505805969E-08  0.10566000000E+00  0.10566000000E+00 0.  1.
     999900   -1    0    0    0    0 -0.00000000000E+00 -0.00000000000E+00 -0.74505805969E-08  0.93827000000E+00  0.93827000000E+00 0.  1.
     999902    2    1    2    0    0  0.56031290573E-02  0.18342226494E-01 -0.14067051513E-01  0.10201452514E+01  0.10198679423E+01 0.  0.
     999903    2    3    3    0    0  0.69673052194E-01 -0.99815048314E-01 -0.39454390692E-01  0.12957767191E+00  0.20404559295E-01 0.  0.
         14    1    1    2    0    0 -0.56031290573E-02 -0.18342226494E-01  0.14067051513E-01  0.23784748607E-01  0.00000000000E+00 0. -1.
     999901    1    3    3    0    0 -0.64069923137E-01  0.11815727481E+00  0.25387339179E-01  0.89056757949E+00  0.88000000000E+00 0. -1.
        -11    1    4    4    0    0  0.48073902897E-01 -0.82060574708E-01 -0.26314432384E-01  0.98680031079E-01  0.51100000000E-03 0. -1.
         11    1    4    4    0    0  0.21599149298E-01 -0.17754473606E-01 -0.13139958308E-01  0.30897640828E-01  0.51100000000E-03 0.  1.
</event>
<event>
 8    1  0.1082757E+005  0.1043930E+01  0.7957747E-01            NaN
         13   -1    0    0    0    0  0.00000000000E+00  0.00000000000E+00  0.74505805969E-08  0.10566000000E+00  0.10566000000E+00 0.  1.
     999900   -1    0    0    0    0 -0.00000000000E+00 -0.00000000000E+00 -0.74505805969E-08  0.93827000000E+00  0.93827000000E+00 0. -1.
     999902    2    1    2    0    0  0.22258693372E-01 -0.41164389148E-02 -0.11576120497E-01  0.10185055813E+01  0.10181882037E+01 0.  0.
     999903    2    3    3    0    0 -0.84607851459E-01  0.87564713888E-01  0.27885822263E-01  0.12643880292E+00  0.19572535693E-01 0.  0.
         14    1    1    2    0    0 -0.22258693372E-01  0.41164389148E-02  0.11576120497E-01  0.25424418690E-01  0.00000000000E+00 0.  1.
     999901    1    3    3    0    0  0.10686654483E+00 -0.91681152802E-01 -0.39461942760E-01  0.89206677839E+00  0.88000000000E+00 0. -1.
        -11    1    4    4    0    0 -0.30219947890E-01  0.45192416795E-01  0.11481146810E-01  0.55566875378E-01  0.51100000000E-03 0. -1.
         11    1    4    4    0    0 -0.54387903569E-01  0.42372297093E-01  0.16404675453E-01  0.70871927540E-01  0.51100000000E-03 0.  1.
</event>
<event>
 8    1  0.1082757E+005  0.1043930E+01  0.7957747E-01            NaN
         13   -1    0    0    0    0  0.00000000000E+00  0.00000000000E+00  0.74505805969E-08  0.10566000000E+00  0.10566000000E+00 0. -1.
     999900   -1    0    0    0    0 -0.00000000000E+00 -0.00000000000E+00 -0.74505805969E-08  0.93827000000E+00  0.93827000000E+00 0. -1.
     999902    2    1    2    0    0 -0.21771141642E-01 -0.10240293832E-01  0.17496808704E-02  0.10198072388E+01  0.10195218961E+01 0.  0.
     999903    2    3    3    0    0  0.34242171893E-01  0.63485586751E-01 -0.10482434217E+00  0.12855473855E+00  0.18309342750E-01 0.  0.
         14    1    1    2    0    0  0.21771141642E-01  0.10240293832E-01 -0.17496808704E-02  0.24122761229E-01  0.00000000000E+00 0. -1.
     999901    1    3    3    0    0 -0.56013313535E-01 -0.73725880584E-01  0.10657402304E+00  0.89125250022E+00  0.88000000000E+00 0.  1.
        -11    1    4    4    0    0  0.28378371736E-01  0.34975783000E-01 -0.58303418710E-01  0.73676231806E-01  0.51100000000E-03 0.  1.
         11    1    4    4    0    0  0.58638001568E-02  0.28509803751E-01 -0.46520923458E-01  0.54878506745E-01  0.51100000000E-03 0. -1.
</event>
<event>
 7    1  0.1082757E+005  0.1043930E+01  0.7957747E-01            NaN
         13   -1    0    0    0    0  0.00000000000E+00  0.00000000000E+00  0.74505805969E-08  0.10566000000E+00  0.10566000000E+00 0. -1.
     999900   -1    0    0    0    0 -0.00000000000E+00 -0.00000000000E+00 -0.74505805969E-08  0.93827000000E+00  0.93827000000E+00 0. -1.
     999903    2    1    2    0    0  0.20065796612E-01  0.76658741443E-01 -0.68659684298E-01  0.10657459678E+00  0.19099570621E-01 0.  0.
         14    1    1    2    0    0 -0.24500282346E-01 -0.25356385159E-01  0.42823891056E-01  0.55471576042E-01  0.00000000000E+00 0. -1.
     999901    1    1    2    0    0  0.44344857335E-02 -0.51302356284E-01  0.25835793242E-01  0.88188382718E+00  0.88000000000E+00 0.  1.
        -11    1    3    3    0    0  0.25112873690E-02  0.28019903359E-01 -0.34849962183E-01  0.44790652302E-01  0.51100000000E-03 0. -1.
         11    1    3    3    0    0  0.17554509243E-01  0.48638838084E-01 -0.33809722115E-01  0.61783944480E-01  0.51100000000E-03 0.  1.
</event>
<event>
 8    1  0.1082757E+005  0.1043930E+01  0.7957747E-01            NaN
         13   -1    0    0    0    0  0.00000000000E+00  0.00000000000E+00  0.74505805969E-08  0.10566000000E+00  0.10566000000E+00 0. -1.
     999900   -1    0    0    0    0 -0.00000000000E+00 -0.00000000000E+00 -0.74505805969E-08  0.93827000000E+00  0.93827000000E+00 0. -1.
     999902    2    1    2    0    0  0.16347932324E-01 -0.16653202269E-01  0.35542440855E-02  0.10203245623E+01  0.10200514672E+01 0.  0.
     999903    2    3    3    0    0  0.82878432798E-01 -0.93135150590E-01  0.44105185230E-01  0.13357760025E+00  0.18833932822E-01 0.  0.
         14    1    1    2    0    0 -0.16347932324E-01  0.16653202269E-01 -0.35542440855E-02  0.23605437681E-01  0.00000000000E+00 0.  1.
     999901    1    3    3    0    0 -0.66530500474E-01  0.76481948321E-01 -0.40550941144E-01  0.88674696207E+00  0.88000000000E+00 0. -1.
        -11    1    4    4    0    0  0.35979490232E-01 -0.26902141125E-01  0.15898391188E-01  0.47657831233E-01  0.51100000000E-03 0. -1.
         11    1    4    4    0    0  0.46898942567E-01 -0.66233009465E-01  0.28206794042E-01  0.85919769016E-01  0.51100000000E-03 0.  1.
</event>
<event>
 8    1  0.1082757E+005  0.1043930E+01  0.7957747E-01            NaN
         13   -1    0    0    0    0  0.00000000000E+00  0.00000000000E+00  0.74505805969E-08  0.10566000000E+00  0.10566000000E+00 0.  1.
     999900   -1    0    0    0    0 -0.00000000000E+00 -0.00000000000E+00 -0.74505805969E-08  0.93827000000E+00  0.93827000000E+00 0.  1.
     999902    2    1    2    0    0 -0.21611932768E-01  0.28452066773E-01 -0.39406763671E-02  0.10079838643E+01  0.10073427153E+01 0.  0.
     999903    2    3    3    0    0  0.62515675919E-01 -0.67375529802E-01 -0.69467068804E-01  0.11638188420E+00  0.16474148545E-01 0.  0.
         14    1    1    2    0    0  0.21611932768E-01 -0.28452066773E-01  0.39406763671E-02  0.35946135701E-01  0.00000000000E+00 0. -1.
     999901    1    3    3    0    0 -0.84127608686E-01  0.95827596576E-01  0.65526392436E-01  0.89160198010E+00  0.88000000000E+00 0. -1.
        -11    1    4    4    0    0  0.17355214197E-01 -0.30050659937E-01 -0.28173272001E-01  0.44701677807E-01  0.51100000000E-03 0. -1.
         11    1    4    4    0    0  0.45160461721E-01 -0.37324869865E-01 -0.41293796803E-01  0.71680206394E-01  0.51100000000E-03 0.  1.
</event>
<event>
 8    1  0.1082757E+005  0.1043930E+01  0.7957747E-01            NaN
         13   -1    0    0    0    0  0.00000000000E+00  0.00000000000E+00  0.74505805969E-08  0.10566000000E+00  0.10566000000E+00 0. -1.
     999900   -1    0    0    0    0 -0.00000000000E+00 -0.00000000000E+00 -0.74505805969E-08  0.93827000000E+00  0.93827000000E+00 0. -1.
     999902    2    1    2    0    0 -0.20378476490E-02  0.46159061571E-02  0.26029777392E-01  0.10174156883E+01  0.10170701422E+01 0.  0.
     999903    2    3    3    0    0 -0.13862997932E-01 -0.11290822793E+00 -0.51039978011E-01  0.12618535700E+00  0.19422006073E-01 0.  0.
         14    1    1    2    0    0  0.20378476490E-02 -0.46159061571E-02 -0.26029777392E-01  0.26514311678E-01  0.00000000000E+00 0.  1.
     999901    1    3    3    0    0  0.11825150283E-01  0.11752413409E+00  0.77069755402E-01  0.89123033132E+00  0.88000000000E+00 0.  1.
        -11    1    4    4    0    0 -0.14448507658E-01 -0.70801041706E-01 -0.24025599122E-01  0.76151411112E-01  0.51100000000E-03 0. -1.
         11    1    4    4    0    0  0.58550972622E-03 -0.42107186224E-01 -0.27014378889E-01  0.50033945888E-01  0.51100000000E-03 0.  1.
</event>
<event>
 8    1  0.1082757E+005  0.1043930E+01  0.7957747E-01            NaN
         13   -1    0    0    0    0  0.00000000000E+00  0.00000000000E+00  0.74505805969E-08  0.10566000000E+00  0.10566000000E+00 0.  1.
     999900   -1    0    0    0    0 -0.00000000000E+00 -0.00000000000E+00 -0.74505805969E-08  0.93827000000E+00  0.93827000000E+00 0. -1.
     999902    2    1    2    0    0  0.13808910871E-01  0.73565964275E-02  0.12802561993E-01  0.10237133948E+01  0.10235137535E+01 0.  0.
     999903    2    3    3    0    0  0.26846253218E-01 -0.25491834986E-01 -0.12537825075E+00  0.13222983989E+00  0.19861264681E-01 0.  0.
         14    1    1    2    0    0 -0.13808910871E-01 -0.73565964275E-02 -0.12802561993E-01  0.20216605155E-01  0.00000000000E+00 0. -1.
     999901    1    3    3    0    0 -0.13037342347E-01  0.32848431414E-01  0.13818081274E+00  0.89148355495E+00  0.88000000000E+00 0.  1.
        -11    1    4    4    0    0  0.59537209822E-03 -0.12839373153E-01 -0.39178793884E-01  0.41236427854E-01  0.51100000000E-03 0.  1.
         11    1    4    4    0    0  0.26250881120E-01 -0.12652461833E-01 -0.86199456862E-01  0.90993412038E-01  0.51100000000E-03 0. -1.
</event>
<event>
 8    1  0.1082757E+005  0.1043930E+01  0.7957747E-01            NaN
         13   -1    0    0    0    0  0.00000000000E+00  0.00000000000E+00  0.74505805969E-08  0.10566000000E+00  0.10566000000E+00 0.  1.
     999900   -1    0    0    0    0 -0.00000000000E+00 -0.00000000000E+00 -0.74505805969E-08  0.93827000000E+00  0.93827000000E+00 0. -1.
     999902    2    1    2    0    0  0.17814772463E-01  0.76395518153E-03  0.14729350758E-01  0.10208020187E+01  0.10205399835E+01 0.  0.
     999903    2    3    3    0    0 -0.23389731086E-01  0.10986456860E+00  0.65679105203E-01  0.13164700834E+00  0.19997174589E-01 0.  0.
         14    1    1    2    0    0 -0.17814772463E-01 -0.76395518153E-03 -0.14729350758E-01  0.23127981304E-01  0.00000000000E+00 0. -1.
     999901    1    3    3    0    0  0.41204503549E-01 -0.10910061342E+00 -0.50949754445E-01  0.88915501035E+00  0.88000000000E+00 0.  1.
        -11    1    4    4    0    0 -0.23661994226E-01  0.10394260961E+00  0.66494355260E-01  0.12564122120E+00  0.51100000000E-03 0. -1.
         11    1    4    4    0    0  0.27226314041E-03  0.59219589912E-02 -0.81525005736E-03  0.60057871397E-02  0.51100000000E-03 0.  1.
</event>
<event>
 8    1  0.1082757E+005  0.1043930E+01  0.7957747E-01            NaN
         13   -1    0    0    0    0  0.00000000000E+00  0.00000000000E+00  0.74505805969E-08  0.10566000000E+00  0.10566000000E+00 0. -1.
     999900   -1    0    0    0    0 -0.00000000000E+00 -0.00000000000E+00 -0.74505805969E-08  0.93827000000E+00  0.93827000000E+00 0. -1.
     999902    2    1    2    0    0  0.39843767182E-02  0.86053358859E-02 -0.16388443763E-01  0.10249956885E+01  0.10248207908E+01 0.  0.
     999903    2    3    3    0    0 -0.87065037684E-01 -0.40039987609E-01 -0.92941692895E-01  0.13566067663E+00  0.24127567444E-01 0.  0.
         14    1    1    2    0    0 -0.39843767182E-02 -0.86053358859E-02  0.16388443763E-01  0.18934311514E-01  0.00000000000E+00 0. -1.
     999901    1    3    3    0    0  0.91049414402E-01  0.48645323495E-01  0.76553249132E-01  0.88933501186E+00  0.88000000000E+00 0.  1.
        -11    1    4    4    0    0 -0.45593225869E-01 -0.16869796176E-01 -0.31242050112E-01  0.57789783564E-01  0.51100000000E-03 0.  1.
         11    1    4    4    0    0 -0.41471811815E-01 -0.23170191434E-01 -0.61699642783E-01  0.77870893066E-01  0.51100000000E-03 0. -1.
</event>
<event>
 8    1  0.1082757E+005  0.1043930E+01  0.7957747E-01            NaN
         13   -1    0    0    0    0  0.00000000000E+00  0.00000000000E+00  0.74505805969E-08  0.10566000000E+00  0.10566000000E+00 0. -1.
     999900   -1    0    0    0    0 -0.00000000000E+00 -0.00000000000E+00 -0.74505805969E-08  0.93827000000E+00  0.93827000000E+00 0.  1.
     999902    2    1    2    0    0  0.18487860754E-01 -0.11695553259E-01 -0.10749106052E-01  0.10195552130E+01  0.10192638040E+01 0.  0.
     999903    2    3    3    0    0  0.21951468920E-01 -0.11619593970E+00 -0.55970524944E-01  0.13221237953E+00  0.19080100818E-01 0.  0.
         14    1    1    2    0    0 -0.18487860754E-01  0.11695553259E-01  0.10749106052E-01  0.24374787019E-01  0.00000000000E+00 0. -1.
     999901    1    3    3    0    0 -0.34636081650E-02  0.10450038644E+00  0.45221418893E-01  0.88734283345E+00  0.88000000000E+00 0. -1.
        -11    1    4    4    0    0  0.16680038571E-01 -0.43918856261E-01 -0.26818792875E-01  0.54098044274E-01  0.51100000000E-03 0.  1.
         11    1    4    4    0    0  0.52714303481E-02 -0.72277083443E-01 -0.29151732070E-01  0.78114335256E-01  0.51100000000E-03 0. -1.
</event>
<event>
 8    1  0.1082757E+005  0.1043930E+01  0.7957747E-01            NaN
         13   -1    0    0    0    0  0.00000000000E+00  0.00000000000E+00  0.74505805969E-08  0.10566000000E+00  0.10566000000E+00 0.  1.
     999900   -1    0    0    0    0 -0.00000000000E+00 -0.00000000000E+00 -0.74505805969E-08  0.93827000000E+00  0.93827000000E+00 0.  1.
     999902    2    1    2    0    0 -0.14279689921E-01  0.18297797252E-01  0.38965681679E-02  0.10203948737E+01  0.10201234220E+01 0.  0.
     999903    2    3    3    0    0  0.71101861676E-02  0.73014839550E-01  0.10817729088E+00  0.13229242988E+00  0.20426433836E-01 0.  0.
         14    1    1    2    0    0  0.14279689921E-01 -0.18297797252E-01 -0.38965681679E-02  0.23535126343E-01  0.00000000000E+00 0. -1.
     999901    1    3    3    0    0 -0.21389876089E-01 -0.54717042298E-01 -0.10428072271E+00  0.88810244378E+00  0.88000000000E+00 0.  1.
        -11    1    4    4    0    0  0.73046167289E-02  0.70386853801E-02  0.15359421541E-01  0.18413947663E-01  0.51100000000E-03 0.  1.
         11    1    4    4    0    0 -0.19443056131E-03  0.65976154170E-01  0.92817869337E-01  0.11387848222E+00  0.51100000000E-03 0. -1.
</event>
<event>
 8    1  0.1082757E+005  0.1043930E+01  0.7957747E-01            NaN
         13   -1    0    0    0    0  0.00000000000E+00  0.00000000000E+00  0.74505805969E-08  0.10566000000E+00  0.10566000000E+00 0. -1.
     999900   -1    0    0    0    0 -0.00000000000E+00 -0.00000000000E+00 -0.74505805969E-08  0.93827000000E+00  0.93827000000E+00 0. -1.
     999902    2    1    2    0    0 -0.57970030835E-02 -0.22004759876E-01 -0.56425554629E-02  0.10204853176E+01  0.10202159724E+01 0.  0.
     999903    2    3    3    0    0 -0.59878811505E-01 -0.62760247975E-01  0.97395513116E-01  0.13188940525E+00  0.19611436712E-01 0.  0.
         14    1    1    2    0    0  0.57970030835E-02  0.22004759876E-01  0.56425554629E-02  0.23444682427E-01  0.00000000000E+00 0. -1.
     999901    1    3    3    0    0  0.54081808422E-01  0.40755488099E-01 -0.10303806858E+00  0.88859591232E+00  0.88000000000E+00 0. -1.
        -11    1    4    4    0    0 -0.36188545907E-01 -0.24198392609E-01  0.51388713903E-01  0.67351570860E-01  0.51100000000E-03 0. -1.
         11    1    4    4    0    0 -0.23690265598E-01 -0.38561855367E-01  0.46006799213E-01  0.64537834394E-01  0.51100000000E-03 0.  1.
</event>
<event>
 8    1  0.1082757E+005  0.1043930E+01  0.7957747E-01            NaN
         13   -1    0    0    0    0  0.00000000000E+00  0.00000000000E+00  0.74505805969E-08  0.10566000000E+00  0.10566000000E+00 0.  1.
     999900   -1    0    0    0    0 -0.00000000000E+00 -0.00000000000E+00 -0.74505805969E-08  0.93827000000E+00  0.93827000000E+00 0.  1.
     999902    2    1    2    0    0 -0.18456604700E-01 -0.24382040041E-02  0.14797384433E-01  0.10201486274E+01  0.10198713979E+01 0.  0.
     999903    2    3    3    0    0 -0.33381500599E-01 -0.12305716786E+00  0.26215918024E-01  0.13172188881E+00  0.20149205709E-01 0.  0.
         14    1    1    2    0    0  0.18456604700E-01  0.24382040041E-02 -0.14797384433E-01  0.23781372582E-01  0.00000000000E+00 0.  1.
     999901    1    3    3    0    0  0.14924895899E-01  0.12061896386E+00 -0.11418533590E-01  0.88842673861E+00  0.88000000000E+00 0.  1.
        -11    1    4    4    0    0 -0.45440176509E-02 -0.49855534408E-01  0.14890190216E-01  0.52232186372E-01  0.51100000000E-03 0. -1.
         11    1    4    4    0    0 -0.28837482948E-01 -0.73201633451E-01  0.11325727808E-01  0.79489702441E-01  0.51100000000E-03 0.  1.
</event>
<event>
 8    1  0.1082757E+005  0.1043930E+01  0.7957747E-01            NaN
         13   -1    0    0    0    0  0.00000000000E+00  0.00000000000E+00  0.74505805969E-08  0.10566000000E+00  0.10566000000E+00 0. -1.
     999900   -1    0    0    0    0 -0.00000000000E+00 -0.00000000000E+00 -0.74505805969E-08  0.93827000000E+00  0.93827000000E+00 0.  1.
     999902    2    1    2    0    0  0.13353849217E-01 -0.14400051330E-01  0.13018173484E-01  0.10203681748E+01  0.10200960996E+01 0.  0.
     999903    2    3    3    0    0  0.10033849373E+00  0.55399906973E-01  0.62268387953E-01  0.13196289215E+00  0.19997243544E-01 0.  0.
         14    1    1    2    0    0 -0.13353849217E-01  0.14400051330E-01 -0.13018173484E-01  0.23561825228E-01  0.00000000000E+00 0. -1.
     999901    1    3    3    0    0 -0.86984644518E-01 -0.69799958303E-01 -0.49250214469E-01  0.88840528262E+00  0.88000000000E+00 0.  1.
        -11    1    4    4    0    0  0.15328479119E-01  0.89416213386E-03  0.80802705077E-02  0.17358389629E-01  0.51100000000E-03 0.  1.
         11    1    4    4    0    0  0.85010014616E-01  0.54505744839E-01  0.54188117445E-01  0.11460450252E+00  0.51100000000E-03 0. -1.
</event>
<event>
 8    1  0.1082757E+005  0.1043930E+01  0.7957747E-01            NaN
         13   -1    0    0    0    0  0.00000000000E+00  0.00000000000E+00  0.74505805969E-08  0.10566000000E+00  0.10566000000E+00 0.  1.
     999900   -1    0    0    0    0 -0.00000000000E+00 -0.00000000000E+00 -0.74505805969E-08  0.93827000000E+00  0.93827000000E+00 0.  1.
     999902    2    1    2    0    0  0.24770453735E-02  0.17806130959E-01  0.14690042179E-01  0.10207138118E+01  0.10204497510E+01 0.  0.
     999903    2    3    3    0    0 -0.44481923682E-01  0.10330219729E+00  0.69321537028E-01  0.13364035244E+00  0.20106785061E-01 0.  0.
         14    1    1    2    0    0 -0.24770453735E-02 -0.17806130959E-01 -0.14690042179E-01  0.23216188161E-01  0.00000000000E+00 0.  1.
     999901    1    3    3    0    0  0.46958969056E-01 -0.85496066335E-01 -0.54631494849E-01  0.88707345939E+00  0.88000000000E+00 0.  1.
        -11    1    4    4    0    0 -0.35808319742E-01  0.63781849341E-01  0.37735916583E-01  0.82308083378E-01  0.51100000000E-03 0.  1.
         11    1    4    4    0    0 -0.86736039407E-02  0.39520347953E-01  0.31585620445E-01  0.51332269066E-01  0.51100000000E-03 0. -1.
</event>
<event>
 8    1  0.1082757E+005  0.1043930E+01  0.7957747E-01            NaN
         13   -1    0    0    0    0  0.00000000000E+00  0.00000000000E+00  0.74505805969E-08  0.10566000000E+00  0.10566000000E+00 0. -1.
     999900   -1    0    0    0    0 -0.00000000000E+00 -0.00000000000E+00 -0.74505805969E-08  0.93827000000E+00  0.93827000000E+00 0.  1.
     999902    2    1    2    0    0 -0.22423493993E-01  0.33197384541E-02 -0.68762944418E-02  0.10202420881E+01  0.10199670588E+01 0.  0.
     999903    2    3    3    0    0 -0.65771632338E-02  0.12132058027E+00  0.44163435022E-01  0.13075889045E+00  0.19635074882E-01 0.  0.
         14    1    1    2    0    0  0.22423493993E-01 -0.33197384541E-02  0.68762944418E-02  0.23687911928E-01  0.00000000000E+00 0.  1.
     999901    1    3    3    0    0 -0.15846330759E-01 -0.11800084182E+00 -0.51039729464E-01  0.88948319762E+00  0.88000000000E+00 0. -1.
        -11    1    4    4    0    0  0.23514794253E-02  0.56229663724E-01  0.29068972577E-01  0.63344856347E-01  0.51100000000E-03 0. -1.
         11    1    4    4    0    0 -0.89286426591E-02  0.65090916546E-01  0.15094462446E-01  0.67414034103E-01  0.51100000000E-03 0.  1.
</event>
<event>
 8    1  0.1082757E+005  0.1043930E+01  0.7957747E-01            NaN
         13   -1    0    0    0    0  0.00000000000E+00  0.00000000000E+00  0.74505805969E-08  0.10566000000E+00  0.10566000000E+00 0.  1.
     999900   -1    0    0    0    0 -0.00000000000E+00 -0.00000000000E+00 -0.74505805969E-08  0.93827000000E+00  0.93827000000E+00 0.  1.
     999902    2    1    2    0    0  0.23609599806E-01  0.55512261222E-02 -0.62371089101E-02  0.10188874194E+01  0.10185796202E+01 0.  0.
     999903    2    3    3    0    0 -0.84881541508E-01  0.85646427679E-01  0.37371007716E-01  0.12754728407E+00  0.18207987048E-01 0.  0.
         14    1    1    2    0    0 -0.23609599806E-01 -0.55512261222E-02  0.62371089101E-02  0.25042580579E-01  0.00000000000E+00 0.  1.
     999901    1    3    3    0    0  0.10849114131E+00 -0.80095201557E-01 -0.43608116626E-01  0.89134013535E+00  0.88000000000E+00 0.  1.
        -11    1    4    4    0    0 -0.57252292699E-01  0.66447658878E-01  0.32541412057E-01  0.93553840164E-01  0.51100000000E-03 0. -1.
         11    1    4    4    0    0 -0.27629248809E-01  0.19198768801E-01  0.48295956589E-02  0.33993443904E-01  0.51100000000E-03 0.  1.
</event>
<event>
 8    1  0.1082757E+005  0.1043930E+01  0.7957747E-01            NaN
         13   -1    0    0    0    0  0.00000000000E+00  0.00000000000E+00  0.74505805969E-08  0.10566000000E+00  0.10566000000E+00 0.  1.
     999900   -1    0    0    0    0 -0.00000000000E+00 -0.00000000000E+00 -0.74505805969E-08  0.93827000000E+00  0.93827000000E+00 0. -1.
     999902    2    1    2    0    0 -0.20720312817E-01  0.10916634285E-01  0.46541714465E-02  0.10200518598E+01  0.10197723428E+01 0.  0.
     999903    2    3    3    0    0  0.99349832650E-01  0.79789602950E-01  0.49526729913E-02  0.12923177991E+00  0.20965542723E-01 0.  0.
         14    1    1    2    0    0  0.20720312817E-01 -0.10916634285E-01 -0.46541714465E-02  0.23878140195E-01  0.00000000000E+00 0.  1.
     999901    1    3    3    0    0 -0.12007014547E+00 -0.68872968665E-01 -0.29850154480E-03  0.89082007990E+00  0.88000000000E+00 0. -1.
        -11    1    4    4    0    0  0.70485843512E-01  0.52905691233E-01  0.12659418531E-01  0.89038128344E-01  0.51100000000E-03 0.  1.
         11    1    4    4    0    0  0.28863989138E-01  0.26883911717E-01 -0.77067455399E-02  0.40193651563E-01  0.51100000000E-03 0. -1.
</event>
<event>
 8    1  0.1082757E+005  0.1043930E+01  0.7957747E-01            NaN
         13   -1    0    0    0    0  0.00000000000E+00  0.00000000000E+00  0.74505805969E-08  0.10566000000E+00  0.10566000000E+00 0. -1.
     999900   -1    0    0    0    0 -0.00000000000E+00 -0.00000000000E+00 -0.74505805969E-08  0.93827000000E+00  0.93827000000E+00 0.  1.
     999902    2    1    2    0    0  0.59537212321E-02 -0.27221784217E-01  0.24235027797E-01  0.10070002166E+01  0.10063228246E+01 0.  0.
     999903    2    3    3    0    0  0.10813582882E+00  0.42574130942E-01  0.96270757181E-02  0.11822237866E+00  0.19440579416E-01 0.  0.
         14    1    1    2    0    0 -0.59537212321E-02  0.27221784217E-01 -0.24235027797E-01  0.36929783438E-01  0.00000000000E+00 0.  1.
     999901    1    3    3    0    0 -0.10218210759E+00 -0.69795915159E-01  0.14607952079E-01  0.88877783790E+00  0.88000000000E+00 0.  1.
        -11    1    4    4    0    0  0.53647984927E-01  0.18804620705E-01  0.14202241639E-01  0.58597652130E-01  0.51100000000E-03 0. -1.
         11    1    4    4    0    0  0.54487843896E-01  0.23769510237E-01 -0.45751659214E-02  0.59624726528E-01  0.51100000000E-03 0.  1.
</event>
<event>
 8    1  0.1082757E+005  0.1043930E+01  0.7957747E-01            NaN
         13   -1    0    0    0    0  0.00000000000E+00  0.00000000000E+00  0.74505805969E-08  0.10566000000E+00  0.10566000000E+00 0.  1.
     999900   -1    0    0    0    0 -0.00000000000E+00 -0.00000000000E+00 -0.74505805969E-08  0.93827000000E+00  0.93827000000E+00 0.  1.
     999902    2    1    2    0    0 -0.13085328215E-01  0.97126246812E-02 -0.18896301897E-01  0.10189774226E+01  0.10186718592E+01 0.  0.
     999903    2    3    3    0    0  0.12195484773E+00  0.30765828479E-01 -0.23054987219E-01  0.12841783383E+00  0.11835815266E-01 0.  0.
         14    1    1    2    0    0  0.13085328215E-01 -0.97126246812E-02  0.18896301897E-01  0.24952577383E-01  0.00000000000E+00 0.  1.
     999901    1    3    3    0    0 -0.13504017595E+00 -0.21053203798E-01  0.41586853221E-02  0.89055958878E+00  0.88000000000E+00 0. -1.
        -11    1    4    4    0    0  0.26712355936E-01  0.11608668627E-01 -0.38055862045E-02  0.29377793557E-01  0.51100000000E-03 0.  1.
         11    1    4    4    0    0  0.95242491798E-01  0.19157159853E-01 -0.19249401014E-01  0.99040040276E-01  0.51100000000E-03 0. -1.
</event>
<event>
 8    1  0.1082757E+005  0.1043930E+01  0.7957747E-01            NaN
         13   -1    0    0    0    0  0.00000000000E+00  0.00000000000E+00  0.74505805969E-08  0.10566000000E+00  0.10566000000E+00 0.  1.
     999900   -1    0    0    0    0 -0.00000000000E+00 -0.00000000000E+00 -0.74505805969E-08  0.93827000000E+00  0.93827000000E+00 0.  1.
     999902    2    1    2    0    0 -0.14684009676E-01  0.11524665540E-01 -0.15223861463E-01  0.10198425756E+01  0.10195580783E+01 0.  0.
     999903    2    3    3    0    0  0.88390172518E-01  0.37797185879E-01 -0.86809731447E-01  0.13055124587E+00  0.16317121899E-01 0.  0.
         14    1    1    2    0    0  0.14684009676E-01 -0.11524665540E-01  0.15223861463E-01  0.24087424392E-01  0.00000000000E+00 0.  1.
     999901    1    3    3    0    0 -0.10307418219E+00 -0.26272520339E-01  0.71585869984E-01  0.88929132973E+00  0.88000000000E+00 0. -1.
        -11    1    4    4    0    0  0.25051449011E-01  0.18881363401E-01 -0.26480822605E-01  0.41055767784E-01  0.51100000000E-03 0.  1.
         11    1    4    4    0    0  0.63338723507E-01  0.18915822478E-01 -0.60328908842E-01  0.89495478090E-01  0.51100000000E-03 0. -1.
</event>
<event>
 8    1  0.1082757E+005  0.1043930E+01  0.7957747E-01            NaN
         13   -1    0    0    0    0  0.00000000000E+00  0.00000000000E+00  0.74505805969E-08  0.10566000000E+00  0.10566000000E+00 0.  1.
     999900   -1    0    0    0    0 -0.00000000000E+00 -0.00000000000E+00 -0.74505805969E-08  0.93827000000E+00  0.93827000000E+00 0.  1.
     999902    2    1    2    0    0 -0.29545834412E-02 -0.23306799545E-01 -0.30108056225E-02  0.10202445315E+01  0.10199695596E+01 0.  0.
     999903    2    3    3    0    0 -0.12063303730E+00  0.53603748933E-03 -0.46754615867E-01  0.13101440361E+00  0.20643711518E-01 0.  0.
         14    1    1    2    0    0  0.29545834412E-02  0.23306799545E-01  0.30108056225E-02  0.23685468516E-01  0.00000000000E+00 0. -1.
     999901    1    3    3    0    0  0.11767845386E+00 -0.23842837034E-01  0.43743810245E-01  0.88923012787E+00  0.88000000000E+00 0.  1.
        -11    1    4    4    0    0 -0.83300344855E-01  0.57694495094E-02 -0.40474440525E-01  0.92793725313E-01  0.51100000000E-03 0.  1.
         11    1    4    4    0    0 -0.37332692441E-01 -0.52334120201E-02 -0.62801753428E-02  0.38220678299E-01  0.51100000000E-03 0. -1.
</event>
<event>
 8    1  0.1082757E+005  0.1043930E+01  0.7957747E-01            NaN
         13   -1    0    0    0    0  0.00000000000E+00  0.00000000000E+00  0.74505805969E-08  0.10566000000E+00  0.10566000000E+00 0. -1.
     999900   -1    0    0    0    0 -0.00000000000E+00 -0.00000000000E+00 -0.74505805969E-08  0.93827000000E+00  0.93827000000E+00 0.  1.
     999902    2    1    2    0    0 -0.22999132966E-01  0.14152916138E-02 -0.58226631636E-02  0.10201630782E+01  0.10198861895E+01 0.  0.
     999903    2    3    3    0    0  0.92100999082E-01 -0.46978266012E-01  0.71900414470E-01  0.12795746642E+00  0.22669188394E-01 0.  0.
         14    1    1    2    0    0  0.22999132966E-01 -0.14152916138E-02  0.58226631636E-02  0.23766921843E-01  0.00000000000E+00 0. -1.
     999901    1    3    3    0    0 -0.11510013205E+00  0.48393557626E-01 -0.77723077634E-01  0.89220561174E+00  0.88000000000E+00 0. -1.
        -11    1    4    4    0    0  0.48842246899E-01 -0.12394413689E-01  0.31977518147E-01  0.59682571666E-01  0.51100000000E-03 0.  1.
         11    1    4    4    0    0  0.43258752183E-01 -0.34583852323E-01  0.39922896323E-01  0.68274894755E-01  0.51100000000E-03 0. -1.
</event>
<event>
 8    1  0.1082757E+005  0.1043930E+01  0.7957747E-01            NaN
         13   -1    0    0    0    0  0.00000000000E+00  0.00000000000E+00  0.74505805969E-08  0.10566000000E+00  0.10566000000E+00 0.  1.
     999900   -1    0    0    0    0 -0.00000000000E+00 -0.00000000000E+00 -0.74505805969E-08  0.93827000000E+00  0.93827000000E+00 0.  1.
     999902    2    1    2    0    0 -0.43071342294E-02  0.21176038868E-01 -0.10748885438E-01  0.10197946615E+01  0.10195090176E+01 0.  0.
     999903    2    3    3    0    0  0.12481816585E+00  0.10105214383E-01  0.26489153638E-01  0.12952359162E+00  0.19824117665E-01 0.  0.
         14    1    1    2    0    0  0.43071342294E-02 -0.21176038868E-01  0.10748885438E-01  0.24135338522E-01  0.00000000000E+00 0.  1.
     999901    1    3    3    0    0 -0.12912530008E+00  0.11070824486E-01 -0.37238039076E-01  0.89027106986E+00  0.88000000000E+00 0. -1.
        -11    1    4    4    0    0  0.30438399270E-01  0.76970113462E-02  0.13663268664E-01  0.34244505623E-01  0.51100000000E-03 0.  1.
         11    1    4    4    0    0  0.94379766580E-01  0.24082030365E-02  0.12825884973E-01  0.95279085995E-01  0.51100000000E-03 0. -1.
</event>
<event>
 8    1  0.1094707E+005  0.1043930E+01  0.7957747E-01            NaN
         13   -1    0    0    0    0  0.00000000000E+00  0.00000000000E+00  0.74505805969E-08  0.10566000000E+00  0.10566000000E+00 0.  1.
     999900   -1    0    0    0    0 -0.00000000000E+00 -0.00000000000E+00 -0.74505805969E-08  0.93827000000E+00  0.93827000000E+00 0.  1.
     999902    2    1    2    0    0 -0.83657172952E-02  0.12825549388E-01  0.17793821182E-01  0.10204544805E+01  0.10201844180E+01 0.  0.
     999903    2    3    3    0    0  0.69822987907E-01  0.10077581200E+00 -0.40341545292E-01  0.13071943953E+00  0.20715155559E-01 0.  0.
         14    1    1    2    0    0  0.83657172952E-02 -0.12825549388E-01 -0.17793821182E-01  0.23475519488E-01  0.00000000000E+00 0. -1.
     999901    1    3    3    0    0 -0.78188705202E-01 -0.87950262613E-01  0.58135366474E-01  0.88973504098E+00  0.88000000000E+00 0.  1.
        -11    1    4    4    0    0  0.37120071849E-01  0.59401969317E-01 -0.12754838760E-01  0.71200005095E-01  0.51100000000E-03 0.  1.
         11    1    4    4    0    0  0.32702916058E-01  0.41373842685E-01 -0.27586706533E-01  0.59519434436E-01  0.51100000000E-03 0. -1.
</event>
<event>
 7    1  0.1082757E+005  0.1043930E+01  0.7957747E-01            NaN
         13   -1    0    0    0    0  0.00000000000E+00  0.00000000000E+00  0.74505805969E-08  0.10566000000E+00  0.10566000000E+00 0.  1.
     999900   -1    0    0    0    0 -0.00000000000E+00 -0.00000000000E+00 -0.74505805969E-08  0.93827000000E+00  0.93827000000E+00 0.  1.
     999902    2    1    2    0    0 -0.12768159622E-01 -0.12664541600E-01  0.14766934489E-01  0.10206603015E+01  0.10203950079E+01 0.  0.
         14    1    1    2    0    0  0.12768159622E-01  0.12664541600E-01 -0.14766934489E-01  0.23269698500E-01  0.00000000000E+00 0. -1.
     999901    1    3    3    0    0 -0.25506338759E-01  0.10683525500E+00  0.42733051124E-01  0.88785722877E+00  0.88000000000E+00 0.  1.
        -11    1    3    3    0    0  0.25833520487E-01 -0.66820192492E-01  0.20755026031E-03  0.71642257806E-01  0.51100000000E-03 0. -1.
         11    1    3    3    0    0 -0.13095341351E-01 -0.52679604110E-01 -0.28173666895E-01  0.61160814920E-01  0.51100000000E-03 0.  1.
</event>
<event>
 8    1  0.1082757E+005  0.1043930E+01  0.7957747E-01            NaN
         13   -1    0    0    0    0  0.00000000000E+00  0.00000000000E+00  0.74505805969E-08  0.10566000000E+00  0.10566000000E+00 0.  1.
     999900   -1    0    0    0    0 -0.00000000000E+00 -0.00000000000E+00 -0.74505805969E-08  0.93827000000E+00  0.93827000000E+00 0. -1.
     999902    2    1    2    0    0 -0.10404999404E-01 -0.15859217220E-01 -0.13877134691E-01  0.10204277948E+01  0.10201571108E+01 0.  0.
     999903    2    3    3    0    0  0.67681867595E-01  0.99742001729E-01 -0.41690299697E-01  0.12900490255E+00  0.19361861577E-01 0.  0.
         14    1    1    2    0    0  0.10404999404E-01  0.15859217220E-01  0.13877134691E-01  0.23502205230E-01  0.00000000000E+00 0.  1.
     999901    1    3    3    0    0 -0.78086867000E-01 -0.11560121895E+00  0.27813165006E-01  0.89142289222E+00  0.88000000000E+00 0.  1.
        -11    1    4    4    0    0  0.29398209783E-01  0.42920840883E-01 -0.79460834397E-02  0.52629408923E-01  0.51100000000E-03 0. -1.
         11    1    4    4    0    0  0.38283657812E-01  0.56821160847E-01 -0.33744216257E-01  0.76375493630E-01  0.51100000000E-03 0.  1.
</event>
<event>
 8    1  0.1106598E+005  0.1043930E+01  0.7957747E-01            NaN
         13   -1    0    0    0    0  0.00000000000E+00  0.00000000000E+00  0.74505805969E-08  0.10566000000E+00  0.10566000000E+00 0. -1.
     999900   -1    0    0    0    0 -0.00000000000E+00 -0.00000000000E+00 -0.74505805969E-08  0.93827000000E+00  0.93827000000E+00 0. -1.
     999902    2    1    2    0    0 -0.16046591844E-01 -0.83506505909E-02  0.15726843069E-01  0.10199600174E+01  0.10196783203E+01 0.  0.
     999903    2    3    3    0    0  0.84834676032E-01 -0.16334549908E-01  0.95380780571E-01  0.13058634863E+00  0.22171183293E-01 0.  0.
         14    1    1    2    0    0  0.16046591844E-01  0.83506505909E-02 -0.15726843069E-01  0.23969982645E-01  0.00000000000E+00 0.  1.
     999901    1    3    3    0    0 -0.10088126788E+00  0.79838993170E-02 -0.79653937503E-01  0.88937366872E+00  0.88000000000E+00 0. -1.
        -11    1    4    4    0    0  0.54822947364E-01 -0.20808745683E-01  0.66962990083E-01  0.89010463522E-01  0.51100000000E-03 0.  1.
         11    1    4    4    0    0  0.30011728668E-01  0.44741957746E-02  0.28417790488E-01  0.41575885110E-01  0.51100000000E-03 0. -1.
</event>
<event>
 8    1  0.1082757E+005  0.1043930E+01  0.7957747E-01            NaN
         13   -1    0    0    0    0  0.00000000000E+00  0.00000000000E+00  0.74505805969E-08  0.10566000000E+00  0.10566000000E+00 0. -1.
     999900   -1    0    0    0    0 -0.00000000000E+00 -0.00000000000E+00 -0.74505805969E-08  0.93827000000E+00  0.93827000000E+00 0. -1.
     999902    2    1    2    0    0  0.51396183729E-02 -0.19918176499E-01  0.10248644078E-01  0.10209477430E+01  0.10206890368E+01 0.  0.
     999903    2    3    3    0    0  0.58063107082E-01 -0.11675883058E+00  0.23054942578E-01  0.13396239405E+00  0.20259410677E-01 0.  0.
         14    1    1    2    0    0 -0.51396183729E-02  0.19918176499E-01 -0.10248644078E-01  0.22982257015E-01  0.00000000000E+00 0. -1.
     999901    1    3    3    0    0 -0.52923488709E-01  0.96840654079E-01 -0.12806298501E-01  0.88698534893E+00  0.88000000000E+00 0.  1.
        -11    1    4    4    0    0  0.29580185924E-01 -0.53511286645E-01  0.92891129658E-03  0.61152017096E-01  0.51100000000E-03 0.  1.
         11    1    4    4    0    0  0.28482921158E-01 -0.63247543933E-01  0.22126031282E-01  0.72810376956E-01  0.51100000000E-03 0. -1.
</event>
<event>
 8    1  0.1082757E+005  0.1043930E+01  0.7957747E-01            NaN
         13   -1    0    0    0    0  0.00000000000E+00  0.00000000000E+00  0.74505805969E-08  0.10566000000E+00  0.10566000000E+00 0.  1.
     999900   -1    0    0    0    0 -0.00000000000E+00 -0.00000000000E+00 -0.74505805969E-08  0.93827000000E+00  0.93827000000E+00 0. -1.
     999902    2    1    2    0    0 -0.12962348391E-01  0.18055201419E-01 -0.10482177445E-01  0.10193558506E+01  0.10190595966E+01 0.  0.
     999903    2    3    3    0    0 -0.11836666146E-01  0.21709787785E-02 -0.12911654476E+00  0.13125242826E+00  0.20280482699E-01 0.  0.
         14    1    1    2    0    0  0.12962348391E-01 -0.18055201419E-01  0.10482177445E-01  0.24574149387E-01  0.00000000000E+00 0.  1.
     999901    1    3    3    0    0 -0.11256822454E-02  0.15884222641E-01  0.11863436732E+00  0.88810342235E+00  0.88000000000E+00 0.  1.
        -11    1    4    4    0    0 -0.58124380803E-02  0.11235745876E-01 -0.72437594091E-01  0.73535655165E-01  0.51100000000E-03 0.  1.
         11    1    4    4    0    0 -0.60242280652E-02 -0.90647670977E-02 -0.56678950669E-01  0.57716773093E-01  0.51100000000E-03 0. -1.
</event>
<event>
 8    1  0.1082757E+005  0.1043930E+01  0.7957747E-01            NaN
         13   -1    0    0    0    0  0.00000000000E+00  0.00000000000E+00  0.74505805969E-08  0.10566000000E+00  0.10566000000E+00 0. -1.
     999900   -1    0    0    0    0 -0.00000000000E+00 -0.00000000000E+00 -0.74505805969E-08  0.93827000000E+00  0.93827000000E+00 0.  1.
     999902    2    1    2    0    0  0.68364554688E-02  0.79549909009E-02 -0.20892741250E-01  0.10205521121E+01  0.10202843172E+01 0.  0.
     999903    2    3    3    0    0  0.79095011205E-01  0.50295183300E-01 -0.92969586828E-01  0.13364227319E+00  0.20767446815E-01 0.  0.
         14    1    1    2    0    0 -0.68364554688E-02 -0.79549909009E-02  0.20892741250E-01  0.23377887855E-01  0.00000000000E+00 0. -1.
     999901    1    3    3    0    0 -0.72258555736E-01 -0.42340192399E-01  0.72076845578E-01  0.88690983896E+00  0.88000000000E+00 0. -1.
        -11    1    4    4    0    0  0.41698392049E-01  0.14272517474E-01 -0.42304062615E-01  0.61093006877E-01  0.51100000000E-03 0.  1.
         11    1    4    4    0    0  0.37396619156E-01  0.36022665826E-01 -0.50665524213E-01  0.72549266312E-01  0.51100000000E-03 0. -1.
</event>
<event>
 8    1  0.1082757E+005  0.1043930E+01  0.7957747E-01            NaN
         13   -1    0    0    0    0  0.00000000000E+00  0.00000000000E+00  0.74505805969E-08  0.10566000000E+00  0.10566000000E+00 0.  1.
     999900   -1    0    0    0    0 -0.00000000000E+00 -0.00000000000E+00 -0.74505805969E-08  0.93827000000E+00  0.93827000000E+00 0.  1.
     999902    2    1    2    0    0  0.16187903998E-01  0.15150336222E-01 -0.73005007610E-02  0.10205873730E+01  0.10203203946E+01 0.  0.
     999903    2    3    3    0    0  0.17158342555E-01 -0.27446811449E-01  0.12398938237E+00  0.12982787003E+00  0.20836811604E-01 0.  0.
         14    1    1    2    0    0 -0.16187903998E-01 -0.15150336222E-01  0.73005007610E-02  0.23342626991E-01  0.00000000000E+00 0.  1.
     999901    1    3    3    0    0 -0.97043855717E-03  0.42597147672E-01 -0.13128988313E+00  0.89075950298E+00  0.88000000000E+00 0.  1.
        -11    1    4    4    0    0 -0.10872076441E-02 -0.17746333124E-01  0.60244282752E-01  0.62815197884E-01  0.51100000000E-03 0. -1.
         11    1    4    4    0    0  0.18245550199E-01 -0.97004783250E-02  0.63745099616E-01  0.67012672143E-01  0.51100000000E-03 0.  1.
</event>
<event>
 8    1  0.1082757E+005  0.1043930E+01  0.7957747E-01            NaN
         13   -1    0    0    0    0  0.00000000000E+00  0.00000000000E+00  0.74505805969E-08  0.10566000000E+00  0.10566000000E+00 0.  1.
     999900   -1    0    0    0    0 -0.00000000000E+00 -0.00000000000E+00 -0.74505805969E-08  0.93827000000E+00  0.93827000000E+00 0. -1.
     999902    2    1    2    0    0 -0.53772913065E-02  0.36599041142E-02 -0.22750951684E-01  0.10202674566E+01  0.10199930230E+01 0.  0.
     999903    2    3    3    0    0 -0.77859768720E-01  0.96396269696E-01 -0.41276130568E-01  0.13223765678E+00  0.20704939480E-01 0.  0.
         14    1    1    2    0    0  0.53772913065E-02 -0.36599041142E-02  0.22750951684E-01  0.23662543449E-01  0.00000000000E+00 0.  1.
     999901    1    3    3    0    0  0.72482477414E-01 -0.92736365582E-01  0.18525178884E-01  0.88802979977E+00  0.88000000000E+00 0. -1.
        -11    1    4    4    0    0 -0.36649638937E-01  0.41966448851E-01 -0.80110813970E-02  0.56292249995E-01  0.51100000000E-03 0. -1.
         11    1    4    4    0    0 -0.41210129783E-01  0.54429820845E-01 -0.33265049171E-01  0.75945406783E-01  0.51100000000E-03 0.  1.
</event>
<event>
 8    1  0.1082757E+005  0.1043930E+01  0.7957747E-01            NaN
         13   -1    0    0    0    0  0.00000000000E+00  0.00000000000E+00  0.74505805969E-08  0.10566000000E+00  0.10566000000E+00 0.  1.
     999900   -1    0    0    0    0 -0.00000000000E+00 -0.00000000000E+00 -0.74505805969E-08  0.93827000000E+00  0.93827000000E+00 0. -1.
     999902    2    1    2    0    0 -0.30244885729E-02 -0.16049159804E-01  0.18544741931E-01  0.10192190608E+01  0.10189194588E+01 0.  0.
     999903    2    3    3    0    0 -0.97153715337E-02  0.12227430533E+00  0.33621253833E-01  0.12826145794E+00  0.16589716570E-01 0.  0.
         14    1    1    2    0    0  0.30244885729E-02  0.16049159804E-01 -0.18544741931E-01  0.24710939173E-01  0.00000000000E+00 0. -1.
     999901    1    3    3    0    0  0.66908829608E-02 -0.13832346514E+00 -0.15076511903E-01  0.89095760288E+00  0.88000000000E+00 0. -1.
        -11    1    4    4    0    0 -0.13300343363E-01  0.95797474247E-01  0.22399819145E-01  0.99277732772E-01  0.51100000000E-03 0. -1.
         11    1    4    4    0    0  0.35849718289E-02  0.26476831087E-01  0.11221434688E-01  0.28983725173E-01  0.51100000000E-03 0.  1.
</event>
<event>
 8    1  0.1082757E+005  0.1043930E+01  0.7957747E-01            NaN
         13   -1    0    0    0    0  0.00000000000E+00  0.00000000000E+00  0.74505805969E-08  0.10566000000E+00  0.10566000000E+00 0.  1.
     999900   -1    0    0    0    0 -0.00000000000E+00 -0.00000000000E+00 -0.74505805969E-08  0.93827000000E+00  0.93827000000E+00 0. -1.
     999902    2    1    2    0    0 -0.11021601981E-01 -0.21750841930E-01 -0.32608890766E-02  0.10193290197E+01  0.10190321105E+01 0.  0.
     999903    2    3    3    0    0 -0.11695459783E+00  0.52435745515E-01 -0.73822592544E-02  0.12986714020E+00  0.19572710332E-01 0.  0.
         14    1    1    2    0    0  0.11021601981E-01  0.21750841930E-01  0.32608890766E-02  0.24600980315E-01  0.00000000000E+00 0.  1.
     999901    1    3    3    0    0  0.10593299585E+00 -0.74186587445E-01  0.41213701778E-02  0.88946187949E+00  0.88000000000E+00 0. -1.
        -11    1    4    4    0    0 -0.30000232567E-01  0.89151089583E-02  0.54942249472E-02  0.31779564984E-01  0.51100000000E-03 0. -1.
         11    1    4    4    0    0 -0.86954365266E-01  0.43520636557E-01 -0.12876484202E-01  0.98087575215E-01  0.51100000000E-03 0.  1.
</event>
<event>
 8    1  0.1082757E+005  0.1043930E+01  0.7957747E-01            NaN
         13   -1    0    0    0    0  0.00000000000E+00  0.00000000000E+00  0.74505805969E-08  0.10566000000E+00  0.10566000000E+00 0.  1.
     999900   -1    0    0    0    0 -0.00000000000E+00 -0.00000000000E+00 -0.74505805969E-08  0.93827000000E+00  0.93827000000E+00 0.  1.
     999902    2    1    2    0    0  0.21015345982E-01  0.50547109436E-02 -0.32836090070E-02  0.10220673159E+01  0.10218334606E+01 0.  0.
     999903    2    3    3    0    0  0.67596775195E-01 -0.61392535180E-01  0.94847581843E-01  0.13290209124E+00  0.18125525701E-01 0.  0.
         14    1    1    2    0    0 -0.21015345982E-01 -0.50547109436E-02  0.32836090070E-02  0.21862684135E-01  0.00000000000E+00 0.  1.
     999901    1    3    3    0    0 -0.46581429213E-01  0.66447246124E-01 -0.98131190850E-01  0.88916522463E+00  0.88000000000E+00 0.  1.
        -11    1    4    4    0    0  0.57850408433E-02 -0.13745708954E-01  0.12751701196E-01  0.19628505205E-01  0.51100000000E-03 0.  1.
         11    1    4    4    0    0  0.61811734352E-01 -0.47646826226E-01  0.82095880647E-01  0.11327358603E+00  0.51100000000E-03 0. -1.
</event>
<event>
 8    1  0.1082757E+005  0.1043930E+01  0.7957747E-01            NaN
         13   -1    0    0    0    0  0.00000000000E+00  0.00000000000E+00  0.74505805969E-08  0.10566000000E+00  0.10566000000E+00 0. -1.
     999900   -1    0    0    0    0 -0.00000000000E+00 -0.00000000000E+00 -0.74505805969E-08  0.93827000000E+00  0.93827000000E+00 0.  1.
     999902    2    1    2    0    0  0.24000755080E-01 -0.26110910846E-02  0.42755324044E-02  0.10194119614E+01  0.10191170751E+01 0.  0.
     999903    2    3    3    0    0  0.83883493768E-01 -0.50664008798E-01  0.86066075747E-01  0.13229036977E+00  0.22137981522E-01 0.  0.
         14    1    1    2    0    0 -0.24000755080E-01  0.26110910846E-02 -0.42755324044E-02  0.24518038633E-01  0.00000000000E+00 0.  1.
     999901    1    3    3    0    0 -0.59882738688E-01  0.48052917713E-01 -0.81790543342E-01  0.88712159159E+00  0.88000000000E+00 0.  1.
        -11    1    4    4    0    0  0.64693523933E-01 -0.47368862525E-01  0.75486331782E-01  0.11012496803E+00  0.51100000000E-03 0.  1.
         11    1    4    4    0    0  0.19189969835E-01 -0.32951462726E-02  0.10579743965E-01  0.22165401747E-01  0.51100000000E-03 0. -1.
</event>
<event>
 8    1  0.1082757E+005  0.1043930E+01  0.7957747E-01            NaN
         13   -1    0    0    0    0  0.00000000000E+00  0.00000000000E+00  0.74505805969E-08  0.10566000000E+00  0.10566000000E+00 0. -1.
     999900   -1    0    0    0    0 -0.00000000000E+00 -0.00000000000E+00 -0.74505805969E-08  0.93827000000E+00  0.93827000000E+00 0. -1.
     999902    2    1    2    0    0  0.91788834925E-02 -0.18911012951E-01 -0.98728250928E-02  0.10207060686E+01  0.10204418296E+01 0.  0.
     999903    2    3    3    0    0  0.10737893288E+00  0.71241756870E-01 -0.84147662216E-02  0.13066511590E+00  0.19923380059E-01 0.  0.
         14    1    1    2    0    0 -0.91788834925E-02  0.18911012951E-01  0.98728250928E-02  0.23223931371E-01  0.00000000000E+00 0. -1.
     999901    1    3    3    0    0 -0.98200049388E-01 -0.90152769822E-01 -0.14580588712E-02  0.89004095273E+00  0.88000000000E+00 0.  1.
        -11    1    4    4    0    0  0.95595447220E-02  0.32531579239E-02 -0.54825124662E-02  0.11501608397E-01  0.51100000000E-03 0.  1.
         11    1    4    4    0    0  0.97819388159E-01  0.67988598946E-01 -0.29322537554E-02  0.11916350750E+00  0.51100000000E-03 0. -1.
</event>
<event>
 8    1  0.1082757E+005  0.1043930E+01  0.7957747E-01            NaN
         13   -1    0    0    0    0  0.00000000000E+00  0.00000000000E+00  0.74505805969E-08  0.10566000000E+00  0.10566000000E+00 0.  1.
     999900   -1    0    0    0    0 -0.00000000000E+00 -0.00000000000E+00 -0.74505805969E-08  0.93827000000E+00  0.93827000000E+00 0. -1.
     999902    2    1    2    0    0 -0.19854237394E-01  0.11479886902E-01  0.60963904252E-02  0.10201993337E+01  0.10199232991E+01 0.  0.
     999903    2    3    3    0    0  0.44081192244E-02 -0.98583744384E-01  0.81881246770E-01  0.12978032599E+00  0.20005206060E-01 0.  0.
         14    1    1    2    0    0  0.19854237394E-01 -0.11479886902E-01 -0.60963904252E-02  0.23730666278E-01  0.00000000000E+00 0. -1.
     999901    1    3    3    0    0 -0.24262356618E-01  0.11006363129E+00 -0.75784856345E-01  0.89041900773E+00  0.88000000000E+00 0.  1.
        -11    1    4    4    0    0  0.94225246599E-02 -0.33842196198E-01  0.35758720855E-01  0.50130085304E-01  0.51100000000E-03 0. -1.
         11    1    4    4    0    0 -0.50144054356E-02 -0.64741548186E-01  0.46122525915E-01  0.79650240685E-01  0.51100000000E-03 0.  1.
</event>
<event>
 8    1  0.1082757E+005  0.1043930E+01  0.7957747E-01            NaN
         13   -1    0    0    0    0  0.00000000000E+00  0.00000000000E+00  0.74505805969E-08  0.10566000000E+00  0.10566000000E+00 0.  1.
     999900   -1    0    0    0    0 -0.00000000000E+00 -0.00000000000E+00 -0.74505805969E-08  0.93827000000E+00  0.93827000000E+00 0. -1.
     999902    2    1    2    0    0 -0.43960481497E-02 -0.23515410610E-01  0.45325294288E-02  0.10195816202E+01  0.10192908499E+01 0.  0.
     999903    2    3    3    0    0  0.64837784460E-01 -0.21983142199E-01 -0.10836040377E+00  0.12967123944E+00  0.19633043550E-01 0.  0.
         14    1    1    2    0    0  0.43960481497E-02  0.23515410610E-01 -0.45325294288E-02  0.24348379792E-01  0.00000000000E+00 0.  1.
     999901    1    3    3    0    0 -0.69233832610E-01 -0.15322684110E-02  0.11289293320E+00  0.88991038076E+00  0.88000000000E+00 0.  1.
        -11    1    4    4    0    0  0.11748509673E-01 -0.88515658713E-02 -0.36574169105E-01  0.39424721490E-01  0.51100000000E-03 0.  1.
         11    1    4    4    0    0  0.53089274787E-01 -0.13131576327E-01 -0.71786234666E-01  0.90246517954E-01  0.51100000000E-03 0. -1.
</event>
<event>
 8    1  0.1082757E+005  0.1043930E+01  0.7957747E-01            NaN
         13   -1    0    0    0    0  0.00000000000E+00  0.00000000000E+00  0.74505805969E-08  0.10566000000E+00  0.10566000000E+00 0.  1.
     999900   -1    0    0    0    0 -0.00000000000E+00 -0.00000000000E+00 -0.74505805969E-08  0.93827000000E+00  0.93827000000E+00 0. -1.
     999902    2    1    2    0    0 -0.17274765087E-01  0.18204461324E-02 -0.14834973348E-01  0.10210868836E+01  0.10208313357E+01 0.  0.
     999903    2    3    3    0    0  0.36018123127E-01  0.12303331526E+00  0.81565245196E-02  0.13088392890E+00  0.25091275241E-01 0.  0.
         14    1    1    2    0    0  0.17274765087E-01 -0.18204461324E-02  0.14834973348E-01  0.22843116407E-01  0.00000000000E+00 0.  1.
     999901    1    3    3    0    0 -0.53292888214E-01 -0.12121286913E+00 -0.22991497868E-01  0.89020295470E+00  0.88000000000E+00 0. -1.
        -11    1    4    4    0    0  0.25884185538E-01  0.85710134803E-01 -0.59049664560E-02  0.89729304125E-01  0.51100000000E-03 0.  1.
         11    1    4    4    0    0  0.10133937589E-01  0.37323180458E-01  0.14061490976E-01  0.41154624771E-01  0.51100000000E-03 0. -1.
</event>
<event>
 8    1  0.1082757E+005  0.1043930E+01  0.7957747E-01            NaN
         13   -1    0    0    0    0  0.00000000000E+00  0.00000000000E+00  0.74505805969E-08  0.10566000000E+00  0.10566000000E+00 0. -1.
     999900   -1    0    0    0    0 -0.00000000000E+00 -0.00000000000E+00 -0.74505805969E-08  0.93827000000E+00  0.93827000000E+00 0. -1.
     999902    2    1    2    0    0  0.22129726678E-01 -0.81869867056E-02 -0.70565226372E-02  0.10193018440E+01  0.10190042705E+01 0.  0.
     999903    2    3    3    0    0 -0.11434779344E+00 -0.13860747827E-01  0.49438248135E-01  0.12697344923E+00  0.20262730231E-01 0.  0.
         14    1    1    2    0    0 -0.22129726678E-01  0.81869867056E-02  0.70565226372E-02  0.24628155958E-01  0.00000000000E+00 0. -1.
     999901    1    3    3    0    0  0.13647752012E+00  0.56737611211E-02 -0.56494770772E-01  0.89232839481E+00  0.88000000000E+00 0. -1.
        -11    1    4    4    0    0 -0.43774238452E-01  0.40450030645E-02  0.22027726667E-01  0.49173446747E-01  0.51100000000E-03 0.  1.
         11    1    4    4    0    0 -0.70573554986E-01 -0.17905750891E-01  0.27410521468E-01  0.77800002484E-01  0.51100000000E-03 0. -1.
</event>
<event>
 8    1  0.1082757E+005  0.1043930E+01  0.7957747E-01            NaN
         13   -1    0    0    0    0  0.00000000000E+00  0.00000000000E+00  0.74505805969E-08  0.10566000000E+00  0.10566000000E+00 0.  1.
     999900   -1    0    0    0    0 -0.00000000000E+00 -0.00000000000E+00 -0.74505805969E-08  0.93827000000E+00  0.93827000000E+00 0. -1.
     999902    2    1    2    0    0  0.20464268883E-01  0.74683640714E-02 -0.82005749496E-02  0.10206531404E+01  0.10203876816E+01 0.  0.
     999903    2    3    3    0    0 -0.49068239117E-01  0.11948744268E+00 -0.51020041671E-02  0.13082582863E+00  0.20110344169E-01 0.  0.
         14    1    1    2    0    0 -0.20464268883E-01 -0.74683640714E-02  0.82005749496E-02  0.23276859589E-01  0.00000000000E+00 0.  1.
     999901    1    3    3    0    0  0.69532508000E-01 -0.11201907861E+00 -0.30985707825E-02  0.88982731178E+00  0.88000000000E+00 0. -1.
        -11    1    4    4    0    0 -0.47359789808E-01  0.94796094166E-01 -0.39104068672E-02  0.10604150868E+00  0.51100000000E-03 0. -1.
         11    1    4    4    0    0 -0.17084493091E-02  0.24691348517E-01 -0.11915972999E-02  0.24784319957E-01  0.51100000000E-03 0.  1.
</event>
<event>
 8    1  0.1082757E+005  0.1043930E+01  0.7957747E-01            NaN
         13   -1    0    0    0    0  0.00000000000E+00  0.00000000000E+00  0.74505805969E-08  0.10566000000E+00  0.10566000000E+00 0. -1.
     999900   -1    0    0    0    0 -0.00000000000E+00 -0.00000000000E+00 -0.74505805969E-08  0.93827000000E+00  0.93827000000E+00 0.  1.
     999902    2    1    2    0    0  0.95946862745E-02 -0.14959401759E-01 -0.15327309684E-01  0.10204615504E+01  0.10201916524E+01 0.  0.
     999903    2    3    3    0    0  0.43799755453E-01 -0.11493707497E+00  0.44003363001E-01  0.13215661927E+00  0.20003156795E-01 0.  0.
         14    1    1    2    0    0 -0.95946862745E-02  0.14959401759E-01  0.15327309684E-01  0.23468449626E-01  0.00000000000E+00 0. -1.
     999901    1    3    3    0    0 -0.34205069178E-01  0.99977673211E-01 -0.59330672684E-01  0.88830493110E+00  0.88000000000E+00 0.  1.
        -11    1    4    4    0    0  0.77874245528E-02 -0.37854651428E-01  0.21151329732E-01  0.44059715005E-01  0.51100000000E-03 0. -1.
         11    1    4    4    0    0  0.36012330900E-01 -0.77082423542E-01  0.22852033268E-01  0.88096904268E-01  0.51100000000E-03 0.  1.
</event>
<event>
 8    1  0.1082757E+005  0.1043930E+01  0.7957747E-01            NaN
         13   -1    0    0    0    0  0.00000000000E+00  0.00000000000E+00  0.74505805969E-08  0.10566000000E+00  0.10566000000E+00 0. -1.
     999900   -1    0    0    0    0 -0.00000000000E+00 -0.00000000000E+00 -0.74505805969E-08  0.93827000000E+00  0.93827000000E+00 0. -1.
     999902    2    1    2    0    0  0.19313100817E-01  0.88000105996E-02 -0.10434993259E-01  0.10202799443E+01  0.10200058037E+01 0.  0.
     999903    2    3    3    0    0  0.52065933998E-01  0.11743123683E+00  0.24831938725E-01  0.13229500757E+00  0.19605789417E-01 0.  0.
         14    1    1    2    0    0 -0.19313100817E-01 -0.88000105996E-02  0.10434993259E-01  0.23650055688E-01  0.00000000000E+00 0. -1.
     999901    1    3    3    0    0 -0.32752833181E-01 -0.10863122624E+00 -0.35266931984E-01  0.88798493675E+00  0.88000000000E+00 0.  1.
        -11    1    4    4    0    0  0.43206797137E-01  0.88995084599E-01  0.26631260741E-01  0.10245212331E+00  0.51100000000E-03 0.  1.
         11    1    4    4    0    0  0.88591368612E-02  0.28436152236E-01 -0.17993220157E-02  0.29842884255E-01  0.51100000000E-03 0. -1.
</event>
<event>
 8    1  0.1082757E+005  0.1043930E+01  0.7957747E-01            NaN
         13   -1    0    0    0    0  0.00000000000E+00  0.00000000000E+00  0.74505805969E-08  0.10566000000E+00  0.10566000000E+00 0.  1.
     999900   -1    0    0    0    0 -0.00000000000E+00 -0.00000000000E+00 -0.74505805969E-08  0.93827000000E+00  0.93827000000E+00 0. -1.
     999902    2    1    2    0    0 -0.22973062794E-01 -0.52949851951E-02  0.62371720200E-03  0.10203463721E+01  0.10200737873E+01 0.  0.
     999903    2    3    3    0    0  0.47180696477E-01  0.11687460993E+00 -0.18364184880E-01  0.12893877714E+00  0.20056729465E-01 0.  0.
         14    1    1    2    0    0  0.22973062794E-01  0.52949851951E-02 -0.62371720200E-03  0.23583627912E-01  0.00000000000E+00 0.  1.
     999901    1    3    3    0    0 -0.70153759272E-01 -0.12216959512E+00  0.18987902082E-01  0.89140759495E+00  0.88000000000E+00 0.  1.
        -11    1    4    4    0    0  0.29840036796E-01  0.55840149896E-01 -0.17133307121E-02  0.63338351412E-01  0.51100000000E-03 0. -1.
         11    1    4    4    0    0  0.17340659681E-01  0.61034460033E-01 -0.16650854168E-01  0.65600425724E-01  0.51100000000E-03 0.  1.
</event>
<event>
 8    1  0.1082757E+005  0.1043930E+01  0.7957747E-01            NaN
         13   -1    0    0    0    0  0.00000000000E+00  0.00000000000E+00  0.74505805969E-08  0.10566000000E+00  0.10566000000E+00 0. -1.
     999900   -1    0    0    0    0 -0.00000000000E+00 -0.00000000000E+00 -0.74505805969E-08  0.93827000000E+00  0.93827000000E+00 0. -1.
     999902    2    1    2    0    0  0.96675209920E-02  0.76489980100E-02 -0.20876251070E-01  0.10196857019E+01  0.10193974419E+01 0.  0.
     999903    2    3    3    0    0  0.38105645232E-01 -0.61617913262E-01  0.10337028513E+00  0.12780912204E+00  0.20023695827E-01 0.  0.
         14    1    1    2    0    0 -0.96675209920E-02 -0.76489980100E-02  0.20876251070E-01  0.24244298122E-01  0.00000000000E+00 0. -1.
     999901    1    3    3    0    0 -0.28438124240E-01  0.69266911272E-01 -0.12424653620E+00  0.89187657984E+00  0.88000000000E+00 0. -1.
        -11    1    4    4    0    0  0.15454329380E-01 -0.12236970586E-01  0.37973594283E-01  0.42788254574E-01  0.51100000000E-03 0.  1.
         11    1    4    4    0    0  0.22651315852E-01 -0.49380942676E-01  0.65396690849E-01  0.85020867465E-01  0.51100000000E-03 0. -1.
</event>
<event>
 8    1  0.1082757E+005  0.1043930E+01  0.7957747E-01            NaN
         13   -1    0    0    0    0  0.00000000000E+00  0.00000000000E+00  0.74505805969E-08  0.10566000000E+00  0.10566000000E+00 0. -1.
     999900   -1    0    0    0    0 -0.00000000000E+00 -0.00000000000E+00 -0.74505805969E-08  0.93827000000E+00  0.93827000000E+00 0.  1.
     999902    2    1    2    0    0  0.23578879025E-02 -0.17190193458E-01 -0.16509237486E-01  0.10199796908E+01  0.10196984615E+01 0.  0.
     999903    2    3    3    0    0  0.39580356699E-02 -0.11036252134E+00  0.67843986751E-01  0.13104824827E+00  0.19372265564E-01 0.  0.
         14    1    1    2    0    0 -0.23578879025E-02  0.17190193458E-01  0.16509237486E-01  0.23950309160E-01  0.00000000000E+00 0.  1.
     999901    1    3    3    0    0 -0.16001477673E-02  0.93172327879E-01 -0.84353224237E-01  0.88893144257E+00  0.88000000000E+00 0.  1.
        -11    1    4    4    0    0 -0.16517666005E-02 -0.12182281298E-01  0.15022956450E-01  0.19418719114E-01  0.51100000000E-03 0. -1.
         11    1    4    4    0    0  0.56098022703E-02 -0.98180240040E-01  0.52821030301E-01  0.11162952915E+00  0.51100000000E-03 0.  1.
</event>
<event>
 8    1  0.1082757E+005  0.1043930E+01  0.7957747E-01            NaN
         13   -1    0    0    0    0  0.00000000000E+00  0.00000000000E+00  0.74505805969E-08  0.10566000000E+00  0.10566000000E+00 0.  1.
     999900   -1    0    0    0    0 -0.00000000000E+00 -0.00000000000E+00 -0.74505805969E-08  0.93827000000E+00  0.93827000000E+00 0. -1.
     999902    2    1    2    0    0  0.25570627449E-02  0.11946633154E-01  0.19687859287E-01  0.10207594925E+01  0.10204964817E+01 0.  0.
     999903    2    3    3    0    0 -0.17264639983E-01 -0.12205814668E+00  0.36964000964E-01  0.13022670481E+00  0.19909754217E-01 0.  0.
         14    1    1    2    0    0 -0.25570627449E-02 -0.11946633154E-01 -0.19687859287E-01  0.23170507480E-01  0.00000000000E+00 0. -1.
     999901    1    3    3    0    0  0.19821702728E-01  0.13400477984E+00 -0.17276141678E-01  0.89053278771E+00  0.88000000000E+00 0.  1.
        -11    1    4    4    0    0 -0.76892804531E-02 -0.49774345507E-01  0.25362040236E-01  0.56392417137E-01  0.51100000000E-03 0. -1.
         11    1    4    4    0    0 -0.95753595301E-02 -0.72283801174E-01  0.11601960728E-01  0.73834287672E-01  0.51100000000E-03 0.  1.
</event>
<event>
 8    1  0.1082757E+005  0.1043930E+01  0.7957747E-01            NaN
         13   -1    0    0    0    0  0.00000000000E+00  0.00000000000E+00  0.74505805969E-08  0.10566000000E+00  0.10566000000E+00 0.  1.
     999900   -1    0    0    0    0 -0.00000000000E+00 -0.00000000000E+00 -0.74505805969E-08  0.93827000000E+00  0.93827000000E+00 0.  1.
     999902    2    1    2    0    0 -0.22779291584E-01  0.35417726725E-02  0.54646298006E-02  0.10202381774E+01  0.10199630563E+01 0.  0.
     999903    2    3    3    0    0 -0.58757745753E-01 -0.56043446414E-01 -0.10089937142E+00  0.13110480820E+00  0.20357971605E-01 0.  0.
         14    1    1    2    0    0  0.22779291584E-01 -0.35417726725E-02 -0.54646298006E-02  0.23691822589E-01  0.00000000000E+00 0. -1.
     999901    1    3    3    0    0  0.35978454169E-01  0.59585219086E-01  0.10636400122E+00  0.88913336922E+00  0.88000000000E+00 0. -1.
        -11    1    4    4    0    0 -0.43588992662E-01 -0.30374389760E-01 -0.72843019105E-01  0.90160802947E-01  0.51100000000E-03 0. -1.
         11    1    4    4    0    0 -0.15168753091E-01 -0.25669056654E-01 -0.28056352310E-01  0.40944005248E-01  0.51100000000E-03 0.  1.
</event>
<event>
 8    1  0.1082757E+005  0.1043930E+01  0.7957747E-01            NaN
         13   -1    0    0    0    0  0.00000000000E+00  0.00000000000E+00  0.74505805969E-08  0.10566000000E+00  0.10566000000E+00 0. -1.
     999900   -1    0    0    0    0 -0.00000000000E+00 -0.00000000000E+00 -0.74505805969E-08  0.93827000000E+00  0.93827000000E+00 0. -1.
     999902    2    1    2    0    0 -0.26534897035E-02  0.18181240803E-01  0.15234120634E-01  0.10200620936E+01  0.10197828190E+01 0.  0.
     999903    2    3    3    0    0  0.12222607640E+00 -0.37709145306E-01  0.32132977511E-02  0.12940888304E+00  0.19368539848E-01 0.  0.
         14    1    1    2    0    0  0.26534897035E-02 -0.18181240803E-01 -0.15234120634E-01  0.23867906407E-01  0.00000000000E+00 0.  1.
     999901    1    3    3    0    0 -0.12487956610E+00  0.55890386108E-01  0.12020822883E-01  0.89065321055E+00  0.88000000000E+00 0.  1.
        -11    1    4    4    0    0  0.90909128318E-01 -0.25222905528E-01  0.10453521835E-01  0.94922082860E-01  0.51100000000E-03 0.  1.
         11    1    4    4    0    0  0.31316948079E-01 -0.12486239777E-01 -0.72402240837E-02  0.34486800178E-01  0.51100000000E-03 0. -1.
</event>
<event>
 8    1  0.1082757E+005  0.1043930E+01  0.7957747E-01            NaN
         13   -1    0    0    0    0  0.00000000000E+00  0.00000000000E+00  0.74505805969E-08  0.10566000000E+00  0.10566000000E+00 0. -1.
     999900   -1    0    0    0    0 -0.00000000000E+00 -0.00000000000E+00 -0.74505805969E-08  0.93827000000E+00  0.93827000000E+00 0. -1.
     999902    2    1    2    0    0 -0.21210834781E-01 -0.45583734536E-02 -0.92319524721E-02  0.10203523151E+01  0.10200798692E+01 0.  0.
     999903    2    3    3    0    0 -0.12173123965E+00  0.45005824596E-01  0.20829311598E-01  0.13273491938E+00  0.18457509174E-01 0.  0.
         14    1    1    2    0    0  0.21210834781E-01  0.45583734536E-02  0.92319524721E-02  0.23577684939E-01  0.00000000000E+00 0.  1.
     999901    1    3    3    0    0  0.10052040487E+00 -0.49564198050E-01 -0.30061264070E-01  0.88761739568E+00  0.88000000000E+00 0. -1.
        -11    1    4    4    0    0 -0.41598797076E-01  0.85276755636E-02  0.12643063783E-01  0.44309021108E-01  0.51100000000E-03 0.  1.
         11    1    4    4    0    0 -0.80132442578E-01  0.36478149033E-01  0.81862478156E-02  0.88425898269E-01  0.51100000000E-03 0. -1.
</event>
<event>
 8    1  0.1082757E+005  0.1043930E+01  0.7957747E-01            NaN
         13   -1    0    0    0    0  0.00000000000E+00  0.00000000000E+00  0.74505805969E-08  0.10566000000E+00  0.10566000000E+00 0.  1.
     999900   -1    0    0    0    0 -0.00000000000E+00 -0.00000000000E+00 -0.74505805969E-08  0.93827000000E+00  0.93827000000E+00 0. -1.
     999902    2    1    2    0    0  0.70702835235E-02  0.92497074931E-02 -0.23313212676E-01  0.10178713760E+01  0.10175377567E+01 0.  0.
     999903    2    3    3    0    0  0.79714238504E-01 -0.75336151464E-01 -0.66540590209E-01  0.12978325096E+00  0.19650611848E-01 0.  0.
         14    1    1    2    0    0 -0.70702835235E-02 -0.92497074931E-02  0.23313212676E-01  0.26058623967E-01  0.00000000000E+00 0.  1.
     999901    1    3    3    0    0 -0.72643954980E-01  0.84585858958E-01  0.43227377534E-01  0.88808812508E+00  0.88000000000E+00 0.  1.
        -11    1    4    4    0    0  0.26791818962E-01 -0.15246766609E-01 -0.24270110760E-01  0.39237289058E-01  0.51100000000E-03 0. -1.
         11    1    4    4    0    0  0.52922419542E-01 -0.60089384855E-01 -0.42270479449E-01  0.90545961900E-01  0.51100000000E-03 0.  1.
</event>
<event>
 8    1  0.1082757E+005  0.1043930E+01  0.7957747E-01            NaN
         13   -1    0    0    0    0  0.00000000000E+00  0.00000000000E+00  0.74505805969E-08  0.10566000000E+00  0.10566000000E+00 0. -1.
     999900   -1    0    0    0    0 -0.00000000000E+00 -0.00000000000E+00 -0.74505805969E-08  0.93827000000E+00  0.93827000000E+00 0.  1.
     999902    2    1    2    0    0 -0.21963713733E-01  0.31933670825E-02  0.63894753680E-02  0.10208339460E+01  0.10205726420E+01 0.  0.
     999903    2    3    3    0    0 -0.99373469790E-01 -0.54469075202E-02 -0.85432405781E-01  0.13263454130E+00  0.19709649632E-01 0.  0.
         14    1    1    2    0    0  0.21963713733E-01 -0.31933670825E-02 -0.63894753680E-02  0.23096053986E-01  0.00000000000E+00 0.  1.
     999901    1    3    3    0    0  0.77409756057E-01  0.86402746026E-02  0.91821881149E-01  0.88819940471E+00  0.88000000000E+00 0.  1.
        -11    1    4    4    0    0 -0.32983770277E-01 -0.26710136341E-02 -0.41033667336E-01  0.52717040808E-01  0.51100000000E-03 0.  1.
         11    1    4    4    0    0 -0.66389699513E-01 -0.27758938860E-02 -0.44398738445E-01  0.79917500491E-01  0.51100000000E-03 0. -1.
</event>
<event>
 8    1  0.1082757E+005  0.1043930E+01  0.7957747E-01            NaN
         13   -1    0    0    0    0  0.00000000000E+00  0.00000000000E+00  0.74505805969E-08  0.10566000000E+00  0.10566000000E+00 0.  1.
     999900   -1    0    0    0    0 -0.00000000000E+00 -0.00000000000E+00 -0.74505805969E-08  0.93827000000E+00  0.93827000000E+00 0. -1.
     999902    2    1    2    0    0  0.14705334973E-01  0.15853513930E-01  0.11497428060E-01  0.10194397645E+01  0.10191455548E+01 0.  0.
     999903    2    3    3    0    0 -0.10350423652E+00 -0.49900233491E-01 -0.50107975116E-01  0.12697560068E+00  0.20219636905E-01 0.  0.
         14    1    1    2    0    0 -0.14705334973E-01 -0.15853513930E-01 -0.11497428060E-01  0.24490235454E-01  0.00000000000E+00 0. -1.
     999901    1    3    3    0    0  0.11820957149E+00  0.65753747421E-01  0.61605403176E-01  0.89246416387E+00  0.88000000000E+00 0.  1.
        -11    1    4    4    0    0 -0.53259987739E-01 -0.22665309170E-01 -0.35793217955E-01  0.68057020992E-01  0.51100000000E-03 0. -1.
         11    1    4    4    0    0 -0.50244248781E-01 -0.27234924320E-01 -0.14314757161E-01  0.58918579683E-01  0.51100000000E-03 0.  1.
</event>
<event>
 8    1  0.1082757E+005  0.1043930E+01  0.7957747E-01            NaN
         13   -1    0    0    0    0  0.00000000000E+00  0.00000000000E+00  0.74505805969E-08  0.10566000000E+00  0.10566000000E+00 0. -1.
     999900   -1    0    0    0    0 -0.00000000000E+00 -0.00000000000E+00 -0.74505805969E-08  0.93827000000E+00  0.93827000000E+00 0. -1.
     999902    2    1    2    0    0 -0.11520971047E-01 -0.18868880049E-01  0.80292154127E-02  0.10204090368E+01  0.10201379155E+01 0.  0.
     999903    2    3    3    0    0  0.12517169895E+00 -0.21091478752E-01  0.18625628984E-01  0.12979008916E+00  0.19640481019E-01 0.  0.
         14    1    1    2    0    0  0.11520971047E-01  0.18868880049E-01 -0.80292154127E-02  0.23520963167E-01  0.00000000000E+00 0.  1.
     999901    1    3    3    0    0 -0.13669267000E+00  0.22225987026E-02 -0.10596413572E-01  0.89061894767E+00  0.88000000000E+00 0.  1.
        -11    1    4    4    0    0  0.10038027284E+00 -0.23701788964E-01  0.11056072472E-01  0.10373269415E+00  0.51100000000E-03 0.  1.
         11    1    4    4    0    0  0.24791426111E-01  0.26103102119E-02  0.75695565123E-02  0.26057395012E-01  0.51100000000E-03 0. -1.
</event>
<event>
 8    1  0.1082757E+005  0.1043930E+01  0.7957747E-01            NaN
         13   -1    0    0    0    0  0.00000000000E+00  0.00000000000E+00  0.74505805969E-08  0.10566000000E+00  0.10566000000E+00 0. -1.
     999900   -1    0    0    0    0 -0.00000000000E+00 -0.00000000000E+00 -0.74505805969E-08  0.93827000000E+00  0.93827000000E+00 0. -1.
     999902    2    1    2    0    0  0.24629534559E-02  0.13496462157E-01 -0.20065149383E-01  0.10196229876E+01  0.10193332164E+01 0.  0.
     999903    2    3    3    0    0  0.12185118343E+00 -0.22836362466E-01  0.28900373633E-01  0.12947061526E+00  0.23626219889E-01 0.  0.
         14    1    1    2    0    0 -0.24629534559E-02 -0.13496462157E-01  0.20065149383E-01  0.24307012367E-01  0.00000000000E+00 0. -1.
     999901    1    3    3    0    0 -0.11938822997E+00  0.36332824623E-01 -0.48965523016E-01  0.89015237237E+00  0.88000000000E+00 0.  1.
        -11    1    4    4    0    0  0.31209952192E-01 -0.36686739773E-02  0.17909979026E-01  0.36173868390E-01  0.51100000000E-03 0.  1.
         11    1    4    4    0    0  0.90641231233E-01 -0.19167688489E-01  0.10990394607E-01  0.93296746868E-01  0.51100000000E-03 0. -1.
</event>
<event>
 8    1  0.1082757E+005  0.1043930E+01  0.7957747E-01            NaN
         13   -1    0    0    0    0  0.00000000000E+00  0.00000000000E+00  0.74505805969E-08  0.10566000000E+00  0.10566000000E+00 0.  1.
     999900   -1    0    0    0    0 -0.00000000000E+00 -0.00000000000E+00 -0.74505805969E-08  0.93827000000E+00  0.93827000000E+00 0. -1.
     999902    2    1    2    0    0  0.63163082492E-02 -0.34221548697E-03 -0.23893344859E-01  0.10192135118E+01  0.10189137735E+01 0.  0.
     999903    2    3    3    0    0  0.18301497665E-01 -0.91775460979E-01  0.85979308335E-01  0.12759942314E+00  0.11466964230E-01 0.  0.
         14    1    1    2    0    0 -0.63163082492E-02  0.34221548697E-03  0.23893344859E-01  0.24716488219E-01  0.00000000000E+00 0.  1.
     999901    1    3    3    0    0 -0.11985189415E-01  0.91433245493E-01 -0.10987265319E+00  0.89161408864E+00  0.88000000000E+00 0.  1.
        -11    1    4    4    0    0  0.19673902616E-01 -0.78753292726E-01  0.73674628171E-01  0.10962369961E+00  0.51100000000E-03 0.  1.
         11    1    4    4    0    0 -0.13724049516E-02 -0.13022168253E-01  0.12304680164E-01  0.17975723527E-01  0.51100000000E-03 0. -1.
</event>
<event>
 8    1  0.1082757E+005  0.1043930E+01  0.7957747E-01            NaN
         13   -1    0    0    0    0  0.00000000000E+00  0.00000000000E+00  0.74505805969E-08  0.10566000000E+00  0.10566000000E+00 0. -1.
     999900   -1    0    0    0    0 -0.00000000000E+00 -0.00000000000E+00 -0.74505805969E-08  0.93827000000E+00  0.93827000000E+00 0. -1.
     999902    2    1    2    0    0 -0.13584845005E-01  0.19729263618E-01 -0.48424831358E-02  0.10194914751E+01  0.10191985215E+01 0.  0.
     999903    2    3    3    0    0 -0.99261086619E-01 -0.47309109389E-01  0.66458482406E-01  0.12993069048E+00  0.19347849936E-01 0.  0.
         14    1    1    2    0    0  0.13584845005E-01 -0.19729263618E-01  0.48424831358E-02  0.24438524907E-01  0.00000000000E+00 0. -1.
     999901    1    3    3    0    0  0.85676241614E-01  0.67038373006E-01 -0.71300965542E-01  0.88956078461E+00  0.88000000000E+00 0. -1.
        -11    1    4    4    0    0 -0.48627439891E-01 -0.12718025739E-01  0.32036749766E-01  0.59606967257E-01  0.51100000000E-03 0. -1.
         11    1    4    4    0    0 -0.50633646729E-01 -0.34591083650E-01  0.34421732640E-01  0.70323723224E-01  0.51100000000E-03 0.  1.
</event>
<event>
 8    1  0.1082757E+005  0.1043930E+01  0.7957747E-01            NaN
         13   -1    0    0    0    0  0.00000000000E+00  0.00000000000E+00  0.74505805969E-08  0.10566000000E+00  0.10566000000E+00 0. -1.
     999900   -1    0    0    0    0 -0.00000000000E+00 -0.00000000000E+00 -0.74505805969E-08  0.93827000000E+00  0.93827000000E+00 0.  1.
     999902    2    1    2    0    0  0.12974769780E-01 -0.36967622470E-02 -0.19016340945E-01  0.10206140843E+01  0.10203477236E+01 0.  0.
     999903    2    3    3    0    0  0.92657924474E-01  0.86905254817E-01  0.25999719710E-01  0.13124094756E+00  0.20253064190E-01 0.  0.
         14    1    1    2    0    0 -0.12974769780E-01  0.36967622470E-02  0.19016340945E-01  0.23315915699E-01  0.00000000000E+00 0. -1.
     999901    1    3    3    0    0 -0.79683154694E-01 -0.90602017063E-01 -0.45016060655E-01  0.88937313674E+00  0.88000000000E+00 0.  1.
        -11    1    4    4    0    0  0.24084501335E-01  0.19964007755E-01 -0.21486219646E-02  0.31360843540E-01  0.51100000000E-03 0.  1.
         11    1    4    4    0    0  0.68573423139E-01  0.66941247061E-01  0.28148341675E-01  0.99880104021E-01  0.51100000000E-03 0. -1.
</event>
<event>
 8    1  0.1082757E+005  0.1043930E+01  0.7957747E-01            NaN
         13   -1    0    0    0    0  0.00000000000E+00  0.00000000000E+00  0.74505805969E-08  0.10566000000E+00  0.10566000000E+00 0.  1.
     999900   -1    0    0    0    0 -0.00000000000E+00 -0.00000000000E+00 -0.74505805969E-08  0.93827000000E+00  0.93827000000E+00 0. -1.
     999902    2    1    2    0    0  0.19315648920E-01 -0.13982266417E-01 -0.15922209627E-02  0.10200316060E+01  0.10197516090E+01 0.  0.
     999903    2    3    3    0    0  0.31385724378E-01  0.10524231708E+00 -0.65070747677E-01  0.12964421202E+00  0.22636486231E-01 0.  0.
         14    1    1    2    0    0 -0.19315648920E-01  0.13982266417E-01  0.15922209627E-02  0.23898393983E-01  0.00000000000E+00 0.  1.
     999901    1    3    3    0    0 -0.12070075458E-01 -0.11922458350E+00  0.63478526714E-01  0.89038739399E+00  0.88000000000E+00 0.  1.
        -11    1    4    4    0    0  0.52134027539E-02  0.26883986365E-01 -0.58806629820E-02  0.28013775348E-01  0.51100000000E-03 0. -1.
         11    1    4    4    0    0  0.26172321624E-01  0.78358330713E-01 -0.59190084695E-01  0.10163043667E+00  0.51100000000E-03 0.  1.
</event>
<event>
 8    1  0.1082757E+005  0.1043930E+01  0.7957747E-01            NaN
         13   -1    0    0    0    0  0.00000000000E+00  0.00000000000E+00  0.74505805969E-08  0.10566000000E+00  0.10566000000E+00 0. -1.
     999900   -1    0    0    0    0 -0.00000000000E+00 -0.00000000000E+00 -0.74505805969E-08  0.93827000000E+00  0.93827000000E+00 0.  1.
     999902    2    1    2    0    0 -0.82475301454E-02 -0.20748805903E-01  0.90025048202E-02  0.10198555365E+01  0.10195713489E+01 0.  0.
     999903    2    3    3    0    0  0.88915287834E-01 -0.72161100948E-01 -0.58754273033E-01  0.13043166779E+00  0.21147162050E-01 0.  0.
         14    1    1    2    0    0  0.82475301454E-02  0.20748805903E-01 -0.90025048202E-02  0.24074463502E-01  0.00000000000E+00 0.  1.
     999901    1    3    3    0    0 -0.97162817979E-01  0.51412295045E-01  0.67756777853E-01  0.88942386871E+00  0.88000000000E+00 0. -1.
        -11    1    4    4    0    0  0.43881099011E-01 -0.25586967985E-01 -0.33738244960E-01  0.60981751984E-01  0.51100000000E-03 0. -1.
         11    1    4    4    0    0  0.45034188823E-01 -0.46574132962E-01 -0.25016028073E-01  0.69449915808E-01  0.51100000000E-03 0.  1.
</event>
<event>
 8    1  0.1082757E+005  0.1043930E+01  0.7957747E-01            NaN
         13   -1    0    0    0    0  0.00000000000E+00  0.00000000000E+00  0.74505805969E-08  0.10566000000E+00  0.10566000000E+00 0.  1.
     999900   -1    0    0    0    0 -0.00000000000E+00 -0.00000000000E+00 -0.74505805969E-08  0.93827000000E+00  0.93827000000E+00 0.  1.
     999902    2    1    2    0    0 -0.50757712139E-02 -0.23007582077E-01  0.21983461267E-02  0.10202668427E+01  0.10199923948E+01 0.  0.
     999903    2    3    3    0    0 -0.40676392771E-01 -0.94612926365E-01 -0.80712679578E-01  0.13275967782E+00  0.22459310868E-01 0.  0.
         14    1    1    2    0    0  0.50757712139E-02  0.23007582077E-01 -0.21983461267E-02  0.23663157273E-01  0.00000000000E+00 0.  1.
     999901    1    3    3    0    0  0.35600621557E-01  0.71605344288E-01  0.82911025705E-01  0.88750716491E+00  0.88000000000E+00 0. -1.
        -11    1    4    4    0    0 -0.34324489456E-01 -0.70636682004E-01 -0.71764466358E-01  0.10638661182E+00  0.51100000000E-03 0.  1.
         11    1    4    4    0    0 -0.63519033145E-02 -0.23976244361E-01 -0.89482132202E-02  0.26373065999E-01  0.51100000000E-03 0. -1.
</event>
<event>
 8    1  0.1082757E+005  0.1043930E+01  0.7957747E-01            NaN
         13   -1    0    0    0    0  0.00000000000E+00  0.00000000000E+00  0.74505805969E-08  0.10566000000E+00  0.10566000000E+00 0. -1.
     999900   -1    0    0    0    0 -0.00000000000E+00 -0.00000000000E+00 -0.74505805969E-08  0.93827000000E+00  0.93827000000E+00 0.  1.
     999902    2    1    2    0    0 -0.15375293361E-01  0.21130682014E-02  0.17819441233E-01  0.10202995707E+01  0.10200258902E+01 0.  0.
     999903    2    3    3    0    0 -0.10442839728E+00 -0.38335253900E-01  0.70543397717E-01  0.13331234550E+00  0.20516545799E-01 0.  0.
         14    1    1    2    0    0  0.15375293361E-01 -0.21130682014E-02 -0.17819441233E-01  0.23630429302E-01  0.00000000000E+00 0.  1.
     999901    1    3    3    0    0  0.89053103917E-01  0.40448322101E-01 -0.52723956484E-01  0.88698722520E+00  0.88000000000E+00 0.  1.
        -11    1    4    4    0    0 -0.27850684254E-01 -0.13302774419E-01  0.97158732816E-02  0.32361763476E-01  0.51100000000E-03 0. -1.
         11    1    4    4    0    0 -0.76577713024E-01 -0.25032479481E-01  0.60827524435E-01  0.10095058202E+00  0.51100000000E-03 0.  1.
</event>
<event>
 8    1  0.1082757E+005  0.1043930E+01  0.7957747E-01            NaN
         13   -1    0    0    0    0  0.00000000000E+00  0.00000000000E+00  0.74505805969E-08  0.10566000000E+00  0.10566000000E+00 0. -1.
     999900   -1    0    0    0    0 -0.00000000000E+00 -0.00000000000E+00 -0.74505805969E-08  0.93827000000E+00  0.93827000000E+00 0. -1.
     999902    2    1    2    0    0 -0.19415903636E-01  0.11318974080E-01 -0.54068610521E-02  0.10208144071E+01  0.10205526557E+01 0.  0.
     999903    2    3    3    0    0 -0.32763554778E-01  0.42886767560E-01 -0.11958069493E+00  0.13277704882E+00  0.20432247544E-01 0.  0.
         14    1    1    2    0    0  0.19415903636E-01 -0.11318974080E-01  0.54068610521E-02  0.23115592890E-01  0.00000000000E+00 0.  1.
     999901    1    3    3    0    0  0.13347651142E-01 -0.31567793480E-01  0.11417383388E+00  0.88803735829E+00  0.88000000000E+00 0.  1.
        -11    1    4    4    0    0 -0.72043972031E-02  0.20116476897E-01 -0.64247793592E-01  0.67709793119E-01  0.51100000000E-03 0.  1.
         11    1    4    4    0    0 -0.25559157575E-01  0.22770290663E-01 -0.55332901339E-01  0.65067255701E-01  0.51100000000E-03 0. -1.
</event>
<event>
 8    1  0.1082757E+005  0.1043930E+01  0.7957747E-01            NaN
         13   -1    0    0    0    0  0.00000000000E+00  0.00000000000E+00  0.74505805969E-08  0.10566000000E+00  0.10566000000E+00 0. -1.
     999900   -1    0    0    0    0 -0.00000000000E+00 -0.00000000000E+00 -0.74505805969E-08  0.93827000000E+00  0.93827000000E+00 0. -1.
     999902    2    1    2    0    0 -0.15989365102E-01 -0.59989813611E-02  0.16899852058E-01  0.10199039189E+01  0.10196208860E+01 0.  0.
     999903    2    3    3    0    0 -0.81173754037E-01 -0.84376724929E-01 -0.55369893012E-01  0.13107604394E+00  0.20161701014E-01 0.  0.
         14    1    1    2    0    0  0.15989365102E-01  0.59989813611E-02 -0.16899852058E-01  0.24026081106E-01  0.00000000000E+00 0. -1.
     999901    1    3    3    0    0  0.65184388936E-01  0.78377743568E-01  0.72269745070E-01  0.88882787496E+00  0.88000000000E+00 0.  1.
        -11    1    4    4    0    0 -0.34753922069E-01 -0.22323534083E-01 -0.19593589629E-01  0.45720292526E-01  0.51100000000E-03 0. -1.
         11    1    4    4    0    0 -0.46419831969E-01 -0.62053190847E-01 -0.35776303382E-01  0.85355751411E-01  0.51100000000E-03 0.  1.
</event>
<event>
 8    1  0.1082757E+005  0.1043930E+01  0.7957747E-01            NaN
         13   -1    0    0    0    0  0.00000000000E+00  0.00000000000E+00  0.74505805969E-08  0.10566000000E+00  0.10566000000E+00 0.  1.
     999900   -1    0    0    0    0 -0.00000000000E+00 -0.00000000000E+00 -0.74505805969E-08  0.93827000000E+00  0.93827000000E+00 0. -1.
     999902    2    1    2    0    0 -0.84112211734E-02  0.99715267845E-02  0.21796591170E-01  0.10185278077E+01  0.10182109917E+01 0.  0.
     999903    2    3    3    0    0 -0.30451286055E-01 -0.11670878375E+00 -0.35256582036E-01  0.12735513636E+00  0.20690170434E-01 0.  0.
         14    1    1    2    0    0  0.84112211734E-02 -0.99715267845E-02 -0.21796591170E-01  0.25402192320E-01  0.00000000000E+00 0.  1.
     999901    1    3    3    0    0  0.22040064882E-01  0.12668031054E+00  0.57053173205E-01  0.89117267132E+00  0.88000000000E+00 0. -1.
        -11    1    4    4    0    0 -0.28122856012E-02 -0.27199736319E-01 -0.25893941069E-03  0.27350736311E-01  0.51100000000E-03 0. -1.
         11    1    4    4    0    0 -0.27639000454E-01 -0.89509047434E-01 -0.34997642625E-01  0.10000440005E+00  0.51100000000E-03 0.  1.
</event>
<event>
 8    1  0.1082757E+005  0.1043930E+01  0.7957747E-01            NaN
         13   -1    0    0    0    0  0.00000000000E+00  0.00000000000E+00  0.74505805969E-08  0.10566000000E+00  0.10566000000E+00 0.  1.
     999900   -1    0    0    0    0 -0.00000000000E+00 -0.00000000000E+00 -0.74505805969E-08  0.93827000000E+00  0.93827000000E+00 0.  1.
     999902    2    1    2    0    0  0.29634345716E-02  0.53500262549E-02  0.23260543933E-01  0.10198788539E+01  0.10195952231E+01 0.  0.
     999903    2    3    3    0    0  0.38349909997E-01  0.12277810420E+00  0.17678357954E-01  0.13135608156E+00  0.19917764811E-01 0.  0.
         14    1    1    2    0    0 -0.29634345716E-02 -0.53500262549E-02 -0.23260543933E-01  0.24051146115E-01  0.00000000000E+00 0. -1.
     999901    1    3    3    0    0 -0.35386475426E-01 -0.11742807795E+00  0.55821859792E-02  0.88852277232E+00  0.88000000000E+00 0.  1.
        -11    1    4    4    0    0  0.16019567908E-01  0.82313187158E-01  0.91669616093E-02  0.84358648889E-01  0.51100000000E-03 0. -1.
         11    1    4    4    0    0  0.22330342089E-01  0.40464917045E-01  0.85113963443E-02  0.46997432675E-01  0.51100000000E-03 0.  1.
</event>
<event>
 8    1  0.1082757E+005  0.1043930E+01  0.7957747E-01            NaN
         13   -1    0    0    0    0  0.00000000000E+00  0.00000000000E+00  0.74505805969E-08  0.10566000000E+00  0.10566000000E+00 0. -1.
     999900   -1    0    0    0    0 -0.00000000000E+00 -0.00000000000E+00 -0.74505805969E-08  0.93827000000E+00  0.93827000000E+00 0. -1.
     999902    2    1    2    0    0 -0.11187373279E-01  0.19064584416E-01  0.67100026449E-02  0.10208293542E+01  0.10205679451E+01 0.  0.
     999903    2    3    3    0    0 -0.47728037867E-01 -0.79897111987E-01 -0.87772512672E-01  0.12950697527E+00  0.20162553410E-01 0.  0.
         14    1    1    2    0    0  0.11187373279E-01 -0.19064584416E-01 -0.67100026449E-02  0.23100645777E-01  0.00000000000E+00 0.  1.
     999901    1    3    3    0    0  0.36540664587E-01  0.98961696403E-01  0.94482515317E-01  0.89132237895E+00  0.88000000000E+00 0.  1.
        -11    1    4    4    0    0 -0.26293566457E-01 -0.51613396188E-01 -0.66232129619E-01  0.87990058631E-01  0.51100000000E-03 0.  1.
         11    1    4    4    0    0 -0.21434471409E-01 -0.28283715800E-01 -0.21540383053E-01  0.41516916638E-01  0.51100000000E-03 0. -1.
</event>
<event>
 8    1  0.1082757E+005  0.1043930E+01  0.7957747E-01            NaN
         13   -1    0    0    0    0  0.00000000000E+00  0.00000000000E+00  0.74505805969E-08  0.10566000000E+00  0.10566000000E+00 0.  1.
     999900   -1    0    0    0    0 -0.00000000000E+00 -0.00000000000E+00 -0.74505805969E-08  0.93827000000E+00  0.93827000000E+00 0.  1.
     999902    2    1    2    0    0 -0.20722259920E-01  0.14613465170E-01 -0.51696994291E-02  0.10180516072E+01  0.10177226458E+01 0.  0.
     999903    2    3    3    0    0 -0.10921431160E+00  0.67145914847E-01 -0.22964645868E-01  0.13187602553E+00  0.20677799928E-01 0.  0.
         14    1    1    2    0    0  0.20722259920E-01 -0.14613465170E-01  0.51696994291E-02  0.25878392776E-01  0.00000000000E+00 0.  1.
     999901    1    3    3    0    0  0.88492051679E-01 -0.52532449677E-01  0.17794946439E-01  0.88617558170E+00  0.88000000000E+00 0.  1.
        -11    1    4    4    0    0 -0.32586888041E-01  0.28954451979E-01 -0.15644271788E-02  0.43623091534E-01  0.51100000000E-03 0.  1.
         11    1    4    4    0    0 -0.76627423558E-01  0.38191462868E-01 -0.21400218689E-01  0.88252933991E-01  0.51100000000E-03 0. -1.
</event>
<event>
 8    1  0.1082757E+005  0.1043930E+01  0.7957747E-01            NaN
         13   -1    0    0    0    0  0.00000000000E+00  0.00000000000E+00  0.74505805969E-08  0.10566000000E+00  0.10566000000E+00 0.  1.
     999900   -1    0    0    0    0 -0.00000000000E+00 -0.00000000000E+00 -0.74505805969E-08  0.93827000000E+00  0.93827000000E+00 0. -1.
     999902    2    1    2    0    0  0.12682038881E-01  0.40182844883E-02 -0.16661184421E-01  0.10226092170E+01  0.10223869302E+01 0.  0.
     999903    2    3    3    0    0  0.12374476383E+00 -0.39762150271E-01  0.20585526472E-01  0.13376785164E+00  0.24005813085E-01 0.  0.
         14    1    1    2    0    0 -0.12682038881E-01 -0.40182844883E-02  0.16661184421E-01  0.21320782977E-01  0.00000000000E+00 0.  1.
     999901    1    3    3    0    0 -0.11106272495E+00  0.43780434760E-01 -0.37246710893E-01  0.88884136538E+00  0.88000000000E+00 0. -1.
        -11    1    4    4    0    0  0.79122123729E-01 -0.16277495249E-01  0.20494149725E-01  0.83339898062E-01  0.51100000000E-03 0. -1.
         11    1    4    4    0    0  0.44622640106E-01 -0.23484655022E-01  0.91376746763E-04  0.50427953580E-01  0.51100000000E-03 0.  1.
</event>
<event>
 8    1  0.1082757E+005  0.1043930E+01  0.7957747E-01            NaN
         13   -1    0    0    0    0  0.00000000000E+00  0.00000000000E+00  0.74505805969E-08  0.10566000000E+00  0.10566000000E+00 0.  1.
     999900   -1    0    0    0    0 -0.00000000000E+00 -0.00000000000E+00 -0.74505805969E-08  0.93827000000E+00  0.93827000000E+00 0.  1.
     999902    2    1    2    0    0 -0.15816979252E-01  0.11735642614E-01 -0.12687992561E-01  0.10205016562E+01  0.10202326906E+01 0.  0.
     999903    2    3    3    0    0  0.12602264684E+00  0.13997067996E-01 -0.14599170257E-01  0.12913907775E+00  0.19650450376E-01 0.  0.
         14    1    1    2    0    0  0.15816979252E-01 -0.11735642614E-01  0.12687992561E-01  0.23428343848E-01  0.00000000000E+00 0.  1.
     999901    1    3    3    0    0 -0.14183962610E+00 -0.22614253823E-02  0.19111776963E-02  0.89136257840E+00  0.88000000000E+00 0.  1.
        -11    1    4    4    0    0  0.26637561971E-01 -0.47067400271E-02 -0.76163003677E-03  0.27065740536E-01  0.51100000000E-03 0.  1.
         11    1    4    4    0    0  0.99385084872E-01  0.18703808023E-01 -0.13837540220E-01  0.10207333721E+00  0.51100000000E-03 0. -1.
</event>
<event>
 8    1  0.1082757E+005  0.1043930E+01  0.7957747E-01            NaN
         13   -1    0    0    0    0  0.00000000000E+00  0.00000000000E+00  0.74505805969E-08  0.10566000000E+00  0.10566000000E+00 0. -1.
     999900   -1    0    0    0    0 -0.00000000000E+00 -0.00000000000E+00 -0.74505805969E-08  0.93827000000E+00  0.93827000000E+00 0.  1.
     999902    2    1    2    0    0  0.99724551123E-02 -0.17662539311E-01  0.12314210413E-01  0.10202012214E+01  0.10199252312E+01 0.  0.
     999903    2    3    3    0    0 -0.72091856636E-02  0.82907034395E-01  0.97985209178E-01  0.13017371173E+00  0.20458379648E-01 0.  0.
         14    1    1    2    0    0 -0.99724551123E-02  0.17662539311E-01 -0.12314210413E-01  0.23728778603E-01  0.00000000000E+00 0.  1.
     999901    1    3    3    0    0  0.17181640776E-01 -0.10056957371E+00 -0.85670998765E-01  0.89002750967E+00  0.88000000000E+00 0.  1.
        -11    1    4    4    0    0 -0.11926811179E-01  0.26856706859E-01  0.35890944277E-01  0.46389142375E-01  0.51100000000E-03 0. -1.
         11    1    4    4    0    0  0.47176255153E-02  0.56050327536E-01  0.62094264901E-01  0.83784569355E-01  0.51100000000E-03 0.  1.
</event>
<event>
 8    1  0.1082757E+005  0.1043930E+01  0.7957747E-01            NaN
         13   -1    0    0    0    0  0.00000000000E+00  0.00000000000E+00  0.74505805969E-08  0.10566000000E+00  0.10566000000E+00 0.  1.
     999900   -1    0    0    0    0 -0.00000000000E+00 -0.00000000000E+00 -0.74505805969E-08  0.93827000000E+00  0.93827000000E+00 0.  1.
     999902    2    1    2    0    0  0.15545698217E-01 -0.16122857762E-01 -0.62740949115E-02  0.10206710331E+01  0.10204059870E+01 0.  0.
     999903    2    3    3    0    0  0.11807449183E+00 -0.47628186821E-01  0.33397820110E-01  0.13327112316E+00  0.20874579731E-01 0.  0.
         14    1    1    2    0    0 -0.15545698217E-01  0.16122857762E-01  0.62740949115E-02  0.23258966925E-01  0.00000000000E+00 0. -1.
     999901    1    3    3    0    0 -0.10252879361E+00  0.31505329059E-01 -0.39671915022E-01  0.88739990992E+00  0.88000000000E+00 0.  1.
        -11    1    4    4    0    0  0.71018146033E-01 -0.17726689462E-01  0.21039576686E-01  0.76162572786E-01  0.51100000000E-03 0. -1.
         11    1    4    4    0    0  0.47056345797E-01 -0.29901497359E-01  0.12358243425E-01  0.57108550372E-01  0.51100000000E-03 0.  1.
</event>
<event>
 8    1  0.1082757E+005  0.1043930E+01  0.7957747E-01            NaN
         13   -1    0    0    0    0  0.00000000000E+00  0.00000000000E+00  0.74505805969E-08  0.10566000000E+00  0.10566000000E+00 0.  1.
     999900   -1    0    0    0    0 -0.00000000000E+00 -0.00000000000E+00 -0.74505805969E-08  0.93827000000E+00  0.93827000000E+00 0. -1.
     999902    2    1    2    0    0 -0.13005223212E-01 -0.16166847452E-01  0.97401333343E-02  0.10210089838E+01  0.10207516701E+01 0.  0.
     999903    2    3    3    0    0 -0.87736882210E-01 -0.62847151516E-01 -0.74161450933E-01  0.13263780714E+00  0.21103130663E-01 0.  0.
         14    1    1    2    0    0  0.13005223212E-01  0.16166847452E-01 -0.97401333343E-02  0.22921016223E-01  0.00000000000E+00 0. -1.
     999901    1    3    3    0    0  0.74731658998E-01  0.46680304064E-01  0.83901584267E-01  0.88837117664E+00  0.88000000000E+00 0.  1.
        -11    1    4    4    0    0 -0.21561445479E-01 -0.18718512574E-01 -0.30968412971E-01  0.42125792184E-01  0.51100000000E-03 0. -1.
         11    1    4    4    0    0 -0.66175436731E-01 -0.44128638942E-01 -0.43193037962E-01  0.90512014952E-01  0.51100000000E-03 0.  1.
</event>
<event>
 8    1  0.1082757E+005  0.1043930E+01  0.7957747E-01            NaN
         13   -1    0    0    0    0  0.00000000000E+00  0.00000000000E+00  0.74505805969E-08  0.10566000000E+00  0.10566000000E+00 0. -1.
     999900   -1    0    0    0    0 -0.00000000000E+00 -0.00000000000E+00 -0.74505805969E-08  0.93827000000E+00  0.93827000000E+00 0.  1.
     999902    2    1    2    0    0  0.60992325417E-02  0.11346448831E-01 -0.81955266884E-02  0.10286620861E+01  0.10285487728E+01 0.  0.
     999903    2    3    3    0    0  0.89228710914E-01  0.73483182655E-01  0.74026101378E-01  0.13875654051E+00  0.20297114673E-01 0.  0.
         14    1    1    2    0    0 -0.60992325417E-02 -0.11346448831E-01  0.81955266884E-02  0.15267913949E-01  0.00000000000E+00 0.  1.
     999901    1    3    3    0    0 -0.83129478373E-01 -0.62136733825E-01 -0.82221628067E-01  0.88990554554E+00  0.88000000000E+00 0. -1.
        -11    1    4    4    0    0  0.72857342778E-01  0.62174284107E-01  0.69511871728E-01  0.11834692828E+00  0.51100000000E-03 0.  1.
         11    1    4    4    0    0  0.16371368137E-01  0.11308898549E-01  0.45142296502E-02  0.20409612230E-01  0.51100000000E-03 0. -1.
</event>
<event>
 8    1  0.1082757E+005  0.1043930E+01  0.7957747E-01            NaN
         13   -1    0    0    0    0  0.00000000000E+00  0.00000000000E+00  0.74505805969E-08  0.10566000000E+00  0.10566000000E+00 0.  1.
     999900   -1    0    0    0    0 -0.00000000000E+00 -0.00000000000E+00 -0.74505805969E-08  0.93827000000E+00  0.93827000000E+00 0. -1.
     999902    2    1    2    0    0  0.21096263771E-01  0.74588664540E-02  0.82195025920E-02  0.10200920627E+01  0.10198134972E+01 0.  0.
     999903    2    3    3    0    0  0.12596367709E+00 -0.34696566633E-01  0.69322803801E-02  0.13286271697E+00  0.23102929821E-01 0.  0.
         14    1    1    2    0    0 -0.21096263771E-01 -0.74588664540E-02 -0.82195025920E-02  0.23837937343E-01  0.00000000000E+00 0. -1.
     999901    1    3    3    0    0 -0.10486741332E+00  0.42155433087E-01  0.12872222119E-02  0.88722934569E+00  0.88000000000E+00 0.  1.
        -11    1    4    4    0    0  0.39471136218E-01 -0.16820899484E-01  0.11498480636E-01  0.44422848082E-01  0.51100000000E-03 0. -1.
         11    1    4    4    0    0  0.86492540871E-01 -0.17875667149E-01 -0.45662002559E-02  0.88439868884E-01  0.51100000000E-03 0.  1.
</event>
<event>
 8    1  0.1082757E+005  0.1043930E+01  0.7957747E-01            NaN
         13   -1    0    0    0    0  0.00000000000E+00  0.00000000000E+00  0.74505805969E-08  0.10566000000E+00  0.10566000000E+00 0.  1.
     999900   -1    0    0    0    0 -0.00000000000E+00 -0.00000000000E+00 -0.74505805969E-08  0.93827000000E+00  0.93827000000E+00 0.  1.
     999902    2    1    2    0    0  0.23062725188E-01 -0.62360360019E-02 -0.18611639280E-02  0.10199666661E+01  0.10196851272E+01 0.  0.
     999903    2    3    3    0    0  0.69821249606E-01 -0.82497144496E-01  0.73450025011E-01  0.13223140637E+00  0.20234942796E-01 0.  0.
         14    1    1    2    0    0 -0.23062725188E-01  0.62360360019E-02  0.18611639280E-02  0.23963333852E-01  0.00000000000E+00 0. -1.
     999901    1    3    3    0    0 -0.46758524418E-01  0.76261108494E-01 -0.75311188939E-01  0.88773525978E+00  0.88000000000E+00 0.  1.
        -11    1    4    4    0    0  0.16561174687E-01 -0.33981097273E-01  0.28027061845E-01  0.47061287653E-01  0.51100000000E-03 0. -1.
         11    1    4    4    0    0  0.53260074918E-01 -0.48516047223E-01  0.45422963166E-01  0.85170118717E-01  0.51100000000E-03 0.  1.
</event>
<event>
 8    1  0.1082757E+005  0.1043930E+01  0.7957747E-01            NaN
         13   -1    0    0    0    0  0.00000000000E+00  0.00000000000E+00  0.74505805969E-08  0.10566000000E+00  0.10566000000E+00 0. -1.
     999900   -1    0    0    0    0 -0.00000000000E+00 -0.00000000000E+00 -0.74505805969E-08  0.93827000000E+00  0.93827000000E+00 0. -1.
     999902    2    1    2    0    0 -0.84764719502E-02 -0.70026723537E-02  0.21018649284E-01  0.10202092999E+01  0.10199334998E+01 0.  0.
     999903    2    3    3    0    0  0.21607196757E-01  0.55215795372E-01 -0.11153791931E+00  0.12760221457E+00  0.18054437435E-01 0.  0.
         14    1    1    2    0    0  0.84764719502E-02  0.70026723537E-02 -0.21018649284E-01  0.23720700127E-01  0.00000000000E+00 0.  1.
     999901    1    3    3    0    0 -0.30083668707E-01 -0.62218467725E-01  0.13255656859E+00  0.89260708530E+00  0.88000000000E+00 0.  1.
        -11    1    4    4    0    0  0.26058035069E-02  0.30237566890E-01 -0.49250563118E-01  0.57853087660E-01  0.51100000000E-03 0.  1.
         11    1    4    4    0    0  0.19001393250E-01  0.24978228481E-01 -0.62287356187E-01  0.69749126914E-01  0.51100000000E-03 0. -1.
</event>
<event>
 8    1  0.1082757E+005  0.1043930E+01  0.7957747E-01            NaN
         13   -1    0    0    0    0  0.00000000000E+00  0.00000000000E+00  0.74505805969E-08  0.10566000000E+00  0.10566000000E+00 0.  1.
     999900   -1    0    0    0    0 -0.00000000000E+00 -0.00000000000E+00 -0.74505805969E-08  0.93827000000E+00  0.93827000000E+00 0.  1.
     999902    2    1    2    0    0 -0.19695103117E-03  0.23055840983E-01 -0.43261145528E-02  0.10204709749E+01  0.10202012962E+01 0.  0.
     999903    2    3    3    0    0  0.35132092757E-01 -0.12133326775E+00  0.88399903801E-02  0.12790741838E+00  0.18059248116E-01 0.  0.
         14    1    1    2    0    0  0.19695103117E-03 -0.23055840983E-01  0.43261145528E-02  0.23459025134E-01  0.00000000000E+00 0. -1.
     999901    1    3    3    0    0 -0.35329043788E-01  0.14438910873E+00 -0.13166104933E-01  0.89256355649E+00  0.88000000000E+00 0. -1.
        -11    1    4    4    0    0  0.94981522808E-02 -0.56560849851E-01 -0.20889249278E-02  0.57393112487E-01  0.51100000000E-03 0. -1.
         11    1    4    4    0    0  0.25633940476E-01 -0.64772417895E-01  0.10928915308E-01  0.70514305889E-01  0.51100000000E-03 0.  1.
</event>
<event>
 8    1  0.1082757E+005  0.1043930E+01  0.7957747E-01            NaN
         13   -1    0    0    0    0  0.00000000000E+00  0.00000000000E+00  0.74505805969E-08  0.10566000000E+00  0.10566000000E+00 0.  1.
     999900   -1    0    0    0    0 -0.00000000000E+00 -0.00000000000E+00 -0.74505805969E-08  0.93827000000E+00  0.93827000000E+00 0.  1.
     999902    2    1    2    0    0 -0.18060002503E-01 -0.75732452969E-03 -0.16024661621E-01  0.10197736962E+01  0.10194875500E+01 0.  0.
     999903    2    3    3    0    0  0.56194638362E-02 -0.11234800475E+00  0.59814729152E-01  0.12917568916E+00  0.21328485660E-01 0.  0.
         14    1    1    2    0    0  0.18060002503E-01  0.75732452969E-03  0.16024661621E-01  0.24156303752E-01  0.00000000000E+00 0.  1.
     999901    1    3    3    0    0 -0.23679466340E-01  0.11159068022E+00 -0.75839390774E-01  0.89059800709E+00  0.88000000000E+00 0.  1.
        -11    1    4    4    0    0 -0.37181864254E-02 -0.86965301303E-01  0.40955096606E-01  0.96199634095E-01  0.51100000000E-03 0.  1.
         11    1    4    4    0    0  0.93376502616E-02 -0.25382703449E-01  0.18859632547E-01  0.32976055064E-01  0.51100000000E-03 0. -1.
</event>
<event>
 8    1  0.1082757E+005  0.1043930E+01  0.7957747E-01            NaN
         13   -1    0    0    0    0  0.00000000000E+00  0.00000000000E+00  0.74505805969E-08  0.10566000000E+00  0.10566000000E+00 0.  1.
     999900   -1    0    0    0    0 -0.00000000000E+00 -0.00000000000E+00 -0.74505805969E-08  0.93827000000E+00  0.93827000000E+00 0.  1.
     999902    2    1    2    0    0 -0.10502297286E-01  0.26201796222E-01  0.29056902822E-02  0.10155526250E+01  0.10151560761E+01 0.  0.
     999903    2    3    3    0    0 -0.99307192611E-01 -0.70116132672E-01 -0.23430106759E-01  0.12546441196E+00  0.20350877148E-01 0.  0.
         14    1    1    2    0    0  0.10502297286E-01 -0.26201796222E-01 -0.29056902822E-02  0.28377374959E-01  0.00000000000E+00 0. -1.
     999901    1    3    3    0    0  0.88804895324E-01  0.96317928894E-01  0.26335797041E-01  0.89008821308E+00  0.88000000000E+00 0. -1.
        -11    1    4    4    0    0 -0.60861955566E-01 -0.39627754419E-01 -0.41610334985E-02  0.72746902864E-01  0.51100000000E-03 0.  1.
         11    1    4    4    0    0 -0.38445237045E-01 -0.30488378253E-01 -0.19269073261E-01  0.52717509096E-01  0.51100000000E-03 0. -1.
</event>
<event>
 8    1  0.1082757E+005  0.1043930E+01  0.7957747E-01            NaN
         13   -1    0    0    0    0  0.00000000000E+00  0.00000000000E+00  0.74505805969E-08  0.10566000000E+00  0.10566000000E+00 0. -1.
     999900   -1    0    0    0    0 -0.00000000000E+00 -0.00000000000E+00 -0.74505805969E-08  0.93827000000E+00  0.93827000000E+00 0.  1.
     999902    2    1    2    0    0  0.68628253345E-02 -0.21622124403E-01 -0.64158077124E-02  0.10203550721E+01  0.10200826908E+01 0.  0.
     999903    2    3    3    0    0 -0.15540484417E-01  0.12516333862E+00 -0.77939546973E-02  0.12791472134E+00  0.19851000369E-01 0.  0.
         14    1    1    2    0    0 -0.68628253345E-02  0.21622124403E-01  0.64158077124E-02  0.23574927866E-01  0.00000000000E+00 0. -1.
     999901    1    3    3    0    0  0.22403309752E-01 -0.14678546302E+00  0.13781469849E-02  0.89244035080E+00  0.88000000000E+00 0. -1.
        -11    1    4    4    0    0 -0.12835822852E-01  0.69406390237E-01 -0.13270763496E-01  0.71821860452E-01  0.51100000000E-03 0.  1.
         11    1    4    4    0    0 -0.27046615650E-02  0.55756948379E-01  0.54768087987E-02  0.56092860885E-01  0.51100000000E-03 0. -1.
</event>
<event>
 8    1  0.1082757E+005  0.1043930E+01  0.7957747E-01            NaN
         13   -1    0    0    0    0  0.00000000000E+00  0.00000000000E+00  0.74505805969E-08  0.10566000000E+00  0.10566000000E+00 0.  1.
     999900   -1    0    0    0    0 -0.00000000000E+00 -0.00000000000E+00 -0.74505805969E-08  0.93827000000E+00  0.93827000000E+00 0. -1.
     999902    2    1    2    0    0 -0.16558870412E-01  0.59021314027E-02 -0.16536690143E-01  0.10197950986E+01  0.10195094652E+01 0.  0.
     999903    2    3    3    0    0  0.26462034221E-01 -0.12452035203E+00 -0.55935125328E-02  0.12907596467E+00  0.20585430490E-01 0.  0.
         14    1    1    2    0    0  0.16558870412E-01 -0.59021314027E-02  0.16536690143E-01  0.24134901394E-01  0.00000000000E+00 0.  1.
     999901    1    3    3    0    0 -0.43020904633E-01  0.13042248343E+00 -0.10943177610E-01  0.89071913393E+00  0.88000000000E+00 0. -1.
        -11    1    4    4    0    0  0.14026067578E-01 -0.36956916938E-01  0.55994400609E-02  0.39926922387E-01  0.51100000000E-03 0.  1.
         11    1    4    4    0    0  0.12435966644E-01 -0.87563435093E-01 -0.11192952594E-01  0.89149042285E-01  0.51100000000E-03 0. -1.
</event>
<event>
 8    1  0.1082757E+005  0.1043930E+01  0.7957747E-01            NaN
         13   -1    0    0    0    0  0.00000000000E+00  0.00000000000E+00  0.74505805969E-08  0.10566000000E+00  0.10566000000E+00 0. -1.
     999900   -1    0    0    0    0 -0.00000000000E+00 -0.00000000000E+00 -0.74505805969E-08  0.93827000000E+00  0.93827000000E+00 0. -1.
     999902    2    1    2    0    0 -0.13699105207E-01 -0.21234086770E-01 -0.21600546340E-01  0.10106864213E+01  0.10101395481E+01 0.  0.
     999903    2    3    3    0    0  0.72573217869E-01 -0.74801571452E-01  0.58642600714E-01  0.12121952937E+00  0.19826059576E-01 0.  0.
         14    1    1    2    0    0  0.13699105207E-01  0.21234086770E-01  0.21600546340E-01  0.33243578727E-01  0.00000000000E+00 0. -1.
     999901    1    3    3    0    0 -0.86272323076E-01  0.53567484681E-01 -0.80243147054E-01  0.88946689190E+00  0.88000000000E+00 0. -1.
        -11    1    4    4    0    0  0.36150968715E-01 -0.26548321402E-01  0.17796739262E-01  0.48256512075E-01  0.51100000000E-03 0. -1.
         11    1    4    4    0    0  0.36422249154E-01 -0.48253250050E-01  0.40845861452E-01  0.72963017294E-01  0.51100000000E-03 0.  1.
</event>
<event>
 8    1  0.1082757E+005  0.1043930E+01  0.7957747E-01            NaN
         13   -1    0    0    0    0  0.00000000000E+00  0.00000000000E+00  0.74505805969E-08  0.10566000000E+00  0.10566000000E+00 0. -1.
     999900   -1    0    0    0    0 -0.00000000000E+00 -0.00000000000E+00 -0.74505805969E-08  0.93827000000E+00  0.93827000000E+00 0.  1.
     999902    2    1    2    0    0 -0.18361491266E-02  0.15502817475E-01  0.17977653917E-01  0.10201202366E+01  0.10198423370E+01 0.  0.
     999903    2    3    3    0    0  0.98515981984E-01  0.62320229420E-02  0.85055915055E-01  0.13183200017E+00  0.20023255628E-01 0.  0.
         14    1    1    2    0    0  0.18361491266E-02 -0.15502817475E-01 -0.17977653917E-01  0.23809763410E-01  0.00000000000E+00 0.  1.
     999901    1    3    3    0    0 -0.10035213111E+00  0.92707945326E-02 -0.67078261139E-01  0.88828823642E+00  0.88000000000E+00 0. -1.
        -11    1    4    4    0    0  0.18122090497E-01 -0.56838894752E-02  0.21243449462E-01  0.28500211044E-01  0.51100000000E-03 0.  1.
         11    1    4    4    0    0  0.80393891487E-01  0.11915912417E-01  0.63812465594E-01  0.10333178912E+00  0.51100000000E-03 0. -1.
</event>
<event>
 8    1  0.1082757E+005  0.1043930E+01  0.7957747E-01            NaN
         13   -1    0    0    0    0  0.00000000000E+00  0.00000000000E+00  0.74505805969E-08  0.10566000000E+00  0.10566000000E+00 0. -1.
     999900   -1    0    0    0    0 -0.00000000000E+00 -0.00000000000E+00 -0.74505805969E-08  0.93827000000E+00  0.93827000000E+00 0.  1.
     999902    2    1    2    0    0  0.12386272861E-01 -0.16763147682E-01  0.36893768791E-02  0.10227631774E+01  0.10225441226E+01 0.  0.
     999903    2    3    3    0    0 -0.11130239046E+00  0.34848327778E-01  0.56531194689E-01  0.13104860004E+00  0.19373474857E-01 0.  0.
         14    1    1    2    0    0 -0.12386272861E-01  0.16763147682E-01 -0.36893768791E-02  0.21166822562E-01  0.00000000000E+00 0.  1.
     999901    1    3    3    0    0  0.12368866332E+00 -0.51611475459E-01 -0.52841817810E-01  0.89171457740E+00  0.88000000000E+00 0.  1.
        -11    1    4    4    0    0 -0.23771836820E-01  0.16061559192E-01  0.13023125692E-01  0.31510900229E-01  0.51100000000E-03 0. -1.
         11    1    4    4    0    0 -0.87530553643E-01  0.18786768586E-01  0.43508068998E-01  0.99537699811E-01  0.51100000000E-03 0.  1.
</event>
<event>
 8    1  0.1082757E+005  0.1043930E+01  0.7957747E-01            NaN
         13   -1    0    0    0    0  0.00000000000E+00  0.00000000000E+00  0.74505805969E-08  0.10566000000E+00  0.10566000000E+00 0.  1.
     999900   -1    0    0    0    0 -0.00000000000E+00 -0.00000000000E+00 -0.74505805969E-08  0.93827000000E+00  0.93827000000E+00 0.  1.
     999902    2    1    2    0    0  0.28167995081E-02  0.22682947648E-01  0.64314543589E-02  0.10201852305E+01  0.10199088638E+01 0.  0.
     999903    2    3    3    0    0  0.97540216885E-01 -0.38357157297E-01 -0.73589027225E-01  0.12939810796E+00  0.18524577988E-01 0.  0.
         14    1    1    2    0    0 -0.28167995081E-02 -0.22682947648E-01 -0.64314543589E-02  0.23744769501E-01  0.00000000000E+00 0. -1.
     999901    1    3    3    0    0 -0.94723417376E-01  0.61040104945E-01  0.80020481584E-01  0.89078712254E+00  0.88000000000E+00 0. -1.
        -11    1    4    4    0    0  0.76767032785E-01 -0.37232820031E-01 -0.55143010232E-01  0.10158972836E+00  0.51100000000E-03 0. -1.
         11    1    4    4    0    0  0.20773184100E-01 -0.11243372652E-02 -0.18446016993E-01  0.27808379598E-01  0.51100000000E-03 0.  1.
</event>
<event>
 8    1  0.1082757E+005  0.1043930E+01  0.7957747E-01            NaN
         13   -1    0    0    0    0  0.00000000000E+00  0.00000000000E+00  0.74505805969E-08  0.10566000000E+00  0.10566000000E+00 0. -1.
     999900   -1    0    0    0    0 -0.00000000000E+00 -0.00000000000E+00 -0.74505805969E-08  0.93827000000E+00  0.93827000000E+00 0. -1.
     999902    2    1    2    0    0 -0.19983494784E-01 -0.10064968273E-01  0.76343732430E-02  0.10202883566E+01  0.10200144132E+01 0.  0.
     999903    2    3    3    0    0  0.59658726679E-01  0.95196454896E-01  0.59455445739E-01  0.12893642033E+00  0.21636121800E-01 0.  0.
         14    1    1    2    0    0  0.19983494784E-01  0.10064968273E-01 -0.76343732430E-02  0.23641643448E-01  0.00000000000E+00 0.  1.
     999901    1    3    3    0    0 -0.79642221463E-01 -0.10526142317E+00 -0.51821072496E-01  0.89135193622E+00  0.88000000000E+00 0. -1.
        -11    1    4    4    0    0  0.14812546703E-01  0.27698119182E-01  0.27748348349E-01  0.41914547631E-01  0.51100000000E-03 0. -1.
         11    1    4    4    0    0  0.44846179977E-01  0.67498335714E-01  0.31707097391E-01  0.87021872702E-01  0.51100000000E-03 0.  1.
</event>
<event>
 8    1  0.1082757E+005  0.1043930E+01  0.7957747E-01            NaN
         13   -1    0    0    0    0  0.00000000000E+00  0.00000000000E+00  0.74505805969E-08  0.10566000000E+00  0.10566000000E+00 0. -1.
     999900   -1    0    0    0    0 -0.00000000000E+00 -0.00000000000E+00 -0.74505805969E-08  0.93827000000E+00  0.93827000000E+00 0. -1.
     999902    2    1    2    0    0 -0.15544045490E-01  0.13409417187E-01  0.11416381303E-01  0.10204403516E+01  0.10201699602E+01 0.  0.
     999903    2    3    3    0    0  0.33263998052E-01 -0.12143058195E+00  0.19099936201E-01  0.12879967987E+00  0.19304667131E-01 0.  0.
         14    1    1    2    0    0  0.15544045490E-01 -0.13409417187E-01 -0.11416381303E-01  0.23489648391E-01  0.00000000000E+00 0.  1.
     999901    1    3    3    0    0 -0.48808043542E-01  0.13483999914E+00 -0.76835548980E-02  0.89164067174E+00  0.88000000000E+00 0.  1.
        -11    1    4    4    0    0  0.14681532796E-01 -0.62176531868E-01  0.21037070288E-03  0.63888761900E-01  0.51100000000E-03 0. -1.
         11    1    4    4    0    0  0.18582465256E-01 -0.59254050081E-01  0.18889565498E-01  0.64910917970E-01  0.51100000000E-03 0.  1.
</event>
<event>
 8    1  0.1082757E+005  0.1043930E+01  0.7957747E-01            NaN
         13   -1    0    0    0    0  0.00000000000E+00  0.00000000000E+00  0.74505805969E-08  0.10566000000E+00  0.10566000000E+00 0. -1.
     999900   -1    0    0    0    0 -0.00000000000E+00 -0.00000000000E+00 -0.74505805969E-08  0.93827000000E+00  0.93827000000E+00 0. -1.
     999902    2    1    2    0    0 -0.21241855466E-01  0.62697761229E-03 -0.92102731289E-02  0.10207688546E+01  0.10205060587E+01 0.  0.
     999903    2    3    3    0    0 -0.10352435973E+00 -0.41741173848E-01  0.68917912335E-01  0.13247302319E+00  0.18433789084E-01 0.  0.
         14    1    1    2    0    0  0.21241855466E-01 -0.62697761229E-03  0.92102731289E-02  0.23161145387E-01  0.00000000000E+00 0. -1.
     999901    1    3    3    0    0  0.82282504263E-01  0.42368151461E-01 -0.78128185463E-01  0.88829583143E+00  0.88000000000E+00 0. -1.
        -11    1    4    4    0    0 -0.49903487174E-01 -0.28509829497E-01  0.40891305616E-01  0.70537425570E-01  0.51100000000E-03 0. -1.
         11    1    4    4    0    0 -0.53620872555E-01 -0.13231344352E-01  0.28026606718E-01  0.61935597616E-01  0.51100000000E-03 0.  1.
</event>
<event>
 8    1  0.1082757E+005  0.1043930E+01  0.7957747E-01            NaN
         13   -1    0    0    0    0  0.00000000000E+00  0.00000000000E+00  0.74505805969E-08  0.10566000000E+00  0.10566000000E+00 0.  1.
     999900   -1    0    0    0    0 -0.00000000000E+00 -0.00000000000E+00 -0.74505805969E-08  0.93827000000E+00  0.93827000000E+00 0.  1.
     999902    2    1    2    0    0  0.19718684309E-01 -0.11079798309E-01  0.59542937825E-03  0.10213038431E+01  0.10210531802E+01 0.  0.
     999903    2    3    3    0    0  0.15886086809E-01 -0.15188502938E-01 -0.12848433419E+00  0.13186966584E+00  0.19958112691E-01 0.  0.
         14    1    1    2    0    0 -0.19718684309E-01  0.11079798309E-01 -0.59542937825E-03  0.22626156933E-01  0.00000000000E+00 0.  1.
     999901    1    3    3    0    0  0.38325974994E-02  0.41087046289E-02  0.12907976356E+00  0.88943417723E+00  0.88000000000E+00 0. -1.
        -11    1    4    4    0    0  0.16599130386E-01 -0.12626599512E-01 -0.12715136364E+00  0.12885143593E+00  0.51100000000E-03 0. -1.
         11    1    4    4    0    0 -0.71304357664E-03 -0.25619034253E-02 -0.13329705417E-02  0.30182299064E-02  0.51100000000E-03 0.  1.
</event>
<event>
 8    1  0.1082757E+005  0.1043930E+01  0.7957747E-01            NaN
         13   -1    0    0    0    0  0.00000000000E+00  0.00000000000E+00  0.74505805969E-08  0.10566000000E+00  0.10566000000E+00 0. -1.
     999900   -1    0    0    0    0 -0.00000000000E+00 -0.00000000000E+00 -0.74505805969E-08  0.93827000000E+00  0.93827000000E+00 0. -1.
     999902    2    1    2    0    0  0.15026819155E-01  0.15371911086E-01 -0.79955583758E-02  0.10209946583E+01  0.10207370192E+01 0.  0.
     999903    2    3    3    0    0 -0.20627802284E-01  0.12297847770E+00  0.39516692011E-01  0.13245212183E+00  0.20803447477E-01 0.  0.
         14    1    1    2    0    0 -0.15026819155E-01 -0.15371911086E-01  0.79955583758E-02  0.22935341683E-01  0.00000000000E+00 0. -1.
     999901    1    3    3    0    0  0.35654621439E-01 -0.10760656661E+00 -0.47512250387E-01  0.88854253649E+00  0.88000000000E+00 0. -1.
        -11    1    4    4    0    0 -0.42315237878E-02  0.51499655367E-01  0.67026968325E-02  0.52108613130E-01  0.51100000000E-03 0.  1.
         11    1    4    4    0    0 -0.16396278496E-01  0.71478822328E-01  0.32813995178E-01  0.80343508702E-01  0.51100000000E-03 0. -1.
</event>
<event>
 8    1  0.1082757E+005  0.1043930E+01  0.7957747E-01            NaN
         13   -1    0    0    0    0  0.00000000000E+00  0.00000000000E+00  0.74505805969E-08  0.10566000000E+00  0.10566000000E+00 0.  1.
     999900   -1    0    0    0    0 -0.00000000000E+00 -0.00000000000E+00 -0.74505805969E-08  0.93827000000E+00  0.93827000000E+00 0.  1.
     999902    2    1    2    0    0  0.10874340068E-01  0.17599215101E-01  0.82201839665E-02  0.10216689338E+01  0.10214263827E+01 0.  0.
     999903    2    3    3    0    0 -0.10583559990E+00  0.40223025108E-01  0.64860895380E-01  0.13187052008E+00  0.19074390192E-01 0.  0.
         14    1    1    2    0    0 -0.10874340068E-01 -0.17599215101E-01 -0.82201839665E-02  0.22261066204E-01  0.00000000000E+00 0.  1.
     999901    1    3    3    0    0  0.11670993997E+00 -0.22623810006E-01 -0.56640711414E-01  0.88979841372E+00  0.88000000000E+00 0. -1.
        -11    1    4    4    0    0 -0.19164065180E-01  0.13672046686E-01  0.19139117571E-01  0.30343915325E-01  0.51100000000E-03 0.  1.
         11    1    4    4    0    0 -0.86671534719E-01  0.26550978422E-01  0.45721777809E-01  0.10152660475E+00  0.51100000000E-03 0. -1.
</event>
<event>
 8    1  0.1082757E+005  0.1043930E+01  0.7957747E-01            NaN
         13   -1    0    0    0    0  0.00000000000E+00  0.00000000000E+00  0.74505805969E-08  0.10566000000E+00  0.10566000000E+00 0.  1.
     999900   -1    0    0    0    0 -0.00000000000E+00 -0.00000000000E+00 -0.74505805969E-08  0.93827000000E+00  0.93827000000E+00 0.  1.
     999902    2    1    2    0    0  0.15474194707E-01 -0.35216807811E-02  0.18025433641E-01  0.10199139804E+01  0.10196311874E+01 0.  0.
     999903    2    3    3    0    0  0.10465943485E+00 -0.75766586542E-02 -0.74953403415E-01  0.13052345090E+00  0.20183049593E-01 0.  0.
         14    1    1    2    0    0 -0.15474194707E-01  0.35216807811E-02 -0.18025433641E-01  0.24016019556E-01  0.00000000000E+00 0. -1.
     999901    1    3    3    0    0 -0.89185240146E-01  0.40549778731E-02  0.92978837056E-01  0.88939052955E+00  0.88000000000E+00 0. -1.
        -11    1    4    4    0    0  0.59504033593E-01 -0.11351374153E-01 -0.34135303276E-01  0.69534622742E-01  0.51100000000E-03 0.  1.
         11    1    4    4    0    0  0.45155401259E-01  0.37747154992E-02 -0.40818100139E-01  0.60988828157E-01  0.51100000000E-03 0. -1.
</event>
<event>
 8    1  0.1082757E+005  0.1043930E+01  0.7957747E-01            NaN
         13   -1    0    0    0    0  0.00000000000E+00  0.00000000000E+00  0.74505805969E-08  0.10566000000E+00  0.10566000000E+00 0. -1.
     999900   -1    0    0    0    0 -0.00000000000E+00 -0.00000000000E+00 -0.74505805969E-08  0.93827000000E+00  0.93827000000E+00 0. -1.
     999902    2    1    2    0    0 -0.12967495467E-01  0.15074342888E-01 -0.13476879077E-01  0.10199088006E+01  0.10196258841E+01 0.  0.
     999903    2    3    3    0    0  0.87171684577E-01 -0.86161757605E-01  0.24696378564E-01  0.12764549805E+00  0.25704299132E-01 0.  0.
         14    1    1    2    0    0  0.12967495467E-01 -0.15074342888E-01  0.13476879077E-01  0.24021199426E-01  0.00000000000E+00 0. -1.
     999901    1    3    3    0    0 -0.10013918004E+00  0.10123610049E+00 -0.38173257641E-01  0.89226330252E+00  0.88000000000E+00 0. -1.
        -11    1    4    4    0    0  0.29012071427E-01 -0.16753656578E-01  0.14531397274E-01  0.36521335201E-01  0.51100000000E-03 0.  1.
         11    1    4    4    0    0  0.58159613151E-01 -0.69408101028E-01  0.10164981290E-01  0.91124162853E-01  0.51100000000E-03 0. -1.
</event>
<event>
 8    1  0.1082757E+005  0.1043930E+01  0.7957747E-01            NaN
         13   -1    0    0    0    0  0.00000000000E+00  0.00000000000E+00  0.74505805969E-08  0.10566000000E+00  0.10566000000E+00 0. -1.
     999900   -1    0    0    0    0 -0.00000000000E+00 -0.00000000000E+00 -0.74505805969E-08  0.93827000000E+00  0.93827000000E+00 0.  1.
     999902    2    1    2    0    0 -0.15291193478E-01  0.13917617720E-01 -0.12261128845E-01  0.10198913652E+01  0.10196080330E+01 0.  0.
     999903    2    3    3    0    0  0.38636992037E-01  0.12260483746E+00 -0.19642879663E-01  0.13153577698E+00  0.19775100087E-01 0.  0.
         14    1    1    2    0    0  0.15291193478E-01 -0.13917617720E-01  0.12261128845E-01  0.24038634768E-01  0.00000000000E+00 0. -1.
     999901    1    3    3    0    0 -0.53928185515E-01 -0.10868721974E+00  0.73817508186E-02  0.88835558825E+00  0.88000000000E+00 0. -1.
        -11    1    4    4    0    0  0.41386392907E-02  0.43643820176E-01 -0.49298256565E-02  0.44118881182E-01  0.51100000000E-03 0. -1.
         11    1    4    4    0    0  0.34498352746E-01  0.78961017281E-01 -0.14713054007E-01  0.87416895801E-01  0.51100000000E-03 0.  1.
</event>
<event>
 8    1  0.1082757E+005  0.1043930E+01  0.7957747E-01            NaN
         13   -1    0    0    0    0  0.00000000000E+00  0.00000000000E+00  0.74505805969E-08  0.10566000000E+00  0.10566000000E+00 0. -1.
     999900   -1    0    0    0    0 -0.00000000000E+00 -0.00000000000E+00 -0.74505805969E-08  0.93827000000E+00  0.93827000000E+00 0. -1.
     999902    2    1    2    0    0 -0.80197776773E-02 -0.22119351356E-01  0.60020651032E-02  0.10196481689E+01  0.10193590049E+01 0.  0.
     999903    2    3    3    0    0  0.11824296228E+00  0.10119224911E-01  0.46534737841E-01  0.12912893668E+00  0.20615615961E-01 0.  0.
         14    1    1    2    0    0  0.80197776773E-02  0.22119351356E-01 -0.60020651032E-02  0.24281831148E-01  0.00000000000E+00 0. -1.
     999901    1    3    3    0    0 -0.12626273996E+00 -0.32238576268E-01 -0.40532672738E-01  0.89051923217E+00  0.88000000000E+00 0.  1.
        -11    1    4    4    0    0  0.59362714972E-01  0.15197315144E-01  0.21453690553E-01  0.64926206387E-01  0.51100000000E-03 0. -1.
         11    1    4    4    0    0  0.58880247309E-01 -0.50780902326E-02  0.25081047288E-01  0.64202730297E-01  0.51100000000E-03 0.  1.
</event>
<event>
 8    1  0.1082757E+005  0.1043930E+01  0.7957747E-01            NaN
         13   -1    0    0    0    0  0.00000000000E+00  0.00000000000E+00  0.74505805969E-08  0.10566000000E+00  0.10566000000E+00 0.  1.
     999900   -1    0    0    0    0 -0.00000000000E+00 -0.00000000000E+00 -0.74505805969E-08  0.93827000000E+00  0.93827000000E+00 0. -1.
     999902    2    1    2    0    0 -0.51984887329E-02 -0.23182007656E-01 -0.76048255127E-03  0.10201601010E+01  0.10198831421E+01 0.  0.
     999903    2    3    3    0    0 -0.80760705190E-01 -0.88456323065E-01 -0.54496198468E-01  0.13288454518E+00  0.18483887806E-01 0.  0.
         14    1    1    2    0    0  0.51984887329E-02  0.23182007656E-01  0.76048255127E-03  0.23769898986E-01  0.00000000000E+00 0.  1.
     999901    1    3    3    0    0  0.75562216457E-01  0.65274315409E-01  0.53735715917E-01  0.88727555583E+00  0.88000000000E+00 0.  1.
        -11    1    4    4    0    0 -0.23519747062E-01 -0.18633815766E-01 -0.20795453263E-01  0.36511773297E-01  0.51100000000E-03 0.  1.
         11    1    4    4    0    0 -0.57240958128E-01 -0.69822507299E-01 -0.33700745205E-01  0.96372771887E-01  0.51100000000E-03 0. -1.
</event>
<event>
 8    1  0.1082757E+005  0.1043930E+01  0.7957747E-01            NaN
         13   -1    0    0    0    0  0.00000000000E+00  0.00000000000E+00  0.74505805969E-08  0.10566000000E+00  0.10566000000E+00 0.  1.
     999900   -1    0    0    0    0 -0.00000000000E+00 -0.00000000000E+00 -0.74505805969E-08  0.93827000000E+00  0.93827000000E+00 0.  1.
     999902    2    1    2    0    0 -0.22974408367E-01 -0.61552009756E-02 -0.86423736127E-02  0.10186238632E+01  0.10183094687E+01 0.  0.
     999903    2    3    3    0    0  0.93579181691E-01  0.74262723500E-01  0.35685564858E-01  0.12620201895E+00  0.19531377350E-01 0.  0.
         14    1    1    2    0    0  0.22974408367E-01  0.61552009756E-02  0.86423736127E-02  0.25306136816E-01  0.00000000000E+00 0.  1.
     999901    1    3    3    0    0 -0.11655359006E+00 -0.80417924475E-01 -0.44327938470E-01  0.89242184423E+00  0.88000000000E+00 0.  1.
        -11    1    4    4    0    0  0.61083877869E-01  0.42663256773E-01  0.13452918599E-01  0.75714171420E-01  0.51100000000E-03 0.  1.
         11    1    4    4    0    0  0.32495303822E-01  0.31599466727E-01  0.22232646259E-01  0.50487847533E-01  0.51100000000E-03 0. -1.
</event>
<event>
 8    1  0.1082757E+005  0.1043930E+01  0.7957747E-01            NaN
         13   -1    0    0    0    0  0.00000000000E+00  0.00000000000E+00  0.74505805969E-08  0.10566000000E+00  0.10566000000E+00 0.  1.
     999900   -1    0    0    0    0 -0.00000000000E+00 -0.00000000000E+00 -0.74505805969E-08  0.93827000000E+00  0.93827000000E+00 0.  1.
     999902    2    1    2    0    0 -0.28523960829E-02 -0.20941605764E-01 -0.10745055026E-01  0.10202204403E+01  0.10199449022E+01 0.  0.
     999903    2    3    3    0    0  0.11002809657E+00  0.30486001704E-01 -0.59213005555E-01  0.13020024574E+00  0.20256989666E-01 0.  0.
         14    1    1    2    0    0  0.28523960829E-02  0.20941605764E-01  0.10745055026E-01  0.23709559737E-01  0.00000000000E+00 0.  1.
     999901    1    3    3    0    0 -0.11288049265E+00 -0.51427607468E-01  0.48467950528E-01  0.89002019452E+00  0.88000000000E+00 0. -1.
        -11    1    4    4    0    0  0.51691519740E-01  0.63801778874E-02 -0.19461182077E-01  0.55603224833E-01  0.51100000000E-03 0.  1.
         11    1    4    4    0    0  0.58336576825E-01  0.24105823816E-01 -0.39751823477E-01  0.74597020908E-01  0.51100000000E-03 0. -1.
</event>
<event>
 8    1  0.1082757E+005  0.1043930E+01  0.7957747E-01            NaN
         13   -1    0    0    0    0  0.00000000000E+00  0.00000000000E+00  0.74505805969E-08  0.10566000000E+00  0.10566000000E+00 0. -1.
     999900   -1    0    0    0    0 -0.00000000000E+00 -0.00000000000E+00 -0.74505805969E-08  0.93827000000E+00  0.93827000000E+00 0.  1.
     999902    2    1    2    0    0  0.47538533013E-02 -0.16143402413E-01  0.16002827931E-01  0.10207071866E+01  0.10204429732E+01 0.  0.
     999903    2    3    3    0    0  0.81787366430E-01 -0.10257506356E+00 -0.47810897546E-02  0.13288030848E+00  0.20579129943E-01 0.  0.
         14    1    1    2    0    0 -0.47538533013E-02  0.16143402413E-01 -0.16002827931E-01  0.23222813449E-01  0.00000000000E+00 0.  1.
     999901    1    3    3    0    0 -0.77033513129E-01  0.86431661151E-01  0.20783917686E-01  0.88782687807E+00  0.88000000000E+00 0.  1.
        -11    1    4    4    0    0  0.63324404554E-01 -0.79653865666E-01 -0.12295516481E-01  0.10249955792E+00  0.51100000000E-03 0. -1.
         11    1    4    4    0    0  0.18462961876E-01 -0.22921197899E-01  0.75144267264E-02  0.30380750556E-01  0.51100000000E-03 0.  1.
</event>
<event>
 8    1  0.1082757E+005  0.1043930E+01  0.7957747E-01            NaN
         13   -1    0    0    0    0  0.00000000000E+00  0.00000000000E+00  0.74505805969E-08  0.10566000000E+00  0.10566000000E+00 0. -1.
     999900   -1    0    0    0    0 -0.00000000000E+00 -0.00000000000E+00 -0.74505805969E-08  0.93827000000E+00  0.93827000000E+00 0. -1.
     999902    2    1    2    0    0  0.12853458794E-01 -0.25814100641E-02 -0.19802465270E-01  0.10201810482E+01  0.10199045830E+01 0.  0.
     999903    2    3    3    0    0  0.88647398020E-01 -0.90106348669E-01 -0.34207862563E-01  0.13248016864E+00  0.20082379715E-01 0.  0.
         14    1    1    2    0    0 -0.12853458794E-01  0.25814100641E-02  0.19802465270E-01  0.23748951801E-01  0.00000000000E+00 0. -1.
     999901    1    3    3    0    0 -0.75793939227E-01  0.87524938605E-01  0.14405397293E-01  0.88770087956E+00  0.88000000000E+00 0. -1.
        -11    1    4    4    0    0  0.61800913136E-01 -0.70268730870E-01 -0.32458683125E-01  0.99049859333E-01  0.51100000000E-03 0. -1.
         11    1    4    4    0    0  0.26846484884E-01 -0.19837617799E-01 -0.17491794378E-02  0.33430309306E-01  0.51100000000E-03 0.  1.
</event>
<event>
 8    1  0.1082757E+005  0.1043930E+01  0.7957747E-01            NaN
         13   -1    0    0    0    0  0.00000000000E+00  0.00000000000E+00  0.74505805969E-08  0.10566000000E+00  0.10566000000E+00 0.  1.
     999900   -1    0    0    0    0 -0.00000000000E+00 -0.00000000000E+00 -0.74505805969E-08  0.93827000000E+00  0.93827000000E+00 0. -1.
     999902    2    1    2    0    0  0.15181830201E-01  0.41905418726E-02  0.15296295685E-01  0.10219749261E+01  0.10217390686E+01 0.  0.
     999903    2    3    3    0    0 -0.43369249993E-01 -0.11693244989E+00  0.37483714032E-01  0.13147434232E+00  0.18066106069E-01 0.  0.
         14    1    1    2    0    0 -0.15181830201E-01 -0.41905418726E-02 -0.15296295685E-01  0.21955073926E-01  0.00000000000E+00 0. -1.
     999901    1    3    3    0    0  0.58551080194E-01  0.12112299177E+00 -0.22187418348E-01  0.89050058375E+00  0.88000000000E+00 0.  1.
        -11    1    4    4    0    0 -0.10266341135E-01 -0.21944650592E-01  0.14671678316E-01  0.28328161174E-01  0.51100000000E-03 0.  1.
         11    1    4    4    0    0 -0.33102908857E-01 -0.94987799303E-01  0.22812035716E-01  0.10314618115E+00  0.51100000000E-03 0. -1.
</event>
<event>
 8    1  0.1082757E+005  0.1043930E+01  0.7957747E-01            NaN
         13   -1    0    0    0    0  0.00000000000E+00  0.00000000000E+00  0.74505805969E-08  0.10566000000E+00  0.10566000000E+00 0.  1.
     999900   -1    0    0    0    0 -0.00000000000E+00 -0.00000000000E+00 -0.74505805969E-08  0.93827000000E+00  0.93827000000E+00 0. -1.
     999902    2    1    2    0    0  0.18259676945E-01 -0.13372765828E-01  0.63309114264E-02  0.10204283595E+01  0.10201576886E+01 0.  0.
     999903    2    3    3    0    0  0.22374107528E-01  0.10638440609E+00  0.68461621377E-01  0.13013687131E+00  0.20745339879E-01 0.  0.
         14    1    1    2    0    0 -0.18259676945E-01  0.13372765828E-01 -0.63309114264E-02  0.23501640528E-01  0.00000000000E+00 0. -1.
     999901    1    3    3    0    0 -0.41144305827E-02 -0.11975717192E+00 -0.62130709951E-01  0.89029148816E+00  0.88000000000E+00 0. -1.
        -11    1    4    4    0    0  0.19656222947E-01  0.44837502339E-01  0.33136822956E-01  0.59119192088E-01  0.51100000000E-03 0. -1.
         11    1    4    4    0    0  0.27178845806E-02  0.61546903753E-01  0.35324798421E-01  0.71017679227E-01  0.51100000000E-03 0.  1.
</event>
<event>
 8    1  0.1082757E+005  0.1043930E+01  0.7957747E-01            NaN
         13   -1    0    0    0    0  0.00000000000E+00  0.00000000000E+00  0.74505805969E-08  0.10566000000E+00  0.10566000000E+00 0. -1.
     999900   -1    0    0    0    0 -0.00000000000E+00 -0.00000000000E+00 -0.74505805969E-08  0.93827000000E+00  0.93827000000E+00 0. -1.
     999902    2    1    2    0    0  0.73988976534E-02 -0.17676936186E-01  0.32290558869E-01  0.10063813921E+01  0.10056806693E+01 0.  0.
     999903    2    3    3    0    0 -0.20374016150E-01 -0.11624865406E+00  0.11931957935E-01  0.12020861501E+00  0.19465081526E-01 0.  0.
         14    1    1    2    0    0 -0.73988976534E-02  0.17676936186E-01 -0.32290558869E-01  0.37548607851E-01  0.00000000000E+00 0.  1.
     999901    1    3    3    0    0  0.27772913803E-01  0.98571717872E-01  0.20358600934E-01  0.88617277714E+00  0.88000000000E+00 0.  1.
        -11    1    4    4    0    0 -0.73525206293E-02 -0.40968064179E-01  0.13597286184E-01  0.43790286078E-01  0.51100000000E-03 0.  1.
         11    1    4    4    0    0 -0.13021495520E-01 -0.75280589879E-01 -0.16653282488E-02  0.76418328936E-01  0.51100000000E-03 0. -1.
</event>
<event>
 8    1  0.1082757E+005  0.1043930E+01  0.7957747E-01            NaN
         13   -1    0    0    0    0  0.00000000000E+00  0.00000000000E+00  0.74505805969E-08  0.10566000000E+00  0.10566000000E+00 0. -1.
     999900   -1    0    0    0    0 -0.00000000000E+00 -0.00000000000E+00 -0.74505805969E-08  0.93827000000E+00  0.93827000000E+00 0.  1.
     999902    2    1    2    0    0  0.10487369507E-01 -0.21281483561E-01 -0.17192487500E-02  0.10201425605E+01  0.10198651879E+01 0.  0.
     999903    2    3    3    0    0  0.14135981664E-01  0.85101912995E-01 -0.93883267020E-01  0.12894957035E+00  0.19281138277E-01 0.  0.
         14    1    1    2    0    0 -0.10487369507E-01  0.21281483561E-01  0.17192487500E-02  0.23787439500E-01  0.00000000000E+00 0. -1.
     999901    1    3    3    0    0 -0.36486121572E-02 -0.10638339656E+00  0.92164018270E-01  0.89119299015E+00  0.88000000000E+00 0. -1.
        -11    1    4    4    0    0  0.79609217133E-02  0.51834437192E-01 -0.42889403158E-01  0.67749148908E-01  0.51100000000E-03 0.  1.
         11    1    4    4    0    0  0.61750599510E-02  0.33267475803E-01 -0.50993863862E-01  0.61200421439E-01  0.51100000000E-03 0. -1.
</event>
<event>
 8    1  0.1082757E+005  0.1043930E+01  0.7957747E-01            NaN
         13   -1    0    0    0    0  0.00000000000E+00  0.00000000000E+00  0.74505805969E-08  0.10566000000E+00  0.10566000000E+00 0. -1.
     999900   -1    0    0    0    0 -0.00000000000E+00 -0.00000000000E+00 -0.74505805969E-08  0.93827000000E+00  0.93827000000E+00 0. -1.
     999902    2    1    2    0    0  0.75642929661E-02 -0.14462743200E-01 -0.11353415339E-01  0.10240481110E+01  0.10238550895E+01 0.  0.
     999903    2    3    3    0    0  0.20623644188E-01 -0.12728595256E+00  0.35527487202E-01  0.13551142510E+00  0.21773735722E-01 0.  0.
         14    1    1    2    0    0 -0.75642929661E-02  0.14462743200E-01  0.11353415339E-01  0.19881888965E-01  0.00000000000E+00 0. -1.
     999901    1    3    3    0    0 -0.13059351222E-01  0.11282320936E+00 -0.46880902542E-01  0.88853668593E+00  0.88000000000E+00 0. -1.
        -11    1    4    4    0    0  0.61537364541E-02 -0.22188608225E-01 -0.16625258321E-02  0.23091728399E-01  0.51100000000E-03 0. -1.
         11    1    4    4    0    0  0.14469907734E-01 -0.10509734434E+00  0.37190013034E-01  0.11241969670E+00  0.51100000000E-03 0.  1.
</event>
<event>
 8    1  0.1082757E+005  0.1043930E+01  0.7957747E-01            NaN
         13   -1    0    0    0    0  0.00000000000E+00  0.00000000000E+00  0.74505805969E-08  0.10566000000E+00  0.10566000000E+00 0. -1.
     999900   -1    0    0    0    0 -0.00000000000E+00 -0.00000000000E+00 -0.74505805969E-08  0.93827000000E+00  0.93827000000E+00 0.  1.
     999902    2    1    2    0    0  0.13453249997E-01  0.68904193258E-02 -0.16464649209E-01  0.10215793291E+01  0.10213347998E+01 0.  0.
     999903    2    3    3    0    0 -0.10726697959E-01 -0.28140786440E-01 -0.12831667301E+00  0.13347869831E+00  0.21081471007E-01 0.  0.
         14    1    1    2    0    0 -0.13453249997E-01 -0.68904193258E-02  0.16464649209E-01  0.22350670852E-01  0.00000000000E+00 0. -1.
     999901    1    3    3    0    0  0.24179947956E-01  0.35031205766E-01  0.11185202380E+00  0.88810063083E+00  0.88000000000E+00 0. -1.
        -11    1    4    4    0    0  0.59068554402E-02 -0.60693280481E-02 -0.20762551211E-01  0.22429274129E-01  0.51100000000E-03 0. -1.
         11    1    4    4    0    0 -0.16633553399E-01 -0.22071458392E-01 -0.10755412180E+00  0.11104942418E+00  0.51100000000E-03 0.  1.
</event>
<event>
 8    1  0.1082757E+005  0.1043930E+01  0.7957747E-01            NaN
         13   -1    0    0    0    0  0.00000000000E+00  0.00000000000E+00  0.74505805969E-08  0.10566000000E+00  0.10566000000E+00 0. -1.
     999900   -1    0    0    0    0 -0.00000000000E+00 -0.00000000000E+00 -0.74505805969E-08  0.93827000000E+00  0.93827000000E+00 0.  1.
     999902    2    1    2    0    0  0.15202136780E-01  0.12917629926E-01  0.10532466909E-01  0.10213711218E+01  0.10211219641E+01 0.  0.
     999903    2    3    3    0    0 -0.88024966440E-01 -0.32968136889E-01  0.88682389716E-01  0.13071476336E+00  0.19659357751E-01 0.  0.
         14    1    1    2    0    0 -0.15202136780E-01 -0.12917629926E-01 -0.10532466909E-01  0.22558878180E-01  0.00000000000E+00 0. -1.
     999901    1    3    3    0    0  0.10322710322E+00  0.45885766815E-01 -0.78149922807E-01  0.89065635846E+00  0.88000000000E+00 0.  1.
        -11    1    4    4    0    0 -0.49627282851E-01 -0.11330576198E-01  0.57054881338E-01  0.76464173085E-01  0.51100000000E-03 0. -1.
         11    1    4    4    0    0 -0.38397683589E-01 -0.21637560691E-01  0.31627508378E-01  0.54250590272E-01  0.51100000000E-03 0.  1.
</event>
<event>
 8    1  0.1082757E+005  0.1043930E+01  0.7957747E-01            NaN
         13   -1    0    0    0    0  0.00000000000E+00  0.00000000000E+00  0.74505805969E-08  0.10566000000E+00  0.10566000000E+00 0.  1.
     999900   -1    0    0    0    0 -0.00000000000E+00 -0.00000000000E+00 -0.74505805969E-08  0.93827000000E+00  0.93827000000E+00 0. -1.
     999902    2    1    2    0    0  0.48526299085E-02 -0.19830365172E-01  0.11702693784E-01  0.10203982249E+01  0.10201268513E+01 0.  0.
     999903    2    3    3    0    0  0.56279344398E-01  0.75712310562E-01  0.86368897469E-01  0.13059591432E+00  0.26381580900E-01 0.  0.
         14    1    1    2    0    0 -0.48526299085E-02  0.19830365172E-01 -0.11702693784E-01  0.23531775150E-01  0.00000000000E+00 0. -1.
     999901    1    3    3    0    0 -0.51426714490E-01 -0.95542675735E-01 -0.74666203686E-01  0.88980231053E+00  0.88000000000E+00 0.  1.
        -11    1    4    4    0    0  0.14122900413E-01  0.28758440274E-01  0.44612634151E-01  0.54927702027E-01  0.51100000000E-03 0. -1.
         11    1    4    4    0    0  0.42156443985E-01  0.46953870288E-01  0.41756263318E-01  0.75668212294E-01  0.51100000000E-03 0.  1.
</event>
<event>
 8    1  0.1082757E+005  0.1043930E+01  0.7957747E-01            NaN
         13   -1    0    0    0    0  0.00000000000E+00  0.00000000000E+00  0.74505805969E-08  0.10566000000E+00  0.10566000000E+00 0. -1.
     999900   -1    0    0    0    0 -0.00000000000E+00 -0.00000000000E+00 -0.74505805969E-08  0.93827000000E+00  0.93827000000E+00 0.  1.
     999902    2    1    2    0    0  0.15412051403E-01 -0.10431729059E-01 -0.15404959220E-01  0.10197708388E+01  0.10194846240E+01 0.  0.
     999903    2    3    3    0    0  0.84457378488E-01 -0.96413120184E-01 -0.28413465822E-01  0.13279323029E+00  0.19954409210E-01 0.  0.
         14    1    1    2    0    0 -0.15412051403E-01  0.10431729059E-01  0.15404959220E-01  0.24159161165E-01  0.00000000000E+00 0.  1.
     999901    1    3    3    0    0 -0.69045327085E-01  0.85981391124E-01  0.13008506603E-01  0.88697760854E+00  0.88000000000E+00 0. -1.
        -11    1    4    4    0    0  0.52134455090E-01 -0.67883120383E-01 -0.11018958329E-01  0.86300625745E-01  0.51100000000E-03 0. -1.
         11    1    4    4    0    0  0.32322923398E-01 -0.28529999801E-01 -0.17394507493E-01  0.46492604547E-01  0.51100000000E-03 0.  1.
</event>
<event>
 8    1  0.1082757E+005  0.1043930E+01  0.7957747E-01            NaN
         13   -1    0    0    0    0  0.00000000000E+00  0.00000000000E+00  0.74505805969E-08  0.10566000000E+00  0.10566000000E+00 0. -1.
     999900   -1    0    0    0    0 -0.00000000000E+00 -0.00000000000E+00 -0.74505805969E-08  0.93827000000E+00  0.93827000000E+00 0. -1.
     999902    2    1    2    0    0 -0.18393083418E-01  0.24029485046E-02 -0.61569250344E-02  0.10243855019E+01  0.10241990379E+01 0.  0.
     999903    2    3    3    0    0  0.53902736815E-01 -0.12888800561E-01  0.11825822412E+00  0.13256732956E+00  0.22747814818E-01 0.  0.
         14    1    1    2    0    0  0.18393083418E-01 -0.24029485046E-02  0.61569250344E-02  0.19544498075E-01  0.00000000000E+00 0. -1.
     999901    1    3    3    0    0 -0.72295820233E-01  0.15291749066E-01 -0.12441514916E+00  0.89181817236E+00  0.88000000000E+00 0.  1.
        -11    1    4    4    0    0  0.35764939708E-01  0.28008444687E-02  0.68386501500E-01  0.77226616852E-01  0.51100000000E-03 0. -1.
         11    1    4    4    0    0  0.18137797107E-01 -0.15689645030E-01  0.49871722623E-01  0.55340712712E-01  0.51100000000E-03 0.  1.
</event>
<event>
 8    1  0.1082757E+005  0.1043930E+01  0.7957747E-01            NaN
         13   -1    0    0    0    0  0.00000000000E+00  0.00000000000E+00  0.74505805969E-08  0.10566000000E+00  0.10566000000E+00 0. -1.
     999900   -1    0    0    0    0 -0.00000000000E+00 -0.00000000000E+00 -0.74505805969E-08  0.93827000000E+00  0.93827000000E+00 0.  1.
     999902    2    1    2    0    0 -0.23695716551E-01 -0.35354950900E-02  0.12703099109E-01  0.10168125622E+01  0.10164508995E+01 0.  0.
     999903    2    3    3    0    0 -0.28446621807E-01 -0.23898981381E-01 -0.11944193983E+00  0.12670046023E+00  0.20155843547E-01 0.  0.
         14    1    1    2    0    0  0.23695716551E-01  0.35354950900E-02 -0.12703099109E-01  0.27117437846E-01  0.00000000000E+00 0. -1.
     999901    1    3    3    0    0  0.47509052561E-02  0.20363486291E-01  0.13214503894E+00  0.89011210192E+00  0.88000000000E+00 0. -1.
        -11    1    4    4    0    0 -0.30465405522E-01 -0.23410033709E-01 -0.99784473535E-01  0.10692695119E+00  0.51100000000E-03 0.  1.
         11    1    4    4    0    0  0.20187837152E-02 -0.48894767213E-03 -0.19657466294E-01  0.19773509037E-01  0.51100000000E-03 0. -1.
</event>
<event>
 8    1  0.1082757E+005  0.1043930E+01  0.7957747E-01            NaN
         13   -1    0    0    0    0  0.00000000000E+00  0.00000000000E+00  0.74505805969E-08  0.10566000000E+00  0.10566000000E+00 0. -1.
     999900   -1    0    0    0    0 -0.00000000000E+00 -0.00000000000E+00 -0.74505805969E-08  0.93827000000E+00  0.93827000000E+00 0. -1.
     999902    2    1    2    0    0  0.15800883981E-01  0.15344716618E-01 -0.61410699792E-02  0.10210642832E+01  0.10208082237E+01 0.  0.
     999903    2    3    3    0    0 -0.66846375976E-01  0.97767868160E-01  0.53339725193E-01  0.13136651968E+00  0.19622491752E-01 0.  0.
         14    1    1    2    0    0 -0.15800883981E-01 -0.15344716618E-01  0.61410699792E-02  0.22865716764E-01  0.00000000000E+00 0.  1.
     999901    1    3    3    0    0  0.82647259957E-01 -0.82423151543E-01 -0.59480795172E-01  0.88969776356E+00  0.88000000000E+00 0. -1.
        -11    1    4    4    0    0 -0.54994623024E-01  0.91123453282E-01  0.46539743447E-01  0.11616411296E+00  0.51100000000E-03 0.  1.
         11    1    4    4    0    0 -0.11851752951E-01  0.66444148775E-02  0.67999817456E-02  0.15202406712E-01  0.51100000000E-03 0. -1.
</event>
<event>
 8    1  0.1082757E+005  0.1043930E+01  0.7957747E-01            NaN
         13   -1    0    0    0    0  0.00000000000E+00  0.00000000000E+00  0.74505805969E-08  0.10566000000E+00  0.10566000000E+00 0. -1.
     999900   -1    0    0    0    0 -0.00000000000E+00 -0.00000000000E+00 -0.74505805969E-08  0.93827000000E+00  0.93827000000E+00 0.  1.
     999902    2    1    2    0    0 -0.65680342043E-02  0.17906347568E-01  0.64149174819E-02  0.10238071890E+01  0.10236094141E+01 0.  0.
     999903    2    3    3    0    0 -0.33382946628E-01  0.87637772711E-01 -0.96317653174E-01  0.13468656036E+00  0.82812377297E-02 0.  0.
         14    1    1    2    0    0  0.65680342043E-02 -0.17906347568E-01 -0.64149174819E-02  0.20122811007E-01  0.00000000000E+00 0.  1.
     999901    1    3    3    0    0  0.26814912424E-01 -0.69731425144E-01  0.10273257066E+00  0.88912062863E+00  0.88000000000E+00 0. -1.
        -11    1    4    4    0    0 -0.24804463868E-01  0.59533185936E-01 -0.61422309729E-01  0.89064150526E-01  0.51100000000E-03 0.  1.
         11    1    4    4    0    0 -0.85784827602E-02  0.28104586775E-01 -0.34895343444E-01  0.45622409837E-01  0.51100000000E-03 0. -1.
</event>
<event>
 8    1  0.1082757E+005  0.1043930E+01  0.7957747E-01            NaN
         13   -1    0    0    0    0  0.00000000000E+00  0.00000000000E+00  0.74505805969E-08  0.10566000000E+00  0.10566000000E+00 0.  1.
     999900   -1    0    0    0    0 -0.00000000000E+00 -0.00000000000E+00 -0.74505805969E-08  0.93827000000E+00  0.93827000000E+00 0.  1.
     999902    2    1    2    0    0  0.20390579131E-01 -0.95731006277E-02 -0.77364159247E-02  0.10201125252E+01  0.10198344434E+01 0.  0.
     999903    2    3    3    0    0  0.92463663424E-01 -0.91525375013E-01 -0.20945495238E-01  0.13327252583E+00  0.19910526018E-01 0.  0.
         14    1    1    2    0    0 -0.20390579131E-01  0.95731006277E-02  0.77364159247E-02  0.23817474768E-01  0.00000000000E+00 0. -1.
     999901    1    3    3    0    0 -0.72073084292E-01  0.81952274386E-01  0.13209079314E-01  0.88683999940E+00  0.88000000000E+00 0.  1.
        -11    1    4    4    0    0  0.65802997136E-02 -0.15661698264E-01 -0.36291856930E-02  0.17378758489E-01  0.51100000000E-03 0. -1.
         11    1    4    4    0    0  0.85883363710E-01 -0.75863676749E-01 -0.17316309546E-01  0.11589376734E+00  0.51100000000E-03 0.  1.
</event>
<event>
 8    1  0.1082757E+005  0.1043930E+01  0.7957747E-01            NaN
         13   -1    0    0    0    0  0.00000000000E+00  0.00000000000E+00  0.74505805969E-08  0.10566000000E+00  0.10566000000E+00 0.  1.
     999900   -1    0    0    0    0 -0.00000000000E+00 -0.00000000000E+00 -0.74505805969E-08  0.93827000000E+00  0.93827000000E+00 0. -1.
     999902    2    1    2    0    0  0.15846706267E-02  0.13143936187E-01 -0.19907834152E-01  0.10200219240E+01  0.10197416973E+01 0.  0.
     999903    2    3    3    0    0  0.55161817922E-01 -0.85093235087E-01 -0.80221411016E-01  0.13088819943E+00  0.20311601393E-01 0.  0.
         14    1    1    2    0    0 -0.15846706267E-02 -0.13143936187E-01  0.19907834152E-01  0.23908076043E-01  0.00000000000E+00 0.  1.
     999901    1    3    3    0    0 -0.53577147295E-01  0.98237171274E-01  0.60313576864E-01  0.88913372452E+00  0.88000000000E+00 0.  1.
        -11    1    4    4    0    0  0.18398426801E-01 -0.46780418297E-01 -0.41068515521E-01  0.64913740710E-01  0.51100000000E-03 0.  1.
         11    1    4    4    0    0  0.36763391121E-01 -0.38312816790E-01 -0.39152895495E-01  0.65974458723E-01  0.51100000000E-03 0. -1.
</event>
<event>
 8    1  0.1082757E+005  0.1043930E+01  0.7957747E-01            NaN
         13   -1    0    0    0    0  0.00000000000E+00  0.00000000000E+00  0.74505805969E-08  0.10566000000E+00  0.10566000000E+00 0.  1.
     999900   -1    0    0    0    0 -0.00000000000E+00 -0.00000000000E+00 -0.74505805969E-08  0.93827000000E+00  0.93827000000E+00 0. -1.
     999902    2    1    2    0    0  0.89751258241E-02 -0.21387893294E-01  0.64185696925E-02  0.10198635732E+01  0.10195795776E+01 0.  0.
     999903    2    3    3    0    0 -0.19561241513E-01  0.11930328202E+00 -0.35196580857E-01  0.12726055289E+00  0.18453556516E-01 0.  0.
         14    1    1    2    0    0 -0.89751258241E-02  0.21387893294E-01 -0.64185696925E-02  0.24066426823E-01  0.00000000000E+00 0.  1.
     999901    1    3    3    0    0  0.28536367337E-01 -0.14069117531E+00  0.41615150549E-01  0.89260302029E+00  0.88000000000E+00 0. -1.
        -11    1    4    4    0    0  0.20776448858E-03  0.55338420116E-01 -0.16395184073E-01  0.57718689251E-01  0.51100000000E-03 0.  1.
         11    1    4    4    0    0 -0.19769006001E-01  0.63964861901E-01 -0.18801396784E-01  0.69541863639E-01  0.51100000000E-03 0. -1.
</event>
<event>
 8    1  0.1082757E+005  0.1043930E+01  0.7957747E-01            NaN
         13   -1    0    0    0    0  0.00000000000E+00  0.00000000000E+00  0.74505805969E-08  0.10566000000E+00  0.10566000000E+00 0. -1.
     999900   -1    0    0    0    0 -0.00000000000E+00 -0.00000000000E+00 -0.74505805969E-08  0.93827000000E+00  0.93827000000E+00 0.  1.
     999902    2    1    2    0    0 -0.13542678624E-01  0.50294690349E-04 -0.18530497618E-01  0.10209781806E+01  0.10207201669E+01 0.  0.
     999903    2    3    3    0    0 -0.11245747900E+00  0.67821486572E-01  0.13409905478E-02  0.13262467647E+00  0.18468024460E-01 0.  0.
         14    1    1    2    0    0  0.13542678624E-01 -0.50294690349E-04  0.18530497618E-01  0.22951819445E-01  0.00000000000E+00 0. -1.
     999901    1    3    3    0    0  0.98914800380E-01 -0.67771191882E-01 -0.19871488166E-01  0.88835350409E+00  0.88000000000E+00 0. -1.
        -11    1    4    4    0    0 -0.15866073174E-01  0.43681940680E-02  0.42998685882E-02  0.17016562175E-01  0.51100000000E-03 0.  1.
         11    1    4    4    0    0 -0.96591405830E-01  0.63453292504E-01 -0.29588780403E-02  0.11560811429E+00  0.51100000000E-03 0. -1.
</event>
<event>
 8    1  0.1082757E+005  0.1043930E+01  0.7957747E-01            NaN
         13   -1    0    0    0    0  0.00000000000E+00  0.00000000000E+00  0.74505805969E-08  0.10566000000E+00  0.10566000000E+00 0. -1.
     999900   -1    0    0    0    0 -0.00000000000E+00 -0.00000000000E+00 -0.74505805969E-08  0.93827000000E+00  0.93827000000E+00 0. -1.
     999902    2    1    2    0    0  0.14344320259E-03  0.13444933571E-01 -0.20033581205E-01  0.10198026050E+01  0.10195171514E+01 0.  0.
     999903    2    3    3    0    0 -0.37324967838E-01 -0.36286917617E-01  0.11449431175E+00  0.12740421142E+00  0.20322205831E-01 0.  0.
         14    1    1    2    0    0 -0.14344320259E-03 -0.13444933571E-01  0.20033581205E-01  0.24127395022E-01  0.00000000000E+00 0. -1.
     999901    1    3    3    0    0  0.37468411040E-01  0.49731851187E-01 -0.13452789295E+00  0.89239839356E+00  0.88000000000E+00 0. -1.
        -11    1    4    4    0    0 -0.11865377115E-01 -0.21930215915E-01  0.68576307115E-01  0.72970491041E-01  0.51100000000E-03 0. -1.
         11    1    4    4    0    0 -0.25459590722E-01 -0.14356701701E-01  0.45918004633E-01  0.54433720376E-01  0.51100000000E-03 0.  1.
</event>
<event>
 8    1  0.1082757E+005  0.1043930E+01  0.7957747E-01            NaN
         13   -1    0    0    0    0  0.00000000000E+00  0.00000000000E+00  0.74505805969E-08  0.10566000000E+00  0.10566000000E+00 0.  1.
     999900   -1    0    0    0    0 -0.00000000000E+00 -0.00000000000E+00 -0.74505805969E-08  0.93827000000E+00  0.93827000000E+00 0. -1.
     999902    2    1    2    0    0 -0.15869058977E-01  0.70915023922E-02 -0.14902020069E-01  0.10210348774E+01  0.10207781513E+01 0.  0.
     999903    2    3    3    0    0  0.58138699702E-02  0.12011472534E+00  0.48647735957E-01  0.13126919481E+00  0.20091066814E-01 0.  0.
         14    1    1    2    0    0  0.15869058977E-01 -0.70915023922E-02  0.14902020069E-01  0.22895122649E-01  0.00000000000E+00 0. -1.
     999901    1    3    3    0    0 -0.21682928947E-01 -0.11302322295E+00 -0.63549756026E-01  0.88976568254E+00  0.88000000000E+00 0. -1.
        -11    1    4    4    0    0  0.43497888976E-02  0.23966313015E-01  0.21541340606E-02  0.24458254998E-01  0.51100000000E-03 0.  1.
         11    1    4    4    0    0  0.14640810727E-02  0.96148412323E-01  0.46493601896E-01  0.10681093981E+00  0.51100000000E-03 0. -1.
</event>
<event>
 8    1  0.1082757E+005  0.1043930E+01  0.7957747E-01            NaN
         13   -1    0    0    0    0  0.00000000000E+00  0.00000000000E+00  0.74505805969E-08  0.10566000000E+00  0.10566000000E+00 0.  1.
     999900   -1    0    0    0    0 -0.00000000000E+00 -0.00000000000E+00 -0.74505805969E-08  0.93827000000E+00  0.93827000000E+00 0. -1.
     999902    2    1    2    0    0  0.10688789296E-01 -0.31806313862E-02 -0.20173481091E-01  0.10208792739E+01  0.10206190063E+01 0.  0.
     999903    2    3    3    0    0  0.85907324829E-01  0.94916654937E-01 -0.26703972597E-01  0.13221535941E+00  0.19456599575E-01 0.  0.
         14    1    1    2    0    0 -0.10688789296E-01  0.31806313862E-02  0.20173481091E-01  0.23050726062E-01  0.00000000000E+00 0.  1.
     999901    1    3    3    0    0 -0.75218535533E-01 -0.98097286323E-01  0.65304915053E-02  0.88866391453E+00  0.88000000000E+00 0.  1.
        -11    1    4    4    0    0  0.38888283456E-01  0.48000335454E-01 -0.35841747874E-02  0.61882454894E-01  0.51100000000E-03 0.  1.
         11    1    4    4    0    0  0.47019041373E-01  0.46916319483E-01 -0.23119797809E-01  0.70332904513E-01  0.51100000000E-03 0. -1.
</event>
<event>
 8    1  0.1082757E+005  0.1043930E+01  0.7957747E-01            NaN
         13   -1    0    0    0    0  0.00000000000E+00  0.00000000000E+00  0.74505805969E-08  0.10566000000E+00  0.10566000000E+00 0. -1.
     999900   -1    0    0    0    0 -0.00000000000E+00 -0.00000000000E+00 -0.74505805969E-08  0.93827000000E+00  0.93827000000E+00 0.  1.
     999902    2    1    2    0    0  0.58531658184E-02 -0.22117186192E-01 -0.10081318810E-01  0.10189287507E+01  0.10186219793E+01 0.  0.
     999903    2    3    3    0    0  0.57201090765E-01 -0.11711250803E+00 -0.11866144902E-01  0.13232629972E+00  0.19548398443E-01 0.  0.
         14    1    1    2    0    0 -0.58531658184E-02  0.22117186192E-01  0.10081318810E-01  0.25001249251E-01  0.00000000000E+00 0. -1.
     999901    1    3    3    0    0 -0.51347924946E-01  0.94995321836E-01  0.17848260912E-02  0.88660245103E+00  0.88000000000E+00 0.  1.
        -11    1    4    4    0    0  0.21831860079E-01 -0.52074139973E-01  0.40024507551E-02  0.56609424141E-01  0.51100000000E-03 0.  1.
         11    1    4    4    0    0  0.35369230686E-01 -0.65038368054E-01 -0.15868595657E-01  0.75716875580E-01  0.51100000000E-03 0. -1.
</event>
<event>
 8    1  0.1082757E+005  0.1043930E+01  0.7957747E-01            NaN
         13   -1    0    0    0    0  0.00000000000E+00  0.00000000000E+00  0.74505805969E-08  0.10566000000E+00  0.10566000000E+00 0. -1.
     999900   -1    0    0    0    0 -0.00000000000E+00 -0.00000000000E+00 -0.74505805969E-08  0.93827000000E+00  0.93827000000E+00 0.  1.
     999902    2    1    2    0    0  0.17536260233E-01 -0.10428594467E-01 -0.13086968423E-01  0.10196906776E+01  0.10194025374E+01 0.  0.
     999903    2    3    3    0    0  0.10331919111E+00  0.58441604373E-01  0.52430315442E-01  0.13042450265E+00  0.13089558470E-01 0.  0.
         14    1    1    2    0    0 -0.17536260233E-01  0.10428594467E-01  0.13086968423E-01  0.24239322351E-01  0.00000000000E+00 0.  1.
     999901    1    3    3    0    0 -0.85782930874E-01 -0.68870198840E-01 -0.65517283864E-01  0.88926617500E+00  0.88000000000E+00 0.  1.
        -11    1    4    4    0    0  0.10812235586E-01  0.98944782211E-02  0.95092007954E-02  0.17478305364E-01  0.51100000000E-03 0. -1.
         11    1    4    4    0    0  0.92506955521E-01  0.48547126152E-01  0.42921114646E-01  0.11294619728E+00  0.51100000000E-03 0.  1.
</event>
<event>
 8    1  0.1082757E+005  0.1043930E+01  0.7957747E-01            NaN
         13   -1    0    0    0    0  0.00000000000E+00  0.00000000000E+00  0.74505805969E-08  0.10566000000E+00  0.10566000000E+00 0.  1.
     999900   -1    0    0    0    0 -0.00000000000E+00 -0.00000000000E+00 -0.74505805969E-08  0.93827000000E+00  0.93827000000E+00 0.  1.
     999902    2    1    2    0    0  0.92818873830E-02  0.12317612029E-01  0.18084106524E-01  0.10201621244E+01  0.10198852133E+01 0.  0.
     999903    2    3    3    0    0 -0.44409784291E-01  0.74535426324E-01 -0.93644217574E-01  0.12929902025E+00  0.20524093974E-01 0.  0.
         14    1    1    2    0    0 -0.92818873830E-02 -0.12317612029E-01 -0.18084106524E-01  0.23767875552E-01  0.00000000000E+00 0.  1.
     999901    1    3    3    0    0  0.53691671674E-01 -0.62217814295E-01  0.11172832410E+00  0.89086310420E+00  0.88000000000E+00 0. -1.
        -11    1    4    4    0    0 -0.27569456716E-01  0.44141298176E-01 -0.70158922145E-01  0.87355965027E-01  0.51100000000E-03 0.  1.
         11    1    4    4    0    0 -0.16840327574E-01  0.30394128148E-01 -0.23485295429E-01  0.41943055219E-01  0.51100000000E-03 0. -1.
</event>
<event>
 8    1  0.1082757E+005  0.1043930E+01  0.7957747E-01            NaN
         13   -1    0    0    0    0  0.00000000000E+00  0.00000000000E+00  0.74505805969E-08  0.10566000000E+00  0.10566000000E+00 0. -1.
     999900   -1    0    0    0    0 -0.00000000000E+00 -0.00000000000E+00 -0.74505805969E-08  0.93827000000E+00  0.93827000000E+00 0. -1.
     999902    2    1    2    0    0  0.24062573953E-01  0.74267969242E-02 -0.35510372151E-02  0.10184982355E+01  0.10181806722E+01 0.  0.
     999903    2    3    3    0    0  0.31461186341E-01 -0.11016608566E+00  0.55168608521E-01  0.12870566293E+00  0.19879628427E-01 0.  0.
         14    1    1    2    0    0 -0.24062573953E-01 -0.74267969242E-02  0.35510372151E-02  0.25431764451E-01  0.00000000000E+00 0.  1.
     999901    1    3    3    0    0 -0.73986123880E-02  0.11759288259E+00 -0.58719645737E-01  0.88979257262E+00  0.88000000000E+00 0.  1.
        -11    1    4    4    0    0  0.20020529610E-01 -0.38408522122E-01  0.16167104657E-01  0.46234971304E-01  0.51100000000E-03 0. -1.
         11    1    4    4    0    0  0.11440656731E-01 -0.71757563542E-01  0.39001503864E-01  0.82470691622E-01  0.51100000000E-03 0.  1.
</event>
<event>
 8    1  0.1082757E+005  0.1043930E+01  0.7957747E-01            NaN
         13   -1    0    0    0    0  0.00000000000E+00  0.00000000000E+00  0.74505805969E-08  0.10566000000E+00  0.10566000000E+00 0.  1.
     999900   -1    0    0    0    0 -0.00000000000E+00 -0.00000000000E+00 -0.74505805969E-08  0.93827000000E+00  0.93827000000E+00 0.  1.
     999902    2    1    2    0    0 -0.12440725977E-01  0.22706304766E-01 -0.11109181028E-02  0.10180150993E+01  0.10176851971E+01 0.  0.
     999903    2    3    3    0    0 -0.75498955401E-01  0.10610747545E+00 -0.17898734989E-02  0.13182518933E+00  0.20390887196E-01 0.  0.
         14    1    1    2    0    0  0.12440725977E-01 -0.22706304766E-01  0.11109181028E-02  0.25914900694E-01  0.00000000000E+00 0.  1.
     999901    1    3    3    0    0  0.63058229425E-01 -0.83401170685E-01  0.67895539605E-03  0.88618990998E+00  0.88000000000E+00 0.  1.
        -11    1    4    4    0    0 -0.18192240410E-01  0.21437608680E-01 -0.84612405860E-02  0.29366347922E-01  0.51100000000E-03 0. -1.
         11    1    4    4    0    0 -0.57306714992E-01  0.84669866771E-01  0.66713670871E-02  0.10245884140E+00  0.51100000000E-03 0.  1.
</event>
<event>
 8    1  0.1082757E+005  0.1043930E+01  0.7957747E-01            NaN
         13   -1    0    0    0    0  0.00000000000E+00  0.00000000000E+00  0.74505805969E-08  0.10566000000E+00  0.10566000000E+00 0.  1.
     999900   -1    0    0    0    0 -0.00000000000E+00 -0.00000000000E+00 -0.74505805969E-08  0.93827000000E+00  0.93827000000E+00 0. -1.
     999902    2    1    2    0    0  0.20641041792E-01  0.24819399442E-02  0.12203557523E-01  0.10198231659E+01  0.10195382045E+01 0.  0.
     999903    2    3    3    0    0  0.20146877574E-01  0.15139439754E-01  0.12842991011E+00  0.13209064906E+00  0.17849326159E-01 0.  0.
         14    1    1    2    0    0 -0.20641041792E-01 -0.24819399442E-02 -0.12203557523E-01  0.24106834059E-01  0.00000000000E+00 0. -1.
     999901    1    3    3    0    0  0.49416421812E-03 -0.12657499810E-01 -0.11622635259E+00  0.88773251689E+00  0.88000000000E+00 0. -1.
        -11    1    4    4    0    0  0.15956005673E-01  0.26680248926E-02  0.90612185255E-01  0.92046410640E-01  0.51100000000E-03 0. -1.
         11    1    4    4    0    0  0.41908719003E-02  0.12471414862E-01  0.37817724857E-01  0.40044238416E-01  0.51100000000E-03 0.  1.
</event>
<event>
 8    1  0.1082757E+005  0.1043930E+01  0.7957747E-01            NaN
         13   -1    0    0    0    0  0.00000000000E+00  0.00000000000E+00  0.74505805969E-08  0.10566000000E+00  0.10566000000E+00 0.  1.
     999900   -1    0    0    0    0 -0.00000000000E+00 -0.00000000000E+00 -0.74505805969E-08  0.93827000000E+00  0.93827000000E+00 0. -1.
     999902    2    1    2    0    0  0.95669840343E-02 -0.15695942997E-01 -0.13936181142E-01  0.10208625564E+01  0.10206019068E+01 0.  0.
     999903    2    3    3    0    0  0.38388778031E-01  0.44886086005E-01  0.11308066965E+00  0.12921567649E+00  0.20518143336E-01 0.  0.
         14    1    1    2    0    0 -0.95669840343E-02  0.15695942997E-01  0.13936181142E-01  0.23067443614E-01  0.00000000000E+00 0.  1.
     999901    1    3    3    0    0 -0.28821793997E-01 -0.60582029002E-01 -0.12701685079E+00  0.89164687990E+00  0.88000000000E+00 0. -1.
        -11    1    4    4    0    0  0.13575531106E-01  0.81113115070E-02  0.16124489590E-01  0.22590898714E-01  0.51100000000E-03 0. -1.
         11    1    4    4    0    0  0.24813246926E-01  0.36774774498E-01  0.96956180060E-01  0.10662477777E+00  0.51100000000E-03 0.  1.
</event>
<event>
 8    1  0.1082757E+005  0.1043930E+01  0.7957747E-01            NaN
         13   -1    0    0    0    0  0.00000000000E+00  0.00000000000E+00  0.74505805969E-08  0.10566000000E+00  0.10566000000E+00 0.  1.
     999900   -1    0    0    0    0 -0.00000000000E+00 -0.00000000000E+00 -0.74505805969E-08  0.93827000000E+00  0.93827000000E+00 0. -1.
     999902    2    1    2    0    0  0.10891931724E-02  0.59693168449E-02  0.19045506803E-01  0.10239412428E+01  0.10237461200E+01 0.  0.
     999903    2    3    3    0    0 -0.80224314628E-01  0.99558737155E-01 -0.33804862466E-01  0.13368059125E+00  0.19489713953E-01 0.  0.
         14    1    1    2    0    0 -0.10891931724E-02 -0.59693168449E-02 -0.19045506803E-01  0.19988757209E-01  0.00000000000E+00 0. -1.
     999901    1    3    3    0    0  0.81313507801E-01 -0.93589420310E-01  0.52850369270E-01  0.89026065154E+00  0.88000000000E+00 0. -1.
        -11    1    4    4    0    0 -0.79700748197E-01  0.99722700329E-01 -0.31830250746E-01  0.13156843165E+00  0.51100000000E-03 0. -1.
         11    1    4    4    0    0 -0.52356643131E-03 -0.16396317370E-03 -0.19746117208E-02  0.21121596006E-02  0.51100000000E-03 0.  1.
</event>
<event>
 8    1  0.1082757E+005  0.1043930E+01  0.7957747E-01            NaN
         13   -1    0    0    0    0  0.00000000000E+00  0.00000000000E+00  0.74505805969E-08  0.10566000000E+00  0.10566000000E+00 0.  1.
     999900   -1    0    0    0    0 -0.00000000000E+00 -0.00000000000E+00 -0.74505805969E-08  0.93827000000E+00  0.93827000000E+00 0.  1.
     999902    2    1    2    0    0  0.19331374635E-01 -0.10870028674E-01 -0.94477375986E-02  0.10198235835E+01  0.10195386320E+01 0.  0.
     999903    2    3    3    0    0 -0.60808549348E-01 -0.11280382734E+00 -0.14244238870E-01  0.13030915805E+00  0.18846622907E-01 0.  0.
         14    1    1    2    0    0 -0.19331374635E-01  0.10870028674E-01  0.94477375986E-02  0.24106416457E-01  0.00000000000E+00 0. -1.
     999901    1    3    3    0    0  0.80139923983E-01  0.10193379867E+00  0.47965012712E-02  0.88951442549E+00  0.88000000000E+00 0. -1.
        -11    1    4    4    0    0 -0.30930690771E-01 -0.72332340731E-01 -0.14530264835E-01  0.80000405401E-01  0.51100000000E-03 0.  1.
         11    1    4    4    0    0 -0.29877858576E-01 -0.40471486612E-01  0.28602596528E-03  0.50308752654E-01  0.51100000000E-03 0. -1.
</event>
<event>
 8    1  0.1082757E+005  0.1043930E+01  0.7957747E-01            NaN
         13   -1    0    0    0    0  0.00000000000E+00  0.00000000000E+00  0.74505805969E-08  0.10566000000E+00  0.10566000000E+00 0. -1.
     999900   -1    0    0    0    0 -0.00000000000E+00 -0.00000000000E+00 -0.74505805969E-08  0.93827000000E+00  0.93827000000E+00 0.  1.
     999902    2    1    2    0    0 -0.14183331480E-01 -0.11621832276E-01  0.15279226632E-01  0.10200618488E+01  0.10197825683E+01 0.  0.
     999903    2    3    3    0    0 -0.67294074172E-03 -0.11654586880E+00  0.59975796173E-01  0.13259952988E+00  0.20053598506E-01 0.  0.
         14    1    1    2    0    0  0.14183331480E-01  0.11621832276E-01 -0.15279226632E-01  0.23868151244E-01  0.00000000000E+00 0.  1.
     999901    1    3    3    0    0 -0.13510390738E-01  0.10492403653E+00 -0.44696569541E-01  0.88746231888E+00  0.88000000000E+00 0.  1.
        -11    1    4    4    0    0 -0.62605341610E-02 -0.31029284315E-01  0.91216514255E-02  0.32946569150E-01  0.51100000000E-03 0. -1.
         11    1    4    4    0    0  0.55875934193E-02 -0.85516584489E-01  0.50854144748E-01  0.99652960728E-01  0.51100000000E-03 0.  1.
</event>
<event>
 8    1  0.1082757E+005  0.1043930E+01  0.7957747E-01            NaN
         13   -1    0    0    0    0  0.00000000000E+00  0.00000000000E+00  0.74505805969E-08  0.10566000000E+00  0.10566000000E+00 0.  1.
     999900   -1    0    0    0    0 -0.00000000000E+00 -0.00000000000E+00 -0.74505805969E-08  0.93827000000E+00  0.93827000000E+00 0.  1.
     999902    2    1    2    0    0 -0.21204623602E-01  0.90014980245E-02 -0.35968955117E-02  0.10206147542E+01  0.10203484090E+01 0.  0.
     999903    2    3    3    0    0 -0.85360251347E-01  0.90798975285E-01 -0.43508960973E-01  0.13359742359E+00  0.20601346603E-01 0.  0.
         14    1    1    2    0    0  0.21204623602E-01 -0.90014980245E-02  0.35968955117E-02  0.23315245787E-01  0.00000000000E+00 0. -1.
     999901    1    3    3    0    0  0.64155627744E-01 -0.81797477261E-01  0.39912065461E-01  0.88701733062E+00  0.88000000000E+00 0. -1.
        -11    1    4    4    0    0 -0.21721420911E-01  0.37331302720E-01 -0.14795237793E-01  0.45657490859E-01  0.51100000000E-03 0.  1.
         11    1    4    4    0    0 -0.63638830435E-01  0.53467672566E-01 -0.28713723180E-01  0.87939932730E-01  0.51100000000E-03 0. -1.
</event>
<event>
 8    1  0.1082757E+005  0.1043930E+01  0.7957747E-01            NaN
         13   -1    0    0    0    0  0.00000000000E+00  0.00000000000E+00  0.74505805969E-08  0.10566000000E+00  0.10566000000E+00 0.  1.
     999900   -1    0    0    0    0 -0.00000000000E+00 -0.00000000000E+00 -0.74505805969E-08  0.93827000000E+00  0.93827000000E+00 0. -1.
     999902    2    1    2    0    0  0.41450446968E-02 -0.33136022200E-02  0.25619266403E-01  0.10177668930E+01  0.10174305580E+01 0.  0.
     999903    2    3    3    0    0  0.29974245548E-01 -0.11659418031E+00 -0.38084013262E-01  0.12784681526E+00  0.20043897480E-01 0.  0.
         14    1    1    2    0    0 -0.41450446968E-02  0.33136022200E-02 -0.25619266403E-01  0.26163106968E-01  0.00000000000E+00 0. -1.
     999901    1    3    3    0    0 -0.25829200852E-01  0.11328057809E+00  0.63703279664E-01  0.88992007778E+00  0.88000000000E+00 0.  1.
        -11    1    4    4    0    0  0.29719077205E-01 -0.99611432090E-01 -0.26482878696E-01  0.10727192055E+00  0.51100000000E-03 0.  1.
         11    1    4    4    0    0  0.25516834306E-03 -0.16982748222E-01 -0.11601134565E-01  0.20574894708E-01  0.51100000000E-03 0. -1.
</event>
<event>
 8    1  0.1082757E+005  0.1043930E+01  0.7957747E-01            NaN
         13   -1    0    0    0    0  0.00000000000E+00  0.00000000000E+00  0.74505805969E-08  0.10566000000E+00  0.10566000000E+00 0.  1.
     999900   -1    0    0    0    0 -0.00000000000E+00 -0.00000000000E+00 -0.74505805969E-08  0.93827000000E+00  0.93827000000E+00 0.  1.
     999902    2    1    2    0    0 -0.10281421641E-01  0.22186918836E-01 -0.11140234865E-01  0.10170586057E+01  0.10167035633E+01 0.  0.
     999903    2    3    3    0    0  0.21436862586E-01  0.10837836848E+00  0.63861593538E-01  0.12910574107E+00  0.19610696479E-01 0.  0.
         14    1    1    2    0    0  0.10281421641E-01 -0.22186918836E-01  0.11140234865E-01  0.26871394293E-01  0.00000000000E+00 0.  1.
     999901    1    3    3    0    0 -0.31718284227E-01 -0.86191449648E-01 -0.75001828403E-01  0.88795286463E+00  0.88000000000E+00 0.  1.
        -11    1    4    4    0    0  0.49529489984E-02  0.52223164468E-01  0.20750127366E-01  0.56414710117E-01  0.51100000000E-03 0.  1.
         11    1    4    4    0    0  0.16483913588E-01  0.56155204015E-01  0.43111466171E-01  0.72691030957E-01  0.51100000000E-03 0. -1.
</event>
<event>
 8    1  0.1082757E+005  0.1043930E+01  0.7957747E-01            NaN
         13   -1    0    0    0    0  0.00000000000E+00  0.00000000000E+00  0.74505805969E-08  0.10566000000E+00  0.10566000000E+00 0.  1.
     999900   -1    0    0    0    0 -0.00000000000E+00 -0.00000000000E+00 -0.74505805969E-08  0.93827000000E+00  0.93827000000E+00 0.  1.
     999902    2    1    2    0    0  0.31275895228E-03  0.14389645245E-01  0.17001659247E-01  0.10216540909E+01  0.10214112127E+01 0.  0.
     999903    2    3    3    0    0  0.78088300672E-01  0.42591753336E-01 -0.93582348446E-01  0.13088295502E+00  0.21467459546E-01 0.  0.
         14    1    1    2    0    0 -0.31275895228E-03 -0.14389645245E-01 -0.17001659247E-01  0.22275909085E-01  0.00000000000E+00 0. -1.
     999901    1    3    3    0    0 -0.77775541720E-01 -0.28202108092E-01  0.11058400769E+00  0.89077113590E+00  0.88000000000E+00 0. -1.
        -11    1    4    4    0    0  0.59331192622E-01  0.22269762949E-01 -0.71043547603E-01  0.95202833659E-01  0.51100000000E-03 0.  1.
         11    1    4    4    0    0  0.18757108050E-01  0.20321990387E-01 -0.22538800843E-01  0.35680121358E-01  0.51100000000E-03 0. -1.
</event>
<event>
 8    1  0.1082757E+005  0.1043930E+01  0.7957747E-01            NaN
         13   -1    0    0    0    0  0.00000000000E+00  0.00000000000E+00  0.74505805969E-08  0.10566000000E+00  0.10566000000E+00 0. -1.
     999900   -1    0    0    0    0 -0.00000000000E+00 -0.00000000000E+00 -0.74505805969E-08  0.93827000000E+00  0.93827000000E+00 0.  1.
     999902    2    1    2    0    0 -0.19016710081E-01  0.17924663862E-01 -0.18915939347E-02  0.10177287221E+01  0.10173913921E+01 0.  0.
     999903    2    3    3    0    0 -0.65583463126E-01  0.18745116705E-01 -0.10887744996E+00  0.13002657101E+00  0.20001000515E-01 0.  0.
         14    1    1    2    0    0  0.19016710081E-01 -0.17924663862E-01  0.18915939347E-02  0.26201277917E-01  0.00000000000E+00 0. -1.
     999901    1    3    3    0    0  0.46566753045E-01 -0.82045284295E-03  0.10698585603E+00  0.88770215107E+00  0.88000000000E+00 0. -1.
        -11    1    4    4    0    0 -0.80616326589E-02  0.61410516139E-02 -0.29455374035E-01  0.31154174946E-01  0.51100000000E-03 0. -1.
         11    1    4    4    0    0 -0.57521830467E-01  0.12604065091E-01 -0.79422075929E-01  0.98872396062E-01  0.51100000000E-03 0.  1.
</event>
<event>
 8    1  0.1082757E+005  0.1043930E+01  0.7957747E-01            NaN
         13   -1    0    0    0    0  0.00000000000E+00  0.00000000000E+00  0.74505805969E-08  0.10566000000E+00  0.10566000000E+00 0. -1.
     999900   -1    0    0    0    0 -0.00000000000E+00 -0.00000000000E+00 -0.74505805969E-08  0.93827000000E+00  0.93827000000E+00 0.  1.
     999902    2    1    2    0    0  0.12150314153E-01  0.15659791457E-01 -0.20022945975E-01  0.10157559416E+01  0.10153651340E+01 0.  0.
     999903    2    3    3    0    0 -0.19189474179E-01 -0.96148283435E-01  0.72079130357E-01  0.12336251914E+00  0.20252944697E-01 0.  0.
         14    1    1    2    0    0 -0.12150314153E-01 -0.15659791457E-01  0.20022945975E-01  0.28174058423E-01  0.00000000000E+00 0. -1.
     999901    1    3    3    0    0  0.31339788332E-01  0.11180807489E+00 -0.92102076332E-01  0.89239342244E+00  0.88000000000E+00 0.  1.
        -11    1    4    4    0    0 -0.13670672350E-01 -0.44459291864E-01  0.45112956294E-01  0.64799350785E-01  0.51100000000E-03 0.  1.
         11    1    4    4    0    0 -0.55188018292E-02 -0.51688991570E-01  0.26966174063E-01  0.58563168355E-01  0.51100000000E-03 0. -1.
</event>
<event>
 8    1  0.1082757E+005  0.1043930E+01  0.7957747E-01            NaN
         13   -1    0    0    0    0  0.00000000000E+00  0.00000000000E+00  0.74505805969E-08  0.10566000000E+00  0.10566000000E+00 0.  1.
     999900   -1    0    0    0    0 -0.00000000000E+00 -0.00000000000E+00 -0.74505805969E-08  0.93827000000E+00  0.93827000000E+00 0.  1.
     999902    2    1    2    0    0 -0.14421853554E-03  0.28437594935E-02  0.22858401765E-01  0.10208949333E+01  0.10206350232E+01 0.  0.
     999903    2    3    3    0    0  0.12617753179E+00 -0.29972671032E-01  0.11645140767E-01  0.13119844575E+00  0.16071475589E-01 0.  0.
         14    1    1    2    0    0  0.14421853554E-03 -0.28437594935E-02 -0.22858401765E-01  0.23035066709E-01  0.00000000000E+00 0. -1.
     999901    1    3    3    0    0 -0.12632175032E+00  0.32816430525E-01  0.11213260998E-01  0.88969648754E+00  0.88000000000E+00 0.  1.
        -11    1    4    4    0    0  0.96468557184E-01 -0.24236084642E-01  0.15583910848E-01  0.10068112893E+00  0.51100000000E-03 0. -1.
         11    1    4    4    0    0  0.29708974603E-01 -0.57365863896E-02 -0.39387700812E-02  0.30517316823E-01  0.51100000000E-03 0.  1.
</event>
<event>
 8    1  0.1082757E+005  0.1043930E+01  0.7957747E-01            NaN
         13   -1    0    0    0    0  0.00000000000E+00  0.00000000000E+00  0.74505805969E-08  0.10566000000E+00  0.10566000000E+00 0.  1.
     999900   -1    0    0    0    0 -0.00000000000E+00 -0.00000000000E+00 -0.74505805969E-08  0.93827000000E+00  0.93827000000E+00 0. -1.
     999902    2    1    2    0    0  0.23282517404E-01 -0.59666877221E-02  0.34851430856E-02  0.10196437240E+01  0.10193544529E+01 0.  0.
     999903    2    3    3    0    0 -0.77833192906E-01 -0.38122499014E-01  0.93084129986E-01  0.12875295544E+00  0.20033407863E-01 0.  0.
         14    1    1    2    0    0 -0.23282517404E-01  0.59666877221E-02 -0.34851430856E-02  0.24286275988E-01  0.00000000000E+00 0.  1.
     999901    1    3    3    0    0  0.10111571031E+00  0.32155811292E-01 -0.89598986900E-01  0.89089076857E+00  0.88000000000E+00 0. -1.
        -11    1    4    4    0    0 -0.21074808056E-01 -0.21885333209E-02  0.16356992746E-01  0.26772178570E-01  0.51100000000E-03 0.  1.
         11    1    4    4    0    0 -0.56758384850E-01 -0.35933965693E-01  0.76727137240E-01  0.10198077687E+00  0.51100000000E-03 0. -1.
</event>
<event>
 8    1  0.1082757E+005  0.1043930E+01  0.7957747E-01            NaN
         13   -1    0    0    0    0  0.00000000000E+00  0.00000000000E+00  0.74505805969E-08  0.10566000000E+00  0.10566000000E+00 0. -1.
     999900   -1    0    0    0    0 -0.00000000000E+00 -0.00000000000E+00 -0.74505805969E-08  0.93827000000E+00  0.93827000000E+00 0.  1.
     999902    2    1    2    0    0  0.11232511407E-01 -0.28769666804E-02  0.21498767012E-01  0.10195037184E+01  0.10192110618E+01 0.  0.
     999903    2    3    3    0    0  0.18385605434E-01  0.62010320021E-01  0.11358868785E+00  0.13229343879E+00  0.20392490362E-01 0.  0.
         14    1    1    2    0    0 -0.11232511407E-01  0.28769666804E-02 -0.21498767012E-01  0.24426281601E-01  0.00000000000E+00 0.  1.
     999901    1    3    3    0    0 -0.71530940271E-02 -0.64887286702E-01 -0.92089920834E-01  0.88721027961E+00  0.88000000000E+00 0.  1.
        -11    1    4    4    0    0  0.90252144489E-02  0.19497596900E-01  0.56858401307E-01  0.60784452789E-01  0.51100000000E-03 0. -1.
         11    1    4    4    0    0  0.93603909855E-02  0.42512723122E-01  0.56730286539E-01  0.71508985998E-01  0.51100000000E-03 0.  1.
</event>
<event>
 8    1  0.1082757E+005  0.1043930E+01  0.7957747E-01            NaN
         13   -1    0    0    0    0  0.00000000000E+00  0.00000000000E+00  0.74505805969E-08  0.10566000000E+00  0.10566000000E+00 0.  1.
     999900   -1    0    0    0    0 -0.00000000000E+00 -0.00000000000E+00 -0.74505805969E-08  0.93827000000E+00  0.93827000000E+00 0. -1.
     999902    2    1    2    0    0  0.14744976375E-01  0.19057207854E-01 -0.10180032949E-02  0.10198130385E+01  0.10195278347E+01 0.  0.
     999903    2    3    3    0    0  0.16661859000E-02 -0.10319940132E-01  0.12785910006E+00  0.12984484846E+00  0.20061352492E-01 0.  0.
         14    1    1    2    0    0 -0.14744976375E-01 -0.19057207854E-01  0.10180032949E-02  0.24116961463E-01  0.00000000000E+00 0. -1.
     999901    1    3    3    0    0  0.13078790475E-01  0.29377147987E-01 -0.12887710335E+00  0.88996819008E+00  0.88000000000E+00 0. -1.
        -11    1    4    4    0    0 -0.58789725578E-02 -0.30617886697E-02  0.97514508039E-01  0.97740867949E-01  0.51100000000E-03 0. -1.
         11    1    4    4    0    0  0.75451584578E-02 -0.72581514624E-02  0.30344592018E-01  0.32103980509E-01  0.51100000000E-03 0.  1.
</event>
<event>
 8    1  0.1082757E+005  0.1043930E+01  0.7957747E-01            NaN
         13   -1    0    0    0    0  0.00000000000E+00  0.00000000000E+00  0.74505805969E-08  0.10566000000E+00  0.10566000000E+00 0.  1.
     999900   -1    0    0    0    0 -0.00000000000E+00 -0.00000000000E+00 -0.74505805969E-08  0.93827000000E+00  0.93827000000E+00 0. -1.
     999902    2    1    2    0    0 -0.15224689636E-02 -0.15213069220E-01 -0.18039652200E-01  0.10202829190E+01  0.10200088482E+01 0.  0.
     999903    2    3    3    0    0 -0.13073694758E-01 -0.12215996168E+00  0.43070363925E-01  0.13162916042E+00  0.19421686130E-01 0.  0.
         14    1    1    2    0    0  0.15224689636E-02  0.15213069220E-01  0.18039652200E-01  0.23647080969E-01  0.00000000000E+00 0.  1.
     999901    1    3    3    0    0  0.11551225794E-01  0.10694689246E+00 -0.61110016125E-01  0.88865375861E+00  0.88000000000E+00 0. -1.
        -11    1    4    4    0    0 -0.23842210324E-02 -0.22287268204E-01  0.20667883990E-03  0.22421210295E-01  0.51100000000E-03 0.  1.
         11    1    4    4    0    0 -0.10689473725E-01 -0.99872693474E-01  0.42863685085E-01  0.10920795012E+00  0.51100000000E-03 0. -1.
</event>
<event>
 8    1  0.1082757E+005  0.1043930E+01  0.7957747E-01            NaN
         13   -1    0    0    0    0  0.00000000000E+00  0.00000000000E+00  0.74505805969E-08  0.10566000000E+00  0.10566000000E+00 0. -1.
     999900   -1    0    0    0    0 -0.00000000000E+00 -0.00000000000E+00 -0.74505805969E-08  0.93827000000E+00  0.93827000000E+00 0.  1.
     999902    2    1    2    0    0  0.15920893870E-01 -0.12823538929E-01  0.12222226235E-01  0.10201119223E+01  0.10198338262E+01 0.  0.
     999903    2    3    3    0    0  0.10913975328E+00 -0.37664103210E-01  0.63721275310E-01  0.13334309026E+00  0.19746097762E-01 0.  0.
         14    1    1    2    0    0 -0.15920893870E-01  0.12823538929E-01 -0.12222226235E-01  0.23818077723E-01  0.00000000000E+00 0. -1.
     999901    1    3    3    0    0 -0.93218859407E-01  0.24840564281E-01 -0.51499049075E-01  0.88676883202E+00  0.88000000000E+00 0.  1.
        -11    1    4    4    0    0  0.39814725205E-01 -0.16769619850E-01  0.34388123093E-01  0.55219893371E-01  0.51100000000E-03 0. -1.
         11    1    4    4    0    0  0.69325028072E-01 -0.20894483360E-01  0.29333152217E-01  0.78123196888E-01  0.51100000000E-03 0.  1.
</event>
<event>
 8    1  0.1082757E+005  0.1043930E+01  0.7957747E-01            NaN
         13   -1    0    0    0    0  0.00000000000E+00  0.00000000000E+00  0.74505805969E-08  0.10566000000E+00  0.10566000000E+00 0.  1.
     999900   -1    0    0    0    0 -0.00000000000E+00 -0.00000000000E+00 -0.74505805969E-08  0.93827000000E+00  0.93827000000E+00 0.  1.
     999902    2    1    2    0    0  0.20435417745E-01  0.58039148374E-02  0.10680171753E-01  0.10201527463E+01  0.10198756140E+01 0.  0.
     999903    2    3    3    0    0 -0.25892270779E-01  0.40236982795E-01 -0.11691972645E+00  0.12907832463E+00  0.26487109830E-01 0.  0.
         14    1    1    2    0    0 -0.20435417745E-01 -0.58039148374E-02 -0.10680171753E-01  0.23777253722E-01  0.00000000000E+00 0.  1.
     999901    1    3    3    0    0  0.46327688524E-01 -0.34433067958E-01  0.12759989820E+00  0.89107442165E+00  0.88000000000E+00 0. -1.
        -11    1    4    4    0    0  0.11542660345E-02  0.21971833354E-01 -0.44636005877E-01  0.49766735202E-01  0.51100000000E-03 0.  1.
         11    1    4    4    0    0 -0.27046536813E-01  0.18265149442E-01 -0.72283720568E-01  0.79311589429E-01  0.51100000000E-03 0. -1.
</event>
<event>
 8    1  0.1082757E+005  0.1043930E+01  0.7957747E-01            NaN
         13   -1    0    0    0    0  0.00000000000E+00  0.00000000000E+00  0.74505805969E-08  0.10566000000E+00  0.10566000000E+00 0.  1.
     999900   -1    0    0    0    0 -0.00000000000E+00 -0.00000000000E+00 -0.74505805969E-08  0.93827000000E+00  0.93827000000E+00 0. -1.
     999902    2    1    2    0    0  0.36227119356E-02  0.17806974794E-01 -0.13939489387E-01  0.10210275600E+01  0.10207706679E+01 0.  0.
     999903    2    3    3    0    0 -0.50471124252E-01  0.54261036969E-01  0.10568194320E+00  0.13054211437E+00  0.19518606229E-01 0.  0.
         14    1    1    2    0    0 -0.36227119356E-02 -0.17806974794E-01  0.13939489387E-01  0.22902439989E-01  0.00000000000E+00 0. -1.
     999901    1    3    3    0    0  0.54093836188E-01 -0.36454062174E-01 -0.11962143259E+00  0.89048544564E+00  0.88000000000E+00 0. -1.
        -11    1    4    4    0    0 -0.21402298439E-01  0.12028406605E-01  0.25772663983E-01  0.35598206046E-01  0.51100000000E-03 0.  1.
         11    1    4    4    0    0 -0.29068825813E-01  0.42232630363E-01  0.79909279219E-01  0.94943908324E-01  0.51100000000E-03 0. -1.
</event>
<event>
 8    1  0.1082757E+005  0.1043930E+01  0.7957747E-01            NaN
         13   -1    0    0    0    0  0.00000000000E+00  0.00000000000E+00  0.74505805969E-08  0.10566000000E+00  0.10566000000E+00 0. -1.
     999900   -1    0    0    0    0 -0.00000000000E+00 -0.00000000000E+00 -0.74505805969E-08  0.93827000000E+00  0.93827000000E+00 0.  1.
     999902    2    1    2    0    0  0.10064954951E-01 -0.16721015919E-01  0.24145770576E-02  0.10242646530E+01  0.10240758534E+01 0.  0.
     999903    2    3    3    0    0  0.57299689209E-01  0.64953969823E-01 -0.99641408123E-01  0.13335649411E+00  0.18795524151E-01 0.  0.
         14    1    1    2    0    0 -0.10064954951E-01  0.16721015919E-01 -0.24145770576E-02  0.19665347032E-01  0.00000000000E+00 0. -1.
     999901    1    3    3    0    0 -0.47234734258E-01 -0.81674985741E-01  0.10205598518E+00  0.89090815886E+00  0.88000000000E+00 0. -1.
        -11    1    4    4    0    0  0.41494730566E-01  0.33462014924E-01 -0.62808615644E-01  0.82381444680E-01  0.51100000000E-03 0.  1.
         11    1    4    4    0    0  0.15804958643E-01  0.31491954899E-01 -0.36832792480E-01  0.50975049425E-01  0.51100000000E-03 0. -1.
</event>
<event>
 8    1  0.1082757E+005  0.1043930E+01  0.7957747E-01            NaN
         13   -1    0    0    0    0  0.00000000000E+00  0.00000000000E+00  0.74505805969E-08  0.10566000000E+00  0.10566000000E+00 0. -1.
     999900   -1    0    0    0    0 -0.00000000000E+00 -0.00000000000E+00 -0.74505805969E-08  0.93827000000E+00  0.93827000000E+00 0. -1.
     999902    2    1    2    0    0 -0.33028172001E-02 -0.17453951134E-01 -0.10732889467E-01  0.10231756287E+01  0.10229651134E+01 0.  0.
     999903    2    3    3    0    0  0.54309606607E-01 -0.11786305951E+00 -0.32279829418E-01  0.13533248318E+00  0.20776415732E-01 0.  0.
         14    1    1    2    0    0  0.33028172001E-02  0.17453951134E-01  0.10732889467E-01  0.20754371297E-01  0.00000000000E+00 0. -1.
     999901    1    3    3    0    0 -0.57612423807E-01  0.10040910838E+00  0.21546939951E-01  0.88784314552E+00  0.88000000000E+00 0. -1.
        -11    1    4    4    0    0  0.65059548195E-02 -0.36109586949E-01 -0.77960005908E-02  0.37513577061E-01  0.51100000000E-03 0. -1.
         11    1    4    4    0    0  0.47803651787E-01 -0.81753472562E-01 -0.24483828827E-01  0.97818906123E-01  0.51100000000E-03 0.  1.
</event>
<event>
 8    1  0.1082757E+005  0.1043930E+01  0.7957747E-01            NaN
         13   -1    0    0    0    0  0.00000000000E+00  0.00000000000E+00  0.74505805969E-08  0.10566000000E+00  0.10566000000E+00 0.  1.
     999900   -1    0    0    0    0 -0.00000000000E+00 -0.00000000000E+00 -0.74505805969E-08  0.93827000000E+00  0.93827000000E+00 0.  1.
     999902    2    1    2    0    0 -0.12728051987E-01  0.11568788057E-01 -0.16443435632E-01  0.10201344807E+01  0.10198569174E+01 0.  0.
     999903    2    3    3    0    0 -0.71761938962E-01 -0.96228098899E-01  0.44298487693E-01  0.12951966500E+00  0.20083941572E-01 0.  0.
         14    1    1    2    0    0  0.12728051987E-01 -0.11568788057E-01  0.16443435632E-01  0.23795519324E-01  0.00000000000E+00 0.  1.
     999901    1    3    3    0    0  0.59033886974E-01  0.10779688696E+00 -0.60741923325E-01  0.89061481567E+00  0.88000000000E+00 0.  1.
        -11    1    4    4    0    0 -0.46865711924E-01 -0.46486826055E-01  0.26220998439E-01  0.71029724981E-01  0.51100000000E-03 0.  1.
         11    1    4    4    0    0 -0.24896227038E-01 -0.49741272844E-01  0.18077489254E-01  0.58489940021E-01  0.51100000000E-03 0. -1.
</event>
<event>
 8    1  0.1082757E+005  0.1043930E+01  0.7957747E-01            NaN
         13   -1    0    0    0    0  0.00000000000E+00  0.00000000000E+00  0.74505805969E-08  0.10566000000E+00  0.10566000000E+00 0. -1.
     999900   -1    0    0    0    0 -0.00000000000E+00 -0.00000000000E+00 -0.74505805969E-08  0.93827000000E+00  0.93827000000E+00 0.  1.
     999902    2    1    2    0    0 -0.12751470533E-01 -0.13606254002E-01 -0.14803165524E-01  0.10201210971E+01  0.10198432178E+01 0.  0.
     999903    2    3    3    0    0 -0.12212500895E+00  0.77421371980E-02  0.42408357237E-01  0.13125019360E+00  0.21299907473E-01 0.  0.
         14    1    1    2    0    0  0.12751470533E-01  0.13606254002E-01  0.14803165524E-01  0.23808902920E-01  0.00000000000E+00 0. -1.
     999901    1    3    3    0    0  0.10937353841E+00 -0.21348391200E-01 -0.57211522761E-01  0.88887090348E+00  0.88000000000E+00 0. -1.
        -11    1    4    4    0    0 -0.62930846968E-01  0.13377426923E-01  0.16729041048E-01  0.66478334716E-01  0.51100000000E-03 0.  1.
         11    1    4    4    0    0 -0.59194161980E-01 -0.56352897248E-02  0.25679316188E-01  0.64771858887E-01  0.51100000000E-03 0. -1.
</event>
<event>
 8    1  0.1082757E+005  0.1043930E+01  0.7957747E-01            NaN
         13   -1    0    0    0    0  0.00000000000E+00  0.00000000000E+00  0.74505805969E-08  0.10566000000E+00  0.10566000000E+00 0.  1.
     999900   -1    0    0    0    0 -0.00000000000E+00 -0.00000000000E+00 -0.74505805969E-08  0.93827000000E+00  0.93827000000E+00 0. -1.
     999902    2    1    2    0    0 -0.21581492642E-01  0.68878420280E-02 -0.10958343521E-01  0.10187647763E+01  0.10184539169E+01 0.  0.
     999903    2    3    3    0    0 -0.75798991279E-01  0.84602608569E-01 -0.64638342992E-01  0.13205137024E+00  0.18877514187E-01 0.  0.
         14    1    1    2    0    0  0.21581492642E-01 -0.68878420280E-02  0.10958343521E-01  0.25165223726E-01  0.00000000000E+00 0.  1.
     999901    1    3    3    0    0  0.54217498637E-01 -0.77714766541E-01  0.53679999471E-01  0.88671340603E+00  0.88000000000E+00 0.  1.
        -11    1    4    4    0    0 -0.25600369930E-01  0.39165329460E-01 -0.33351213266E-01  0.57461870136E-01  0.51100000000E-03 0. -1.
         11    1    4    4    0    0 -0.50198621349E-01  0.45437279109E-01 -0.31287129726E-01  0.74589500103E-01  0.51100000000E-03 0.  1.
</event>
<event>
 8    1  0.1082757E+005  0.1043930E+01  0.7957747E-01            NaN
         13   -1    0    0    0    0  0.00000000000E+00  0.00000000000E+00  0.74505805969E-08  0.10566000000E+00  0.10566000000E+00 0. -1.
     999900   -1    0    0    0    0 -0.00000000000E+00 -0.00000000000E+00 -0.74505805969E-08  0.93827000000E+00  0.93827000000E+00 0.  1.
     999902    2    1    2    0    0 -0.81078531656E-02 -0.18080961297E-01  0.12838818837E-01  0.10203186952E+01  0.10200454628E+01 0.  0.
     999903    2    3    3    0    0 -0.78433508114E-01 -0.89092007136E-01  0.58414174511E-01  0.13348986200E+00  0.17836102250E-01 0.  0.
         14    1    1    2    0    0  0.81078531656E-02  0.18080961297E-01 -0.12838818837E-01  0.23611304782E-01  0.00000000000E+00 0. -1.
     999901    1    3    3    0    0  0.70325654949E-01  0.71011045838E-01 -0.45575355674E-01  0.88682883321E+00  0.88000000000E+00 0.  1.
        -11    1    4    4    0    0 -0.16889313193E-01 -0.96149350495E-02  0.78325676671E-02  0.20959630565E-01  0.51100000000E-03 0. -1.
         11    1    4    4    0    0 -0.61544194921E-01 -0.79477072086E-01  0.50581606844E-01  0.11253023144E+00  0.51100000000E-03 0.  1.
</event>
<event>
 8    1  0.1082757E+005  0.1043930E+01  0.7957747E-01            NaN
         13   -1    0    0    0    0  0.00000000000E+00  0.00000000000E+00  0.74505805969E-08  0.10566000000E+00  0.10566000000E+00 0.  1.
     999900   -1    0    0    0    0 -0.00000000000E+00 -0.00000000000E+00 -0.74505805969E-08  0.93827000000E+00  0.93827000000E+00 0.  1.
     999902    2    1    2    0    0  0.21021396072E-01 -0.79935939438E-02 -0.44589379891E-02  0.10210023144E+01  0.10207448493E+01 0.  0.
     999903    2    3    3    0    0 -0.12561306750E+00  0.11689660237E-01  0.13020724821E-01  0.12848081049E+00  0.20554525200E-01 0.  0.
         14    1    1    2    0    0 -0.21021396072E-01  0.79935939438E-02  0.44589379891E-02  0.22927685555E-01  0.00000000000E+00 0.  1.
     999901    1    3    3    0    0  0.14663446357E+00 -0.19683254180E-01 -0.17479662811E-01  0.89252150395E+00  0.88000000000E+00 0.  1.
        -11    1    4    4    0    0 -0.35132763825E-01 -0.38020259030E-02 -0.22843222089E-02  0.35415332046E-01  0.51100000000E-03 0.  1.
         11    1    4    4    0    0 -0.90480303678E-01  0.15491686140E-01  0.15305047030E-01  0.93065478447E-01  0.51100000000E-03 0. -1.
</event>
<event>
 8    1  0.1082757E+005  0.1043930E+01  0.7957747E-01            NaN
         13   -1    0    0    0    0  0.00000000000E+00  0.00000000000E+00  0.74505805969E-08  0.10566000000E+00  0.10566000000E+00 0.  1.
     999900   -1    0    0    0    0 -0.00000000000E+00 -0.00000000000E+00 -0.74505805969E-08  0.93827000000E+00  0.93827000000E+00 0.  1.
     999902    2    1    2    0    0  0.12213274947E-01 -0.19454664792E-01  0.54082941346E-02  0.10203313197E+01  0.10200583828E+01 0.  0.
     999903    2    3    3    0    0  0.66139947304E-01 -0.60063271813E-01  0.96673992066E-01  0.13303961310E+00  0.19276635133E-01 0.  0.
         14    1    1    2    0    0 -0.12213274947E-01  0.19454664792E-01 -0.54082941346E-02  0.23598680313E-01  0.00000000000E+00 0.  1.
     999901    1    3    3    0    0 -0.53926672357E-01  0.40608607021E-01 -0.91265697931E-01  0.88729170659E+00  0.88000000000E+00 0.  1.
        -11    1    4    4    0    0  0.25584346199E-01 -0.28552001223E-01  0.54204527593E-01  0.66394031937E-01  0.51100000000E-03 0. -1.
         11    1    4    4    0    0  0.40555601105E-01 -0.31511270590E-01  0.42469464473E-01  0.66645581165E-01  0.51100000000E-03 0.  1.
</event>
<event>
 8    1  0.1082757E+005  0.1043930E+01  0.7957747E-01            NaN
         13   -1    0    0    0    0  0.00000000000E+00  0.00000000000E+00  0.74505805969E-08  0.10566000000E+00  0.10566000000E+00 0.  1.
     999900   -1    0    0    0    0 -0.00000000000E+00 -0.00000000000E+00 -0.74505805969E-08  0.93827000000E+00  0.93827000000E+00 0. -1.
     999902    2    1    2    0    0  0.14350755328E-01 -0.13108461245E-01 -0.15613683010E-01  0.10189988341E+01  0.10186938014E+01 0.  0.
     999903    2    3    3    0    0  0.40258196875E-01 -0.85102926192E-01 -0.91091741225E-01  0.13245986951E+00  0.19613292664E-01 0.  0.
         14    1    1    2    0    0 -0.14350755328E-01  0.13108461245E-01  0.15613683010E-01  0.24931165874E-01  0.00000000000E+00 0.  1.
     999901    1    3    3    0    0 -0.25907441547E-01  0.71994464948E-01  0.75478058215E-01  0.88653896462E+00  0.88000000000E+00 0.  1.
        -11    1    4    4    0    0  0.10544236877E-01 -0.43021717688E-01 -0.47776949271E-01  0.65153258757E-01  0.51100000000E-03 0. -1.
         11    1    4    4    0    0  0.29713959998E-01 -0.42081208505E-01 -0.43314791955E-01  0.67306610753E-01  0.51100000000E-03 0.  1.
</event>
<event>
 8    1  0.1082757E+005  0.1043930E+01  0.7957747E-01            NaN
         13   -1    0    0    0    0  0.00000000000E+00  0.00000000000E+00  0.74505805969E-08  0.10566000000E+00  0.10566000000E+00 0. -1.
     999900   -1    0    0    0    0 -0.00000000000E+00 -0.00000000000E+00 -0.74505805969E-08  0.93827000000E+00  0.93827000000E+00 0.  1.
     999902    2    1    2    0    0  0.13544375190E-01 -0.18152754926E-01  0.48636297046E-02  0.10207647781E+01  0.10205018887E+01 0.  0.
     999903    2    3    3    0    0  0.11319434245E+00  0.16194140918E-01 -0.62710916665E-01  0.13190250277E+00  0.19758588156E-01 0.  0.
         14    1    1    2    0    0 -0.13544375190E-01  0.18152754926E-01 -0.48636297046E-02  0.23165221877E-01  0.00000000000E+00 0.  1.
     999901    1    3    3    0    0 -0.99649967257E-01 -0.34346895844E-01  0.67574546370E-01  0.88886227535E+00  0.88000000000E+00 0. -1.
        -11    1    4    4    0    0  0.79092980107E-01  0.27471378503E-02 -0.46745187694E-01  0.91916374831E-01  0.51100000000E-03 0. -1.
         11    1    4    4    0    0  0.34101362341E-01  0.13447003068E-01 -0.15965728971E-01  0.39986127939E-01  0.51100000000E-03 0.  1.
</event>
<event>
 8    1  0.1082757E+005  0.1043930E+01  0.7957747E-01            NaN
         13   -1    0    0    0    0  0.00000000000E+00  0.00000000000E+00  0.74505805969E-08  0.10566000000E+00  0.10566000000E+00 0.  1.
     999900   -1    0    0    0    0 -0.00000000000E+00 -0.00000000000E+00 -0.74505805969E-08  0.93827000000E+00  0.93827000000E+00 0.  1.
     999902    2    1    2    0    0  0.15707383697E-01  0.13718289328E-01 -0.11271143894E-01  0.10202244722E+01  0.10199490289E+01 0.  0.
     999903    2    3    3    0    0 -0.95444465317E-01  0.52855596394E-01  0.65956998635E-01  0.12901706178E+00  0.19791829934E-01 0.  0.
         14    1    1    2    0    0 -0.15707383697E-01 -0.13718289328E-01  0.11271143894E-01  0.23705527823E-01  0.00000000000E+00 0.  1.
     999901    1    3    3    0    0  0.11115184901E+00 -0.39137307066E-01 -0.77228142529E-01  0.89120741039E+00  0.88000000000E+00 0.  1.
        -11    1    4    4    0    0 -0.13705877130E-01  0.46625836683E-02  0.16690100789E-01  0.22100030310E-01  0.51100000000E-03 0.  1.
         11    1    4    4    0    0 -0.81738588188E-01  0.48193012726E-01  0.49266897847E-01  0.10691703147E+00  0.51100000000E-03 0. -1.
</event>
<event>
 8    1  0.1082757E+005  0.1043930E+01  0.7957747E-01            NaN
         13   -1    0    0    0    0  0.00000000000E+00  0.00000000000E+00  0.74505805969E-08  0.10566000000E+00  0.10566000000E+00 0. -1.
     999900   -1    0    0    0    0 -0.00000000000E+00 -0.00000000000E+00 -0.74505805969E-08  0.93827000000E+00  0.93827000000E+00 0.  1.
     999902    2    1    2    0    0  0.90797455344E-02  0.19601720077E-01  0.94060017411E-02  0.10203685468E+01  0.10200964803E+01 0.  0.
     999903    2    3    3    0    0 -0.77235581665E-01  0.10506950906E+00  0.20828054462E-03  0.13197692326E+00  0.20320632008E-01 0.  0.
         14    1    1    2    0    0 -0.90797455344E-02 -0.19601720077E-01 -0.94060017411E-02  0.23561453217E-01  0.00000000000E+00 0.  1.
     999901    1    3    3    0    0  0.86315327199E-01 -0.85467788978E-01  0.91977211964E-02  0.88839162352E+00  0.88000000000E+00 0. -1.
        -11    1    4    4    0    0 -0.56865819849E-01  0.90598627064E-01 -0.66467752264E-03  0.10696978831E+00  0.51100000000E-03 0.  1.
         11    1    4    4    0    0 -0.20369761815E-01  0.14470881992E-01  0.87295806726E-03  0.25007134958E-01  0.51100000000E-03 0. -1.
</event>
<event>
 8    1  0.1082757E+005  0.1043930E+01  0.7957747E-01            NaN
         13   -1    0    0    0    0  0.00000000000E+00  0.00000000000E+00  0.74505805969E-08  0.10566000000E+00  0.10566000000E+00 0. -1.
     999900   -1    0    0    0    0 -0.00000000000E+00 -0.00000000000E+00 -0.74505805969E-08  0.93827000000E+00  0.93827000000E+00 0. -1.
     999902    2    1    2    0    0 -0.24057189003E-02 -0.23145913685E-01  0.55613560470E-02  0.10200040834E+01  0.10197234334E+01 0.  0.
     999903    2    3    3    0    0  0.36423237128E-01  0.11545790249E+00 -0.34323695763E-01  0.12741822029E+00  0.20002682833E-01 0.  0.
         14    1    1    2    0    0  0.24057189003E-02  0.23145913685E-01 -0.55613560470E-02  0.23925916593E-01  0.00000000000E+00 0.  1.
     999901    1    3    3    0    0 -0.38828956029E-01 -0.13860381617E+00  0.39885051810E-01  0.89258586312E+00  0.88000000000E+00 0.  1.
        -11    1    4    4    0    0  0.67052251551E-02  0.26506868424E-01  0.56820587742E-03  0.27352478808E-01  0.51100000000E-03 0.  1.
         11    1    4    4    0    0  0.29718011973E-01  0.88951034064E-01 -0.34891901641E-01  0.10006574148E+00  0.51100000000E-03 0. -1.
</event>
<event>
 8    1  0.1082757E+005  0.1043930E+01  0.7957747E-01            NaN
         13   -1    0    0    0    0  0.00000000000E+00  0.00000000000E+00  0.74505805969E-08  0.10566000000E+00  0.10566000000E+00 0. -1.
     999900   -1    0    0    0    0 -0.00000000000E+00 -0.00000000000E+00 -0.74505805969E-08  0.93827000000E+00  0.93827000000E+00 0. -1.
     999902    2    1    2    0    0 -0.78832836070E-03  0.14045055045E-01 -0.18821821984E-01  0.10204322125E+01  0.10201616315E+01 0.  0.
     999903    2    3    3    0    0 -0.79368291167E-01 -0.61407238642E-01 -0.82498672389E-01  0.13143131239E+00  0.19949544645E-01 0.  0.
         14    1    1    2    0    0  0.78832836070E-03 -0.14045055045E-01  0.18821821984E-01  0.23497787462E-01  0.00000000000E+00 0. -1.
     999901    1    3    3    0    0  0.78579962806E-01  0.75452293687E-01  0.63676850404E-01  0.88900090014E+00  0.88000000000E+00 0. -1.
        -11    1    4    4    0    0 -0.48624400680E-01 -0.48649553309E-01 -0.51313196520E-01  0.85816179341E-01  0.51100000000E-03 0.  1.
         11    1    4    4    0    0 -0.30743890488E-01 -0.12757685333E-01 -0.31185475868E-01  0.45615133053E-01  0.51100000000E-03 0. -1.
</event>
<event>
 8    1  0.1082757E+005  0.1043930E+01  0.7957747E-01            NaN
         13   -1    0    0    0    0  0.00000000000E+00  0.00000000000E+00  0.74505805969E-08  0.10566000000E+00  0.10566000000E+00 0. -1.
     999900   -1    0    0    0    0 -0.00000000000E+00 -0.00000000000E+00 -0.74505805969E-08  0.93827000000E+00  0.93827000000E+00 0.  1.
     999902    2    1    2    0    0 -0.30932717714E-02  0.82637700525E-02 -0.21448964136E-01  0.10207369776E+01  0.10204734495E+01 0.  0.
     999903    2    3    3    0    0 -0.83901581694E-02  0.63438199030E-01 -0.11616812919E+00  0.13392020123E+00  0.18568419636E-01 0.  0.
         14    1    1    2    0    0  0.30932717714E-02 -0.82637700525E-02  0.21448964136E-01  0.23193022404E-01  0.00000000000E+00 0. -1.
     999901    1    3    3    0    0  0.52968863980E-02 -0.55174428977E-01  0.94719165052E-01  0.88681677637E+00  0.88000000000E+00 0. -1.
        -11    1    4    4    0    0 -0.29856249714E-02  0.32095084630E-01 -0.39980684160E-01  0.51358783482E-01  0.51100000000E-03 0. -1.
         11    1    4    4    0    0 -0.54045331980E-02  0.31343114399E-01 -0.76187445028E-01  0.82561417746E-01  0.51100000000E-03 0.  1.
</event>
<event>
 8    1  0.1082757E+005  0.1043930E+01  0.7957747E-01            NaN
         13   -1    0    0    0    0  0.00000000000E+00  0.00000000000E+00  0.74505805969E-08  0.10566000000E+00  0.10566000000E+00 0.  1.
     999900   -1    0    0    0    0 -0.00000000000E+00 -0.00000000000E+00 -0.74505805969E-08  0.93827000000E+00  0.93827000000E+00 0.  1.
     999902    2    1    2    0    0  0.47926820955E-02  0.18699834862E-01  0.14800966638E-01  0.10196046585E+01  0.10193144448E+01 0.  0.
     999903    2    3    3    0    0  0.90304229111E-01 -0.72851117752E-01  0.54859921287E-01  0.12983023684E+00  0.19599496968E-01 0.  0.
         14    1    1    2    0    0 -0.47926820955E-02 -0.18699834862E-01 -0.14800966638E-01  0.24325341497E-01  0.00000000000E+00 0. -1.
     999901    1    3    3    0    0 -0.85511547015E-01  0.91550952614E-01 -0.40058954648E-01  0.88977442166E+00  0.88000000000E+00 0. -1.
        -11    1    4    4    0    0  0.68175097382E-01 -0.60981638225E-01  0.35498484441E-01  0.98117315608E-01  0.51100000000E-03 0. -1.
         11    1    4    4    0    0  0.22129131729E-01 -0.11869479527E-01  0.19361436846E-01  0.31712921232E-01  0.51100000000E-03 0.  1.
</event>
<event>
 8    1  0.1364007E+005  0.1043930E+01  0.7957747E-01            NaN
         13   -1    0    0    0    0  0.00000000000E+00  0.00000000000E+00  0.74505805969E-08  0.10566000000E+00  0.10566000000E+00 0. -1.
     999900   -1    0    0    0    0 -0.00000000000E+00 -0.00000000000E+00 -0.74505805969E-08  0.93827000000E+00  0.93827000000E+00 0.  1.
     999902    2    1    2    0    0  0.37300793033E-02  0.17185431280E-02 -0.23179476925E-01  0.10203895023E+01  0.10201179252E+01 0.  0.
     999903    2    3    3    0    0 -0.12217253779E+00  0.12117932703E-02 -0.36889489482E-01  0.13132274988E+00  0.30939178529E-01 0.  0.
         14    1    1    2    0    0 -0.37300793033E-02 -0.17185431280E-02  0.23179476925E-01  0.23540497714E-01  0.00000000000E+00 0. -1.
     999901    1    3    3    0    0  0.12590261710E+00  0.50674985769E-03  0.13710012556E-01  0.88906675240E+00  0.88000000000E+00 0. -1.
        -11    1    4    4    0    0 -0.73809078684E-01  0.55044482111E-02 -0.70972447626E-02  0.74355302773E-01  0.51100000000E-03 0. -1.
         11    1    4    4    0    0 -0.48363459110E-01 -0.42926549408E-02 -0.29792244719E-01  0.56967447108E-01  0.51100000000E-03 0.  1.
</event>
<event>
 8    1  0.1082757E+005  0.1043930E+01  0.7957747E-01            NaN
         13   -1    0    0    0    0  0.00000000000E+00  0.00000000000E+00  0.74505805969E-08  0.10566000000E+00  0.10566000000E+00 0. -1.
     999900   -1    0    0    0    0 -0.00000000000E+00 -0.00000000000E+00 -0.74505805969E-08  0.93827000000E+00  0.93827000000E+00 0. -1.
     999902    2    1    2    0    0  0.11359487935E-01  0.15703944736E-01 -0.12221903965E-01  0.10210165371E+01  0.10207593949E+01 0.  0.
     999903    2    3    3    0    0  0.11291215352E-01  0.13101024862E+00  0.77326450560E-02  0.13327010233E+00  0.20247211860E-01 0.  0.
         14    1    1    2    0    0 -0.11359487935E-01 -0.15703944736E-01  0.12221903965E-01  0.22913462919E-01  0.00000000000E+00 0. -1.
     999901    1    3    3    0    0  0.68272582677E-04 -0.11530630389E+00 -0.19954549021E-01  0.88774643475E+00  0.88000000000E+00 0. -1.
        -11    1    4    4    0    0  0.69199384359E-02  0.58148550394E-01 -0.64344195201E-02  0.58913515737E-01  0.51100000000E-03 0.  1.
         11    1    4    4    0    0  0.43712769161E-02  0.72861698230E-01  0.14167064576E-01  0.74356586598E-01  0.51100000000E-03 0. -1.
</event>
<event>
 8    1  0.1082757E+005  0.1043930E+01  0.7957747E-01            NaN
         13   -1    0    0    0    0  0.00000000000E+00  0.00000000000E+00  0.74505805969E-08  0.10566000000E+00  0.10566000000E+00 0. -1.
     999900   -1    0    0    0    0 -0.00000000000E+00 -0.00000000000E+00 -0.74505805969E-08  0.93827000000E+00  0.93827000000E+00 0. -1.
     999902    2    1    2    0    0 -0.36640934361E-02  0.13437029087E-01 -0.20419608049E-01  0.10192128051E+01  0.10189130494E+01 0.  0.
     999903    2    3    3    0    0  0.87721890556E-01  0.74194168018E-01  0.55343006650E-01  0.12916628845E+00  0.20522598162E-01 0.  0.
         14    1    1    2    0    0  0.36640934361E-02 -0.13437029087E-01  0.20419608049E-01  0.24717194911E-01  0.00000000000E+00 0. -1.
     999901    1    3    3    0    0 -0.91385983992E-01 -0.60757138931E-01 -0.75762614699E-01  0.89004651664E+00  0.88000000000E+00 0. -1.
        -11    1    4    4    0    0  0.44492777573E-01  0.43813041451E-01  0.19896979936E-01  0.65538849463E-01  0.51100000000E-03 0.  1.
         11    1    4    4    0    0  0.43229112983E-01  0.30381126567E-01  0.35446026714E-01  0.63627438983E-01  0.51100000000E-03 0. -1.
</event>
<event>
 8    1  0.1082757E+005  0.1043930E+01  0.7957747E-01            NaN
         13   -1    0    0    0    0  0.00000000000E+00  0.00000000000E+00  0.74505805969E-08  0.10566000000E+00  0.10566000000E+00 0.  1.
     999900   -1    0    0    0    0 -0.00000000000E+00 -0.00000000000E+00 -0.74505805969E-08  0.93827000000E+00  0.93827000000E+00 0.  1.
     999902    2    1    2    0    0  0.21815024276E-01 -0.52601708911E-02  0.81828175439E-02  0.10200443728E+01  0.10197646784E+01 0.  0.
     999903    2    3    3    0    0 -0.20451457882E-01 -0.98628391500E-01  0.81834556715E-01  0.13104006530E+00  0.18132355121E-01 0.  0.
         14    1    1    2    0    0 -0.21815024276E-01  0.52601708911E-02 -0.81828175439E-02  0.23885627162E-01  0.00000000000E+00 0.  1.
     999901    1    3    3    0    0  0.42266482158E-01  0.93368220609E-01 -0.73651739171E-01  0.88900430754E+00  0.88000000000E+00 0. -1.
        -11    1    4    4    0    0 -0.18822787647E-01 -0.53033762120E-01  0.39110035419E-01  0.68532716646E-01  0.51100000000E-03 0.  1.
         11    1    4    4    0    0 -0.16286702349E-02 -0.45594629380E-01  0.42724521296E-01  0.62507348656E-01  0.51100000000E-03 0. -1.
</event>
<event>
 8    1  0.1082757E+005  0.1043930E+01  0.7957747E-01            NaN
         13   -1    0    0    0    0  0.00000000000E+00  0.00000000000E+00  0.74505805969E-08  0.10566000000E+00  0.10566000000E+00 0. -1.
     999900   -1    0    0    0    0 -0.00000000000E+00 -0.00000000000E+00 -0.74505805969E-08  0.93827000000E+00  0.93827000000E+00 0.  1.
     999902    2    1    2    0    0 -0.14626563040E-01  0.14013864881E-03 -0.19345270887E-01  0.10196772581E+01  0.10193887949E+01 0.  0.
     999903    2    3    3    0    0 -0.12827517659E+00  0.21439942450E-01 -0.12537130987E-01  0.13208724023E+00  0.19382139107E-01 0.  0.
         14    1    1    2    0    0  0.14626563040E-01 -0.14013864881E-03  0.19345270887E-01  0.24252741925E-01  0.00000000000E+00 0. -1.
     999901    1    3    3    0    0  0.11364861355E+00 -0.21299803801E-01 -0.68081398999E-02  0.88759001784E+00  0.88000000000E+00 0. -1.
        -11    1    4    4    0    0 -0.35537999142E-01 -0.17099325904E-02  0.70654079816E-03  0.35589795916E-01  0.51100000000E-03 0.  1.
         11    1    4    4    0    0 -0.92737177452E-01  0.23149875040E-01 -0.13243671785E-01  0.96497444316E-01  0.51100000000E-03 0. -1.
</event>
<event>
 8    1  0.1082757E+005  0.1043930E+01  0.7957747E-01            NaN
         13   -1    0    0    0    0  0.00000000000E+00  0.00000000000E+00  0.74505805969E-08  0.10566000000E+00  0.10566000000E+00 0.  1.
     999900   -1    0    0    0    0 -0.00000000000E+00 -0.00000000000E+00 -0.74505805969E-08  0.93827000000E+00  0.93827000000E+00 0. -1.
     999902    2    1    2    0    0  0.90498795242E-02 -0.11078187932E-01  0.18930950693E-01  0.10202022217E+01  0.10199262551E+01 0.  0.
     999903    2    3    3    0    0 -0.11062838015E+00  0.26411228486E-01 -0.55097698308E-01  0.12823328559E+00  0.21721594985E-01 0.  0.
         14    1    1    2    0    0 -0.90498795242E-02  0.11078187932E-01 -0.18930950693E-01  0.23727778265E-01  0.00000000000E+00 0. -1.
     999901    1    3    3    0    0  0.11967825967E+00 -0.37489416418E-01  0.74028649001E-01  0.89196893615E+00  0.88000000000E+00 0.  1.
        -11    1    4    4    0    0 -0.10411381347E-01  0.41653869329E-02 -0.13270859667E-01  0.17381718763E-01  0.51100000000E-03 0.  1.
         11    1    4    4    0    0 -0.10021699880E+00  0.22245841553E-01 -0.41826838641E-01  0.11085156682E+00  0.51100000000E-03 0. -1.
</event>
<event>
 8    1  0.1082757E+005  0.1043930E+01  0.7957747E-01            NaN
         13   -1    0    0    0    0  0.00000000000E+00  0.00000000000E+00  0.74505805969E-08  0.10566000000E+00  0.10566000000E+00 0.  1.
     999900   -1    0    0    0    0 -0.00000000000E+00 -0.00000000000E+00 -0.74505805969E-08  0.93827000000E+00  0.93827000000E+00 0. -1.
     999902    2    1    2    0    0 -0.25205013748E-01  0.49632778380E-02 -0.75563124117E-02  0.10171526831E+01  0.10168001554E+01 0.  0.
     999903    2    3    3    0    0 -0.32023952972E-03 -0.91791535605E-01  0.85017682429E-01  0.12667489534E+00  0.19817523098E-01 0.  0.
         14    1    1    2    0    0  0.25205013748E-01 -0.49632778380E-02  0.75563124117E-02  0.26777316934E-01  0.00000000000E+00 0.  1.
     999901    1    3    3    0    0 -0.24884774218E-01  0.96754813443E-01 -0.92573994841E-01  0.89047778773E+00  0.88000000000E+00 0. -1.
        -11    1    4    4    0    0 -0.79099892522E-02 -0.27305885561E-01  0.19825877903E-01  0.34662744725E-01  0.51100000000E-03 0. -1.
         11    1    4    4    0    0  0.75897497225E-02 -0.64485650043E-01  0.65191804527E-01  0.92012150615E-01  0.51100000000E-03 0.  1.
</event>
<event>
 8    1  0.1082757E+005  0.1043930E+01  0.7957747E-01            NaN
         13   -1    0    0    0    0  0.00000000000E+00  0.00000000000E+00  0.74505805969E-08  0.10566000000E+00  0.10566000000E+00 0. -1.
     999900   -1    0    0    0    0 -0.00000000000E+00 -0.00000000000E+00 -0.74505805969E-08  0.93827000000E+00  0.93827000000E+00 0. -1.
     999902    2    1    2    0    0 -0.14226863115E-01 -0.13532680921E-01 -0.13710528181E-01  0.10199818128E+01  0.10197006339E+01 0.  0.
     999903    2    3    3    0    0 -0.48420649015E-01  0.43375720900E-01  0.10928606707E+00  0.12895098077E+00  0.21421918035E-01 0.  0.
         14    1    1    2    0    0  0.14226863115E-01  0.13532680921E-01  0.13710528181E-01  0.23948187197E-01  0.00000000000E+00 0. -1.
     999901    1    3    3    0    0  0.34193785900E-01 -0.56908401821E-01 -0.12299659525E+00  0.89103083203E+00  0.88000000000E+00 0. -1.
        -11    1    4    4    0    0 -0.20989268976E-01  0.30726212492E-01  0.71182670942E-01  0.80323616139E-01  0.51100000000E-03 0.  1.
         11    1    4    4    0    0 -0.27431380039E-01  0.12649508408E-01  0.38103396124E-01  0.48627364631E-01  0.51100000000E-03 0. -1.
</event>
<event>
 8    1  0.1082757E+005  0.1043930E+01  0.7957747E-01            NaN
         13   -1    0    0    0    0  0.00000000000E+00  0.00000000000E+00  0.74505805969E-08  0.10566000000E+00  0.10566000000E+00 0. -1.
     999900   -1    0    0    0    0 -0.00000000000E+00 -0.00000000000E+00 -0.74505805969E-08  0.93827000000E+00  0.93827000000E+00 0. -1.
     999902    2    1    2    0    0 -0.28690047171E-02  0.22787242264E-01 -0.19984958026E-02  0.10208760723E+01  0.10206157315E+01 0.  0.
     999903    2    3    3    0    0 -0.68963337633E-01  0.96517476051E-01  0.57579559266E-01  0.13332091745E+00  0.19684924755E-01 0.  0.
         14    1    1    2    0    0  0.28690047171E-02 -0.22787242264E-01  0.19984958026E-02  0.23053927725E-01  0.00000000000E+00 0.  1.
     999901    1    3    3    0    0  0.66094332916E-01 -0.73730233787E-01 -0.59578055068E-01  0.88755515483E+00  0.88000000000E+00 0. -1.
        -11    1    4    4    0    0 -0.41297883913E-01  0.64439223396E-01  0.27353034627E-01  0.81279630608E-01  0.51100000000E-03 0. -1.
         11    1    4    4    0    0 -0.27665453721E-01  0.32078252656E-01  0.30226524639E-01  0.52041286838E-01  0.51100000000E-03 0.  1.
</event>
<event>
 8    1  0.1082757E+005  0.1043930E+01  0.7957747E-01            NaN
         13   -1    0    0    0    0  0.00000000000E+00  0.00000000000E+00  0.74505805969E-08  0.10566000000E+00  0.10566000000E+00 0. -1.
     999900   -1    0    0    0    0 -0.00000000000E+00 -0.00000000000E+00 -0.74505805969E-08  0.93827000000E+00  0.93827000000E+00 0.  1.
     999902    2    1    2    0    0 -0.37849381860E-02 -0.59112123250E-02  0.29431515690E-01  0.10136730619E+01  0.10132213944E+01 0.  0.
     999903    2    3    3    0    0 -0.12232388028E+00  0.10296126335E-01  0.17366565103E-01  0.12549530848E+00  0.19450783072E-01 0.  0.
         14    1    1    2    0    0  0.37849381860E-02  0.59112123250E-02 -0.29431515690E-01  0.30256938114E-01  0.00000000000E+00 0.  1.
     999901    1    3    3    0    0  0.11853894209E+00 -0.16207338660E-01  0.12064950587E-01  0.88817775341E+00  0.88000000000E+00 0.  1.
        -11    1    4    4    0    0 -0.81630029744E-01  0.15962634787E-01  0.12696082122E-01  0.84141066594E-01  0.51100000000E-03 0. -1.
         11    1    4    4    0    0 -0.40693850535E-01 -0.56665084516E-02  0.46704829811E-02  0.41354241882E-01  0.51100000000E-03 0.  1.
</event>
<event>
 8    1  0.1082757E+005  0.1043930E+01  0.7957747E-01            NaN
         13   -1    0    0    0    0  0.00000000000E+00  0.00000000000E+00  0.74505805969E-08  0.10566000000E+00  0.10566000000E+00 0.  1.
     999900   -1    0    0    0    0 -0.00000000000E+00 -0.00000000000E+00 -0.74505805969E-08  0.93827000000E+00  0.93827000000E+00 0.  1.
     999902    2    1    2    0    0 -0.10659494969E-01  0.12055287754E-01  0.16242757163E-01  0.10210655744E+01  0.10208095441E+01 0.  0.
     999903    2    3    3    0    0  0.87066219176E-01 -0.12349847660E-01 -0.91264691495E-01  0.12881909652E+00  0.23066652486E-01 0.  0.
         14    1    1    2    0    0  0.10659494969E-01 -0.12055287754E-01 -0.16242757163E-01  0.22864425558E-01  0.00000000000E+00 0. -1.
     999901    1    3    3    0    0 -0.97725714145E-01  0.24405135414E-01  0.10750744866E+00  0.89224647792E+00  0.88000000000E+00 0. -1.
        -11    1    4    4    0    0  0.65596465079E-01 -0.45722635005E-02 -0.53895369556E-01  0.85022195955E-01  0.51100000000E-03 0. -1.
         11    1    4    4    0    0  0.21469754097E-01 -0.77775841594E-02 -0.37369321939E-01  0.43796900570E-01  0.51100000000E-03 0.  1.
</event>
<event>
 8    1  0.1082757E+005  0.1043930E+01  0.7957747E-01            NaN
         13   -1    0    0    0    0  0.00000000000E+00  0.00000000000E+00  0.74505805969E-08  0.10566000000E+00  0.10566000000E+00 0. -1.
     999900   -1    0    0    0    0 -0.00000000000E+00 -0.00000000000E+00 -0.74505805969E-08  0.93827000000E+00  0.93827000000E+00 0. -1.
     999902    2    1    2    0    0 -0.16851617587E-01 -0.10796010250E-01 -0.12562799651E-01  0.10203004679E+01  0.10200268085E+01 0.  0.
     999903    2    3    3    0    0 -0.12489263126E+00  0.28714361905E-02 -0.41251407964E-01  0.13312365576E+00  0.20342432894E-01 0.  0.
         14    1    1    2    0    0  0.16851617587E-01  0.10796010250E-01  0.12562799651E-01  0.23629532109E-01  0.00000000000E+00 0. -1.
     999901    1    3    3    0    0  0.10804101367E+00 -0.13667446440E-01  0.28688608314E-01  0.88717681213E+00  0.88000000000E+00 0. -1.
        -11    1    4    4    0    0 -0.31968996989E-01 -0.75818595440E-02 -0.74734492373E-02  0.33698886141E-01  0.51100000000E-03 0. -1.
         11    1    4    4    0    0 -0.92923634272E-01  0.10453295734E-01 -0.33777958727E-01  0.99424769624E-01  0.51100000000E-03 0.  1.
</event>
<event>
 8    1  0.1082757E+005  0.1043930E+01  0.7957747E-01            NaN
         13   -1    0    0    0    0  0.00000000000E+00  0.00000000000E+00  0.74505805969E-08  0.10566000000E+00  0.10566000000E+00 0. -1.
     999900   -1    0    0    0    0 -0.00000000000E+00 -0.00000000000E+00 -0.74505805969E-08  0.93827000000E+00  0.93827000000E+00 0. -1.
     999902    2    1    2    0    0  0.16108852445E-01  0.13977256517E-01  0.39635360268E-02  0.10222374104E+01  0.10220072185E+01 0.  0.
     999903    2    3    3    0    0  0.20786691329E-01 -0.12098577786E+00  0.41544538573E-01  0.13114300764E+00  0.20072239248E-01 0.  0.
         14    1    1    2    0    0 -0.16108852445E-01 -0.13977256517E-01 -0.39635360268E-02  0.21692589625E-01  0.00000000000E+00 0. -1.
     999901    1    3    3    0    0 -0.46778388846E-02  0.13496303438E+00 -0.37581002546E-01  0.89109440273E+00  0.88000000000E+00 0. -1.
        -11    1    4    4    0    0  0.79348218062E-02 -0.93919129602E-01  0.28591726634E-01  0.98496255031E-01  0.51100000000E-03 0. -1.
         11    1    4    4    0    0  0.12851869523E-01 -0.27066648257E-01  0.12952811939E-01  0.32646752614E-01  0.51100000000E-03 0.  1.
</event>
<event>
 8    1  0.1082757E+005  0.1043930E+01  0.7957747E-01            NaN
         13   -1    0    0    0    0  0.00000000000E+00  0.00000000000E+00  0.74505805969E-08  0.10566000000E+00  0.10566000000E+00 0. -1.
     999900   -1    0    0    0    0 -0.00000000000E+00 -0.00000000000E+00 -0.74505805969E-08  0.93827000000E+00  0.93827000000E+00 0. -1.
     999902    2    1    2    0    0  0.13975488443E-02 -0.22278120212E-01 -0.52739843062E-02  0.10209935074E+01  0.10207358421E+01 0.  0.
     999903    2    3    3    0    0  0.12804660095E+00  0.14647041895E-01  0.12464327130E-01  0.13098334020E+00  0.19768867142E-01 0.  0.
         14    1    1    2    0    0 -0.13975488443E-02  0.22278120212E-01  0.52739843062E-02  0.22936492613E-01  0.00000000000E+00 0. -1.
     999901    1    3    3    0    0 -0.12664905211E+00 -0.36925162107E-01 -0.17738311436E-01  0.89001016718E+00  0.88000000000E+00 0. -1.
        -11    1    4    4    0    0  0.10842408946E+00  0.81248958857E-02  0.16306217346E-01  0.10994521796E+00  0.51100000000E-03 0. -1.
         11    1    4    4    0    0  0.19622511496E-01  0.65221460092E-02 -0.38418902157E-02  0.21038122241E-01  0.51100000000E-03 0.  1.
</event>
<event>
 8    1  0.1082757E+005  0.1043930E+01  0.7957747E-01            NaN
         13   -1    0    0    0    0  0.00000000000E+00  0.00000000000E+00  0.74505805969E-08  0.10566000000E+00  0.10566000000E+00 0. -1.
     999900   -1    0    0    0    0 -0.00000000000E+00 -0.00000000000E+00 -0.74505805969E-08  0.93827000000E+00  0.93827000000E+00 0. -1.
     999902    2    1    2    0    0  0.13170877234E-01 -0.10041334268E-01 -0.16926073914E-01  0.10202489447E+01  0.10199740765E+01 0.  0.
     999903    2    3    3    0    0  0.44630351713E-01 -0.22690542538E-01  0.11756253811E+00  0.12938594304E+00  0.20323456246E-01 0.  0.
         14    1    1    2    0    0 -0.13170877234E-01  0.10041334268E-01  0.16926073914E-01  0.23681055279E-01  0.00000000000E+00 0. -1.
     999901    1    3    3    0    0 -0.31459474479E-01  0.12649208270E-01 -0.13448861203E+00  0.89086300168E+00  0.88000000000E+00 0. -1.
        -11    1    4    4    0    0  0.43046256241E-02  0.26540225827E-02  0.48642635687E-02  0.70353264814E-02  0.51100000000E-03 0. -1.
         11    1    4    4    0    0  0.40325726089E-01 -0.25344565120E-01  0.11269827454E+00  0.12235061656E+00  0.51100000000E-03 0.  1.
</event>
<event>
 8    1  0.1082757E+005  0.1043930E+01  0.7957747E-01            NaN
         13   -1    0    0    0    0  0.00000000000E+00  0.00000000000E+00  0.74505805969E-08  0.10566000000E+00  0.10566000000E+00 0. -1.
     999900   -1    0    0    0    0 -0.00000000000E+00 -0.00000000000E+00 -0.74505805969E-08  0.93827000000E+00  0.93827000000E+00 0.  1.
     999902    2    1    2    0    0 -0.62837545957E-02  0.11924703580E-01  0.19419057609E-01  0.10202913891E+01  0.10200175169E+01 0.  0.
     999903    2    3    3    0    0 -0.73469672407E-01 -0.58786991317E-01 -0.85577508508E-01  0.12869822501E+00  0.19647392846E-01 0.  0.
         14    1    1    2    0    0  0.62837545957E-02 -0.11924703580E-01 -0.19419057609E-01  0.23638610909E-01  0.00000000000E+00 0.  1.
     999901    1    3    3    0    0  0.67185917811E-01  0.70711694897E-01  0.10499656612E+00  0.89159316409E+00  0.88000000000E+00 0. -1.
        -11    1    4    4    0    0 -0.18951901622E-01 -0.27069623730E-01 -0.29314355877E-01  0.44176143850E-01  0.51100000000E-03 0.  1.
         11    1    4    4    0    0 -0.54517770785E-01 -0.31717367588E-01 -0.56263152631E-01  0.84522081157E-01  0.51100000000E-03 0. -1.
</event>
<event>
 8    1  0.1082757E+005  0.1043930E+01  0.7957747E-01            NaN
         13   -1    0    0    0    0  0.00000000000E+00  0.00000000000E+00  0.74505805969E-08  0.10566000000E+00  0.10566000000E+00 0.  1.
     999900   -1    0    0    0    0 -0.00000000000E+00 -0.00000000000E+00 -0.74505805969E-08  0.93827000000E+00  0.93827000000E+00 0. -1.
     999902    2    1    2    0    0 -0.21644659344E-01 -0.51248567341E-02 -0.65474550466E-02  0.10207432667E+01  0.10204798831E+01 0.  0.
     999903    2    3    3    0    0 -0.10933486785E+00 -0.66867541880E-01 -0.32819962795E-01  0.13384306006E+00  0.20283818269E-01 0.  0.
         14    1    1    2    0    0  0.21644659344E-01  0.51248567341E-02  0.65474550466E-02  0.23186733324E-01  0.00000000000E+00 0. -1.
     999901    1    3    3    0    0  0.87690208503E-01  0.61742685146E-01  0.26272507749E-01  0.88690020662E+00  0.88000000000E+00 0. -1.
        -11    1    4    4    0    0 -0.49868695616E-01 -0.29160823095E-01 -0.44990299076E-02  0.57946033489E-01  0.51100000000E-03 0.  1.
         11    1    4    4    0    0 -0.59466172231E-01 -0.37706718785E-01 -0.28320932888E-01  0.75897026569E-01  0.51100000000E-03 0. -1.
</event>
<event>
 8    1  0.1082757E+005  0.1043930E+01  0.7957747E-01            NaN
         13   -1    0    0    0    0  0.00000000000E+00  0.00000000000E+00  0.74505805969E-08  0.10566000000E+00  0.10566000000E+00 0. -1.
     999900   -1    0    0    0    0 -0.00000000000E+00 -0.00000000000E+00 -0.74505805969E-08  0.93827000000E+00  0.93827000000E+00 0.  1.
     999902    2    1    2    0    0  0.17706680996E-01  0.15821427813E-01 -0.27337027983E-02  0.10200277562E+01  0.10197476678E+01 0.  0.
     999903    2    3    3    0    0 -0.10754270416E+00 -0.59727539198E-01  0.26786840042E-01  0.12746598387E+00  0.19930631851E-01 0.  0.
         14    1    1    2    0    0 -0.17706680996E-01 -0.15821427813E-01  0.27337027983E-02  0.23902243847E-01  0.00000000000E+00 0. -1.
     999901    1    3    3    0    0  0.12524938516E+00  0.75548967011E-01 -0.29520542840E-01  0.89256177229E+00  0.88000000000E+00 0.  1.
        -11    1    4    4    0    0 -0.58099344405E-01 -0.40310942700E-01  0.82160567086E-02  0.71191787662E-01  0.51100000000E-03 0. -1.
         11    1    4    4    0    0 -0.49443359759E-01 -0.19416596499E-01  0.18570783333E-01  0.56274196205E-01  0.51100000000E-03 0.  1.
</event>
<event>
 8    1  0.1082757E+005  0.1043930E+01  0.7957747E-01            NaN
         13   -1    0    0    0    0  0.00000000000E+00  0.00000000000E+00  0.74505805969E-08  0.10566000000E+00  0.10566000000E+00 0. -1.
     999900   -1    0    0    0    0 -0.00000000000E+00 -0.00000000000E+00 -0.74505805969E-08  0.93827000000E+00  0.93827000000E+00 0. -1.
     999902    2    1    2    0    0  0.17061842070E-01 -0.17043117442E-01  0.10129874683E-01  0.10177729996E+01  0.10174368237E+01 0.  0.
     999903    2    3    3    0    0 -0.10054848189E+00  0.34025734340E-02 -0.73021838620E-01  0.12582881865E+00  0.19471208749E-01 0.  0.
         14    1    1    2    0    0 -0.17061842070E-01  0.17043117442E-01 -0.10129874683E-01  0.26157000364E-01  0.00000000000E+00 0.  1.
     999901    1    3    3    0    0  0.11761032396E+00 -0.20445690876E-01  0.83151713302E-01  0.89194418099E+00  0.88000000000E+00 0.  1.
        -11    1    4    4    0    0 -0.60907200557E-01  0.23502606241E-02 -0.55632266976E-01  0.82525275247E-01  0.51100000000E-03 0. -1.
         11    1    4    4    0    0 -0.39641281333E-01  0.10523128099E-02 -0.17389571643E-01  0.43303543399E-01  0.51100000000E-03 0.  1.
</event>
<event>
 8    1  0.1082757E+005  0.1043930E+01  0.7957747E-01            NaN
         13   -1    0    0    0    0  0.00000000000E+00  0.00000000000E+00  0.74505805969E-08  0.10566000000E+00  0.10566000000E+00 0. -1.
     999900   -1    0    0    0    0 -0.00000000000E+00 -0.00000000000E+00 -0.74505805969E-08  0.93827000000E+00  0.93827000000E+00 0. -1.
     999902    2    1    2    0    0 -0.13856407375E-01 -0.28209588324E-02 -0.17957665809E-01  0.10210731499E+01  0.10208172911E+01 0.  0.
     999903    2    3    3    0    0  0.25944586244E-01 -0.10787425876E+00 -0.69386144219E-01  0.13244206600E+00  0.20408002815E-01 0.  0.
         14    1    1    2    0    0  0.13856407375E-01  0.28209588324E-02  0.17957665809E-01  0.22856850075E-01  0.00000000000E+00 0. -1.
     999901    1    3    3    0    0 -0.39800993619E-01  0.10505329993E+00  0.51428478410E-01  0.88863108392E+00  0.88000000000E+00 0.  1.
        -11    1    4    4    0    0  0.14612777791E-01 -0.46729864793E-01 -0.41926355146E-01  0.64461569289E-01  0.51100000000E-03 0.  1.
         11    1    4    4    0    0  0.11331808453E-01 -0.61144393969E-01 -0.27459789072E-01  0.67980496714E-01  0.51100000000E-03 0. -1.
</event>
<event>
 8    1  0.1082757E+005  0.1043930E+01  0.7957747E-01            NaN
         13   -1    0    0    0    0  0.00000000000E+00  0.00000000000E+00  0.74505805969E-08  0.10566000000E+00  0.10566000000E+00 0.  1.
     999900   -1    0    0    0    0 -0.00000000000E+00 -0.00000000000E+00 -0.74505805969E-08  0.93827000000E+00  0.93827000000E+00 0.  1.
     999902    2    1    2    0    0  0.19321135912E-01 -0.12910718697E-01 -0.37003747677E-02  0.10203994725E+01  0.10201281281E+01 0.  0.
     999903    2    3    3    0    0  0.52308159304E-01  0.97721137327E-01  0.65771423259E-01  0.13014451915E+00  0.18059666008E-01 0.  0.
         14    1    1    2    0    0 -0.19321135912E-01  0.12910718697E-01  0.37003747677E-02  0.23530527482E-01  0.00000000000E+00 0.  1.
     999901    1    3    3    0    0 -0.32987023392E-01 -0.11063185602E+00 -0.69471798027E-01  0.89025495337E+00  0.88000000000E+00 0.  1.
        -11    1    4    4    0    0  0.38906472437E-01  0.83131874927E-01  0.48270249849E-01  0.10370583575E+00  0.51100000000E-03 0. -1.
         11    1    4    4    0    0  0.13401686867E-01  0.14589262401E-01  0.17501173410E-01  0.26438683401E-01  0.51100000000E-03 0.  1.
</event>
<event>
 8    1  0.1082757E+005  0.1043930E+01  0.7957747E-01            NaN
         13   -1    0    0    0    0  0.00000000000E+00  0.00000000000E+00  0.74505805969E-08  0.10566000000E+00  0.10566000000E+00 0.  1.
     999900   -1    0    0    0    0 -0.00000000000E+00 -0.00000000000E+00 -0.74505805969E-08  0.93827000000E+00  0.93827000000E+00 0. -1.
     999902    2    1    2    0    0  0.81123081989E-02 -0.18998510942E-01 -0.12012725858E-01  0.10200331687E+01  0.10197532088E+01 0.  0.
     999903    2    3    3    0    0 -0.11544067896E+00 -0.72654090259E-02 -0.56394065038E-01  0.13021705874E+00  0.19921227104E-01 0.  0.
         14    1    1    2    0    0 -0.81123081989E-02  0.18998510942E-01  0.12012725858E-01  0.23896831273E-01  0.00000000000E+00 0.  1.
     999901    1    3    3    0    0  0.12355298716E+00 -0.11733101916E-01  0.44381339180E-01  0.88981610998E+00  0.88000000000E+00 0. -1.
        -11    1    4    4    0    0 -0.85986589059E-01 -0.13841629356E-01 -0.44129100386E-01  0.97636687895E-01  0.51100000000E-03 0.  1.
         11    1    4    4    0    0 -0.29454089902E-01  0.65762203305E-02 -0.12264964652E-01  0.32580370850E-01  0.51100000000E-03 0. -1.
</event>
<event>
 8    1  0.1082757E+005  0.1043930E+01  0.7957747E-01            NaN
         13   -1    0    0    0    0  0.00000000000E+00  0.00000000000E+00  0.74505805969E-08  0.10566000000E+00  0.10566000000E+00 0. -1.
     999900   -1    0    0    0    0 -0.00000000000E+00 -0.00000000000E+00 -0.74505805969E-08  0.93827000000E+00  0.93827000000E+00 0.  1.
     999902    2    1    2    0    0  0.95990016377E-02  0.12154457243E-02 -0.24215216845E-01  0.10178532888E+01  0.10175192001E+01 0.  0.
     999903    2    3    3    0    0  0.70793178607E-01 -0.77509519312E-02 -0.10890658251E+00  0.13162659601E+00  0.19828405597E-01 0.  0.
         14    1    1    2    0    0 -0.95990016377E-02 -0.12154457243E-02  0.24215216845E-01  0.26076711211E-01  0.00000000000E+00 0. -1.
     999901    1    3    3    0    0 -0.61194176969E-01  0.89663976556E-02  0.84691365668E-01  0.88622669278E+00  0.88000000000E+00 0. -1.
        -11    1    4    4    0    0  0.61031373275E-01 -0.13472720851E-01 -0.89686226638E-01  0.10931707598E+00  0.51100000000E-03 0.  1.
         11    1    4    4    0    0  0.97618053311E-02  0.57217689198E-02 -0.19220355875E-01  0.22309520027E-01  0.51100000000E-03 0. -1.
</event>
<event>
 8    1  0.1082757E+005  0.1043930E+01  0.7957747E-01            NaN
         13   -1    0    0    0    0  0.00000000000E+00  0.00000000000E+00  0.74505805969E-08  0.10566000000E+00  0.10566000000E+00 0.  1.
     999900   -1    0    0    0    0 -0.00000000000E+00 -0.00000000000E+00 -0.74505805969E-08  0.93827000000E+00  0.93827000000E+00 0.  1.
     999902    2    1    2    0    0  0.13291611355E-01  0.21017916506E-01 -0.46307924589E-02  0.10186344671E+01  0.10183203394E+01 0.  0.
     999903    2    3    3    0    0 -0.50188890238E-01  0.10245113863E+00 -0.60929087010E-01  0.13081092509E+00  0.19595508884E-01 0.  0.
         14    1    1    2    0    0 -0.13291611355E-01 -0.21017916506E-01  0.46307924589E-02  0.25295532915E-01  0.00000000000E+00 0.  1.
     999901    1    3    3    0    0  0.63480501594E-01 -0.81433222129E-01  0.56298294551E-01  0.88782354199E+00  0.88000000000E+00 0. -1.
        -11    1    4    4    0    0 -0.35342272587E-02  0.17360650025E-01 -0.15977221833E-01  0.23862432191E-01  0.51100000000E-03 0.  1.
         11    1    4    4    0    0 -0.46654662980E-01  0.85090488610E-01 -0.44951865177E-01  0.10694849290E+00  0.51100000000E-03 0. -1.
</event>
<event>
 7    1  0.1082757E+005  0.1043930E+01  0.7957747E-01            NaN
         13   -1    0    0    0    0  0.00000000000E+00  0.00000000000E+00  0.74505805969E-08  0.10566000000E+00  0.10566000000E+00 0.  1.
     999900   -1    0    0    0    0 -0.00000000000E+00 -0.00000000000E+00 -0.74505805969E-08  0.93827000000E+00  0.93827000000E+00 0.  1.
     999903    2    1    2    0    0 -0.80715690302E-01  0.75394995970E-01 -0.34730887763E-02  0.11244431316E+00  0.20790217364E-01 0.  0.
         14    1    1    2    0    0 -0.13238848976E-01  0.22334563020E-02  0.40144076623E-01  0.42329686241E-01  0.00000000000E+00 0.  1.
     999901    1    1    2    0    0  0.93954539278E-01 -0.77628452272E-01 -0.36670987847E-01  0.88915600060E+00  0.88000000000E+00 0.  1.
        -11    1    3    3    0    0 -0.39642637414E-01  0.24608853304E-01  0.32804340430E-02  0.46777737553E-01  0.51100000000E-03 0.  1.
         11    1    3    3    0    0 -0.41073052888E-01  0.50786142666E-01 -0.67535228193E-02  0.65666575606E-01  0.51100000000E-03 0. -1.
</event>
<event>
 8    1  0.1082757E+005  0.1043930E+01  0.7957747E-01            NaN
         13   -1    0    0    0    0  0.00000000000E+00  0.00000000000E+00  0.74505805969E-08  0.10566000000E+00  0.10566000000E+00 0. -1.
     999900   -1    0    0    0    0 -0.00000000000E+00 -0.00000000000E+00 -0.74505805969E-08  0.93827000000E+00  0.93827000000E+00 0.  1.
     999902    2    1    2    0    0  0.11629338038E-01  0.13865466732E-01  0.16017691569E-01  0.10197626850E+01  0.10194762747E+01 0.  0.
     999903    2    3    3    0    0  0.20149392569E-01 -0.33299800516E-01  0.12439472772E+00  0.13181970501E+00  0.19685314510E-01 0.  0.
         14    1    1    2    0    0 -0.11629338038E-01 -0.13865466732E-01 -0.16017691569E-01  0.24167314995E-01  0.00000000000E+00 0. -1.
     999901    1    3    3    0    0 -0.85200545312E-02  0.47165267247E-01 -0.10837703615E+00  0.88794298000E+00  0.88000000000E+00 0.  1.
        -11    1    4    4    0    0  0.17363440160E-02 -0.92801486598E-02  0.11248099065E-01  0.14694111177E-01  0.51100000000E-03 0.  1.
         11    1    4    4    0    0  0.18413048553E-01 -0.24019651856E-01  0.11314662866E+00  0.11712559383E+00  0.51100000000E-03 0. -1.
</event>
<event>
 8    1  0.1082757E+005  0.1043930E+01  0.7957747E-01            NaN
         13   -1    0    0    0    0  0.00000000000E+00  0.00000000000E+00  0.74505805969E-08  0.10566000000E+00  0.10566000000E+00 0. -1.
     999900   -1    0    0    0    0 -0.00000000000E+00 -0.00000000000E+00 -0.74505805969E-08  0.93827000000E+00  0.93827000000E+00 0.  1.
     999902    2    1    2    0    0 -0.14296081753E-02 -0.14209011420E-01  0.19194696207E-01  0.10200056160E+01  0.10197250024E+01 0.  0.
     999903    2    3    3    0    0 -0.86037705531E-01  0.16693189376E-03 -0.93267724161E-01  0.12870712851E+00  0.21543953224E-01 0.  0.
         14    1    1    2    0    0  0.14296081753E-02  0.14209011420E-01 -0.19194696207E-01  0.23924383954E-01  0.00000000000E+00 0.  1.
     999901    1    3    3    0    0  0.84608097356E-01 -0.14375943314E-01  0.11246242037E+00  0.89129848753E+00  0.88000000000E+00 0. -1.
        -11    1    4    4    0    0 -0.83766952015E-01 -0.40590223383E-02 -0.88425477142E-01  0.12187167038E+00  0.51100000000E-03 0.  1.
         11    1    4    4    0    0 -0.22707535161E-02  0.42259542321E-02 -0.48422470193E-02  0.68354581337E-02  0.51100000000E-03 0. -1.
</event>
<event>
 8    1  0.1082757E+005  0.1043930E+01  0.7957747E-01            NaN
         13   -1    0    0    0    0  0.00000000000E+00  0.00000000000E+00  0.74505805969E-08  0.10566000000E+00  0.10566000000E+00 0.  1.
     999900   -1    0    0    0    0 -0.00000000000E+00 -0.00000000000E+00 -0.74505805969E-08  0.93827000000E+00  0.93827000000E+00 0. -1.
     999902    2    1    2    0    0 -0.19835438146E-01 -0.30856115640E-02  0.12076126960E-01  0.10205035524E+01  0.10202346309E+01 0.  0.
     999903    2    3    3    0    0  0.85804150280E-01 -0.20832203136E-01 -0.90641395964E-01  0.12807677463E+00  0.19785465471E-01 0.  0.
         14    1    1    2    0    0  0.19835438146E-01  0.30856115640E-02 -0.12076126960E-01  0.23426447608E-01  0.00000000000E+00 0. -1.
     999901    1    3    3    0    0 -0.10563958843E+00  0.17746591572E-01  0.10271752292E+00  0.89242677776E+00  0.88000000000E+00 0.  1.
        -11    1    4    4    0    0  0.60259409200E-01 -0.57055902309E-02 -0.65312607353E-01  0.89049132266E-01  0.51100000000E-03 0.  1.
         11    1    4    4    0    0  0.25544741080E-01 -0.15126612905E-01 -0.25328788611E-01  0.39027642362E-01  0.51100000000E-03 0. -1.
</event>
<event>
 8    1  0.1082757E+005  0.1043930E+01  0.7957747E-01            NaN
         13   -1    0    0    0    0  0.00000000000E+00  0.00000000000E+00  0.74505805969E-08  0.10566000000E+00  0.10566000000E+00 0.  1.
     999900   -1    0    0    0    0 -0.00000000000E+00 -0.00000000000E+00 -0.74505805969E-08  0.93827000000E+00  0.93827000000E+00 0. -1.
     999902    2    1    2    0    0  0.10123628761E-01  0.21206645940E-01  0.33060654614E-02  0.10201994341E+01  0.10199234018E+01 0.  0.
     999903    2    3    3    0    0 -0.33134348539E-01 -0.35211732955E-02 -0.12383992892E+00  0.12966654778E+00  0.19152073102E-01 0.  0.
         14    1    1    2    0    0 -0.10123628761E-01 -0.21206645940E-01 -0.33060654614E-02  0.23730565947E-01  0.00000000000E+00 0.  1.
     999901    1    3    3    0    0  0.43257977300E-01  0.24727819235E-01  0.12714599438E+00  0.89053288627E+00  0.88000000000E+00 0.  1.
        -11    1    4    4    0    0 -0.20822068644E-01 -0.11284704487E-01 -0.82630359789E-01  0.85958947050E-01  0.51100000000E-03 0. -1.
         11    1    4    4    0    0 -0.12312279895E-01  0.77635311913E-02 -0.41209569131E-01  0.43707600732E-01  0.51100000000E-03 0.  1.
</event>
<event>
 8    1  0.1082757E+005  0.1043930E+01  0.7957747E-01            NaN
         13   -1    0    0    0    0  0.00000000000E+00  0.00000000000E+00  0.74505805969E-08  0.10566000000E+00  0.10566000000E+00 0. -1.
     999900   -1    0    0    0    0 -0.00000000000E+00 -0.00000000000E+00 -0.74505805969E-08  0.93827000000E+00  0.93827000000E+00 0.  1.
     999902    2    1    2    0    0 -0.15823253809E-01  0.32149308230E-02  0.15947725465E-01  0.10212354833E+01  0.10209832865E+01 0.  0.
     999903    2    3    3    0    0  0.37632161694E-01  0.10900808199E+00 -0.57134737759E-01  0.13028614763E+00  0.20277092321E-01 0.  0.
         14    1    1    2    0    0  0.15823253809E-01 -0.32149308230E-02 -0.15947725465E-01  0.22694516712E-01  0.00000000000E+00 0. -1.
     999901    1    3    3    0    0 -0.53455415504E-01 -0.10579315116E+00  0.73082463224E-01  0.89094933566E+00  0.88000000000E+00 0. -1.
        -11    1    4    4    0    0  0.27411136805E-01  0.48414416338E-01 -0.26989735636E-01  0.61838766813E-01  0.51100000000E-03 0. -1.
         11    1    4    4    0    0  0.10221024889E-01  0.60593665649E-01 -0.30145002124E-01  0.68447380816E-01  0.51100000000E-03 0.  1.
</event>
<event>
 8    1  0.1082757E+005  0.1043930E+01  0.7957747E-01            NaN
         13   -1    0    0    0    0  0.00000000000E+00  0.00000000000E+00  0.74505805969E-08  0.10566000000E+00  0.10566000000E+00 0. -1.
     999900   -1    0    0    0    0 -0.00000000000E+00 -0.00000000000E+00 -0.74505805969E-08  0.93827000000E+00  0.93827000000E+00 0.  1.
     999902    2    1    2    0    0 -0.18411800666E-01  0.17141250009E-01  0.46122869907E-02  0.10183548158E+01  0.10180336148E+01 0.  0.
     999903    2    3    3    0    0  0.31566562087E-01  0.12484538067E+00 -0.20421793261E-02  0.13035577389E+00  0.20140515700E-01 0.  0.
         14    1    1    2    0    0  0.18411800666E-01 -0.17141250009E-01 -0.46122869907E-02  0.25575184201E-01  0.00000000000E+00 0.  1.
     999901    1    3    3    0    0 -0.49978362753E-01 -0.10770413067E+00  0.66544663168E-02  0.88799904191E+00  0.88000000000E+00 0. -1.
        -11    1    4    4    0    0 -0.95401298591E-04  0.25218196576E-01 -0.52664074834E-02  0.25767473853E-01  0.51100000000E-03 0.  1.
         11    1    4    4    0    0  0.31661963386E-01  0.99627184098E-01  0.32242281573E-02  0.10458830004E+00  0.51100000000E-03 0. -1.
</event>
<event>
 8    1  0.1082757E+005  0.1043930E+01  0.7957747E-01            NaN
         13   -1    0    0    0    0  0.00000000000E+00  0.00000000000E+00  0.74505805969E-08  0.10566000000E+00  0.10566000000E+00 0. -1.
     999900   -1    0    0    0    0 -0.00000000000E+00 -0.00000000000E+00 -0.74505805969E-08  0.93827000000E+00  0.93827000000E+00 0. -1.
     999902    2    1    2    0    0 -0.50861025993E-02  0.16360815108E-01 -0.10103044880E-01  0.10240398963E+01  0.10238467136E+01 0.  0.
     999903    2    3    3    0    0  0.40498110378E-01  0.15537606132E-01  0.12435052350E+00  0.13266098683E+00  0.15948999446E-01 0.  0.
         14    1    1    2    0    0  0.50861025993E-02 -0.16360815108E-01  0.10103044880E-01  0.19890103732E-01  0.00000000000E+00 0. -1.
     999901    1    3    3    0    0 -0.45584212977E-01  0.82320897613E-03 -0.13445356838E+00  0.89137890944E+00  0.88000000000E+00 0. -1.
        -11    1    4    4    0    0  0.20870188005E-01  0.16148541537E-01  0.76979371093E-01  0.81378282336E-01  0.51100000000E-03 0. -1.
         11    1    4    4    0    0  0.19627922373E-01 -0.61093540529E-03  0.47371152405E-01  0.51282704491E-01  0.51100000000E-03 0.  1.
</event>
<event>
 8    1  0.1082757E+005  0.1043930E+01  0.7957747E-01            NaN
         13   -1    0    0    0    0  0.00000000000E+00  0.00000000000E+00  0.74505805969E-08  0.10566000000E+00  0.10566000000E+00 0. -1.
     999900   -1    0    0    0    0 -0.00000000000E+00 -0.00000000000E+00 -0.74505805969E-08  0.93827000000E+00  0.93827000000E+00 0. -1.
     999902    2    1    2    0    0 -0.19925834906E-01  0.57757312960E-02  0.91892128005E-02  0.10212399229E+01  0.10209878258E+01 0.  0.
     999903    2    3    3    0    0  0.52228871607E-01 -0.11108638111E+00 -0.35814480604E-01  0.12945049289E+00  0.20167151263E-01 0.  0.
         14    1    1    2    0    0  0.19925834906E-01 -0.57757312960E-02 -0.91892128005E-02  0.22690077140E-01  0.00000000000E+00 0. -1.
     999901    1    3    3    0    0 -0.72154706513E-01  0.11686211241E+00  0.45003693404E-01  0.89178942997E+00  0.88000000000E+00 0.  1.
        -11    1    4    4    0    0  0.90914133504E-02 -0.27652134718E-01 -0.54025973906E-03  0.29117818475E-01  0.51100000000E-03 0.  1.
         11    1    4    4    0    0  0.43137458256E-01 -0.83434246395E-01 -0.35274220865E-01  0.10033267441E+00  0.51100000000E-03 0. -1.
</event>
<event>
 8    1  0.1082757E+005  0.1043930E+01  0.7957747E-01            NaN
         13   -1    0    0    0    0  0.00000000000E+00  0.00000000000E+00  0.74505805969E-08  0.10566000000E+00  0.10566000000E+00 0.  1.
     999900   -1    0    0    0    0 -0.00000000000E+00 -0.00000000000E+00 -0.74505805969E-08  0.93827000000E+00  0.93827000000E+00 0. -1.
     999902    2    1    2    0    0 -0.11265846956E-01 -0.45091614783E-03 -0.15040314429E-01  0.10251328276E+01  0.10249604775E+01 0.  0.
     999903    2    3    3    0    0  0.10839978324E+00  0.75402855530E-01 -0.84928007048E-02  0.13377626163E+00  0.19694082418E-01 0.  0.
         14    1    1    2    0    0  0.11265846956E-01  0.45091614783E-03  0.15040314429E-01  0.18797172424E-01  0.00000000000E+00 0.  1.
     999901    1    3    3    0    0 -0.11966563019E+00 -0.75853771678E-01 -0.65475137246E-02  0.89135656595E+00  0.88000000000E+00 0.  1.
        -11    1    4    4    0    0  0.10459071260E+00  0.68389094271E-01 -0.50475962517E-02  0.12506808036E+00  0.51100000000E-03 0.  1.
         11    1    4    4    0    0  0.38090706392E-02  0.70137612594E-02 -0.34452044531E-02  0.87081812603E-02  0.51100000000E-03 0. -1.
</event>
<event>
 8    1  0.1082757E+005  0.1043930E+01  0.7957747E-01            NaN
         13   -1    0    0    0    0  0.00000000000E+00  0.00000000000E+00  0.74505805969E-08  0.10566000000E+00  0.10566000000E+00 0.  1.
     999900   -1    0    0    0    0 -0.00000000000E+00 -0.00000000000E+00 -0.74505805969E-08  0.93827000000E+00  0.93827000000E+00 0. -1.
     999902    2    1    2    0    0 -0.18906680945E-01 -0.35620502381E-02 -0.13557077289E-01  0.10203939610E+01  0.10201224880E+01 0.  0.
     999903    2    3    3    0    0  0.80188071389E-01 -0.15643019182E-01  0.96476526605E-01  0.12794053717E+00  0.19652735787E-01 0.  0.
         14    1    1    2    0    0  0.18906680945E-01  0.35620502381E-02  0.13557077289E-01  0.23536038981E-01  0.00000000000E+00 0.  1.
     999901    1    3    3    0    0 -0.99094752335E-01  0.12080968944E-01 -0.11003360389E+00  0.89245342385E+00  0.88000000000E+00 0. -1.
        -11    1    4    4    0    0  0.15738139456E-01 -0.35049758488E-02  0.32682776247E-01  0.36447206662E-01  0.51100000000E-03 0.  1.
         11    1    4    4    0    0  0.64449931933E-01 -0.12138043333E-01  0.63793750358E-01  0.91493330510E-01  0.51100000000E-03 0. -1.
</event>
<event>
 8    1  0.1082757E+005  0.1043930E+01  0.7957747E-01            NaN
         13   -1    0    0    0    0  0.00000000000E+00  0.00000000000E+00  0.74505805969E-08  0.10566000000E+00  0.10566000000E+00 0.  1.
     999900   -1    0    0    0    0 -0.00000000000E+00 -0.00000000000E+00 -0.74505805969E-08  0.93827000000E+00  0.93827000000E+00 0. -1.
     999902    2    1    2    0    0  0.18355879240E-01  0.10745911950E-01  0.10606212380E-01  0.10201622768E+01  0.10198853692E+01 0.  0.
     999903    2    3    3    0    0 -0.96108669463E-01  0.65285309710E-01  0.54374759268E-01  0.12999804220E+00  0.21067238081E-01 0.  0.
         14    1    1    2    0    0 -0.18355879240E-01 -0.10745911950E-01 -0.10606212380E-01  0.23767723227E-01  0.00000000000E+00 0. -1.
     999901    1    3    3    0    0  0.11446454870E+00 -0.54539397760E-01 -0.43768546888E-01  0.89016423457E+00  0.88000000000E+00 0.  1.
        -11    1    4    4    0    0 -0.48036077645E-01  0.32917330703E-01  0.38830634378E-01  0.69993533296E-01  0.51100000000E-03 0. -1.
         11    1    4    4    0    0 -0.48072591818E-01  0.32367979007E-01  0.15544124890E-01  0.60004508903E-01  0.51100000000E-03 0.  1.
</event>
<event>
 8    1  0.1082757E+005  0.1043930E+01  0.7957747E-01            NaN
         13   -1    0    0    0    0  0.00000000000E+00  0.00000000000E+00  0.74505805969E-08  0.10566000000E+00  0.10566000000E+00 0.  1.
     999900   -1    0    0    0    0 -0.00000000000E+00 -0.00000000000E+00 -0.74505805969E-08  0.93827000000E+00  0.93827000000E+00 0.  1.
     999902    2    1    2    0    0  0.90817609316E-02  0.21786049265E-01 -0.47353934665E-02  0.10198564819E+01  0.10195723169E+01 0.  0.
     999903    2    3    3    0    0 -0.84560240891E-01 -0.84744196137E-01 -0.40210922017E-01  0.12779368653E+00  0.19552364285E-01 0.  0.
         14    1    1    2    0    0 -0.90817609316E-02 -0.21786049265E-01  0.47353934665E-02  0.24073518137E-01  0.00000000000E+00 0. -1.
     999901    1    3    3    0    0  0.93642001823E-01  0.10653024540E+00  0.35475528550E-01  0.89206279533E+00  0.88000000000E+00 0. -1.
        -11    1    4    4    0    0 -0.53685550350E-01 -0.64861950251E-01 -0.23314857658E-01  0.87367354403E-01  0.51100000000E-03 0. -1.
         11    1    4    4    0    0 -0.30874690541E-01 -0.19882245887E-01 -0.16896064358E-01  0.40426332128E-01  0.51100000000E-03 0.  1.
</event>
<event>
 8    1  0.1082757E+005  0.1043930E+01  0.7957747E-01            NaN
         13   -1    0    0    0    0  0.00000000000E+00  0.00000000000E+00  0.74505805969E-08  0.10566000000E+00  0.10566000000E+00 0.  1.
     999900   -1    0    0    0    0 -0.00000000000E+00 -0.00000000000E+00 -0.74505805969E-08  0.93827000000E+00  0.93827000000E+00 0. -1.
     999902    2    1    2    0    0  0.15577509250E-01 -0.18176192569E-01  0.15188959236E-02  0.10199437578E+01  0.10196616739E+01 0.  0.
     999903    2    3    3    0    0 -0.82861372080E-01 -0.61519689432E-01  0.76855993800E-01  0.13019966514E+00  0.19860258033E-01 0.  0.
         14    1    1    2    0    0 -0.15577509250E-01  0.18176192569E-01 -0.15188959236E-02  0.23986242215E-01  0.00000000000E+00 0.  1.
     999901    1    3    3    0    0  0.98438881331E-01  0.43343496863E-01 -0.75337097876E-01  0.88974409264E+00  0.88000000000E+00 0.  1.
        -11    1    4    4    0    0 -0.49401523026E-01 -0.48249839722E-01  0.52222233675E-01  0.86579329643E-01  0.51100000000E-03 0.  1.
         11    1    4    4    0    0 -0.33459849055E-01 -0.13269849710E-01  0.24633760125E-01  0.43620335498E-01  0.51100000000E-03 0. -1.
</event>
<event>
 8    1  0.1082757E+005  0.1043930E+01  0.7957747E-01            NaN
         13   -1    0    0    0    0  0.00000000000E+00  0.00000000000E+00  0.74505805969E-08  0.10566000000E+00  0.10566000000E+00 0. -1.
     999900   -1    0    0    0    0 -0.00000000000E+00 -0.00000000000E+00 -0.74505805969E-08  0.93827000000E+00  0.93827000000E+00 0. -1.
     999902    2    1    2    0    0 -0.16341877778E-01 -0.83093200573E-02 -0.18215173176E-01  0.10180863489E+01  0.10177582815E+01 0.  0.
     999903    2    3    3    0    0 -0.17961390086E-01 -0.90934469211E-01 -0.90685169168E-01  0.13124846155E+00  0.20264982797E-01 0.  0.
         14    1    1    2    0    0  0.16341877778E-01  0.83093200573E-02  0.18215173176E-01  0.25843651115E-01  0.00000000000E+00 0. -1.
     999901    1    3    3    0    0  0.16195123083E-02  0.82625149154E-01  0.72469995992E-01  0.88683788733E+00  0.88000000000E+00 0.  1.
        -11    1    4    4    0    0  0.35178881056E-02 -0.26534987421E-01 -0.21715953573E-01  0.34472088053E-01  0.51100000000E-03 0. -1.
         11    1    4    4    0    0 -0.21479278192E-01 -0.64399481790E-01 -0.68969215595E-01  0.96776373497E-01  0.51100000000E-03 0.  1.
</event>
<event>
 8    1  0.1082757E+005  0.1043930E+01  0.7957747E-01            NaN
         13   -1    0    0    0    0  0.00000000000E+00  0.00000000000E+00  0.74505805969E-08  0.10566000000E+00  0.10566000000E+00 0. -1.
     999900   -1    0    0    0    0 -0.00000000000E+00 -0.00000000000E+00 -0.74505805969E-08  0.93827000000E+00  0.93827000000E+00 0.  1.
     999902    2    1    2    0    0 -0.84607668166E-02 -0.10403273078E-01 -0.19400050864E-01  0.10203466449E+01  0.10200740665E+01 0.  0.
     999903    2    3    3    0    0 -0.61891682687E-01 -0.43860709394E-01 -0.10812835498E+00  0.13364095820E+00  0.20342623799E-01 0.  0.
         14    1    1    2    0    0  0.84607668166E-02  0.10403273078E-01  0.19400050864E-01  0.23583355134E-01  0.00000000000E+00 0. -1.
     999901    1    3    3    0    0  0.53430915870E-01  0.33457436316E-01  0.88728304117E-01  0.88670568667E+00  0.88000000000E+00 0. -1.
        -11    1    4    4    0    0 -0.29102751037E-01 -0.96200456322E-02 -0.49737714541E-01  0.58426165068E-01  0.51100000000E-03 0. -1.
         11    1    4    4    0    0 -0.32788931650E-01 -0.34240663762E-01 -0.58390640441E-01  0.75214793131E-01  0.51100000000E-03 0.  1.
</event>
<event>
 8    1  0.1082757E+005  0.1043930E+01  0.7957747E-01            NaN
         13   -1    0    0    0    0  0.00000000000E+00  0.00000000000E+00  0.74505805969E-08  0.10566000000E+00  0.10566000000E+00 0. -1.
     999900   -1    0    0    0    0 -0.00000000000E+00 -0.00000000000E+00 -0.74505805969E-08  0.93827000000E+00  0.93827000000E+00 0.  1.
     999902    2    1    2    0    0  0.85255863258E-02 -0.17213758695E-01  0.17862639178E-01  0.10176988546E+01  0.10173607451E+01 0.  0.
     999903    2    3    3    0    0  0.33963000929E-01 -0.11105682907E+00  0.58208611572E-01  0.13142497966E+00  0.19929327654E-01 0.  0.
         14    1    1    2    0    0 -0.85255863258E-02  0.17213758695E-01 -0.17862639178E-01  0.26231145400E-01  0.00000000000E+00 0.  1.
     999901    1    3    3    0    0 -0.25437414603E-01  0.93843070378E-01 -0.40345972394E-01  0.88627387494E+00  0.88000000000E+00 0.  1.
        -11    1    4    4    0    0  0.17713141418E-01 -0.67006720799E-01  0.45038968918E-01  0.82658489300E-01  0.51100000000E-03 0.  1.
         11    1    4    4    0    0  0.16249859511E-01 -0.44050108273E-01  0.13169642654E-01  0.48766490356E-01  0.51100000000E-03 0. -1.
</event>
<event>
 8    1  0.1082757E+005  0.1043930E+01  0.7957747E-01            NaN
         13   -1    0    0    0    0  0.00000000000E+00  0.00000000000E+00  0.74505805969E-08  0.10566000000E+00  0.10566000000E+00 0.  1.
     999900   -1    0    0    0    0 -0.00000000000E+00 -0.00000000000E+00 -0.74505805969E-08  0.93827000000E+00  0.93827000000E+00 0. -1.
     999902    2    1    2    0    0 -0.94261815269E-02  0.19090199216E-01 -0.10202922820E-01  0.10203209289E+01  0.10200477487E+01 0.  0.
     999903    2    3    3    0    0 -0.75661596747E-01  0.89814278677E-01  0.57600674788E-01  0.13240969826E+00  0.20572033936E-01 0.  0.
         14    1    1    2    0    0  0.94261815269E-02 -0.19090199216E-01  0.10202922820E-01  0.23609071103E-01  0.00000000000E+00 0.  1.
     999901    1    3    3    0    0  0.66235415220E-01 -0.70724079462E-01 -0.67803597608E-01  0.88791123064E+00  0.88000000000E+00 0.  1.
        -11    1    4    4    0    0 -0.63974688492E-01  0.71836265277E-01  0.38245838501E-01  0.10351915311E+00  0.51100000000E-03 0.  1.
         11    1    4    4    0    0 -0.11686908255E-01  0.17978013401E-01  0.19354836288E-01  0.28890545151E-01  0.51100000000E-03 0. -1.
</event>
<event>
 8    1  0.1082757E+005  0.1043930E+01  0.7957747E-01            NaN
         13   -1    0    0    0    0  0.00000000000E+00  0.00000000000E+00  0.74505805969E-08  0.10566000000E+00  0.10566000000E+00 0.  1.
     999900   -1    0    0    0    0 -0.00000000000E+00 -0.00000000000E+00 -0.74505805969E-08  0.93827000000E+00  0.93827000000E+00 0. -1.
     999902    2    1    2    0    0  0.22575892921E-01 -0.36171705535E-02 -0.57446820766E-02  0.10203555173E+01  0.10200831463E+01 0.  0.
     999903    2    3    3    0    0 -0.61202031947E-01  0.46014807004E-01  0.10142892507E+00  0.12852130848E+00  0.19153295142E-01 0.  0.
         14    1    1    2    0    0 -0.22575892921E-01  0.36171705535E-02  0.57446820766E-02  0.23574482734E-01  0.00000000000E+00 0.  1.
     999901    1    3    3    0    0  0.83777924868E-01 -0.49631977558E-01 -0.10717360715E+00  0.89183420879E+00  0.88000000000E+00 0. -1.
        -11    1    4    4    0    0 -0.22237760722E-01  0.87951227753E-02  0.21738157757E-01  0.32321522400E-01  0.51100000000E-03 0. -1.
         11    1    4    4    0    0 -0.38964271224E-01  0.37219684229E-01  0.79690767313E-01  0.96199786081E-01  0.51100000000E-03 0.  1.
</event>
<event>
 8    1  0.1082757E+005  0.1043930E+01  0.7957747E-01            NaN
         13   -1    0    0    0    0  0.00000000000E+00  0.00000000000E+00  0.74505805969E-08  0.10566000000E+00  0.10566000000E+00 0. -1.
     999900   -1    0    0    0    0 -0.00000000000E+00 -0.00000000000E+00 -0.74505805969E-08  0.93827000000E+00  0.93827000000E+00 0.  1.
     999902    2    1    2    0    0 -0.31163793060E-02  0.23980230694E-01 -0.35097540027E-02  0.10194947456E+01  0.10192018714E+01 0.  0.
     999903    2    3    3    0    0  0.11438311161E-01 -0.11634881942E+00 -0.47286499061E-01  0.12718286923E+00  0.16479881367E-01 0.  0.
         14    1    1    2    0    0  0.31163793060E-02 -0.23980230694E-01  0.35097540027E-02  0.24435254394E-01  0.00000000000E+00 0.  1.
     999901    1    3    3    0    0 -0.14554690467E-01  0.14032905011E+00  0.43776745058E-01  0.89231187638E+00  0.88000000000E+00 0.  1.
        -11    1    4    4    0    0 -0.37404430254E-02 -0.13026453820E-01 -0.40543643099E-02  0.14155507907E-01  0.51100000000E-03 0.  1.
         11    1    4    4    0    0  0.15178754186E-01 -0.10332236560E+00 -0.43232134751E-01  0.11302736132E+00  0.51100000000E-03 0. -1.
</event>
<event>
 8    1  0.1082757E+005  0.1043930E+01  0.7957747E-01            NaN
         13   -1    0    0    0    0  0.00000000000E+00  0.00000000000E+00  0.74505805969E-08  0.10566000000E+00  0.10566000000E+00 0.  1.
     999900   -1    0    0    0    0 -0.00000000000E+00 -0.00000000000E+00 -0.74505805969E-08  0.93827000000E+00  0.93827000000E+00 0. -1.
     999902    2    1    2    0    0  0.27140651178E-02  0.30001514585E-01  0.43269071957E-02  0.10134968084E+01  0.10130397827E+01 0.  0.
     999903    2    3    3    0    0 -0.11185895960E+00 -0.14774158430E-02  0.50434605487E-01  0.12431526285E+00  0.19900390621E-01 0.  0.
         14    1    1    2    0    0 -0.27140651178E-02 -0.30001514585E-01 -0.43269071957E-02  0.30433191630E-01  0.00000000000E+00 0. -1.
     999901    1    3    3    0    0  0.11457302472E+00  0.31478930429E-01 -0.46107698291E-01  0.88918154552E+00  0.88000000000E+00 0. -1.
        -11    1    4    4    0    0 -0.26805899151E-01 -0.58505309034E-02  0.53758112009E-02  0.27963286792E-01  0.51100000000E-03 0.  1.
         11    1    4    4    0    0 -0.85053060446E-01  0.43731150603E-02  0.45058794286E-01  0.96351976057E-01  0.51100000000E-03 0. -1.
</event>
<event>
 8    1  0.1082757E+005  0.1043930E+01  0.7957747E-01            NaN
         13   -1    0    0    0    0  0.00000000000E+00  0.00000000000E+00  0.74505805969E-08  0.10566000000E+00  0.10566000000E+00 0.  1.
     999900   -1    0    0    0    0 -0.00000000000E+00 -0.00000000000E+00 -0.74505805969E-08  0.93827000000E+00  0.93827000000E+00 0. -1.
     999902    2    1    2    0    0  0.60917953105E-02 -0.16900002802E-01  0.14856767179E-01  0.10206181233E+01  0.10203518560E+01 0.  0.
     999903    2    3    3    0    0  0.52045916829E-01  0.10125288168E+00  0.60568030578E-01  0.13035894474E+00  0.19079953818E-01 0.  0.
         14    1    1    2    0    0 -0.60917953105E-02  0.16900002802E-01 -0.14856767179E-01  0.23311876712E-01  0.00000000000E+00 0. -1.
     999901    1    3    3    0    0 -0.45954121519E-01 -0.11815288448E+00 -0.45711263399E-01  0.89025917855E+00  0.88000000000E+00 0.  1.
        -11    1    4    4    0    0  0.19155445596E-01  0.40135789397E-01  0.13432981414E-01  0.46459862217E-01  0.51100000000E-03 0. -1.
         11    1    4    4    0    0  0.32890471233E-01  0.61117092282E-01  0.47135049164E-01  0.83899082519E-01  0.51100000000E-03 0.  1.
</event>
<event>
 8    1  0.1082757E+005  0.1043930E+01  0.7957747E-01            NaN
         13   -1    0    0    0    0  0.00000000000E+00  0.00000000000E+00  0.74505805969E-08  0.10566000000E+00  0.10566000000E+00 0. -1.
     999900   -1    0    0    0    0 -0.00000000000E+00 -0.00000000000E+00 -0.74505805969E-08  0.93827000000E+00  0.93827000000E+00 0. -1.
     999902    2    1    2    0    0  0.17277690284E-01  0.16126981874E-01 -0.30624942400E-03  0.10202933354E+01  0.10200195088E+01 0.  0.
     999903    2    3    3    0    0 -0.35833012572E-01  0.46972471321E-01  0.11501785369E+00  0.13064630439E+00  0.18679730539E-01 0.  0.
         14    1    1    2    0    0 -0.17277690284E-01 -0.16126981874E-01  0.30624942400E-03  0.23636664626E-01  0.00000000000E+00 0. -1.
     999901    1    3    3    0    0  0.53110702857E-01 -0.30845489447E-01 -0.11532410311E+00  0.88964703098E+00  0.88000000000E+00 0. -1.
        -11    1    4    4    0    0 -0.14425745057E-01  0.33416030047E-01  0.62345439795E-01  0.72193823620E-01  0.51100000000E-03 0.  1.
         11    1    4    4    0    0 -0.21407267515E-01  0.13556441274E-01  0.52672413890E-01  0.58452480773E-01  0.51100000000E-03 0. -1.
</event>
<event>
 8    1  0.1082757E+005  0.1043930E+01  0.7957747E-01            NaN
         13   -1    0    0    0    0  0.00000000000E+00  0.00000000000E+00  0.74505805969E-08  0.10566000000E+00  0.10566000000E+00 0.  1.
     999900   -1    0    0    0    0 -0.00000000000E+00 -0.00000000000E+00 -0.74505805969E-08  0.93827000000E+00  0.93827000000E+00 0.  1.
     999902    2    1    2    0    0 -0.44834724139E-02 -0.58132120235E-02  0.23547395697E-01  0.10192647450E+01  0.10189662633E+01 0.  0.
     999903    2    3    3    0    0  0.12743647266E-01  0.65629227447E-01  0.11177132144E+00  0.13180530545E+00  0.20253745536E-01 0.  0.
         14    1    1    2    0    0  0.44834724139E-02  0.58132120235E-02 -0.23547395697E-01  0.24665254976E-01  0.00000000000E+00 0. -1.
     999901    1    3    3    0    0 -0.17227119680E-01 -0.71442439471E-01 -0.88223925743E-01  0.88745943957E+00  0.88000000000E+00 0. -1.
        -11    1    4    4    0    0  0.17336359808E-02  0.53218880044E-01  0.86049870798E-01  0.10119335982E+00  0.51100000000E-03 0. -1.
         11    1    4    4    0    0  0.11010011285E-01  0.12410347403E-01  0.25721450642E-01  0.30611945631E-01  0.51100000000E-03 0.  1.
</event>
<event>
 8    1  0.1082757E+005  0.1043930E+01  0.7957747E-01            NaN
         13   -1    0    0    0    0  0.00000000000E+00  0.00000000000E+00  0.74505805969E-08  0.10566000000E+00  0.10566000000E+00 0.  1.
     999900   -1    0    0    0    0 -0.00000000000E+00 -0.00000000000E+00 -0.74505805969E-08  0.93827000000E+00  0.93827000000E+00 0. -1.
     999902    2    1    2    0    0  0.62698883472E-02  0.10220775818E-01  0.20194124962E-01  0.10204442928E+01  0.10201739932E+01 0.  0.
     999903    2    3    3    0    0 -0.61044185612E-01 -0.10933875623E+00  0.27419226700E-01  0.12978281486E+00  0.20258549527E-01 0.  0.
         14    1    1    2    0    0 -0.62698883472E-02 -0.10220775818E-01 -0.20194124962E-01  0.23485707168E-01  0.00000000000E+00 0. -1.
     999901    1    3    3    0    0  0.67314073960E-01  0.11955953204E+00 -0.72251017384E-02  0.89066147798E+00  0.88000000000E+00 0.  1.
        -11    1    4    4    0    0 -0.44156218508E-01 -0.94682252362E-01  0.23282217742E-01  0.10703655137E+00  0.51100000000E-03 0.  1.
         11    1    4    4    0    0 -0.16887967104E-01 -0.14656503864E-01  0.41370089586E-02  0.22746263486E-01  0.51100000000E-03 0. -1.
</event>
<event>
 8    1  0.1082757E+005  0.1043930E+01  0.7957747E-01            NaN
         13   -1    0    0    0    0  0.00000000000E+00  0.00000000000E+00  0.74505805969E-08  0.10566000000E+00  0.10566000000E+00 0. -1.
     999900   -1    0    0    0    0 -0.00000000000E+00 -0.00000000000E+00 -0.74505805969E-08  0.93827000000E+00  0.93827000000E+00 0. -1.
     999902    2    1    2    0    0 -0.24194423003E-01  0.32194352135E-02  0.79862738769E-03  0.10195092573E+01  0.10192167351E+01 0.  0.
     999903    2    3    3    0    0 -0.54248091091E-01 -0.34050261566E-02 -0.11688942976E+00  0.13114132383E+00  0.24092705048E-01 0.  0.
         14    1    1    2    0    0  0.24194423003E-01 -0.32194352135E-02 -0.79862738769E-03  0.24420742684E-01  0.00000000000E+00 0. -1.
     999901    1    3    3    0    0  0.30053668089E-01  0.66244613702E-02  0.11768805714E+00  0.88836793349E+00  0.88000000000E+00 0.  1.
        -11    1    4    4    0    0 -0.99658438955E-02 -0.66536211900E-02 -0.45623751161E-01  0.47173896495E-01  0.51100000000E-03 0. -1.
         11    1    4    4    0    0 -0.44282247196E-01  0.32485950334E-02 -0.71265678596E-01  0.83967427334E-01  0.51100000000E-03 0.  1.
</event>
<event>
 8    1  0.1082757E+005  0.1043930E+01  0.7957747E-01            NaN
         13   -1    0    0    0    0  0.00000000000E+00  0.00000000000E+00  0.74505805969E-08  0.10566000000E+00  0.10566000000E+00 0.  1.
     999900   -1    0    0    0    0 -0.00000000000E+00 -0.00000000000E+00 -0.74505805969E-08  0.93827000000E+00  0.93827000000E+00 0.  1.
     999902    2    1    2    0    0 -0.22363892266E-02  0.44813975523E-02  0.23167873420E-01  0.10202269470E+01  0.10199515620E+01 0.  0.
     999903    2    3    3    0    0  0.12039585102E+00  0.40181343636E-01  0.26279288215E-01  0.13100097272E+00  0.18998751174E-01 0.  0.
         14    1    1    2    0    0  0.22363892266E-02 -0.44813975523E-02 -0.23167873420E-01  0.23703052960E-01  0.00000000000E+00 0. -1.
     999901    1    3    3    0    0 -0.12263224025E+00 -0.35699946083E-01 -0.31114147950E-02  0.88922597432E+00  0.88000000000E+00 0. -1.
        -11    1    4    4    0    0  0.60910525197E-01  0.16592773576E-01  0.40710796790E-02  0.63263315005E-01  0.51100000000E-03 0.  1.
         11    1    4    4    0    0  0.59485325823E-01  0.23588570060E-01  0.22208208536E-01  0.67737657718E-01  0.51100000000E-03 0. -1.
</event>
<event>
 8    1  0.1082757E+005  0.1043930E+01  0.7957747E-01            NaN
         13   -1    0    0    0    0  0.00000000000E+00  0.00000000000E+00  0.74505805969E-08  0.10566000000E+00  0.10566000000E+00 0. -1.
     999900   -1    0    0    0    0 -0.00000000000E+00 -0.00000000000E+00 -0.74505805969E-08  0.93827000000E+00  0.93827000000E+00 0. -1.
     999902    2    1    2    0    0  0.76077266987E-02 -0.21370955581E-01 -0.85363697116E-02  0.10196923257E+01  0.10194042251E+01 0.  0.
     999903    2    3    3    0    0 -0.65893194653E-01  0.89204045526E-01 -0.61102870373E-01  0.12818099469E+00  0.19938199340E-01 0.  0.
         14    1    1    2    0    0 -0.76077266987E-02  0.21370955581E-01  0.85363697116E-02  0.24237674307E-01  0.00000000000E+00 0.  1.
     999901    1    3    3    0    0  0.73500921351E-01 -0.11057500111E+00  0.52566500662E-01  0.89151133100E+00  0.88000000000E+00 0.  1.
        -11    1    4    4    0    0 -0.29224101135E-01  0.54243136107E-01 -0.38854887695E-01  0.72844555875E-01  0.51100000000E-03 0.  1.
         11    1    4    4    0    0 -0.36669093517E-01  0.34960909419E-01 -0.22247982679E-01  0.55336438818E-01  0.51100000000E-03 0. -1.
</event>
<event>
 8    1  0.1160582E+005  0.1043930E+01  0.7957747E-01            NaN
         13   -1    0    0    0    0  0.00000000000E+00  0.00000000000E+00  0.74505805969E-08  0.10566000000E+00  0.10566000000E+00 0.  1.
     999900   -1    0    0    0    0 -0.00000000000E+00 -0.00000000000E+00 -0.74505805969E-08  0.93827000000E+00  0.93827000000E+00 0.  1.
     999902    2    1    2    0    0 -0.19050310292E-01 -0.14057993831E-01  0.23366829867E-02  0.10201392119E+01  0.10198617602E+01 0.  0.
     999903    2    3    3    0    0 -0.36167286408E-01  0.11280774272E+00  0.48761104497E-01  0.12966566768E+00  0.20046960814E-01 0.  0.
         14    1    1    2    0    0  0.19050310292E-01  0.14057993831E-01 -0.23366829867E-02  0.23790788136E-01  0.00000000000E+00 0.  1.
     999901    1    3    3    0    0  0.17116976116E-01 -0.12686573655E+00 -0.46424421510E-01  0.89047354419E+00  0.88000000000E+00 0.  1.
        -11    1    4    4    0    0 -0.16095632164E-01  0.44623524535E-01  0.30079557511E-01  0.56172673229E-01  0.51100000000E-03 0. -1.
         11    1    4    4    0    0 -0.20071654244E-01  0.68184218190E-01  0.18681546986E-01  0.73492994449E-01  0.51100000000E-03 0.  1.
</event>
<event>
 8    1  0.1252566E+005  0.1043930E+01  0.7957747E-01            NaN
         13   -1    0    0    0    0  0.00000000000E+00  0.00000000000E+00  0.74505805969E-08  0.10566000000E+00  0.10566000000E+00 0.  1.
     999900   -1    0    0    0    0 -0.00000000000E+00 -0.00000000000E+00 -0.74505805969E-08  0.93827000000E+00  0.93827000000E+00 0.  1.
     999902    2    1    2    0    0 -0.14077518364E-01  0.18530648241E-01  0.16520627637E-02  0.10205999602E+01  0.10203332730E+01 0.  0.
     999903    2    3    3    0    0 -0.83386104397E-01  0.10083682378E+00  0.20786673776E-01  0.13383949647E+00  0.18963585418E-01 0.  0.
         14    1    1    2    0    0  0.14077518364E-01 -0.18530648241E-01 -0.16520627637E-02  0.23330039840E-01  0.00000000000E+00 0. -1.
     999901    1    3    3    0    0  0.69308586033E-01 -0.82306175537E-01 -0.19134611013E-01  0.88676046369E+00  0.88000000000E+00 0.  1.
        -11    1    4    4    0    0 -0.38400844232E-01  0.41914628928E-01  0.18089882701E-01  0.59657069430E-01  0.51100000000E-03 0.  1.
         11    1    4    4    0    0 -0.44985260166E-01  0.58922194850E-01  0.26967910757E-02  0.74182427038E-01  0.51100000000E-03 0. -1.
</event>
<event>
 8    1  0.1082757E+005  0.1043930E+01  0.7957747E-01            NaN
         13   -1    0    0    0    0  0.00000000000E+00  0.00000000000E+00  0.74505805969E-08  0.10566000000E+00  0.10566000000E+00 0. -1.
     999900   -1    0    0    0    0 -0.00000000000E+00 -0.00000000000E+00 -0.74505805969E-08  0.93827000000E+00  0.93827000000E+00 0.  1.
     999902    2    1    2    0    0 -0.14671058582E-02 -0.15831479781E-01 -0.16653687156E-01  0.10209053730E+01  0.10206457011E+01 0.  0.
     999903    2    3    3    0    0 -0.30585005608E-01  0.52347037670E-01  0.11159091192E+00  0.12852493872E+00  0.19760397982E-01 0.  0.
         14    1    1    2    0    0  0.14671058582E-02  0.15831479781E-01  0.16653687156E-01  0.23024626979E-01  0.00000000000E+00 0. -1.
     999901    1    3    3    0    0  0.29117899749E-01 -0.68178517451E-01 -0.12824459908E+00  0.89238043430E+00  0.88000000000E+00 0.  1.
        -11    1    4    4    0    0 -0.13595016263E-01  0.95518584146E-02  0.41016468923E-01  0.44256912570E-01  0.51100000000E-03 0.  1.
         11    1    4    4    0    0 -0.16989989345E-01  0.42795179256E-01  0.70574443001E-01  0.84268026151E-01  0.51100000000E-03 0. -1.
</event>
<event>
 8    1  0.1082757E+005  0.1043930E+01  0.7957747E-01            NaN
         13   -1    0    0    0    0  0.00000000000E+00  0.00000000000E+00  0.74505805969E-08  0.10566000000E+00  0.10566000000E+00 0. -1.
     999900   -1    0    0    0    0 -0.00000000000E+00 -0.00000000000E+00 -0.74505805969E-08  0.93827000000E+00  0.93827000000E+00 0.  1.
     999902    2    1    2    0    0 -0.23688946957E-01 -0.54181824969E-02 -0.58048151288E-02  0.10189456291E+01  0.10186392768E+01 0.  0.
     999903    2    3    3    0    0 -0.97554245851E-01 -0.80816823081E-01 -0.33047987667E-01  0.13221950013E+00  0.18483423654E-01 0.  0.
         14    1    1    2    0    0  0.23688946957E-01  0.54181824969E-02  0.58048151288E-02  0.24984370879E-01  0.00000000000E+00 0. -1.
     999901    1    3    3    0    0  0.73865298893E-01  0.75398640584E-01  0.27243172538E-01  0.88672612899E+00  0.88000000000E+00 0. -1.
        -11    1    4    4    0    0 -0.11165007353E-01 -0.17142009848E-01 -0.82925319955E-02  0.22080151691E-01  0.51100000000E-03 0.  1.
         11    1    4    4    0    0 -0.86389238497E-01 -0.63674813233E-01 -0.24755455672E-01  0.11013934844E+00  0.51100000000E-03 0. -1.
</event>
<event>
 8    1  0.1082757E+005  0.1043930E+01  0.7957747E-01            NaN
         13   -1    0    0    0    0  0.00000000000E+00  0.00000000000E+00  0.74505805969E-08  0.10566000000E+00  0.10566000000E+00 0. -1.
     999900   -1    0    0    0    0 -0.00000000000E+00 -0.00000000000E+00 -0.74505805969E-08  0.93827000000E+00  0.93827000000E+00 0.  1.
     999902    2    1    2    0    0 -0.89139064117E-02  0.16126705316E-01 -0.13466534213E-01  0.10211072943E+01  0.10208522080E+01 0.  0.
     999903    2    3    3    0    0  0.86961713556E-01  0.37531229051E-01 -0.90051961110E-01  0.13233532368E+00  0.20793013622E-01 0.  0.
         14    1    1    2    0    0  0.89139064117E-02 -0.16126705316E-01  0.13466534213E-01  0.22822705702E-01  0.00000000000E+00 0. -1.
     999901    1    3    3    0    0 -0.95875619967E-01 -0.21404523735E-01  0.76585426897E-01  0.88877197062E+00  0.88000000000E+00 0. -1.
        -11    1    4    4    0    0  0.53096639149E-01  0.33683640064E-01 -0.58811393176E-01  0.86098093969E-01  0.51100000000E-03 0. -1.
         11    1    4    4    0    0  0.33865074407E-01  0.38475889867E-02 -0.31240567934E-01  0.46237229712E-01  0.51100000000E-03 0.  1.
</event>
<event>
 8    1  0.1082757E+005  0.1043930E+01  0.7957747E-01            NaN
         13   -1    0    0    0    0  0.00000000000E+00  0.00000000000E+00  0.74505805969E-08  0.10566000000E+00  0.10566000000E+00 0. -1.
     999900   -1    0    0    0    0 -0.00000000000E+00 -0.00000000000E+00 -0.74505805969E-08  0.93827000000E+00  0.93827000000E+00 0. -1.
     999902    2    1    2    0    0  0.16136863405E-01 -0.16319573810E-01  0.67391208804E-02  0.10200104975E+01  0.10197299998E+01 0.  0.
     999903    2    3    3    0    0 -0.88836830952E-01  0.58371666418E-03  0.92188290823E-01  0.12950122838E+00  0.19482400471E-01 0.  0.
         14    1    1    2    0    0 -0.16136863405E-01  0.16319573810E-01 -0.67391208804E-02  0.23919502506E-01  0.00000000000E+00 0.  1.
     999901    1    3    3    0    0  0.10497369436E+00 -0.16903290475E-01 -0.85449169942E-01  0.89050926911E+00  0.88000000000E+00 0. -1.
        -11    1    4    4    0    0 -0.82673404801E-01  0.37167386011E-02  0.78063679470E-01  0.11376688965E+00  0.51100000000E-03 0. -1.
         11    1    4    4    0    0 -0.61634261510E-02 -0.31330219369E-02  0.14124611353E-01  0.15734338729E-01  0.51100000000E-03 0.  1.
</event>
<event>
 8    1  0.1082757E+005  0.1043930E+01  0.7957747E-01            NaN
         13   -1    0    0    0    0  0.00000000000E+00  0.00000000000E+00  0.74505805969E-08  0.10566000000E+00  0.10566000000E+00 0.  1.
     999900   -1    0    0    0    0 -0.00000000000E+00 -0.00000000000E+00 -0.74505805969E-08  0.93827000000E+00  0.93827000000E+00 0.  1.
     999902    2    1    2    0    0  0.22526964170E-01  0.40192422776E-02  0.70778161776E-02  0.10199776743E+01  0.10196963971E+01 0.  0.
     999903    2    3    3    0    0 -0.93488126075E-01 -0.74920980908E-01 -0.39175602292E-01  0.12766022032E+00  0.20229210101E-01 0.  0.
         14    1    1    2    0    0 -0.22526964170E-01 -0.40192422776E-02 -0.70778161776E-02  0.23952325671E-01  0.00000000000E+00 0. -1.
     999901    1    3    3    0    0  0.11601509024E+00  0.78940223186E-01  0.46253418469E-01  0.89231745400E+00  0.88000000000E+00 0.  1.
        -11    1    4    4    0    0 -0.25381206006E-01 -0.31694214063E-01 -0.16803945118E-01  0.43947269721E-01  0.51100000000E-03 0. -1.
         11    1    4    4    0    0 -0.68106920069E-01 -0.43226766845E-01 -0.22371657173E-01  0.83712950604E-01  0.51100000000E-03 0.  1.
</event>
<event>
 8    1  0.1082757E+005  0.1043930E+01  0.7957747E-01            NaN
         13   -1    0    0    0    0  0.00000000000E+00  0.00000000000E+00  0.74505805969E-08  0.10566000000E+00  0.10566000000E+00 0.  1.
     999900   -1    0    0    0    0 -0.00000000000E+00 -0.00000000000E+00 -0.74505805969E-08  0.93827000000E+00  0.93827000000E+00 0.  1.
     999902    2    1    2    0    0 -0.21321896372E-01 -0.99788656228E-02  0.15894029140E-03  0.10203879889E+01  0.10201163765E+01 0.  0.
     999903    2    3    3    0    0  0.62544812225E-01  0.91262074166E-01  0.62933941098E-01  0.12841038077E+00  0.16968359679E-01 0.  0.
         14    1    1    2    0    0  0.21321896372E-01  0.99788656228E-02 -0.15894029140E-03  0.23542011087E-01  0.00000000000E+00 0.  1.
     999901    1    3    3    0    0 -0.83866708597E-01 -0.10124093979E+00 -0.62775000807E-01  0.89197760814E+00  0.88000000000E+00 0.  1.
        -11    1    4    4    0    0  0.60856886163E-01  0.87487400255E-01  0.56178833555E-01  0.12047376585E+00  0.51100000000E-03 0.  1.
         11    1    4    4    0    0  0.16879260622E-02  0.37746739111E-02  0.67551075429E-02  0.79366149234E-02  0.51100000000E-03 0. -1.
</event>
<event>
 8    1  0.1082757E+005  0.1043930E+01  0.7957747E-01            NaN
         13   -1    0    0    0    0  0.00000000000E+00  0.00000000000E+00  0.74505805969E-08  0.10566000000E+00  0.10566000000E+00 0. -1.
     999900   -1    0    0    0    0 -0.00000000000E+00 -0.00000000000E+00 -0.74505805969E-08  0.93827000000E+00  0.93827000000E+00 0. -1.
     999902    2    1    2    0    0 -0.88829653381E-02  0.18508085937E-01  0.10329942260E-01  0.10209481805E+01  0.10206894843E+01 0.  0.
     999903    2    3    3    0    0  0.12058430573E+00  0.45305732675E-01 -0.11366589758E-01  0.13080738963E+00  0.19702528201E-01 0.  0.
         14    1    1    2    0    0  0.88829653381E-02 -0.18508085937E-01 -0.10329942260E-01  0.22981819452E-01  0.00000000000E+00 0.  1.
     999901    1    3    3    0    0 -0.12946727107E+00 -0.26797646739E-01  0.21696532018E-01  0.89014079092E+00  0.88000000000E+00 0.  1.
        -11    1    4    4    0    0  0.36604340787E-01  0.77600938774E-02 -0.10284176015E-01  0.38808790483E-01  0.51100000000E-03 0. -1.
         11    1    4    4    0    0  0.83979964946E-01  0.37545638798E-01 -0.10824137429E-02  0.91998599150E-01  0.51100000000E-03 0.  1.
</event>
<event>
 8    1  0.1082757E+005  0.1043930E+01  0.7957747E-01            NaN
         13   -1    0    0    0    0  0.00000000000E+00  0.00000000000E+00  0.74505805969E-08  0.10566000000E+00  0.10566000000E+00 0.  1.
     999900   -1    0    0    0    0 -0.00000000000E+00 -0.00000000000E+00 -0.74505805969E-08  0.93827000000E+00  0.93827000000E+00 0.  1.
     999902    2    1    2    0    0  0.20697398704E-01 -0.78860551781E-02 -0.56423230836E-02  0.10210737538E+01  0.10208179087E+01 0.  0.
     999903    2    3    3    0    0  0.23852530800E-01  0.12671063316E+00  0.62684788808E-02  0.13075465902E+00  0.20807672781E-01 0.  0.
         14    1    1    2    0    0 -0.20697398704E-01  0.78860551781E-02  0.56423230836E-02  0.22856246174E-01  0.00000000000E+00 0. -1.
     999901    1    3    3    0    0 -0.31551320960E-02 -0.13459668834E+00 -0.11910801964E-01  0.89031909480E+00  0.88000000000E+00 0.  1.
        -11    1    4    4    0    0  0.14263330476E-01  0.29260565542E-01  0.40565509666E-02  0.32807621353E-01  0.51100000000E-03 0.  1.
         11    1    4    4    0    0  0.95892003241E-02  0.97450067619E-01  0.22119279142E-02  0.97947037668E-01  0.51100000000E-03 0. -1.
</event>
<event>
 8    1  0.1082757E+005  0.1043930E+01  0.7957747E-01            NaN
         13   -1    0    0    0    0  0.00000000000E+00  0.00000000000E+00  0.74505805969E-08  0.10566000000E+00  0.10566000000E+00 0. -1.
     999900   -1    0    0    0    0 -0.00000000000E+00 -0.00000000000E+00 -0.74505805969E-08  0.93827000000E+00  0.93827000000E+00 0.  1.
     999902    2    1    2    0    0  0.32719016265E-01 -0.28482132619E-02 -0.85328153033E-02  0.10099968999E+01  0.10094267099E+01 0.  0.
     999903    2    3    3    0    0  0.75567722272E-03 -0.59175162740E-01 -0.10500718044E+00  0.12235863835E+00  0.21044179720E-01 0.  0.
         14    1    1    2    0    0 -0.32719016265E-01  0.28482132619E-02  0.85328153033E-02  0.33933100081E-01  0.00000000000E+00 0. -1.
     999901    1    3    3    0    0  0.31963339042E-01  0.56326949478E-01  0.96474365138E-01  0.88763826157E+00  0.88000000000E+00 0. -1.
        -11    1    4    4    0    0  0.36686424563E-02 -0.27103250669E-03 -0.46133464978E-02  0.59225402490E-02  0.51100000000E-03 0. -1.
         11    1    4    4    0    0 -0.29129652336E-02 -0.58904130234E-01 -0.10039383394E+00  0.11643609810E+00  0.51100000000E-03 0.  1.
</event>
<event>
 8    1  0.1082757E+005  0.1043930E+01  0.7957747E-01            NaN
         13   -1    0    0    0    0  0.00000000000E+00  0.00000000000E+00  0.74505805969E-08  0.10566000000E+00  0.10566000000E+00 0. -1.
     999900   -1    0    0    0    0 -0.00000000000E+00 -0.00000000000E+00 -0.74505805969E-08  0.93827000000E+00  0.93827000000E+00 0. -1.
     999902    2    1    2    0    0 -0.29790653793E-02 -0.13168849308E-01  0.11360027289E-01  0.10262850675E+01  0.10261333715E+01 0.  0.
     999903    2    3    3    0    0  0.91440671154E-01 -0.97184541051E-01 -0.21890380097E-01  0.13663383658E+00  0.19580224629E-01 0.  0.
         14    1    1    2    0    0  0.29790653793E-02  0.13168849308E-01 -0.11360027289E-01  0.17644932492E-01  0.00000000000E+00 0.  1.
     999901    1    3    3    0    0 -0.94419736534E-01  0.84015691743E-01  0.33250407385E-01  0.88965123093E+00  0.88000000000E+00 0. -1.
        -11    1    4    4    0    0  0.54730404526E-01 -0.70179320748E-01 -0.18728075306E-01  0.90948095999E-01  0.51100000000E-03 0.  1.
         11    1    4    4    0    0  0.36710266629E-01 -0.27005220303E-01 -0.31623047905E-02  0.45685740578E-01  0.51100000000E-03 0. -1.
</event>
<event>
 8    1  0.1082757E+005  0.1043930E+01  0.7957747E-01            NaN
         13   -1    0    0    0    0  0.00000000000E+00  0.00000000000E+00  0.74505805969E-08  0.10566000000E+00  0.10566000000E+00 0.  1.
     999900   -1    0    0    0    0 -0.00000000000E+00 -0.00000000000E+00 -0.74505805969E-08  0.93827000000E+00  0.93827000000E+00 0. -1.
     999902    2    1    2    0    0 -0.12760765738E-01 -0.18618933244E-01 -0.89288491519E-02  0.10196560188E+01  0.10193670440E+01 0.  0.
     999903    2    3    3    0    0 -0.74846663329E-01 -0.10107858823E+00 -0.38727486741E-01  0.13312219980E+00  0.20069824140E-01 0.  0.
         14    1    1    2    0    0  0.12760765738E-01  0.18618933244E-01  0.89288491519E-02  0.24273981226E-01  0.00000000000E+00 0.  1.
     999901    1    3    3    0    0  0.62085897591E-01  0.82459654985E-01  0.29798637589E-01  0.88653381897E+00  0.88000000000E+00 0. -1.
        -11    1    4    4    0    0 -0.53862574489E-01 -0.68798892400E-01 -0.17353965724E-01  0.89083588687E-01  0.51100000000E-03 0. -1.
         11    1    4    4    0    0 -0.20984088840E-01 -0.32279695829E-01 -0.21373521017E-01  0.44038611114E-01  0.51100000000E-03 0.  1.
</event>
<event>
 8    1  0.1082757E+005  0.1043930E+01  0.7957747E-01            NaN
         13   -1    0    0    0    0  0.00000000000E+00  0.00000000000E+00  0.74505805969E-08  0.10566000000E+00  0.10566000000E+00 0. -1.
     999900   -1    0    0    0    0 -0.00000000000E+00 -0.00000000000E+00 -0.74505805969E-08  0.93827000000E+00  0.93827000000E+00 0.  1.
     999902    2    1    2    0    0  0.21908381559E-01  0.90040245167E-02  0.35014116811E-02  0.10199861172E+01  0.10197050406E+01 0.  0.
     999903    2    3    3    0    0 -0.88792273430E-01 -0.88881255675E-01 -0.11764850576E-01  0.12753487379E+00  0.18514504910E-01 0.  0.
         14    1    1    2    0    0 -0.21908381559E-01 -0.90040245167E-02 -0.35014116811E-02  0.23943882805E-01  0.00000000000E+00 0.  1.
     999901    1    3    3    0    0  0.11070065499E+00  0.97885280192E-01  0.15266262257E-01  0.89245124341E+00  0.88000000000E+00 0.  1.
        -11    1    4    4    0    0 -0.17427560181E-01 -0.85503458121E-02 -0.37962675445E-02  0.19786385108E-01  0.51100000000E-03 0. -1.
         11    1    4    4    0    0 -0.71364713248E-01 -0.80330909863E-01 -0.79685830318E-02  0.10774848868E+00  0.51100000000E-03 0.  1.
</event>
<event>
 8    1  0.1082757E+005  0.1043930E+01  0.7957747E-01            NaN
         13   -1    0    0    0    0  0.00000000000E+00  0.00000000000E+00  0.74505805969E-08  0.10566000000E+00  0.10566000000E+00 0.  1.
     999900   -1    0    0    0    0 -0.00000000000E+00 -0.00000000000E+00 -0.74505805969E-08  0.93827000000E+00  0.93827000000E+00 0.  1.
     999902    2    1    2    0    0  0.15289564666E-02 -0.23435690933E-01  0.27053326940E-03  0.10204429290E+01  0.10201725975E+01 0.  0.
     999903    2    3    3    0    0  0.10163307984E+00  0.72766753952E-01 -0.25469282922E-01  0.12918635309E+00  0.20399658162E-01 0.  0.
         14    1    1    2    0    0 -0.15289564666E-02  0.23435690933E-01 -0.27053326940E-03  0.23487071031E-01  0.00000000000E+00 0.  1.
     999901    1    3    3    0    0 -0.10010412337E+00 -0.96202444885E-01  0.25739816191E-01  0.89125657588E+00  0.88000000000E+00 0. -1.
        -11    1    4    4    0    0  0.90491328042E-01  0.67061231626E-01 -0.16630083449E-01  0.11385389776E+00  0.51100000000E-03 0.  1.
         11    1    4    4    0    0  0.11141751795E-01  0.57055223263E-02 -0.88391994729E-02  0.15332455329E-01  0.51100000000E-03 0. -1.
</event>
<event>
 8    1  0.1082757E+005  0.1043930E+01  0.7957747E-01            NaN
         13   -1    0    0    0    0  0.00000000000E+00  0.00000000000E+00  0.74505805969E-08  0.10566000000E+00  0.10566000000E+00 0. -1.
     999900   -1    0    0    0    0 -0.00000000000E+00 -0.00000000000E+00 -0.74505805969E-08  0.93827000000E+00  0.93827000000E+00 0. -1.
     999902    2    1    2    0    0 -0.11500081557E-01  0.20724253569E-01  0.79753062279E-03  0.10202153923E+01  0.10199397355E+01 0.  0.
     999903    2    3    3    0    0 -0.11196710315E+00  0.58157962872E-01  0.36415582922E-01  0.13299301284E+00  0.21025364472E-01 0.  0.
         14    1    1    2    0    0  0.11500081557E-01 -0.20724253569E-01 -0.79753062279E-03  0.23714607669E-01  0.00000000000E+00 0.  1.
     999901    1    3    3    0    0  0.10046702159E+00 -0.37433709303E-01 -0.35618052300E-01  0.88722237949E+00  0.88000000000E+00 0. -1.
        -11    1    4    4    0    0 -0.31019664303E-01  0.63955360100E-02  0.11834279690E-01  0.33814697265E-01  0.51100000000E-03 0. -1.
         11    1    4    4    0    0 -0.80947438848E-01  0.51762426862E-01  0.24581303232E-01  0.99178315575E-01  0.51100000000E-03 0.  1.
</event>
<event>
 8    1  0.1082757E+005  0.1043930E+01  0.7957747E-01            NaN
         13   -1    0    0    0    0  0.00000000000E+00  0.00000000000E+00  0.74505805969E-08  0.10566000000E+00  0.10566000000E+00 0.  1.
     999900   -1    0    0    0    0 -0.00000000000E+00 -0.00000000000E+00 -0.74505805969E-08  0.93827000000E+00  0.93827000000E+00 0.  1.
     999902    2    1    2    0    0  0.17751992224E-01 -0.26376825120E-02  0.15152432612E-01  0.10204419858E+01  0.10201716324E+01 0.  0.
     999903    2    3    3    0    0  0.88020086824E-01  0.94029476077E-01  0.22728701959E-01  0.13233188873E+00  0.20150851730E-01 0.  0.
         14    1    1    2    0    0 -0.17751992224E-01  0.26376825120E-02 -0.15152432612E-01  0.23488014199E-01  0.00000000000E+00 0. -1.
     999901    1    3    3    0    0 -0.70268094600E-01 -0.96667158589E-01 -0.75762693470E-02  0.88811009707E+00  0.88000000000E+00 0.  1.
        -11    1    4    4    0    0  0.46242914802E-01  0.34831830853E-01  0.11024124185E-01  0.58936033503E-01  0.51100000000E-03 0.  1.
         11    1    4    4    0    0  0.41777172021E-01  0.59197645225E-01  0.11704577774E-01  0.73395855224E-01  0.51100000000E-03 0. -1.
</event>
<event>
 8    1  0.1082757E+005  0.1043930E+01  0.7957747E-01            NaN
         13   -1    0    0    0    0  0.00000000000E+00  0.00000000000E+00  0.74505805969E-08  0.10566000000E+00  0.10566000000E+00 0.  1.
     999900   -1    0    0    0    0 -0.00000000000E+00 -0.00000000000E+00 -0.74505805969E-08  0.93827000000E+00  0.93827000000E+00 0.  1.
     999902    2    1    2    0    0  0.18220943717E-02  0.20296264480E-01 -0.12673938952E-01  0.10199323520E+01  0.10196499966E+01 0.  0.
     999903    2    3    3    0    0 -0.57137743473E-01  0.36713288063E-01 -0.11178145214E+00  0.13225669036E+00  0.19599792148E-01 0.  0.
         14    1    1    2    0    0 -0.18220943717E-02 -0.20296264480E-01  0.12673938952E-01  0.23997647975E-01  0.00000000000E+00 0.  1.
     999901    1    3    3    0    0  0.58959837845E-01 -0.16417023582E-01  0.99107513191E-01  0.88767566167E+00  0.88000000000E+00 0. -1.
        -11    1    4    4    0    0 -0.16809388008E-01  0.10507251132E-02 -0.26826420252E-01  0.31679291232E-01  0.51100000000E-03 0.  1.
         11    1    4    4    0    0 -0.40328355465E-01  0.35662562950E-01 -0.84955031891E-01  0.10057739913E+00  0.51100000000E-03 0. -1.
</event>
<event>
 8    1  0.1082757E+005  0.1043930E+01  0.7957747E-01            NaN
         13   -1    0    0    0    0  0.00000000000E+00  0.00000000000E+00  0.74505805969E-08  0.10566000000E+00  0.10566000000E+00 0. -1.
     999900   -1    0    0    0    0 -0.00000000000E+00 -0.00000000000E+00 -0.74505805969E-08  0.93827000000E+00  0.93827000000E+00 0. -1.
     999902    2    1    2    0    0 -0.16586744406E-01  0.11109641644E-01  0.14005629897E-01  0.10195434895E+01  0.10192517967E+01 0.  0.
     999903    2    3    3    0    0  0.77231652785E-01 -0.95975521383E-01  0.26646494115E-01  0.12801170919E+00  0.22381535774E-01 0.  0.
         14    1    1    2    0    0  0.16586744406E-01 -0.11109641644E-01 -0.14005629897E-01  0.24386510539E-01  0.00000000000E+00 0.  1.
     999901    1    3    3    0    0 -0.93818397191E-01  0.10708516303E+00 -0.12640864219E-01  0.89153178027E+00  0.88000000000E+00 0. -1.
        -11    1    4    4    0    0  0.18812393710E-01 -0.24499559879E-01  0.16821996262E-01  0.35176345327E-01  0.51100000000E-03 0. -1.
         11    1    4    4    0    0  0.58419259075E-01 -0.71475961504E-01  0.98244978535E-02  0.92835363859E-01  0.51100000000E-03 0.  1.
</event>
<event>
 8    1  0.1082757E+005  0.1043930E+01  0.7957747E-01            NaN
         13   -1    0    0    0    0  0.00000000000E+00  0.00000000000E+00  0.74505805969E-08  0.10566000000E+00  0.10566000000E+00 0.  1.
     999900   -1    0    0    0    0 -0.00000000000E+00 -0.00000000000E+00 -0.74505805969E-08  0.93827000000E+00  0.93827000000E+00 0. -1.
     999902    2    1    2    0    0  0.16963752674E-01 -0.15963730818E-01  0.30093883326E-02  0.10204424283E+01  0.10201720852E+01 0.  0.
     999903    2    3    3    0    0  0.65560785628E-01  0.49639445374E-01  0.10039742201E+00  0.13131371014E+00  0.20033895713E-01 0.  0.
         14    1    1    2    0    0 -0.16963752674E-01  0.15963730818E-01 -0.30093883326E-02  0.23487571704E-01  0.00000000000E+00 0.  1.
     999901    1    3    3    0    0 -0.48597032954E-01 -0.65603176192E-01 -0.97388033673E-01  0.88912871815E+00  0.88000000000E+00 0. -1.
        -11    1    4    4    0    0  0.20419723340E-01  0.27621808792E-01  0.38415604884E-01  0.51535902454E-01  0.51100000000E-03 0. -1.
         11    1    4    4    0    0  0.45141062288E-01  0.22017636582E-01  0.61981817122E-01  0.79777807690E-01  0.51100000000E-03 0.  1.
</event>
<event>
 8    1  0.1082757E+005  0.1043930E+01  0.7957747E-01            NaN
         13   -1    0    0    0    0  0.00000000000E+00  0.00000000000E+00  0.74505805969E-08  0.10566000000E+00  0.10566000000E+00 0. -1.
     999900   -1    0    0    0    0 -0.00000000000E+00 -0.00000000000E+00 -0.74505805969E-08  0.93827000000E+00  0.93827000000E+00 0. -1.
     999902    2    1    2    0    0 -0.16064161258E-01 -0.16712602845E-01 -0.23765199254E-02  0.10206272916E+01  0.10203612361E+01 0.  0.
     999903    2    3    3    0    0 -0.48173708868E-01 -0.41431133742E-01  0.11398634955E+00  0.13204282957E+00  0.20128981276E-01 0.  0.
         14    1    1    2    0    0  0.16064161258E-01  0.16712602845E-01  0.23765199254E-02  0.23302708378E-01  0.00000000000E+00 0. -1.
     999901    1    3    3    0    0  0.32109547610E-01  0.24718530896E-01 -0.11636286947E+00  0.88858446206E+00  0.88000000000E+00 0. -1.
        -11    1    4    4    0    0 -0.42806416220E-01 -0.33255458214E-01  0.10720387107E+00  0.12013012056E+00  0.51100000000E-03 0.  1.
         11    1    4    4    0    0 -0.53672926481E-02 -0.81756755274E-02  0.67824784750E-02  0.11912709010E-01  0.51100000000E-03 0. -1.
</event>
<event>
 8    1  0.1082757E+005  0.1043930E+01  0.7957747E-01            NaN
         13   -1    0    0    0    0  0.00000000000E+00  0.00000000000E+00  0.74505805969E-08  0.10566000000E+00  0.10566000000E+00 0. -1.
     999900   -1    0    0    0    0 -0.00000000000E+00 -0.00000000000E+00 -0.74505805969E-08  0.93827000000E+00  0.93827000000E+00 0. -1.
     999902    2    1    2    0    0 -0.66315372877E-02  0.16028882036E-01 -0.15702516757E-01  0.10205318937E+01  0.10202636300E+01 0.  0.
     999903    2    3    3    0    0  0.21140487333E-01  0.12875658852E+00  0.11428842334E-01  0.13249195551E+00  0.19957969500E-01 0.  0.
         14    1    1    2    0    0  0.66315372877E-02 -0.16028882036E-01  0.15702516757E-01  0.23398106305E-01  0.00000000000E+00 0. -1.
     999901    1    3    3    0    0 -0.27772024620E-01 -0.11272770648E+00 -0.27131359092E-01  0.88803993818E+00  0.88000000000E+00 0. -1.
        -11    1    4    4    0    0  0.65980552501E-02  0.70182394257E-01 -0.25493584175E-02  0.70539798313E-01  0.51100000000E-03 0. -1.
         11    1    4    4    0    0  0.14542432083E-01  0.58574194263E-01  0.13978200752E-01  0.61952157200E-01  0.51100000000E-03 0.  1.
</event>
<event>
 8    1  0.1082757E+005  0.1043930E+01  0.7957747E-01            NaN
         13   -1    0    0    0    0  0.00000000000E+00  0.00000000000E+00  0.74505805969E-08  0.10566000000E+00  0.10566000000E+00 0. -1.
     999900   -1    0    0    0    0 -0.00000000000E+00 -0.00000000000E+00 -0.74505805969E-08  0.93827000000E+00  0.93827000000E+00 0.  1.
     999902    2    1    2    0    0  0.23078011948E-01  0.40434691274E-02  0.34759261753E-02  0.10202440054E+01  0.10199690212E+01 0.  0.
     999903    2    3    3    0    0  0.55382807917E-01  0.11181932688E+00  0.39385753789E-01  0.13235394965E+00  0.19887511370E-01 0.  0.
         14    1    1    2    0    0 -0.23078011948E-01 -0.40434691274E-02 -0.34759261753E-02  0.23685994614E-01  0.00000000000E+00 0.  1.
     999901    1    3    3    0    0 -0.32304795968E-01 -0.10777585776E+00 -0.35909827614E-01  0.88789005574E+00  0.88000000000E+00 0.  1.
        -11    1    4    4    0    0  0.58551614915E-02  0.31105409993E-01  0.10241573932E-01  0.33271315040E-01  0.51100000000E-03 0.  1.
         11    1    4    4    0    0  0.49527646425E-01  0.80713916892E-01  0.29144179858E-01  0.99082634609E-01  0.51100000000E-03 0. -1.
</event>
<event>
 8    1  0.1082757E+005  0.1043930E+01  0.7957747E-01            NaN
         13   -1    0    0    0    0  0.00000000000E+00  0.00000000000E+00  0.74505805969E-08  0.10566000000E+00  0.10566000000E+00 0. -1.
     999900   -1    0    0    0    0 -0.00000000000E+00 -0.00000000000E+00 -0.74505805969E-08  0.93827000000E+00  0.93827000000E+00 0. -1.
     999902    2    1    2    0    0 -0.11274156496E-01 -0.79602856301E-02  0.19163463182E-01  0.10203140928E+01  0.10200407526E+01 0.  0.
     999903    2    3    3    0    0  0.10916100466E+00  0.36535621571E-01  0.56702661403E-01  0.13020527630E+00  0.22073640016E-01 0.  0.
         14    1    1    2    0    0  0.11274156496E-01  0.79602856301E-02 -0.19163463182E-01  0.23615907206E-01  0.00000000000E+00 0.  1.
     999901    1    3    3    0    0 -0.12043516116E+00 -0.44495907201E-01 -0.37539198221E-01  0.89010881650E+00  0.88000000000E+00 0. -1.
        -11    1    4    4    0    0  0.58155943746E-01  0.15300514018E-01  0.18091408845E-01  0.62799520039E-01  0.51100000000E-03 0.  1.
         11    1    4    4    0    0  0.51005060916E-01  0.21235107553E-01  0.38611252558E-01  0.67405756259E-01  0.51100000000E-03 0. -1.
</event>
<event>
 8    1  0.1082757E+005  0.1043930E+01  0.7957747E-01            NaN
         13   -1    0    0    0    0  0.00000000000E+00  0.00000000000E+00  0.74505805969E-08  0.10566000000E+00  0.10566000000E+00 0. -1.
     999900   -1    0    0    0    0 -0.00000000000E+00 -0.00000000000E+00 -0.74505805969E-08  0.93827000000E+00  0.93827000000E+00 0. -1.
     999902    2    1    2    0    0 -0.13108778256E-01 -0.50087517348E-02  0.19712631250E-01  0.10197325726E+01  0.10194454395E+01 0.  0.
     999903    2    3    3    0    0  0.22762351051E-01 -0.34613932967E-01  0.12231330172E+00  0.13255158642E+00  0.29885285756E-01 0.  0.
         14    1    1    2    0    0  0.13108778256E-01  0.50087517348E-02 -0.19712631250E-01  0.24197427386E-01  0.00000000000E+00 0.  1.
     999901    1    3    3    0    0 -0.35871129307E-01  0.29605181232E-01 -0.10260067047E+00  0.88718098619E+00  0.88000000000E+00 0. -1.
        -11    1    4    4    0    0  0.82620372139E-02 -0.22044923906E-01  0.29358791071E-01  0.37635616949E-01  0.51100000000E-03 0. -1.
         11    1    4    4    0    0  0.14500313837E-01 -0.12569009060E-01  0.92954510651E-01  0.94915969476E-01  0.51100000000E-03 0.  1.
</event>
<event>
 8    1  0.1082757E+005  0.1043930E+01  0.7957747E-01            NaN
         13   -1    0    0    0    0  0.00000000000E+00  0.00000000000E+00  0.74505805969E-08  0.10566000000E+00  0.10566000000E+00 0.  1.
     999900   -1    0    0    0    0 -0.00000000000E+00 -0.00000000000E+00 -0.74505805969E-08  0.93827000000E+00  0.93827000000E+00 0.  1.
     999902    2    1    2    0    0  0.15831659423E-01  0.18902076858E-01  0.23515368850E-02  0.10191618819E+01  0.10188608746E+01 0.  0.
     999903    2    3    3    0    0  0.59907101646E-01  0.10391169270E+00  0.52589624880E-01  0.13254294181E+00  0.20382886772E-01 0.  0.
         14    1    1    2    0    0 -0.15831659423E-01 -0.18902076858E-01 -0.23515368850E-02  0.24768118123E-01  0.00000000000E+00 0.  1.
     999901    1    3    3    0    0 -0.44075442223E-01 -0.85009615838E-01 -0.50238087995E-01  0.88661894006E+00  0.88000000000E+00 0.  1.
        -11    1    4    4    0    0  0.25275570975E-01  0.43846451498E-01  0.33261660025E-01  0.60563726319E-01  0.51100000000E-03 0. -1.
         11    1    4    4    0    0  0.34631530671E-01  0.60065241198E-01  0.19327964855E-01  0.71979215495E-01  0.51100000000E-03 0.  1.
</event>
<event>
 8    1  0.1082757E+005  0.1043930E+01  0.7957747E-01            NaN
         13   -1    0    0    0    0  0.00000000000E+00  0.00000000000E+00  0.74505805969E-08  0.10566000000E+00  0.10566000000E+00 0. -1.
     999900   -1    0    0    0    0 -0.00000000000E+00 -0.00000000000E+00 -0.74505805969E-08  0.93827000000E+00  0.93827000000E+00 0. -1.
     999902    2    1    2    0    0 -0.14997288329E-01 -0.19158377760E-01 -0.47990287362E-02  0.10191309522E+01  0.10188291834E+01 0.  0.
     999903    2    3    3    0    0 -0.46341088992E-01  0.14273091330E-01  0.11829353894E+00  0.12938274220E+00  0.19882528982E-01 0.  0.
         14    1    1    2    0    0  0.14997288329E-01  0.19158377760E-01  0.47990287362E-02  0.24799047813E-01  0.00000000000E+00 0. -1.
     999901    1    3    3    0    0  0.31343800662E-01 -0.33431469090E-01 -0.12309256767E+00  0.88974820999E+00  0.88000000000E+00 0. -1.
        -11    1    4    4    0    0 -0.28371358920E-01 -0.17280437277E-03  0.77351732316E-01  0.82392447965E-01  0.51100000000E-03 0.  1.
         11    1    4    4    0    0 -0.17969730072E-01  0.14445895703E-01  0.40941806621E-01  0.46990294231E-01  0.51100000000E-03 0. -1.
</event>
<event>
 8    1  0.1082757E+005  0.1043930E+01  0.7957747E-01            NaN
         13   -1    0    0    0    0  0.00000000000E+00  0.00000000000E+00  0.74505805969E-08  0.10566000000E+00  0.10566000000E+00 0.  1.
     999900   -1    0    0    0    0 -0.00000000000E+00 -0.00000000000E+00 -0.74505805969E-08  0.93827000000E+00  0.93827000000E+00 0.  1.
     999902    2    1    2    0    0  0.25206918428E-01  0.27389464355E-02 -0.91450811328E-03  0.10185582265E+01  0.10182421784E+01 0.  0.
     999903    2    3    3    0    0 -0.73255891846E-01  0.80676825593E-01  0.62436953659E-01  0.12738896891E+00  0.21316668098E-01 0.  0.
         14    1    1    2    0    0 -0.25206918428E-01 -0.27389464355E-02  0.91450811328E-03  0.25371773476E-01  0.00000000000E+00 0. -1.
     999901    1    3    3    0    0  0.98462810274E-01 -0.77937879158E-01 -0.63351461772E-01  0.89116925762E+00  0.88000000000E+00 0.  1.
        -11    1    4    4    0    0 -0.21285119780E-01  0.27082185233E-01  0.90820248675E-02  0.35626470184E-01  0.51100000000E-03 0.  1.
         11    1    4    4    0    0 -0.51970772066E-01  0.53594640360E-01  0.53354928792E-01  0.91762498723E-01  0.51100000000E-03 0. -1.
</event>
<event>
 8    1  0.1082757E+005  0.1043930E+01  0.7957747E-01            NaN
         13   -1    0    0    0    0  0.00000000000E+00  0.00000000000E+00  0.74505805969E-08  0.10566000000E+00  0.10566000000E+00 0.  1.
     999900   -1    0    0    0    0 -0.00000000000E+00 -0.00000000000E+00 -0.74505805969E-08  0.93827000000E+00  0.93827000000E+00 0. -1.
     999902    2    1    2    0    0  0.48062792742E-02  0.29605689213E-02 -0.21005521602E-01  0.10221792017E+01  0.10219477595E+01 0.  0.
     999903    2    3    3    0    0 -0.43779164643E-01 -0.93905248354E-01  0.78307716019E-01  0.12998715338E+00  0.54544230893E-02 0.  0.
         14    1    1    2    0    0 -0.48062792742E-02 -0.29605689213E-02  0.21005521602E-01  0.21750798298E-01  0.00000000000E+00 0.  1.
     999901    1    3    3    0    0  0.48585443917E-01  0.96865817276E-01 -0.99313237621E-01  0.89219204832E+00  0.88000000000E+00 0. -1.
        -11    1    4    4    0    0 -0.17790822243E-01 -0.33610010465E-01  0.26581783962E-01  0.46400415075E-01  0.51100000000E-03 0.  1.
         11    1    4    4    0    0 -0.25988342400E-01 -0.60295237889E-01  0.51725932057E-01  0.83586738308E-01  0.51100000000E-03 0. -1.
</event>
<event>
 8    1  0.1082757E+005  0.1043930E+01  0.7957747E-01            NaN
         13   -1    0    0    0    0  0.00000000000E+00  0.00000000000E+00  0.74505805969E-08  0.10566000000E+00  0.10566000000E+00 0.  1.
     999900   -1    0    0    0    0 -0.00000000000E+00 -0.00000000000E+00 -0.74505805969E-08  0.93827000000E+00  0.93827000000E+00 0.  1.
     999902    2    1    2    0    0  0.29842022922E-02  0.22602123911E-01  0.60221132197E-02  0.10203497685E+01  0.10200772632E+01 0.  0.
     999903    2    3    3    0    0 -0.11111235523E+00 -0.21782837740E-02 -0.65639197897E-01  0.12975028697E+00  0.13263945995E-01 0.  0.
         14    1    1    2    0    0 -0.29842022922E-02 -0.22602123911E-01 -0.60221132197E-02  0.23580231471E-01  0.00000000000E+00 0.  1.
     999901    1    3    3    0    0  0.11409655752E+00  0.24780407685E-01  0.71661311117E-01  0.89059948156E+00  0.88000000000E+00 0.  1.
        -11    1    4    4    0    0 -0.64777285313E-01 -0.74888179488E-02 -0.35990979310E-01  0.74483493469E-01  0.51100000000E-03 0. -1.
         11    1    4    4    0    0 -0.46335069916E-01  0.53105341748E-02 -0.29648218587E-01  0.55266793500E-01  0.51100000000E-03 0.  1.
</event>
<event>
 8    1  0.1082757E+005  0.1043930E+01  0.7957747E-01            NaN
         13   -1    0    0    0    0  0.00000000000E+00  0.00000000000E+00  0.74505805969E-08  0.10566000000E+00  0.10566000000E+00 0.  1.
     999900   -1    0    0    0    0 -0.00000000000E+00 -0.00000000000E+00 -0.74505805969E-08  0.93827000000E+00  0.93827000000E+00 0. -1.
     999902    2    1    2    0    0  0.35247546195E-02  0.16499964559E-01  0.16324658245E-01  0.10204530498E+01  0.10201829540E+01 0.  0.
     999903    2    3    3    0    0 -0.95788639183E-01 -0.44906734068E-01 -0.70398783490E-01  0.12851421320E+00  0.19179054104E-01 0.  0.
         14    1    1    2    0    0 -0.35247546195E-02 -0.16499964559E-01 -0.16324658245E-01  0.23476950236E-01  0.00000000000E+00 0. -1.
     999901    1    3    3    0    0  0.99313393802E-01  0.61406698627E-01  0.86723441735E-01  0.89193883656E+00  0.88000000000E+00 0.  1.
        -11    1    4    4    0    0 -0.81032732581E-01 -0.36508672076E-01 -0.66718179945E-01  0.11113398914E+00  0.51100000000E-03 0. -1.
         11    1    4    4    0    0 -0.14755906602E-01 -0.83980619918E-02 -0.36806035450E-02  0.17380224059E-01  0.51100000000E-03 0.  1.
</event>
<event>
 8    1  0.1082757E+005  0.1043930E+01  0.7957747E-01            NaN
         13   -1    0    0    0    0  0.00000000000E+00  0.00000000000E+00  0.74505805969E-08  0.10566000000E+00  0.10566000000E+00 0.  1.
     999900   -1    0    0    0    0 -0.00000000000E+00 -0.00000000000E+00 -0.74505805969E-08  0.93827000000E+00  0.93827000000E+00 0.  1.
     999902    2    1    2    0    0 -0.51662457046E-02  0.95981918991E-02  0.20070856597E-01  0.10210902393E+01  0.10208347673E+01 0.  0.
     999903    2    3    3    0    0  0.96934077464E-01  0.67697695395E-01  0.53624815648E-01  0.13265009140E+00  0.27225586512E-01 0.  0.
         14    1    1    2    0    0  0.51662457046E-02 -0.95981918991E-02 -0.20070856597E-01  0.22839760659E-01  0.00000000000E+00 0.  1.
     999901    1    3    3    0    0 -0.10210032317E+00 -0.58099503496E-01 -0.33553959051E-01  0.88844014794E+00  0.88000000000E+00 0.  1.
        -11    1    4    4    0    0  0.69296296951E-01  0.56831595997E-01  0.50275378025E-01  0.10276031253E+00  0.51100000000E-03 0. -1.
         11    1    4    4    0    0  0.27637780513E-01  0.10866099398E-01  0.33494376228E-02  0.29889778875E-01  0.51100000000E-03 0.  1.
</event>
<event>
 8    1  0.1082757E+005  0.1043930E+01  0.7957747E-01            NaN
         13   -1    0    0    0    0  0.00000000000E+00  0.00000000000E+00  0.74505805969E-08  0.10566000000E+00  0.10566000000E+00 0.  1.
     999900   -1    0    0    0    0 -0.00000000000E+00 -0.00000000000E+00 -0.74505805969E-08  0.93827000000E+00  0.93827000000E+00 0. -1.
     999902    2    1    2    0    0 -0.46023377214E-02  0.11418896541E-01 -0.19501472537E-01  0.10208674732E+01  0.10206069360E+01 0.  0.
     999903    2    3    3    0    0 -0.12777841735E+00 -0.10217759769E-01 -0.23364450071E-01  0.13201685917E+00  0.21232687595E-01 0.  0.
         14    1    1    2    0    0  0.46023377214E-02 -0.11418896541E-01  0.19501472537E-01  0.23062526788E-01  0.00000000000E+00 0.  1.
     999901    1    3    3    0    0  0.12317607963E+00  0.21636656310E-01  0.38629775340E-02  0.88885061404E+00  0.88000000000E+00 0.  1.
        -11    1    4    4    0    0 -0.94415731551E-01 -0.13970642346E-01 -0.10345115591E-01  0.96004123606E-01  0.51100000000E-03 0. -1.
         11    1    4    4    0    0 -0.33362685800E-01  0.37528825774E-02 -0.13019334480E-01  0.36012735563E-01  0.51100000000E-03 0.  1.
</event>
<event>
 8    1  0.1082757E+005  0.1043930E+01  0.7957747E-01            NaN
         13   -1    0    0    0    0  0.00000000000E+00  0.00000000000E+00  0.74505805969E-08  0.10566000000E+00  0.10566000000E+00 0.  1.
     999900   -1    0    0    0    0 -0.00000000000E+00 -0.00000000000E+00 -0.74505805969E-08  0.93827000000E+00  0.93827000000E+00 0.  1.
     999902    2    1    2    0    0  0.23915090058E-01 -0.74096993000E-02  0.80991213555E-02  0.10176159174E+01  0.10172756384E+01 0.  0.
     999903    2    3    3    0    0 -0.30420842874E-01 -0.27876173609E-01  0.12035700932E+00  0.12858661328E+00  0.18606415180E-01 0.  0.
         14    1    1    2    0    0 -0.23915090058E-01  0.74096993000E-02 -0.80991213555E-02  0.26314082597E-01  0.00000000000E+00 0.  1.
     999901    1    3    3    0    0  0.54335932933E-01  0.20466474309E-01 -0.11225788797E+00  0.88902930412E+00  0.88000000000E+00 0.  1.
        -11    1    4    4    0    0 -0.17111717880E-01 -0.18826835824E-01  0.96538324603E-01  0.99835714422E-01  0.51100000000E-03 0.  1.
         11    1    4    4    0    0 -0.13309124994E-01 -0.90493377851E-02  0.23818684718E-01  0.28750898858E-01  0.51100000000E-03 0. -1.
</event>
<event>
 8    1  0.1082757E+005  0.1043930E+01  0.7957747E-01            NaN
         13   -1    0    0    0    0  0.00000000000E+00  0.00000000000E+00  0.74505805969E-08  0.10566000000E+00  0.10566000000E+00 0. -1.
     999900   -1    0    0    0    0 -0.00000000000E+00 -0.00000000000E+00 -0.74505805969E-08  0.93827000000E+00  0.93827000000E+00 0.  1.
     999902    2    1    2    0    0  0.17805571405E-01  0.35781097102E-02  0.16714620433E-01  0.10192476221E+01  0.10189487207E+01 0.  0.
     999903    2    3    3    0    0  0.10831713617E+00 -0.63546352668E-01 -0.30889307626E-01  0.13078593426E+00  0.19495393031E-01 0.  0.
         14    1    1    2    0    0 -0.17805571405E-01 -0.35781097102E-02 -0.16714620433E-01  0.24682377891E-01  0.00000000000E+00 0.  1.
     999901    1    3    3    0    0 -0.90511564766E-01  0.67124462379E-01  0.47603928059E-01  0.88846168785E+00  0.88000000000E+00 0. -1.
        -11    1    4    4    0    0  0.32994502110E-01 -0.23375873453E-01 -0.18700319666E-01  0.44553694637E-01  0.51100000000E-03 0.  1.
         11    1    4    4    0    0  0.75322634060E-01 -0.40170479216E-01 -0.12188987959E-01  0.86232239625E-01  0.51100000000E-03 0. -1.
</event>
<event>
 8    1  0.1082757E+005  0.1043930E+01  0.7957747E-01            NaN
         13   -1    0    0    0    0  0.00000000000E+00  0.00000000000E+00  0.74505805969E-08  0.10566000000E+00  0.10566000000E+00 0.  1.
     999900   -1    0    0    0    0 -0.00000000000E+00 -0.00000000000E+00 -0.74505805969E-08  0.93827000000E+00  0.93827000000E+00 0. -1.
     999902    2    1    2    0    0 -0.29546053525E-02  0.92123641060E-02  0.21617834433E-01  0.10202460791E+01  0.10199711436E+01 0.  0.
     999903    2    3    3    0    0 -0.65136190383E-01 -0.38809128913E-01  0.10531681842E+00  0.13279008961E+00  0.28154997250E-01 0.  0.
         14    1    1    2    0    0  0.29546053525E-02 -0.92123641060E-02 -0.21617834433E-01  0.23683920933E-01  0.00000000000E+00 0. -1.
     999901    1    3    3    0    0  0.62181585031E-01  0.48021493019E-01 -0.83698983991E-01  0.88745598946E+00  0.88000000000E+00 0. -1.
        -11    1    4    4    0    0 -0.39560934842E-01 -0.77551938727E-02  0.58702488166E-01  0.71214140699E-01  0.51100000000E-03 0. -1.
         11    1    4    4    0    0 -0.25575255541E-01 -0.31053935040E-01  0.46614330257E-01  0.61575948907E-01  0.51100000000E-03 0.  1.
</event>
<event>
 8    1  0.1082757E+005  0.1043930E+01  0.7957747E-01            NaN
         13   -1    0    0    0    0  0.00000000000E+00  0.00000000000E+00  0.74505805969E-08  0.10566000000E+00  0.10566000000E+00 0. -1.
     999900   -1    0    0    0    0 -0.00000000000E+00 -0.00000000000E+00 -0.74505805969E-08  0.93827000000E+00  0.93827000000E+00 0. -1.
     999902    2    1    2    0    0  0.42204177949E-02  0.24284686756E-01  0.76666023486E-02  0.10181165398E+01  0.10177892482E+01 0.  0.
     999903    2    3    3    0    0  0.85103733009E-01 -0.24227339671E-01  0.91901378615E-01  0.12907715655E+00  0.19632615539E-01 0.  0.
         14    1    1    2    0    0 -0.42204177949E-02 -0.24284686756E-01 -0.76666023486E-02  0.25813460224E-01  0.00000000000E+00 0. -1.
     999901    1    3    3    0    0 -0.80883315214E-01  0.48512026427E-01 -0.84234776267E-01  0.88903938322E+00  0.88000000000E+00 0.  1.
        -11    1    4    4    0    0  0.46058295014E-01 -0.20956646993E-01  0.42953555895E-01  0.66376326185E-01  0.51100000000E-03 0. -1.
         11    1    4    4    0    0  0.39045437995E-01 -0.32706926776E-02  0.48947822720E-01  0.62700830368E-01  0.51100000000E-03 0.  1.
</event>
<event>
 8    1  0.1082757E+005  0.1043930E+01  0.7957747E-01            NaN
         13   -1    0    0    0    0  0.00000000000E+00  0.00000000000E+00  0.74505805969E-08  0.10566000000E+00  0.10566000000E+00 0.  1.
     999900   -1    0    0    0    0 -0.00000000000E+00 -0.00000000000E+00 -0.74505805969E-08  0.93827000000E+00  0.93827000000E+00 0. -1.
     999902    2    1    2    0    0 -0.15004448461E-01  0.12315522738E-01  0.14372986253E-01  0.10197765674E+01  0.10194904899E+01 0.  0.
     999903    2    3    3    0    0  0.51479403452E-01 -0.90477788331E-01 -0.70477186941E-01  0.12725983405E+00  0.19790713034E-01 0.  0.
         14    1    1    2    0    0  0.15004448461E-01 -0.12315522738E-01 -0.14372986253E-01  0.24153432629E-01  0.00000000000E+00 0. -1.
     999901    1    3    3    0    0 -0.66483851913E-01  0.10279331107E+00  0.84850173194E-01  0.89251673332E+00  0.88000000000E+00 0.  1.
        -11    1    4    4    0    0  0.32672514106E-01 -0.49359149606E-01 -0.29074260360E-01  0.65949924673E-01  0.51100000000E-03 0. -1.
         11    1    4    4    0    0  0.18806889346E-01 -0.41118638725E-01 -0.41402926580E-01  0.61309909378E-01  0.51100000000E-03 0.  1.
</event>
<event>
 8    1  0.1082757E+005  0.1043930E+01  0.7957747E-01            NaN
         13   -1    0    0    0    0  0.00000000000E+00  0.00000000000E+00  0.74505805969E-08  0.10566000000E+00  0.10566000000E+00 0. -1.
     999900   -1    0    0    0    0 -0.00000000000E+00 -0.00000000000E+00 -0.74505805969E-08  0.93827000000E+00  0.93827000000E+00 0. -1.
     999902    2    1    2    0    0 -0.55808500925E-02 -0.16885887946E-01  0.12578569958E-01  0.10221469901E+01  0.10219148545E+01 0.  0.
     999903    2    3    3    0    0  0.11923472967E+00 -0.16390116796E-01 -0.48159677658E-01  0.13126635302E+00  0.20638415556E-01 0.  0.
         14    1    1    2    0    0  0.55808500925E-02  0.16885887946E-01 -0.12578569958E-01  0.21783009931E-01  0.00000000000E+00 0.  1.
     999901    1    3    3    0    0 -0.12481557976E+00 -0.49577115029E-03  0.60738247616E-01  0.89088063705E+00  0.88000000000E+00 0. -1.
        -11    1    4    4    0    0  0.79126431478E-01 -0.17260242186E-01 -0.39983169841E-01  0.90320668234E-01  0.51100000000E-03 0. -1.
         11    1    4    4    0    0  0.40108298188E-01  0.87012538961E-03 -0.81765078178E-02  0.40945684789E-01  0.51100000000E-03 0.  1.
</event>
<event>
 8    1  0.1082757E+005  0.1043930E+01  0.7957747E-01            NaN
         13   -1    0    0    0    0  0.00000000000E+00  0.00000000000E+00  0.74505805969E-08  0.10566000000E+00  0.10566000000E+00 0. -1.
     999900   -1    0    0    0    0 -0.00000000000E+00 -0.00000000000E+00 -0.74505805969E-08  0.93827000000E+00  0.93827000000E+00 0.  1.
     999902    2    1    2    0    0 -0.32278131694E-02  0.28640342566E-01 -0.10857895341E-03  0.10151081370E+01  0.10146988863E+01 0.  0.
     999903    2    3    3    0    0  0.10700916800E+00  0.65890476874E-01  0.34894146742E-02  0.12744113290E+00  0.20893763712E-01 0.  0.
         14    1    1    2    0    0  0.32278131694E-02 -0.28640342566E-01  0.10857895341E-03  0.28821863047E-01  0.00000000000E+00 0. -1.
     999901    1    3    3    0    0 -0.11023698117E+00 -0.37250134308E-01 -0.35979936276E-02  0.88766700405E+00  0.88000000000E+00 0. -1.
        -11    1    4    4    0    0  0.90068433683E-01  0.58205168844E-01  0.10047958841E-01  0.10770973505E+00  0.51100000000E-03 0.  1.
         11    1    4    4    0    0  0.16940734316E-01  0.76853080295E-02 -0.65585441666E-02  0.19731397854E-01  0.51100000000E-03 0. -1.
</event>
<event>
 8    1  0.1082757E+005  0.1043930E+01  0.7957747E-01            NaN
         13   -1    0    0    0    0  0.00000000000E+00  0.00000000000E+00  0.74505805969E-08  0.10566000000E+00  0.10566000000E+00 0. -1.
     999900   -1    0    0    0    0 -0.00000000000E+00 -0.00000000000E+00 -0.74505805969E-08  0.93827000000E+00  0.93827000000E+00 0.  1.
     999902    2    1    2    0    0 -0.59534509092E-02  0.18399991105E-01  0.13832474114E-01  0.10201531081E+01  0.10198759843E+01 0.  0.
     999903    2    3    3    0    0  0.18458548675E-01 -0.81876126317E-01  0.97526871592E-01  0.13017782884E+00  0.19757488682E-01 0.  0.
         14    1    1    2    0    0  0.59534509092E-02 -0.18399991105E-01 -0.13832474114E-01  0.23776891943E-01  0.00000000000E+00 0.  1.
     999901    1    3    3    0    0 -0.24411999584E-01  0.10027611742E+00 -0.83694397478E-01  0.88997527922E+00  0.88000000000E+00 0. -1.
        -11    1    4    4    0    0 -0.10239670668E-02 -0.39102127387E-01  0.41164135927E-01  0.56787076719E-01  0.51100000000E-03 0.  1.
         11    1    4    4    0    0  0.19482515742E-01 -0.42773998930E-01  0.56362735665E-01  0.73390752120E-01  0.51100000000E-03 0. -1.
</event>
<event>
 8    1  0.1082757E+005  0.1043930E+01  0.7957747E-01            NaN
         13   -1    0    0    0    0  0.00000000000E+00  0.00000000000E+00  0.74505805969E-08  0.10566000000E+00  0.10566000000E+00 0.  1.
     999900   -1    0    0    0    0 -0.00000000000E+00 -0.00000000000E+00 -0.74505805969E-08  0.93827000000E+00  0.93827000000E+00 0. -1.
     999902    2    1    2    0    0  0.22546616723E-01 -0.37833390539E-02 -0.40369030793E-02  0.10207144844E+01  0.10204504390E+01 0.  0.
     999903    2    3    3    0    0 -0.11057033960E+00  0.51673924623E-01  0.33574713248E-01  0.12818422390E+00  0.20197509776E-01 0.  0.
         14    1    1    2    0    0 -0.22546616723E-01  0.37833390539E-02  0.40369030793E-02  0.23215515642E-01  0.00000000000E+00 0. -1.
     999901    1    3    3    0    0  0.13311695632E+00 -0.55457263676E-01 -0.37611616327E-01  0.89253026046E+00  0.88000000000E+00 0. -1.
        -11    1    4    4    0    0 -0.64614335878E-01  0.39560583022E-01  0.15494215674E-01  0.77332942336E-01  0.51100000000E-03 0. -1.
         11    1    4    4    0    0 -0.45956003722E-01  0.12113341600E-01  0.18080497573E-01  0.50851281561E-01  0.51100000000E-03 0.  1.
</event>
<event>
 8    1  0.1082757E+005  0.1043930E+01  0.7957747E-01            NaN
         13   -1    0    0    0    0  0.00000000000E+00  0.00000000000E+00  0.74505805969E-08  0.10566000000E+00  0.10566000000E+00 0.  1.
     999900   -1    0    0    0    0 -0.00000000000E+00 -0.00000000000E+00 -0.74505805969E-08  0.93827000000E+00  0.93827000000E+00 0. -1.
     999902    2    1    2    0    0  0.35920995057E-02 -0.18521386421E-01  0.11681521272E-01  0.10217398474E+01  0.10214988560E+01 0.  0.
     999903    2    3    3    0    0 -0.99535068983E-01 -0.77537251897E-01 -0.35410131417E-01  0.13250663331E+00  0.19618233243E-01 0.  0.
         14    1    1    2    0    0 -0.35920995057E-02  0.18521386421E-01 -0.11681521272E-01  0.22190152614E-01  0.00000000000E+00 0. -1.
     999901    1    3    3    0    0  0.10312716849E+00  0.59015865476E-01  0.47091652688E-01  0.88923321407E+00  0.88000000000E+00 0.  1.
        -11    1    4    4    0    0 -0.39286059533E-01 -0.27858489603E-01 -0.39797411229E-02  0.48327935783E-01  0.51100000000E-03 0.  1.
         11    1    4    4    0    0 -0.60249009450E-01 -0.49678762294E-01 -0.31430390294E-01  0.84178697530E-01  0.51100000000E-03 0. -1.
</event>
<event>
 8    1  0.1082757E+005  0.1043930E+01  0.7957747E-01            NaN
         13   -1    0    0    0    0  0.00000000000E+00  0.00000000000E+00  0.74505805969E-08  0.10566000000E+00  0.10566000000E+00 0.  1.
     999900   -1    0    0    0    0 -0.00000000000E+00 -0.00000000000E+00 -0.74505805969E-08  0.93827000000E+00  0.93827000000E+00 0. -1.
     999902    2    1    2    0    0 -0.20094962482E-01  0.29554103607E-02 -0.11288653460E-01  0.10206926235E+01  0.10204280749E+01 0.  0.
     999903    2    3    3    0    0  0.10515045844E+00  0.17676038129E-01 -0.71207631969E-01  0.12968566716E+00  0.19462378638E-01 0.  0.
         14    1    1    2    0    0  0.20094962482E-01 -0.29554103607E-02  0.11288653460E-01  0.23237376455E-01  0.00000000000E+00 0.  1.
     999901    1    3    3    0    0 -0.12524542092E+00 -0.14720627768E-01  0.59918978509E-01  0.89100695639E+00  0.88000000000E+00 0. -1.
        -11    1    4    4    0    0  0.31775341539E-01  0.68036452539E-02 -0.32719211847E-01  0.46116915157E-01  0.51100000000E-03 0. -1.
         11    1    4    4    0    0  0.73375116899E-01  0.10872392875E-01 -0.38488420122E-01  0.83568752002E-01  0.51100000000E-03 0.  1.
</event>
<event>
 8    1  0.1082757E+005  0.1043930E+01  0.7957747E-01            NaN
         13   -1    0    0    0    0  0.00000000000E+00  0.00000000000E+00  0.74505805969E-08  0.10566000000E+00  0.10566000000E+00 0.  1.
     999900   -1    0    0    0    0 -0.00000000000E+00 -0.00000000000E+00 -0.74505805969E-08  0.93827000000E+00  0.93827000000E+00 0. -1.
     999902    2    1    2    0    0 -0.22962238828E-03 -0.32550305744E-01 -0.12762980384E-01  0.10089661787E+01  0.10083601941E+01 0.  0.
     999903    2    3    3    0    0 -0.38628768976E-01 -0.50972953830E-02  0.11088884245E+00  0.11906846801E+00  0.19047322127E-01 0.  0.
         14    1    1    2    0    0  0.22962238828E-03  0.32550305744E-01  0.12762980384E-01  0.34963821283E-01  0.00000000000E+00 0.  1.
     999901    1    3    3    0    0  0.38399146588E-01 -0.27453010361E-01 -0.12365182284E+00  0.88989771071E+00  0.88000000000E+00 0. -1.
        -11    1    4    4    0    0 -0.33024743477E-01 -0.83154258036E-02  0.72078391897E-01  0.79720359304E-01  0.51100000000E-03 0. -1.
         11    1    4    4    0    0 -0.56040254986E-02  0.32181304206E-02  0.38810450555E-01  0.39348108703E-01  0.51100000000E-03 0.  1.
</event>
<event>
 8    1  0.1082757E+005  0.1043930E+01  0.7957747E-01            NaN
         13   -1    0    0    0    0  0.00000000000E+00  0.00000000000E+00  0.74505805969E-08  0.10566000000E+00  0.10566000000E+00 0.  1.
     999900   -1    0    0    0    0 -0.00000000000E+00 -0.00000000000E+00 -0.74505805969E-08  0.93827000000E+00  0.93827000000E+00 0.  1.
     999902    2    1    2    0    0 -0.86530737775E-02  0.20895976710E-01  0.80935054204E-02  0.10199087103E+01  0.10196257917E+01 0.  0.
     999903    2    3    3    0    0 -0.93563866874E-01  0.15483797457E-01 -0.87558772736E-01  0.13064581735E+00  0.20195191040E-01 0.  0.
         14    1    1    2    0    0  0.86530737775E-02 -0.20895976710E-01 -0.80935054204E-02  0.24021289691E-01  0.00000000000E+00 0. -1.
     999901    1    3    3    0    0  0.84910793096E-01  0.54121792528E-02  0.95652278156E-01  0.88926289295E+00  0.88000000000E+00 0. -1.
        -11    1    4    4    0    0 -0.31930416926E-01 -0.34063385422E-02 -0.34690368567E-01  0.47274067517E-01  0.51100000000E-03 0. -1.
         11    1    4    4    0    0 -0.61633449948E-01  0.18890135999E-01 -0.52868404169E-01  0.83371749837E-01  0.51100000000E-03 0.  1.
</event>
<event>
 8    1  0.1082757E+005  0.1043930E+01  0.7957747E-01            NaN
         13   -1    0    0    0    0  0.00000000000E+00  0.00000000000E+00  0.74505805969E-08  0.10566000000E+00  0.10566000000E+00 0.  1.
     999900   -1    0    0    0    0 -0.00000000000E+00 -0.00000000000E+00 -0.74505805969E-08  0.93827000000E+00  0.93827000000E+00 0. -1.
     999902    2    1    2    0    0 -0.56362760023E-02  0.13382185172E-01  0.17850862106E-01  0.10209190512E+01  0.10206596912E+01 0.  0.
     999903    2    3    3    0    0  0.94623066284E-01 -0.36346508900E-01 -0.76835515310E-01  0.12879216067E+00  0.20226983308E-01 0.  0.
         14    1    1    2    0    0  0.56362760023E-02 -0.13382185172E-01 -0.17850862106E-01  0.23010948809E-01  0.00000000000E+00 0. -1.
     999901    1    3    3    0    0 -0.10025934229E+00  0.49728694073E-01  0.94686377416E-01  0.89212689053E+00  0.88000000000E+00 0.  1.
        -11    1    4    4    0    0  0.73462634923E-01 -0.35430136463E-01 -0.66413305904E-01  0.10518099458E+00  0.51100000000E-03 0.  1.
         11    1    4    4    0    0  0.21160431361E-01 -0.91637243753E-03 -0.10422209407E-01  0.23611166082E-01  0.51100000000E-03 0. -1.
</event>
<event>
 8    1  0.1082757E+005  0.1043930E+01  0.7957747E-01            NaN
         13   -1    0    0    0    0  0.00000000000E+00  0.00000000000E+00  0.74505805969E-08  0.10566000000E+00  0.10566000000E+00 0.  1.
     999900   -1    0    0    0    0 -0.00000000000E+00 -0.00000000000E+00 -0.74505805969E-08  0.93827000000E+00  0.93827000000E+00 0.  1.
     999902    2    1    2    0    0  0.21122398336E-02 -0.13217543493E-01  0.20133283515E-01  0.10197532732E+01  0.10194666371E+01 0.  0.
     999903    2    3    3    0    0  0.47254436770E-01 -0.14720665816E-01 -0.11650336426E+00  0.12806406119E+00  0.19434250371E-01 0.  0.
         14    1    1    2    0    0 -0.21122398336E-02  0.13217543493E-01 -0.20133283515E-01  0.24176726788E-01  0.00000000000E+00 0. -1.
     999901    1    3    3    0    0 -0.45142196936E-01  0.15031223222E-02  0.13663664778E+00  0.89168921202E+00  0.88000000000E+00 0. -1.
        -11    1    4    4    0    0  0.34038572660E-01 -0.57734516544E-02 -0.58763540124E-01  0.68156965467E-01  0.51100000000E-03 0.  1.
         11    1    4    4    0    0  0.13215864109E-01 -0.89472141611E-02 -0.57739824138E-01  0.59907095723E-01  0.51100000000E-03 0. -1.
</event>
<event>
 7    1  0.1082757E+005  0.1043930E+01  0.7957747E-01            NaN
         13   -1    0    0    0    0  0.00000000000E+00  0.00000000000E+00  0.74505805969E-08  0.10566000000E+00  0.10566000000E+00 0. -1.
     999900   -1    0    0    0    0 -0.00000000000E+00 -0.00000000000E+00 -0.74505805969E-08  0.93827000000E+00  0.93827000000E+00 0.  1.
     999903    2    1    2    0    0 -0.14920928501E-01 -0.96360562807E-01 -0.20023891894E-01  0.10137884603E+00  0.19202135396E-01 0.  0.
         14    1    1    2    0    0  0.35037695150E-01 -0.19645311428E-01 -0.34620674270E-01  0.53029891848E-01  0.00000000000E+00 0.  1.
     999901    1    1    2    0    0 -0.20116766649E-01  0.11600587423E+00  0.54644566164E-01  0.88952126212E+00  0.88000000000E+00 0.  1.
        -11    1    3    3    0    0 -0.96035365919E-02 -0.69402388848E-01 -0.54649818884E-02  0.70278351154E-01  0.51100000000E-03 0.  1.
         11    1    3    3    0    0 -0.53173919094E-02 -0.26958173959E-01 -0.14558910005E-01  0.31100494875E-01  0.51100000000E-03 0. -1.
</event>
<event>
 8    1  0.1082757E+005  0.1043930E+01  0.7957747E-01            NaN
         13   -1    0    0    0    0  0.00000000000E+00  0.00000000000E+00  0.74505805969E-08  0.10566000000E+00  0.10566000000E+00 0. -1.
     999900   -1    0    0    0    0 -0.00000000000E+00 -0.00000000000E+00 -0.74505805969E-08  0.93827000000E+00  0.93827000000E+00 0. -1.
     999902    2    1    2    0    0  0.71047446932E-03  0.17950155353E-01  0.15509091216E-01  0.10201972218E+01  0.10199211374E+01 0.  0.
     999903    2    3    3    0    0 -0.91997964875E-01  0.40887053493E-02 -0.88349550433E-01  0.12914525251E+00  0.19811868429E-01 0.  0.
         14    1    1    2    0    0 -0.71047446932E-03 -0.17950155353E-01 -0.15509091216E-01  0.23732778209E-01  0.00000000000E+00 0. -1.
     999901    1    3    3    0    0  0.92708439344E-01  0.13861450004E-01  0.10385864165E+00  0.89105196929E+00  0.88000000000E+00 0.  1.
        -11    1    4    4    0    0 -0.54853242329E-01  0.68791622266E-02 -0.40644857187E-01  0.68618267274E-01  0.51100000000E-03 0.  1.
         11    1    4    4    0    0 -0.37144722545E-01 -0.27904568774E-02 -0.47704693246E-01  0.60526985232E-01  0.51100000000E-03 0. -1.
</event>
<event>
 8    1  0.1082757E+005  0.1043930E+01  0.7957747E-01            NaN
         13   -1    0    0    0    0  0.00000000000E+00  0.00000000000E+00  0.74505805969E-08  0.10566000000E+00  0.10566000000E+00 0.  1.
     999900   -1    0    0    0    0 -0.00000000000E+00 -0.00000000000E+00 -0.74505805969E-08  0.93827000000E+00  0.93827000000E+00 0. -1.
     999902    2    1    2    0    0  0.88812042680E-02  0.33937258847E-03  0.22331116668E-01  0.10198952390E+01  0.10196119992E+01 0.  0.
     999903    2    3    3    0    0  0.88418609267E-01  0.57289554760E-01 -0.72403658989E-01  0.12942109581E+00  0.20188775473E-01 0.  0.
         14    1    1    2    0    0 -0.88812042680E-02 -0.33937258847E-03 -0.22331116668E-01  0.24034760965E-01  0.00000000000E+00 0. -1.
     999901    1    3    3    0    0 -0.79537405000E-01 -0.56950182171E-01  0.94734775656E-01  0.89047414323E+00  0.88000000000E+00 0.  1.
        -11    1    4    4    0    0  0.32078154238E-01  0.32659824740E-01 -0.30640041546E-01  0.55088523291E-01  0.51100000000E-03 0. -1.
         11    1    4    4    0    0  0.56340455029E-01  0.24629730019E-01 -0.41763617443E-01  0.74332572514E-01  0.51100000000E-03 0.  1.
</event>
<event>
 8    1  0.1082757E+005  0.1043930E+01  0.7957747E-01            NaN
         13   -1    0    0    0    0  0.00000000000E+00  0.00000000000E+00  0.74505805969E-08  0.10566000000E+00  0.10566000000E+00 0.  1.
     999900   -1    0    0    0    0 -0.00000000000E+00 -0.00000000000E+00 -0.74505805969E-08  0.93827000000E+00  0.93827000000E+00 0.  1.
     999902    2    1    2    0    0 -0.17498117852E-01 -0.15628082055E-01  0.45059914895E-02  0.10200401478E+01  0.10197603533E+01 0.  0.
     999903    2    3    3    0    0  0.61518256674E-01  0.10960326768E+00  0.21929637690E-02  0.12766588303E+00  0.22279955299E-01 0.  0.
         14    1    1    2    0    0  0.17498117852E-01  0.15628082055E-01 -0.45059914895E-02  0.23889852164E-01  0.00000000000E+00 0. -1.
     999901    1    3    3    0    0 -0.79016374526E-01 -0.12523134974E+00  0.23130277205E-02  0.89237426481E+00  0.88000000000E+00 0.  1.
        -11    1    4    4    0    0  0.36155524568E-01  0.72628004738E-01 -0.84769254423E-02  0.81573086339E-01  0.51100000000E-03 0.  1.
         11    1    4    4    0    0  0.25362732106E-01  0.36975262943E-01  0.10669889211E-01  0.46092796686E-01  0.51100000000E-03 0. -1.
</event>
<event>
 8    1  0.1082757E+005  0.1043930E+01  0.7957747E-01            NaN
         13   -1    0    0    0    0  0.00000000000E+00  0.00000000000E+00  0.74505805969E-08  0.10566000000E+00  0.10566000000E+00 0.  1.
     999900   -1    0    0    0    0 -0.00000000000E+00 -0.00000000000E+00 -0.74505805969E-08  0.93827000000E+00  0.93827000000E+00 0.  1.
     999902    2    1    2    0    0  0.15676433518E-01 -0.17589229966E-01 -0.19149275470E-02  0.10202910803E+01  0.10200172008E+01 0.  0.
     999903    2    3    3    0    0  0.89736713088E-01 -0.38630442360E-01  0.87138331896E-01  0.13245205170E+00  0.20136244961E-01 0.  0.
         14    1    1    2    0    0 -0.15676433518E-01  0.17589229966E-01  0.19149275470E-02  0.23638919734E-01  0.00000000000E+00 0.  1.
     999901    1    3    3    0    0 -0.74060279570E-01  0.21041212393E-01 -0.89053259443E-01  0.88783902857E+00  0.88000000000E+00 0.  1.
        -11    1    4    4    0    0  0.64615733820E-01 -0.37139503493E-01  0.63275617538E-01  0.97768096394E-01  0.51100000000E-03 0. -1.
         11    1    4    4    0    0  0.25120979268E-01 -0.14909388669E-02  0.23862714358E-01  0.34683955305E-01  0.51100000000E-03 0.  1.
</event>
<event>
 8    1  0.1082757E+005  0.1043930E+01  0.7957747E-01            NaN
         13   -1    0    0    0    0  0.00000000000E+00  0.00000000000E+00  0.74505805969E-08  0.10566000000E+00  0.10566000000E+00 0. -1.
     999900   -1    0    0    0    0 -0.00000000000E+00 -0.00000000000E+00 -0.74505805969E-08  0.93827000000E+00  0.93827000000E+00 0. -1.
     999902    2    1    2    0    0 -0.24024275123E-02  0.22609205668E-01  0.36464020943E-02  0.10209029705E+01  0.10206432438E+01 0.  0.
     999903    2    3    3    0    0  0.70348786049E-01 -0.45855033099E-01  0.97195185544E-01  0.13032368378E+00  0.22039117548E-01 0.  0.
         14    1    1    2    0    0  0.24024275123E-02 -0.22609205668E-01 -0.36464020943E-02  0.23027029490E-01  0.00000000000E+00 0. -1.
     999901    1    3    3    0    0 -0.72751213562E-01  0.68464238767E-01 -0.93548783450E-01  0.89057928673E+00  0.88000000000E+00 0. -1.
        -11    1    4    4    0    0  0.18718515616E-01 -0.57735037243E-02  0.34921801741E-01  0.40043845095E-01  0.51100000000E-03 0.  1.
         11    1    4    4    0    0  0.51630270433E-01 -0.40081529375E-01  0.62273383803E-01  0.90279838687E-01  0.51100000000E-03 0. -1.
</event>
<event>
 8    1  0.1082757E+005  0.1043930E+01  0.7957747E-01            NaN
         13   -1    0    0    0    0  0.00000000000E+00  0.00000000000E+00  0.74505805969E-08  0.10566000000E+00  0.10566000000E+00 0.  1.
     999900   -1    0    0    0    0 -0.00000000000E+00 -0.00000000000E+00 -0.74505805969E-08  0.93827000000E+00  0.93827000000E+00 0.  1.
     999902    2    1    2    0    0  0.13668816421E-01  0.34050949429E-02 -0.15884229772E-01  0.10226993625E+01  0.10224789710E+01 0.  0.
     999903    2    3    3    0    0 -0.43097275214E-02  0.15467689696E-01  0.12822852883E+00  0.13071437302E+00  0.19643536630E-01 0.  0.
         14    1    1    2    0    0 -0.13668816421E-01 -0.34050949429E-02  0.15884229772E-01  0.21230637517E-01  0.00000000000E+00 0. -1.
     999901    1    3    3    0    0  0.17978543942E-01 -0.12062594753E-01 -0.14411275861E+00  0.89198498946E+00  0.88000000000E+00 0.  1.
        -11    1    4    4    0    0 -0.90058811029E-02  0.13272497537E-01  0.54801466337E-01  0.57102775055E-01  0.51100000000E-03 0.  1.
         11    1    4    4    0    0  0.46961535815E-02  0.21951921596E-02  0.73427062497E-01  0.73611597965E-01  0.51100000000E-03 0. -1.
</event>
<event>
 8    1  0.1082757E+005  0.1043930E+01  0.7957747E-01            NaN
         13   -1    0    0    0    0  0.00000000000E+00  0.00000000000E+00  0.74505805969E-08  0.10566000000E+00  0.10566000000E+00 0. -1.
     999900   -1    0    0    0    0 -0.00000000000E+00 -0.00000000000E+00 -0.74505805969E-08  0.93827000000E+00  0.93827000000E+00 0.  1.
     999902    2    1    2    0    0 -0.20945984553E-01  0.11758480912E-01  0.50132103078E-03  0.10199040252E+01  0.10196209949E+01 0.  0.
     999903    2    3    3    0    0  0.51449085894E-01  0.10897974276E+00 -0.45531077303E-01  0.13040304056E+00  0.20205969816E-01 0.  0.
         14    1    1    2    0    0  0.20945984553E-01 -0.11758480912E-01 -0.50132103078E-03  0.24025974799E-01  0.00000000000E+00 0. -1.
     999901    1    3    3    0    0 -0.72395070447E-01 -0.97221261846E-01  0.46032398333E-01  0.88950098464E+00  0.88000000000E+00 0. -1.
        -11    1    4    4    0    0  0.38407482507E-01  0.87002322879E-01 -0.27098845091E-01  0.98889571873E-01  0.51100000000E-03 0.  1.
         11    1    4    4    0    0  0.13041603387E-01  0.21977419878E-01 -0.18432232212E-01  0.31513468688E-01  0.51100000000E-03 0. -1.
</event>
<event>
 8    1  0.1082757E+005  0.1043930E+01  0.7957747E-01            NaN
         13   -1    0    0    0    0  0.00000000000E+00  0.00000000000E+00  0.74505805969E-08  0.10566000000E+00  0.10566000000E+00 0.  1.
     999900   -1    0    0    0    0 -0.00000000000E+00 -0.00000000000E+00 -0.74505805969E-08  0.93827000000E+00  0.93827000000E+00 0.  1.
     999902    2    1    2    0    0 -0.15659396466E-01 -0.44500111168E-02 -0.11864220724E-01  0.10237860423E+01  0.10235878475E+01 0.  0.
     999903    2    3    3    0    0 -0.73171750819E-01 -0.59796823756E-01  0.92632158829E-01  0.13401616540E+00  0.21209679178E-01 0.  0.
         14    1    1    2    0    0  0.15659396466E-01  0.44500111168E-02  0.11864220724E-01  0.20143957656E-01  0.00000000000E+00 0.  1.
     999901    1    3    3    0    0  0.57512354353E-01  0.55346812639E-01 -0.10449637955E+00  0.88976987694E+00  0.88000000000E+00 0.  1.
        -11    1    4    4    0    0 -0.54809119487E-01 -0.36820995588E-01  0.74086004483E-01  0.99241233750E-01  0.51100000000E-03 0.  1.
         11    1    4    4    0    0 -0.18362631332E-01 -0.22975828168E-01  0.18546154346E-01  0.34774931653E-01  0.51100000000E-03 0. -1.
</event>
<event>
 8    1  0.1082757E+005  0.1043930E+01  0.7957747E-01            NaN
         13   -1    0    0    0    0  0.00000000000E+00  0.00000000000E+00  0.74505805969E-08  0.10566000000E+00  0.10566000000E+00 0.  1.
     999900   -1    0    0    0    0 -0.00000000000E+00 -0.00000000000E+00 -0.74505805969E-08  0.93827000000E+00  0.93827000000E+00 0. -1.
     999902    2    1    2    0    0 -0.11801209358E-02 -0.20879039165E-01 -0.14931846826E-01  0.10182339495E+01  0.10179096664E+01 0.  0.
     999903    2    3    3    0    0  0.55240327488E-01  0.54724196046E-01  0.97131545008E-01  0.12612559287E+00  0.20661479298E-01 0.  0.
         14    1    1    2    0    0  0.11801209358E-02  0.20879039165E-01  0.14931846826E-01  0.25696050504E-01  0.00000000000E+00 0.  1.
     999901    1    3    3    0    0 -0.56420448424E-01 -0.75603235211E-01 -0.11206339183E+00  0.89210835663E+00  0.88000000000E+00 0. -1.
        -11    1    4    4    0    0  0.97259187483E-02  0.63113450841E-02  0.52615447320E-02  0.12742509417E-01  0.51100000000E-03 0. -1.
         11    1    4    4    0    0  0.45514408740E-01  0.48412850962E-01  0.91870000276E-01  0.11338308345E+00  0.51100000000E-03 0.  1.
</event>
<event>
 8    1  0.1082757E+005  0.1043930E+01  0.7957747E-01            NaN
         13   -1    0    0    0    0  0.00000000000E+00  0.00000000000E+00  0.74505805969E-08  0.10566000000E+00  0.10566000000E+00 0. -1.
     999900   -1    0    0    0    0 -0.00000000000E+00 -0.00000000000E+00 -0.74505805969E-08  0.93827000000E+00  0.93827000000E+00 0.  1.
     999902    2    1    2    0    0 -0.90561015178E-02 -0.99910010289E-03 -0.22223898096E-01  0.10199109904E+01  0.10196281261E+01 0.  0.
     999903    2    3    3    0    0 -0.10693278821E+00 -0.50720352245E-01  0.50281268022E-01  0.13013065356E+00  0.19965113444E-01 0.  0.
         14    1    1    2    0    0  0.90561015178E-02  0.99910010289E-03  0.22223898096E-01  0.24019009603E-01  0.00000000000E+00 0. -1.
     999901    1    3    3    0    0  0.97876686694E-01  0.49721252142E-01 -0.72505166118E-01  0.88978033684E+00  0.88000000000E+00 0. -1.
        -11    1    4    4    0    0 -0.89941708661E-01 -0.46563903566E-01  0.35820585004E-01  0.10742943499E+00  0.51100000000E-03 0. -1.
         11    1    4    4    0    0 -0.16991079550E-01 -0.41564486788E-02  0.14460683017E-01  0.22701218563E-01  0.51100000000E-03 0.  1.
</event>
<event>
 8    1  0.1082757E+005  0.1043930E+01  0.7957747E-01            NaN
         13   -1    0    0    0    0  0.00000000000E+00  0.00000000000E+00  0.74505805969E-08  0.10566000000E+00  0.10566000000E+00 0.  1.
     999900   -1    0    0    0    0 -0.00000000000E+00 -0.00000000000E+00 -0.74505805969E-08  0.93827000000E+00  0.93827000000E+00 0.  1.
     999902    2    1    2    0    0 -0.11697920153E-01  0.18277224374E-01 -0.97530471112E-02  0.10201388211E+01  0.10198613602E+01 0.  0.
     999903    2    3    3    0    0 -0.93502905213E-01  0.18105126687E-01 -0.90137688818E-01  0.13269655488E+00  0.20322003765E-01 0.  0.
         14    1    1    2    0    0  0.11697920153E-01 -0.18277224374E-01  0.97530471112E-02  0.23791178926E-01  0.00000000000E+00 0.  1.
     999901    1    3    3    0    0  0.81804985059E-01  0.17209768678E-03  0.80384641707E-01  0.88744226619E+00  0.88000000000E+00 0. -1.
        -11    1    4    4    0    0 -0.63634175844E-02  0.39556143683E-02 -0.14971420985E-01  0.16749463743E-01  0.51100000000E-03 0.  1.
         11    1    4    4    0    0 -0.87139487628E-01  0.14149512319E-01 -0.75166267833E-01  0.11594709114E+00  0.51100000000E-03 0. -1.
</event>
<event>
 8    1  0.1082757E+005  0.1043930E+01  0.7957747E-01            NaN
         13   -1    0    0    0    0  0.00000000000E+00  0.00000000000E+00  0.74505805969E-08  0.10566000000E+00  0.10566000000E+00 0. -1.
     999900   -1    0    0    0    0 -0.00000000000E+00 -0.00000000000E+00 -0.74505805969E-08  0.93827000000E+00  0.93827000000E+00 0. -1.
     999902    2    1    2    0    0  0.15357960069E-01 -0.16137028883E-01 -0.78778451113E-02  0.10203009695E+01  0.10200273218E+01 0.  0.
     999903    2    3    3    0    0 -0.11263378975E+00  0.55474460186E-01  0.14056837342E-01  0.12789342601E+00  0.19883345165E-01 0.  0.
         14    1    1    2    0    0 -0.15357960069E-01  0.16137028883E-01  0.78778451113E-02  0.23629030497E-01  0.00000000000E+00 0. -1.
     999901    1    3    3    0    0  0.12799174982E+00 -0.71611489069E-01 -0.21934682453E-01  0.89240754349E+00  0.88000000000E+00 0. -1.
        -11    1    4    4    0    0 -0.74312940707E-02  0.82126646407E-02 -0.25358398939E-02  0.11373811895E-01  0.51100000000E-03 0. -1.
         11    1    4    4    0    0 -0.10520249568E+00  0.47261795545E-01  0.16592677236E-01  0.11651961411E+00  0.51100000000E-03 0.  1.
</event>
<event>
 8    1  0.1082757E+005  0.1043930E+01  0.7957747E-01            NaN
         13   -1    0    0    0    0  0.00000000000E+00  0.00000000000E+00  0.74505805969E-08  0.10566000000E+00  0.10566000000E+00 0.  1.
     999900   -1    0    0    0    0 -0.00000000000E+00 -0.00000000000E+00 -0.74505805969E-08  0.93827000000E+00  0.93827000000E+00 0. -1.
     999902    2    1    2    0    0  0.14548171837E-01  0.17990784040E-01 -0.62401479053E-02  0.10199663388E+01  0.10196847921E+01 0.  0.
     999903    2    3    3    0    0  0.12862572938E+00  0.26458792519E-01  0.78723228337E-02  0.13245039066E+00  0.15378119503E-01 0.  0.
         14    1    1    2    0    0 -0.14548171837E-01 -0.17990784040E-01  0.62401479053E-02  0.23963661240E-01  0.00000000000E+00 0.  1.
     999901    1    3    3    0    0 -0.11407755754E+00 -0.84680084789E-02 -0.14112470739E-01  0.88751594810E+00  0.88000000000E+00 0.  1.
        -11    1    4    4    0    0  0.73440369294E-01  0.16380109556E-01 -0.29985166499E-02  0.75306361313E-01  0.51100000000E-03 0. -1.
         11    1    4    4    0    0  0.55185360084E-01  0.10078682963E-01  0.10870839484E-01  0.57144029346E-01  0.51100000000E-03 0.  1.
</event>
<event>
 8    1  0.1082757E+005  0.1043930E+01  0.7957747E-01            NaN
         13   -1    0    0    0    0  0.00000000000E+00  0.00000000000E+00  0.74505805969E-08  0.10566000000E+00  0.10566000000E+00 0.  1.
     999900   -1    0    0    0    0 -0.00000000000E+00 -0.00000000000E+00 -0.74505805969E-08  0.93827000000E+00  0.93827000000E+00 0.  1.
     999902    2    1    2    0    0  0.68718080142E-03  0.11990601715E-02  0.21829382800E-01  0.10220569134E+01  0.10218228332E+01 0.  0.
     999903    2    3    3    0    0  0.25626116760E-02  0.12709985481E+00  0.35214546455E-01  0.13299353552E+00  0.16919696692E-01 0.  0.
         14    1    1    2    0    0 -0.68718080142E-03 -0.11990601715E-02 -0.21829382800E-01  0.21873086572E-01  0.00000000000E+00 0. -1.
     999901    1    3    3    0    0 -0.18754308746E-02 -0.12590079464E+00 -0.13385163655E-01  0.88906337791E+00  0.88000000000E+00 0. -1.
        -11    1    4    4    0    0  0.91995674787E-02  0.78361035392E-01  0.24856133367E-01  0.82723469442E-01  0.51100000000E-03 0. -1.
         11    1    4    4    0    0 -0.66369558026E-02  0.48738819420E-01  0.10358413088E-01  0.50270066078E-01  0.51100000000E-03 0.  1.
</event>
<event>
 8    1  0.1082757E+005  0.1043930E+01  0.7957747E-01            NaN
         13   -1    0    0    0    0  0.00000000000E+00  0.00000000000E+00  0.74505805969E-08  0.10566000000E+00  0.10566000000E+00 0. -1.
     999900   -1    0    0    0    0 -0.00000000000E+00 -0.00000000000E+00 -0.74505805969E-08  0.93827000000E+00  0.93827000000E+00 0. -1.
     999902    2    1    2    0    0  0.17659241604E-01  0.25847535212E-02 -0.15523427928E-01  0.10202761086E+01  0.10200018780E+01 0.  0.
     999903    2    3    3    0    0  0.35431368917E-01  0.11477039616E+00 -0.51584646616E-01  0.13224351998E+00  0.19993675811E-01 0.  0.
         14    1    1    2    0    0 -0.17659241604E-01 -0.25847535212E-02  0.15523427928E-01  0.23653891423E-01  0.00000000000E+00 0.  1.
     999901    1    3    3    0    0 -0.17772127313E-01 -0.11218564263E+00  0.36061218688E-01  0.88803258860E+00  0.88000000000E+00 0. -1.
        -11    1    4    4    0    0  0.38667667233E-02  0.28533736394E-01 -0.48577393392E-02  0.29205902657E-01  0.51100000000E-03 0. -1.
         11    1    4    4    0    0  0.31564602194E-01  0.86236659762E-01 -0.46726907276E-01  0.10303761732E+00  0.51100000000E-03 0.  1.
</event>
<event>
 8    1  0.1082757E+005  0.1043930E+01  0.7957747E-01            NaN
         13   -1    0    0    0    0  0.00000000000E+00  0.00000000000E+00  0.74505805969E-08  0.10566000000E+00  0.10566000000E+00 0. -1.
     999900   -1    0    0    0    0 -0.00000000000E+00 -0.00000000000E+00 -0.74505805969E-08  0.93827000000E+00  0.93827000000E+00 0. -1.
     999902    2    1    2    0    0 -0.13275107680E-01  0.26214697519E-02  0.19058376869E-01  0.10205564612E+01  0.10202887670E+01 0.  0.
     999903    2    3    3    0    0 -0.12048495547E-01  0.11145996778E+00 -0.62601248770E-01  0.13009836690E+00  0.20932703126E-01 0.  0.
         14    1    1    2    0    0  0.13275107680E-01 -0.26214697519E-02 -0.19058376869E-01  0.23373538809E-01  0.00000000000E+00 0.  1.
     999901    1    3    3    0    0 -0.12266121332E-02 -0.10883849803E+00  0.81659625639E-01  0.89045809429E+00  0.88000000000E+00 0. -1.
        -11    1    4    4    0    0  0.65929644137E-03  0.67382386502E-01 -0.29688869809E-01  0.73637699543E-01  0.51100000000E-03 0. -1.
         11    1    4    4    0    0 -0.12707791988E-01  0.44077581277E-01 -0.32912378961E-01  0.56460667356E-01  0.51100000000E-03 0.  1.
</event>
<event>
 8    1  0.1082757E+005  0.1043930E+01  0.7957747E-01            NaN
         13   -1    0    0    0    0  0.00000000000E+00  0.00000000000E+00  0.74505805969E-08  0.10566000000E+00  0.10566000000E+00 0. -1.
     999900   -1    0    0    0    0 -0.00000000000E+00 -0.00000000000E+00 -0.74505805969E-08  0.93827000000E+00  0.93827000000E+00 0. -1.
     999902    2    1    2    0    0  0.14290036964E-01 -0.80211518788E-02 -0.17045928394E-01  0.10202845415E+01  0.10200105087E+01 0.  0.
     999903    2    3    3    0    0  0.23006298541E-01 -0.11723428274E+00 -0.53770250161E-01  0.13273051102E+00  0.21283372173E-01 0.  0.
         14    1    1    2    0    0 -0.14290036964E-01  0.80211518788E-02  0.17045928394E-01  0.23645458522E-01  0.00000000000E+00 0. -1.
     999901    1    3    3    0    0 -0.87162615776E-02  0.10921313086E+00  0.36724321767E-01  0.88755403046E+00  0.88000000000E+00 0.  1.
        -11    1    4    4    0    0  0.13593324860E-01 -0.77591522966E-01 -0.46081487929E-01  0.91263287074E-01  0.51100000000E-03 0.  1.
         11    1    4    4    0    0  0.94129736814E-02 -0.39642759777E-01 -0.76887622322E-02  0.41467223948E-01  0.51100000000E-03 0. -1.
</event>
<event>
 8    1  0.1082757E+005  0.1043930E+01  0.7957747E-01            NaN
         13   -1    0    0    0    0  0.00000000000E+00  0.00000000000E+00  0.74505805969E-08  0.10566000000E+00  0.10566000000E+00 0. -1.
     999900   -1    0    0    0    0 -0.00000000000E+00 -0.00000000000E+00 -0.74505805969E-08  0.93827000000E+00  0.93827000000E+00 0.  1.
     999902    2    1    2    0    0 -0.72910729661E-02 -0.38892074685E-02 -0.21941247029E-01  0.10204842328E+01  0.10202148623E+01 0.  0.
     999903    2    3    3    0    0  0.54845311752E-01  0.42369706291E-01 -0.11159444437E+00  0.13254363048E+00  0.17643518202E-01 0.  0.
         14    1    1    2    0    0  0.72910729661E-02  0.38892074685E-02  0.21941247029E-01  0.23445767229E-01  0.00000000000E+00 0. -1.
     999901    1    3    3    0    0 -0.62136384718E-01 -0.46258913760E-01  0.89653197337E-01  0.88794060229E+00  0.88000000000E+00 0. -1.
        -11    1    4    4    0    0  0.20822709303E-01  0.75025818325E-02 -0.26923747240E-01  0.34857183525E-01  0.51100000000E-03 0.  1.
         11    1    4    4    0    0  0.34022602449E-01  0.34867124459E-01 -0.84670697127E-01  0.97686446953E-01  0.51100000000E-03 0. -1.
</event>
<event>
 8    1  0.1082757E+005  0.1043930E+01  0.7957747E-01            NaN
         13   -1    0    0    0    0  0.00000000000E+00  0.00000000000E+00  0.74505805969E-08  0.10566000000E+00  0.10566000000E+00 0.  1.
     999900   -1    0    0    0    0 -0.00000000000E+00 -0.00000000000E+00 -0.74505805969E-08  0.93827000000E+00  0.93827000000E+00 0.  1.
     999902    2    1    2    0    0 -0.15168862030E-01  0.83169091520E-02  0.15810863345E-01  0.10204939433E+01  0.10202247986E+01 0.  0.
     999903    2    3    3    0    0  0.17069171516E-01 -0.12411343691E+00 -0.24462019639E-01  0.12909112053E+00  0.19251627428E-01 0.  0.
         14    1    1    2    0    0  0.15168862030E-01 -0.83169091520E-02 -0.15810863345E-01  0.23436056683E-01  0.00000000000E+00 0. -1.
     999901    1    3    3    0    0 -0.32238033546E-01  0.13243034606E+00  0.40272882985E-01  0.89140282278E+00  0.88000000000E+00 0. -1.
        -11    1    4    4    0    0  0.39531658569E-02 -0.86956939463E-01 -0.20910793117E-01  0.89524629186E-01  0.51100000000E-03 0.  1.
         11    1    4    4    0    0  0.13116005659E-01 -0.37156497443E-01 -0.35512265229E-02  0.39566491347E-01  0.51100000000E-03 0. -1.
</event>
<event>
 8    1  0.1082757E+005  0.1043930E+01  0.7957747E-01            NaN
         13   -1    0    0    0    0  0.00000000000E+00  0.00000000000E+00  0.74505805969E-08  0.10566000000E+00  0.10566000000E+00 0. -1.
     999900   -1    0    0    0    0 -0.00000000000E+00 -0.00000000000E+00 -0.74505805969E-08  0.93827000000E+00  0.93827000000E+00 0.  1.
     999902    2    1    2    0    0 -0.39201991171E-02  0.19370494170E-01  0.12895150936E-01  0.10203319297E+01  0.10200590070E+01 0.  0.
     999903    2    3    3    0    0 -0.10990213893E+00  0.59506513340E-01 -0.35973305648E-01  0.13171997969E+00  0.20894235085E-01 0.  0.
         14    1    1    2    0    0  0.39201991171E-02 -0.19370494170E-01 -0.12895150936E-01  0.23598070327E-01  0.00000000000E+00 0.  1.
     999901    1    3    3    0    0  0.10598193981E+00 -0.40136019169E-01  0.48868456584E-01  0.88861194998E+00  0.88000000000E+00 0. -1.
        -11    1    4    4    0    0 -0.79268231154E-01  0.47560593007E-01 -0.17777714584E-01  0.94136978570E-01  0.51100000000E-03 0. -1.
         11    1    4    4    0    0 -0.30633907774E-01  0.11945920333E-01 -0.18195591064E-01  0.37583001121E-01  0.51100000000E-03 0.  1.
</event>
<event>
 8    1  0.1082757E+005  0.1043930E+01  0.7957747E-01            NaN
         13   -1    0    0    0    0  0.00000000000E+00  0.00000000000E+00  0.74505805969E-08  0.10566000000E+00  0.10566000000E+00 0.  1.
     999900   -1    0    0    0    0 -0.00000000000E+00 -0.00000000000E+00 -0.74505805969E-08  0.93827000000E+00  0.93827000000E+00 0. -1.
     999902    2    1    2    0    0 -0.13720222847E-01 -0.19093611612E-01 -0.99557423887E-02  0.10183971324E+01  0.10180770069E+01 0.  0.
     999903    2    3    3    0    0  0.65505231428E-01 -0.94988644786E-01  0.54628095696E-01  0.12923584178E+00  0.20097163442E-01 0.  0.
         14    1    1    2    0    0  0.13720222847E-01  0.19093611612E-01  0.99557423887E-02  0.25532867561E-01  0.00000000000E+00 0.  1.
     999901    1    3    3    0    0 -0.79225454275E-01  0.75895033175E-01 -0.64583838085E-01  0.88916129066E+00  0.88000000000E+00 0. -1.
        -11    1    4    4    0    0  0.49013004952E-01 -0.54724268918E-01  0.37368131489E-01  0.82423653371E-01  0.51100000000E-03 0. -1.
         11    1    4    4    0    0  0.16492226476E-01 -0.40264375869E-01  0.17259964207E-01  0.46812188409E-01  0.51100000000E-03 0.  1.
</event>
<event>
 8    1  0.1082757E+005  0.1043930E+01  0.7957747E-01            NaN
         13   -1    0    0    0    0  0.00000000000E+00  0.00000000000E+00  0.74505805969E-08  0.10566000000E+00  0.10566000000E+00 0.  1.
     999900   -1    0    0    0    0 -0.00000000000E+00 -0.00000000000E+00 -0.74505805969E-08  0.93827000000E+00  0.93827000000E+00 0. -1.
     999902    2    1    2    0    0  0.92825589792E-02  0.27955642132E-03 -0.21892541268E-01  0.10201491797E+01  0.10198719632E+01 0.  0.
     999903    2    3    3    0    0  0.26408865576E-01 -0.31365752493E-01 -0.12519182264E+00  0.13337667361E+00  0.20859194534E-01 0.  0.
         14    1    1    2    0    0 -0.92825589792E-02 -0.27955642132E-03  0.21892541268E-01  0.23780820342E-01  0.00000000000E+00 0.  1.
     999901    1    3    3    0    0 -0.17126306596E-01  0.31645308914E-01  0.10329928137E+00  0.88677250605E+00  0.88000000000E+00 0.  1.
        -11    1    4    4    0    0  0.21267703294E-01 -0.26884819341E-01 -0.11996891098E+00  0.12477142877E+00  0.51100000000E-03 0. -1.
         11    1    4    4    0    0  0.51411622810E-02 -0.44809331522E-02 -0.52229116555E-02  0.86052448353E-02  0.51100000000E-03 0.  1.
</event>
<event>
 8    1  0.1082757E+005  0.1043930E+01  0.7957747E-01            NaN
         13   -1    0    0    0    0  0.00000000000E+00  0.00000000000E+00  0.74505805969E-08  0.10566000000E+00  0.10566000000E+00 0.  1.
     999900   -1    0    0    0    0 -0.00000000000E+00 -0.00000000000E+00 -0.74505805969E-08  0.93827000000E+00  0.93827000000E+00 0. -1.
     999902    2    1    2    0    0  0.21281632302E-01  0.45327448639E-03  0.29018868000E-02  0.10224466511E+01  0.10222209253E+01 0.  0.
     999903    2    3    3    0    0  0.46978164127E-01 -0.14913688712E-01 -0.12200108425E+00  0.13312263399E+00  0.20199136260E-01 0.  0.
         14    1    1    2    0    0 -0.21281632302E-01 -0.45327448639E-03 -0.29018868000E-02  0.21483348859E-01  0.00000000000E+00 0.  1.
     999901    1    3    3    0    0 -0.25696531825E-01  0.15366963199E-01  0.12490297105E+00  0.88932401715E+00  0.88000000000E+00 0.  1.
        -11    1    4    4    0    0  0.16149512184E-01 -0.10895350190E-01 -0.28013419312E-01  0.34125183986E-01  0.51100000000E-03 0.  1.
         11    1    4    4    0    0  0.30828651943E-01 -0.40183385221E-02 -0.93987664941E-01  0.98997450003E-01  0.51100000000E-03 0. -1.
</event>
<event>
 8    1  0.1629405E+005  0.1043930E+01  0.7957747E-01            NaN
         13   -1    0    0    0    0  0.00000000000E+00  0.00000000000E+00  0.74505805969E-08  0.10566000000E+00  0.10566000000E+00 0. -1.
     999900   -1    0    0    0    0 -0.00000000000E+00 -0.00000000000E+00 -0.74505805969E-08  0.93827000000E+00  0.93827000000E+00 0. -1.
     999902    2    1    2    0    0  0.22850931158E-01  0.11879730717E-02  0.52470661908E-02  0.10204543096E+01  0.10201842432E+01 0.  0.
     999903    2    3    3    0    0 -0.41100761705E-02 -0.11179735522E+00  0.65127824070E-01  0.13080365601E+00  0.18772895221E-01 0.  0.
         14    1    1    2    0    0 -0.22850931158E-01 -0.11879730717E-02 -0.52470661908E-02  0.23475690372E-01  0.00000000000E+00 0.  1.
     999901    1    3    3    0    0  0.26961007329E-01  0.11298532830E+00 -0.59880757880E-01  0.88965065362E+00  0.88000000000E+00 0. -1.
        -11    1    4    4    0    0  0.45543963083E-02 -0.26886749084E-01  0.22709843951E-01  0.35491378324E-01  0.51100000000E-03 0.  1.
         11    1    4    4    0    0 -0.86644724787E-02 -0.84910606141E-01  0.42417980119E-01  0.95312277682E-01  0.51100000000E-03 0. -1.
</event>
<event>
 8    1  0.1082757E+005  0.1043930E+01  0.7957747E-01            NaN
         13   -1    0    0    0    0  0.00000000000E+00  0.00000000000E+00  0.74505805969E-08  0.10566000000E+00  0.10566000000E+00 0.  1.
     999900   -1    0    0    0    0 -0.00000000000E+00 -0.00000000000E+00 -0.74505805969E-08  0.93827000000E+00  0.93827000000E+00 0. -1.
     999902    2    1    2    0    0  0.17815574126E-01 -0.15360723774E-01 -0.53752538694E-03  0.10204005408E+01  0.10201292213E+01 0.  0.
     999903    2    3    3    0    0  0.11094749561E+00 -0.58430305807E-01  0.43187291527E-01  0.13336029183E+00  0.14013488831E-01 0.  0.
         14    1    1    2    0    0 -0.17815574126E-01  0.15360723774E-01  0.53752538694E-03  0.23529459191E-01  0.00000000000E+00 0. -1.
     999901    1    3    3    0    0 -0.93131921481E-01  0.43069582033E-01 -0.43724816914E-01  0.88704024898E+00  0.88000000000E+00 0.  1.
        -11    1    4    4    0    0  0.10153142161E+00 -0.49814650509E-01  0.35906309495E-01  0.11865771430E+00  0.51100000000E-03 0. -1.
         11    1    4    4    0    0  0.94160739919E-02 -0.86156552977E-02  0.72809820325E-02  0.14702577529E-01  0.51100000000E-03 0.  1.
</event>
<event>
 8    1  0.1082757E+005  0.1043930E+01  0.7957747E-01            NaN
         13   -1    0    0    0    0  0.00000000000E+00  0.00000000000E+00  0.74505805969E-08  0.10566000000E+00  0.10566000000E+00 0. -1.
     999900   -1    0    0    0    0 -0.00000000000E+00 -0.00000000000E+00 -0.74505805969E-08  0.93827000000E+00  0.93827000000E+00 0.  1.
     999902    2    1    2    0    0 -0.12213298513E-01 -0.15920120201E-01 -0.13489648155E-01  0.10197517971E+01  0.10194651255E+01 0.  0.
     999903    2    3    3    0    0 -0.46721114214E-01  0.77948898304E-01 -0.91588663661E-01  0.13065020662E+00  0.20545070433E-01 0.  0.
         14    1    1    2    0    0  0.12213298513E-01  0.15920120201E-01  0.13489648155E-01  0.24178202893E-01  0.00000000000E+00 0. -1.
     999901    1    3    3    0    0  0.34507815702E-01 -0.93869018504E-01  0.78099015506E-01  0.88910159048E+00  0.88000000000E+00 0. -1.
        -11    1    4    4    0    0 -0.11603663012E-01  0.12776260557E-01 -0.81232463296E-02  0.19082087963E-01  0.51100000000E-03 0.  1.
         11    1    4    4    0    0 -0.35117451203E-01  0.65172637747E-01 -0.83465417332E-01  0.11156811866E+00  0.51100000000E-03 0. -1.
</event>
<event>
 8    1  0.1082757E+005  0.1043930E+01  0.7957747E-01            NaN
         13   -1    0    0    0    0  0.00000000000E+00  0.00000000000E+00  0.74505805969E-08  0.10566000000E+00  0.10566000000E+00 0.  1.
     999900   -1    0    0    0    0 -0.00000000000E+00 -0.00000000000E+00 -0.74505805969E-08  0.93827000000E+00  0.93827000000E+00 0.  1.
     999902    2    1    2    0    0  0.25381646873E-01  0.75045534304E-02  0.11789332100E-01  0.10149552753E+01  0.10145416089E+01 0.  0.
     999903    2    3    3    0    0 -0.90082278807E-01  0.49137935783E-01  0.67828616162E-01  0.12467124308E+00  0.20318562779E-01 0.  0.
         14    1    1    2    0    0 -0.25381646873E-01 -0.75045534304E-02 -0.11789332100E-01  0.28974724702E-01  0.00000000000E+00 0. -1.
     999901    1    3    3    0    0  0.11546392568E+00 -0.41633382352E-01 -0.56039284062E-01  0.89028403222E+00  0.88000000000E+00 0.  1.
        -11    1    4    4    0    0 -0.64095236109E-01  0.44623130727E-01  0.48033406716E-01  0.91689107147E-01  0.51100000000E-03 0. -1.
         11    1    4    4    0    0 -0.25987042697E-01  0.45148050558E-02  0.19795209447E-01  0.32982135936E-01  0.51100000000E-03 0.  1.
</event>
<event>
 8    1  0.1082757E+005  0.1043930E+01  0.7957747E-01            NaN
         13   -1    0    0    0    0  0.00000000000E+00  0.00000000000E+00  0.74505805969E-08  0.10566000000E+00  0.10566000000E+00 0.  1.
     999900   -1    0    0    0    0 -0.00000000000E+00 -0.00000000000E+00 -0.74505805969E-08  0.93827000000E+00  0.93827000000E+00 0.  1.
     999902    2    1    2    0    0 -0.13654562630E-02  0.19170005868E-01 -0.15365045407E-01  0.10193243459E+01  0.10190273224E+01 0.  0.
     999903    2    3    3    0    0  0.32335869930E-01 -0.73735249861E-01  0.95696090021E-01  0.12685488322E+00  0.21258508759E-01 0.  0.
         14    1    1    2    0    0  0.13654562630E-02 -0.19170005868E-01  0.15365045407E-01  0.24605654150E-01  0.00000000000E+00 0. -1.
     999901    1    3    3    0    0 -0.33701326193E-01  0.92905255729E-01 -0.11106113543E+00  0.89246946263E+00  0.88000000000E+00 0.  1.
        -11    1    4    4    0    0 -0.49085674850E-03 -0.95846974371E-03  0.86790427765E-02  0.87605084963E-02  0.51100000000E-03 0. -1.
         11    1    4    4    0    0  0.32826726678E-01 -0.72776780117E-01  0.87017047244E-01  0.11809437472E+00  0.51100000000E-03 0.  1.
</event>
<event>
 8    1  0.1082757E+005  0.1043930E+01  0.7957747E-01            NaN
         13   -1    0    0    0    0  0.00000000000E+00  0.00000000000E+00  0.74505805969E-08  0.10566000000E+00  0.10566000000E+00 0. -1.
     999900   -1    0    0    0    0 -0.00000000000E+00 -0.00000000000E+00 -0.74505805969E-08  0.93827000000E+00  0.93827000000E+00 0.  1.
     999902    2    1    2    0    0  0.19478873170E-01  0.78466615125E-03  0.14080483655E-01  0.10198820849E+01  0.10195985312E+01 0.  0.
     999903    2    3    3    0    0  0.99101758817E-01  0.81786674170E-01  0.25525715314E-01  0.13250836286E+00  0.19916962982E-01 0.  0.
         14    1    1    2    0    0 -0.19478873170E-01 -0.78466615125E-03 -0.14080483655E-01  0.24047915106E-01  0.00000000000E+00 0.  1.
     999901    1    3    3    0    0 -0.79622885646E-01 -0.81002008019E-01 -0.11445231659E-01  0.88737372203E+00  0.88000000000E+00 0.  1.
        -11    1    4    4    0    0  0.74235275528E-02  0.12845500471E-02 -0.10967713407E-02  0.76303904569E-02  0.51100000000E-03 0. -1.
         11    1    4    4    0    0  0.91678231264E-01  0.80502124123E-01  0.26622486655E-01  0.12487797241E+00  0.51100000000E-03 0.  1.
</event>
<event>
 8    1  0.1082757E+005  0.1043930E+01  0.7957747E-01            NaN
         13   -1    0    0    0    0  0.00000000000E+00  0.00000000000E+00  0.74505805969E-08  0.10566000000E+00  0.10566000000E+00 0.  1.
     999900   -1    0    0    0    0 -0.00000000000E+00 -0.00000000000E+00 -0.74505805969E-08  0.93827000000E+00  0.93827000000E+00 0.  1.
     999902    2    1    2    0    0 -0.20170570507E-01  0.80027181524E-02 -0.10570664173E-01  0.10197921800E+01  0.10195064767E+01 0.  0.
     999903    2    3    3    0    0  0.13662161967E-01  0.12486480069E+00  0.29431010271E-01  0.13052195445E+00  0.19797047910E-01 0.  0.
         14    1    1    2    0    0  0.20170570507E-01 -0.80027181524E-02  0.10570664173E-01  0.24137819982E-01  0.00000000000E+00 0.  1.
     999901    1    3    3    0    0 -0.33832732474E-01 -0.11686208254E+00 -0.40001674444E-01  0.88927022557E+00  0.88000000000E+00 0.  1.
        -11    1    4    4    0    0  0.35021281437E-03  0.75958527139E-01  0.11898758679E-01  0.76887333634E-01  0.51100000000E-03 0. -1.
         11    1    4    4    0    0  0.13311949153E-01  0.48906273555E-01  0.17532251591E-01  0.53634620817E-01  0.51100000000E-03 0.  1.
</event>
<event>
 8    1  0.1082757E+005  0.1043930E+01  0.7957747E-01            NaN
         13   -1    0    0    0    0  0.00000000000E+00  0.00000000000E+00  0.74505805969E-08  0.10566000000E+00  0.10566000000E+00 0.  1.
     999900   -1    0    0    0    0 -0.00000000000E+00 -0.00000000000E+00 -0.74505805969E-08  0.93827000000E+00  0.93827000000E+00 0.  1.
     999902    2    1    2    0    0 -0.22389738697E-01  0.23478403337E-02  0.76132459537E-03  0.10214046283E+01  0.10211562184E+01 0.  0.
     999903    2    3    3    0    0 -0.11108273823E+00 -0.79713685904E-02  0.71765088035E-01  0.13404085364E+00  0.20342200820E-01 0.  0.
         14    1    1    2    0    0  0.22389738697E-01 -0.23478403337E-02 -0.76132459537E-03  0.22525371657E-01  0.00000000000E+00 0.  1.
     999901    1    3    3    0    0  0.88692999529E-01  0.10319208924E-01 -0.71003763439E-01  0.88736377471E+00  0.88000000000E+00 0.  1.
        -11    1    4    4    0    0 -0.54271256915E-01  0.44392436762E-02  0.41618390761E-01  0.68537783609E-01  0.51100000000E-03 0.  1.
         11    1    4    4    0    0 -0.56811481311E-01 -0.12410612267E-01  0.30146697274E-01  0.65503070028E-01  0.51100000000E-03 0. -1.
</event>
<event>
 8    1  0.1082757E+005  0.1043930E+01  0.7957747E-01            NaN
         13   -1    0    0    0    0  0.00000000000E+00  0.00000000000E+00  0.74505805969E-08  0.10566000000E+00  0.10566000000E+00 0.  1.
     999900   -1    0    0    0    0 -0.00000000000E+00 -0.00000000000E+00 -0.74505805969E-08  0.93827000000E+00  0.93827000000E+00 0. -1.
     999902    2    1    2    0    0  0.59442107268E-02 -0.47823387504E-03 -0.22084227626E-01  0.10210547851E+01  0.10207985103E+01 0.  0.
     999903    2    3    3    0    0 -0.76282631965E-01  0.99369701674E-01  0.29059340223E-01  0.13013024930E+00  0.19901230545E-01 0.  0.
         14    1    1    2    0    0 -0.59442107268E-02  0.47823387504E-03  0.22084227626E-01  0.22875214942E-01  0.00000000000E+00 0.  1.
     999901    1    3    3    0    0  0.82226842692E-01 -0.99847935549E-01 -0.51143567849E-01  0.89092453576E+00  0.88000000000E+00 0. -1.
        -11    1    4    4    0    0 -0.65743976759E-01  0.73043609142E-01  0.19418604238E-01  0.10017476043E+00  0.51100000000E-03 0. -1.
         11    1    4    4    0    0 -0.10538655206E-01  0.26326092532E-01  0.96407359846E-02  0.29955488861E-01  0.51100000000E-03 0.  1.
</event>
<event>
 7    1  0.1082757E+005  0.1043930E+01  0.7957747E-01            NaN
         13   -1    0    0    0    0  0.00000000000E+00  0.00000000000E+00  0.74505805969E-08  0.10566000000E+00  0.10566000000E+00 0.  1.
     999900   -1    0    0    0    0 -0.00000000000E+00 -0.00000000000E+00 -0.74505805969E-08  0.93827000000E+00  0.93827000000E+00 0. -1.
     999902    2    1    2    0    0  0.17638588207E-01  0.16121550439E-01  0.35003220946E-02  0.10197788833E+01  0.10194928614E+01 0.  0.
         14    1    1    2    0    0 -0.17638588207E-01 -0.16121550439E-01 -0.35003220946E-02  0.24151116687E-01  0.00000000000E+00 0.  1.
     999901    1    3    3    0    0 -0.58467726444E-01 -0.33569309316E-01  0.92227621225E-01  0.88738453203E+00  0.88000000000E+00 0.  1.
        -11    1    3    3    0    0  0.69359453129E-01  0.36706834309E-01 -0.87747947747E-01  0.11772038429E+00  0.51100000000E-03 0.  1.
         11    1    3    3    0    0  0.67468615225E-02  0.12984025446E-01 -0.97935138400E-03  0.14673966993E-01  0.51100000000E-03 0. -1.
</event>
<event>
 8    1  0.1082757E+005  0.1043930E+01  0.7957747E-01            NaN
         13   -1    0    0    0    0  0.00000000000E+00  0.00000000000E+00  0.74505805969E-08  0.10566000000E+00  0.10566000000E+00 0.  1.
     999900   -1    0    0    0    0 -0.00000000000E+00 -0.00000000000E+00 -0.74505805969E-08  0.93827000000E+00  0.93827000000E+00 0. -1.
     999902    2    1    2    0    0  0.11220930916E-01 -0.22319617748E-02  0.20400817116E-01  0.10205401671E+01  0.10202720953E+01 0.  0.
     999903    2    3    3    0    0  0.12679690740E-01  0.11904257860E+00  0.51079686124E-01  0.13169212884E+00  0.20044260669E-01 0.  0.
         14    1    1    2    0    0 -0.11220930916E-01  0.22319617748E-02 -0.20400817116E-01  0.23389832898E-01  0.00000000000E+00 0. -1.
     999901    1    3    3    0    0 -0.14587598238E-02 -0.12127454038E+00 -0.30678869008E-01  0.88884803826E+00  0.88000000000E+00 0. -1.
        -11    1    4    4    0    0 -0.34657017841E-02  0.58559960339E-01  0.21845994690E-01  0.62600228823E-01  0.51100000000E-03 0. -1.
         11    1    4    4    0    0  0.16145392524E-01  0.60482618263E-01  0.29233691434E-01  0.69091900014E-01  0.51100000000E-03 0.  1.
</event>
<event>
 8    1  0.1082757E+005  0.1043930E+01  0.7957747E-01            NaN
         13   -1    0    0    0    0  0.00000000000E+00  0.00000000000E+00  0.74505805969E-08  0.10566000000E+00  0.10566000000E+00 0. -1.
     999900   -1    0    0    0    0 -0.00000000000E+00 -0.00000000000E+00 -0.74505805969E-08  0.93827000000E+00  0.93827000000E+00 0.  1.
     999902    2    1    2    0    0  0.10733557942E-01 -0.17511913608E-01 -0.27222222883E-02  0.10232107607E+01  0.10230009647E+01 0.  0.
     999903    2    3    3    0    0  0.85566842853E-01 -0.69125491665E-01 -0.76532559220E-01  0.13545406663E+00  0.19762422732E-01 0.  0.
         14    1    1    2    0    0 -0.10733557942E-01  0.17511913608E-01  0.27222222883E-02  0.20719239332E-01  0.00000000000E+00 0. -1.
     999901    1    3    3    0    0 -0.74833284911E-01  0.51613578057E-01  0.73810336932E-01  0.88775669404E+00  0.88000000000E+00 0. -1.
        -11    1    4    4    0    0  0.54153862917E-01 -0.54187833121E-01 -0.47482809241E-01  0.90132349474E-01  0.51100000000E-03 0.  1.
         11    1    4    4    0    0  0.31412979936E-01 -0.14937658544E-01 -0.29049749979E-01  0.45321717157E-01  0.51100000000E-03 0. -1.
</event>
<event>
 8    1  0.1082757E+005  0.1043930E+01  0.7957747E-01            NaN
         13   -1    0    0    0    0  0.00000000000E+00  0.00000000000E+00  0.74505805969E-08  0.10566000000E+00  0.10566000000E+00 0. -1.
     999900   -1    0    0    0    0 -0.00000000000E+00 -0.00000000000E+00 -0.74505805969E-08  0.93827000000E+00  0.93827000000E+00 0.  1.
     999902    2    1    2    0    0  0.12199756957E-01  0.17787304901E-01  0.10512528997E-01  0.10199355100E+01  0.10196532298E+01 0.  0.
     999903    2    3    3    0    0  0.94503791881E-01  0.90117636075E-01 -0.13791406912E-01  0.13280738379E+00  0.19885755536E-01 0.  0.
         14    1    1    2    0    0 -0.12199756957E-01 -0.17787304901E-01 -0.10512528997E-01  0.23994490021E-01  0.00000000000E+00 0.  1.
     999901    1    3    3    0    0 -0.82304034924E-01 -0.72330331174E-01  0.24303935909E-01  0.88712812619E+00  0.88000000000E+00 0.  1.
        -11    1    4    4    0    0  0.50775330514E-01  0.60220859409E-01 -0.35435621313E-02  0.78851151230E-01  0.51100000000E-03 0. -1.
         11    1    4    4    0    0  0.43728461367E-01  0.29896776666E-01 -0.10247844780E-01  0.53956232561E-01  0.51100000000E-03 0.  1.
</event>
<event>
 8    1  0.1082757E+005  0.1043930E+01  0.7957747E-01            NaN
         13   -1    0    0    0    0  0.00000000000E+00  0.00000000000E+00  0.74505805969E-08  0.10566000000E+00  0.10566000000E+00 0.  1.
     999900   -1    0    0    0    0 -0.00000000000E+00 -0.00000000000E+00 -0.74505805969E-08  0.93827000000E+00  0.93827000000E+00 0. -1.
     999902    2    1    2    0    0 -0.11539204975E-01  0.35467116999E-02 -0.17456444150E-01  0.10227059604E+01  0.10224857073E+01 0.  0.
     999903    2    3    3    0    0 -0.12307953415E+00 -0.12636988897E-01 -0.49682037996E-01  0.13493253991E+00  0.20741750490E-01 0.  0.
         14    1    1    2    0    0  0.11539204975E-01 -0.35467116999E-02  0.17456444150E-01  0.21224039617E-01  0.00000000000E+00 0.  1.
     999901    1    3    3    0    0  0.11154032917E+00  0.16183700597E-01  0.32225593846E-01  0.88777342047E+00  0.88000000000E+00 0.  1.
        -11    1    4    4    0    0 -0.33514315805E-01 -0.69394670794E-02 -0.47227256741E-02  0.34553304126E-01  0.51100000000E-03 0. -1.
         11    1    4    4    0    0 -0.89565218342E-01 -0.56975218180E-02 -0.44959312321E-01  0.10037923579E+00  0.51100000000E-03 0.  1.
</event>
<event>
 8    1  0.1082757E+005  0.1043930E+01  0.7957747E-01            NaN
         13   -1    0    0    0    0  0.00000000000E+00  0.00000000000E+00  0.74505805969E-08  0.10566000000E+00  0.10566000000E+00 0. -1.
     999900   -1    0    0    0    0 -0.00000000000E+00 -0.00000000000E+00 -0.74505805969E-08  0.93827000000E+00  0.93827000000E+00 0. -1.
     999902    2    1    2    0    0  0.15271974912E-01  0.17313437014E-01 -0.36223729319E-02  0.10205610055E+01  0.10202934166E+01 0.  0.
     999903    2    3    3    0    0  0.11491112406E-01 -0.74233350962E-01 -0.10436838763E+00  0.13008648660E+00  0.19674796075E-01 0.  0.
         14    1    1    2    0    0 -0.15271974912E-01 -0.17313437014E-01  0.36223729319E-02  0.23368994514E-01  0.00000000000E+00 0.  1.
     999901    1    3    3    0    0  0.37808625057E-02  0.91546787976E-01  0.10074601469E+00  0.89047451889E+00  0.88000000000E+00 0.  1.
        -11    1    4    4    0    0  0.15634063959E-02 -0.28962527265E-01 -0.56167781916E-01  0.63216715128E-01  0.51100000000E-03 0. -1.
         11    1    4    4    0    0  0.99277060105E-02 -0.45270823697E-01 -0.48200605710E-01  0.66869771471E-01  0.51100000000E-03 0.  1.
</event>
<event>
 8    1  0.1082757E+005  0.1043930E+01  0.7957747E-01            NaN
         13   -1    0    0    0    0  0.00000000000E+00  0.00000000000E+00  0.74505805969E-08  0.10566000000E+00  0.10566000000E+00 0. -1.
     999900   -1    0    0    0    0 -0.00000000000E+00 -0.00000000000E+00 -0.74505805969E-08  0.93827000000E+00  0.93827000000E+00 0. -1.
     999902    2    1    2    0    0  0.21977793374E-01 -0.29398058738E-02 -0.86009407623E-02  0.10201467697E+01  0.10198694964E+01 0.  0.
     999903    2    3    3    0    0 -0.61727650392E-01 -0.10764148116E+00  0.30374960762E-01  0.12914275008E+00  0.18926710423E-01 0.  0.
         14    1    1    2    0    0 -0.21977793374E-01  0.29398058738E-02  0.86009407623E-02  0.23783230272E-01  0.00000000000E+00 0. -1.
     999901    1    3    3    0    0  0.83705443766E-01  0.10470167529E+00 -0.38975901524E-01  0.89100401965E+00  0.88000000000E+00 0.  1.
        -11    1    4    4    0    0 -0.13319996263E-01 -0.39222286394E-01  0.60090995988E-02  0.41859054569E-01  0.51100000000E-03 0. -1.
         11    1    4    4    0    0 -0.48407654129E-01 -0.68419194771E-01  0.24365861163E-01  0.87283695514E-01  0.51100000000E-03 0.  1.
</event>
<event>
 8    1  0.1082757E+005  0.1043930E+01  0.7957747E-01            NaN
         13   -1    0    0    0    0  0.00000000000E+00  0.00000000000E+00  0.74505805969E-08  0.10566000000E+00  0.10566000000E+00 0.  1.
     999900   -1    0    0    0    0 -0.00000000000E+00 -0.00000000000E+00 -0.74505805969E-08  0.93827000000E+00  0.93827000000E+00 0.  1.
     999902    2    1    2    0    0  0.82156497723E-02  0.13340883293E-01 -0.18130269804E-01  0.10199678893E+01  0.10196863794E+01 0.  0.
     999903    2    3    3    0    0  0.11069892812E+00 -0.41580938686E-01 -0.54091430642E-01  0.13159159851E+00  0.20180158050E-01 0.  0.
         14    1    1    2    0    0 -0.82156497723E-02 -0.13340883293E-01  0.18130269804E-01  0.23962110746E-01  0.00000000000E+00 0.  1.
     999901    1    3    3    0    0 -0.10248327835E+00  0.54921821979E-01  0.35961160838E-01  0.88837629075E+00  0.88000000000E+00 0.  1.
        -11    1    4    4    0    0  0.76733331213E-01 -0.19707315518E-01 -0.40404776240E-01  0.88933623945E-01  0.51100000000E-03 0. -1.
         11    1    4    4    0    0  0.33965596912E-01 -0.21873623168E-01 -0.13686654402E-01  0.42657974563E-01  0.51100000000E-03 0.  1.
</event>
<event>
 8    1  0.1082757E+005  0.1043930E+01  0.7957747E-01            NaN
         13   -1    0    0    0    0  0.00000000000E+00  0.00000000000E+00  0.74505805969E-08  0.10566000000E+00  0.10566000000E+00 0. -1.
     999900   -1    0    0    0    0 -0.00000000000E+00 -0.00000000000E+00 -0.74505805969E-08  0.93827000000E+00  0.93827000000E+00 0. -1.
     999902    2    1    2    0    0 -0.49556541463E-02 -0.44904716226E-02 -0.21611711780E-01  0.10213072475E+01  0.10210566610E+01 0.  0.
     999903    2    3    3    0    0 -0.36821019140E-03  0.12935638692E+00 -0.70587492368E-02  0.13105570167E+00  0.19813141668E-01 0.  0.
         14    1    1    2    0    0  0.49556541463E-02  0.44904716226E-02  0.21611711780E-01  0.22622752474E-01  0.00000000000E+00 0. -1.
     999901    1    3    3    0    0 -0.45874439549E-02 -0.13384685854E+00 -0.14552962544E-01  0.89025154586E+00  0.88000000000E+00 0. -1.
        -11    1    4    4    0    0  0.12691422843E-02  0.58600364607E-01  0.65542779733E-02  0.58981633878E-01  0.51100000000E-03 0.  1.
         11    1    4    4    0    0 -0.16373524757E-02  0.70756022315E-01 -0.13613027210E-01  0.72074067790E-01  0.51100000000E-03 0. -1.
</event>
<event>
 8    1  0.1082757E+005  0.1043930E+01  0.7957747E-01            NaN
         13   -1    0    0    0    0  0.00000000000E+00  0.00000000000E+00  0.74505805969E-08  0.10566000000E+00  0.10566000000E+00 0. -1.
     999900   -1    0    0    0    0 -0.00000000000E+00 -0.00000000000E+00 -0.74505805969E-08  0.93827000000E+00  0.93827000000E+00 0. -1.
     999902    2    1    2    0    0  0.13216201638E-01 -0.19745585119E-01  0.43862014085E-02  0.10197681524E+01  0.10194818732E+01 0.  0.
     999903    2    3    3    0    0  0.42076731374E-01 -0.12003327328E+00 -0.32374438993E-01  0.13283980395E+00  0.20490758821E-01 0.  0.
         14    1    1    2    0    0 -0.13216201638E-01  0.19745585119E-01 -0.43862014085E-02  0.24161847616E-01  0.00000000000E+00 0. -1.
     999901    1    3    3    0    0 -0.28860529736E-01  0.10028768816E+00  0.36760640401E-01  0.88692834843E+00  0.88000000000E+00 0.  1.
        -11    1    4    4    0    0  0.45596685304E-02 -0.16540839782E-01  0.25387279947E-02  0.17352124326E-01  0.51100000000E-03 0.  1.
         11    1    4    4    0    0  0.37517062844E-01 -0.10349243349E+00 -0.34913166988E-01  0.11548767962E+00  0.51100000000E-03 0. -1.
</event>
<event>
 8    1  0.1082757E+005  0.1043930E+01  0.7957747E-01            NaN
         13   -1    0    0    0    0  0.00000000000E+00  0.00000000000E+00  0.74505805969E-08  0.10566000000E+00  0.10566000000E+00 0. -1.
     999900   -1    0    0    0    0 -0.00000000000E+00 -0.00000000000E+00 -0.74505805969E-08  0.93827000000E+00  0.93827000000E+00 0. -1.
     999902    2    1    2    0    0  0.70099672763E-03 -0.15332757740E-01 -0.18360330811E-01  0.10199991286E+01  0.10197183610E+01 0.  0.
     999903    2    3    3    0    0  0.64268534425E-01 -0.10104920307E+00 -0.54006907417E-01  0.13283577318E+00  0.19677668322E-01 0.  0.
         14    1    1    2    0    0 -0.70099672763E-03  0.15332757740E-01  0.18360330811E-01  0.23930871356E-01  0.00000000000E+00 0. -1.
     999901    1    3    3    0    0 -0.63567537698E-01  0.85716445328E-01  0.35646576606E-01  0.88716335546E+00  0.88000000000E+00 0.  1.
        -11    1    4    4    0    0  0.49705027867E-01 -0.88494736177E-01 -0.40255241811E-01  0.10919090503E+00  0.51100000000E-03 0.  1.
         11    1    4    4    0    0  0.14563506559E-01 -0.12554466891E-01 -0.13751665606E-01  0.23644868157E-01  0.51100000000E-03 0. -1.
</event>
<event>
 8    1  0.1082757E+005  0.1043930E+01  0.7957747E-01            NaN
         13   -1    0    0    0    0  0.00000000000E+00  0.00000000000E+00  0.74505805969E-08  0.10566000000E+00  0.10566000000E+00 0.  1.
     999900   -1    0    0    0    0 -0.00000000000E+00 -0.00000000000E+00 -0.74505805969E-08  0.93827000000E+00  0.93827000000E+00 0. -1.
     999902    2    1    2    0    0  0.69499158100E-02 -0.22718741462E-01 -0.21760429062E-02  0.10200725545E+01  0.10197935275E+01 0.  0.
     999903    2    3    3    0    0  0.10869030083E+00  0.62940314503E-01  0.25285006374E-01  0.12965541122E+00  0.19903000456E-01 0.  0.
         14    1    1    2    0    0 -0.69499158100E-02  0.22718741462E-01  0.21760429062E-02  0.23857445507E-01  0.00000000000E+00 0. -1.
     999901    1    3    3    0    0 -0.10174038502E+00 -0.85659055966E-01 -0.27461049281E-01  0.89041714328E+00  0.88000000000E+00 0. -1.
        -11    1    4    4    0    0  0.45748006076E-01  0.36717283398E-01  0.16246143284E-01  0.60870660031E-01  0.51100000000E-03 0.  1.
         11    1    4    4    0    0  0.62942294750E-01  0.26223031105E-01  0.90388630904E-02  0.68784751186E-01  0.51100000000E-03 0. -1.
</event>
<event>
 8    1  0.1082757E+005  0.1043930E+01  0.7957747E-01            NaN
         13   -1    0    0    0    0  0.00000000000E+00  0.00000000000E+00  0.74505805969E-08  0.10566000000E+00  0.10566000000E+00 0.  1.
     999900   -1    0    0    0    0 -0.00000000000E+00 -0.00000000000E+00 -0.74505805969E-08  0.93827000000E+00  0.93827000000E+00 0.  1.
     999902    2    1    2    0    0  0.55448468432E-02 -0.20542058915E-01 -0.84526154040E-02  0.10210352797E+01  0.10207785627E+01 0.  0.
     999903    2    3    3    0    0  0.54613030151E-01 -0.96201996747E-01 -0.73206324957E-01  0.13405999497E+00  0.19378054508E-01 0.  0.
         14    1    1    2    0    0 -0.55448468432E-02  0.20542058915E-01  0.84526154040E-02  0.22894720311E-01  0.00000000000E+00 0.  1.
     999901    1    3    3    0    0 -0.49068183308E-01  0.75659937832E-01  0.64753709553E-01  0.88697528472E+00  0.88000000000E+00 0. -1.
        -11    1    4    4    0    0  0.40875506761E-01 -0.52808648829E-01 -0.42823551888E-01  0.79332705497E-01  0.51100000000E-03 0.  1.
         11    1    4    4    0    0  0.13737523390E-01 -0.43393347918E-01 -0.30382773069E-01  0.54727289470E-01  0.51100000000E-03 0. -1.
</event>
<event>
 8    1  0.1082757E+005  0.1043930E+01  0.7957747E-01            NaN
         13   -1    0    0    0    0  0.00000000000E+00  0.00000000000E+00  0.74505805969E-08  0.10566000000E+00  0.10566000000E+00 0.  1.
     999900   -1    0    0    0    0 -0.00000000000E+00 -0.00000000000E+00 -0.74505805969E-08  0.93827000000E+00  0.93827000000E+00 0. -1.
     999902    2    1    2    0    0 -0.10586044590E-01  0.19202681820E-01  0.82800176335E-02  0.10204914416E+01  0.10202222387E+01 0.  0.
     999903    2    3    3    0    0  0.11876426090E+00  0.49572623219E-01 -0.50835589343E-02  0.13041705140E+00  0.20502928659E-01 0.  0.
         14    1    1    2    0    0  0.10586044590E-01 -0.19202681820E-01 -0.82800176335E-02  0.23438558427E-01  0.00000000000E+00 0. -1.
     999901    1    3    3    0    0 -0.12935030549E+00 -0.30369941399E-01  0.13363576568E-01  0.89007439018E+00  0.88000000000E+00 0. -1.
        -11    1    4    4    0    0  0.12834296941E-01  0.10069334177E-01 -0.59066885047E-02  0.17356864891E-01  0.51100000000E-03 0.  1.
         11    1    4    4    0    0  0.10592996396E+00  0.39503289041E-01  0.82312957035E-03  0.11306018650E+00  0.51100000000E-03 0. -1.
</event>
<event>
 8    1  0.1082757E+005  0.1043930E+01  0.7957747E-01            NaN
         13   -1    0    0    0    0  0.00000000000E+00  0.00000000000E+00  0.74505805969E-08  0.10566000000E+00  0.10566000000E+00 0. -1.
     999900   -1    0    0    0    0 -0.00000000000E+00 -0.00000000000E+00 -0.74505805969E-08  0.93827000000E+00  0.93827000000E+00 0. -1.
     999902    2    1    2    0    0 -0.16285573182E-01 -0.17411057473E-01 -0.86647993316E-03  0.10200738561E+01  0.10197948599E+01 0.  0.
     999903    2    3    3    0    0 -0.39767999598E-01  0.10054034752E+00  0.68079373564E-01  0.12922174207E+00  0.19328793195E-01 0.  0.
         14    1    1    2    0    0  0.16285573182E-01  0.17411057473E-01  0.86647993316E-03  0.23856143940E-01  0.00000000000E+00 0.  1.
     999901    1    3    3    0    0  0.23482426416E-01 -0.11795140499E+00 -0.68945853497E-01  0.89085211399E+00  0.88000000000E+00 0.  1.
        -11    1    4    4    0    0 -0.36016918714E-01  0.67119978857E-01  0.45948394508E-01  0.88959687917E-01  0.51100000000E-03 0. -1.
         11    1    4    4    0    0 -0.37510808841E-02  0.33420368664E-01  0.22130979056E-01  0.40262054151E-01  0.51100000000E-03 0.  1.
</event>
<event>
 8    1  0.1082757E+005  0.1043930E+01  0.7957747E-01            NaN
         13   -1    0    0    0    0  0.00000000000E+00  0.00000000000E+00  0.74505805969E-08  0.10566000000E+00  0.10566000000E+00 0.  1.
     999900   -1    0    0    0    0 -0.00000000000E+00 -0.00000000000E+00 -0.74505805969E-08  0.93827000000E+00  0.93827000000E+00 0.  1.
     999902    2    1    2    0    0  0.95604523474E-02  0.13121678827E-01  0.16148707546E-01  0.10210310599E+01  0.10207742472E+01 0.  0.
     999903    2    3    3    0    0 -0.74363986615E-01  0.67981655629E-01 -0.80062537128E-01  0.13012728721E+00  0.19276748120E-01 0.  0.
         14    1    1    2    0    0 -0.95604523474E-02 -0.13121678827E-01 -0.16148707546E-01  0.22898940145E-01  0.00000000000E+00 0.  1.
     999901    1    3    3    0    0  0.83924438963E-01 -0.54859976802E-01  0.96211244674E-01  0.89090377264E+00  0.88000000000E+00 0. -1.
        -11    1    4    4    0    0 -0.11281736483E-01  0.19688693451E-01 -0.12980027822E-01  0.26146978241E-01  0.51100000000E-03 0.  1.
         11    1    4    4    0    0 -0.63082250132E-01  0.48292962179E-01 -0.67082509306E-01  0.10398030897E+00  0.51100000000E-03 0. -1.
</event>
<event>
 8    1  0.1082757E+005  0.1043930E+01  0.7957747E-01            NaN
         13   -1    0    0    0    0  0.00000000000E+00  0.00000000000E+00  0.74505805969E-08  0.10566000000E+00  0.10566000000E+00 0. -1.
     999900   -1    0    0    0    0 -0.00000000000E+00 -0.00000000000E+00 -0.74505805969E-08  0.93827000000E+00  0.93827000000E+00 0.  1.
     999902    2    1    2    0    0  0.12424477641E-01  0.21117687368E-01  0.20626296836E-02  0.10193418157E+01  0.10190452191E+01 0.  0.
     999903    2    3    3    0    0 -0.87404119648E-01  0.90262956867E-01  0.30554130037E-01  0.13054567334E+00  0.17937013478E-01 0.  0.
         14    1    1    2    0    0 -0.12424477641E-01 -0.21117687368E-01 -0.20626296836E-02  0.24588184269E-01  0.00000000000E+00 0.  1.
     999901    1    3    3    0    0  0.99828597289E-01 -0.69145269499E-01 -0.28491500353E-01  0.88879614239E+00  0.88000000000E+00 0.  1.
        -11    1    4    4    0    0 -0.55700334429E-01  0.50981489991E-01  0.25987192280E-01  0.79857591128E-01  0.51100000000E-03 0. -1.
         11    1    4    4    0    0 -0.31703785219E-01  0.39281466877E-01  0.45669377564E-02  0.50688082215E-01  0.51100000000E-03 0.  1.
</event>
<event>
 8    1  0.1082757E+005  0.1043930E+01  0.7957747E-01            NaN
         13   -1    0    0    0    0  0.00000000000E+00  0.00000000000E+00  0.74505805969E-08  0.10566000000E+00  0.10566000000E+00 0. -1.
     999900   -1    0    0    0    0 -0.00000000000E+00 -0.00000000000E+00 -0.74505805969E-08  0.93827000000E+00  0.93827000000E+00 0. -1.
     999902    2    1    2    0    0 -0.21493857465E-01 -0.10019391350E-01 -0.48451700222E-02  0.10197256660E+01  0.10194383670E+01 0.  0.
     999903    2    3    3    0    0  0.35713117072E-01 -0.11415527122E+00 -0.48337552786E-01  0.13067645096E+00  0.20807766531E-01 0.  0.
         14    1    1    2    0    0  0.21493857465E-01  0.10019391350E-01  0.48451700222E-02  0.24204333998E-01  0.00000000000E+00 0. -1.
     999901    1    3    3    0    0 -0.57206974537E-01  0.10413587987E+00  0.43492382763E-01  0.88904921504E+00  0.88000000000E+00 0.  1.
        -11    1    4    4    0    0  0.16600199843E-01 -0.26424578490E-01 -0.17230339646E-01  0.35650676129E-01  0.51100000000E-03 0. -1.
         11    1    4    4    0    0  0.19112917229E-01 -0.87730692728E-01 -0.31107213140E-01  0.95025774829E-01  0.51100000000E-03 0.  1.
</event>
<event>
 8    1  0.1082757E+005  0.1043930E+01  0.7957747E-01            NaN
         13   -1    0    0    0    0  0.00000000000E+00  0.00000000000E+00  0.74505805969E-08  0.10566000000E+00  0.10566000000E+00 0. -1.
     999900   -1    0    0    0    0 -0.00000000000E+00 -0.00000000000E+00 -0.74505805969E-08  0.93827000000E+00  0.93827000000E+00 0.  1.
     999902    2    1    2    0    0 -0.13650425433E-02  0.15465650529E-01 -0.17035825828E-01  0.10208807256E+01  0.10206204911E+01 0.  0.
     999903    2    3    3    0    0  0.94122176923E-01 -0.85923395496E-02 -0.90545689600E-01  0.13234243380E+00  0.19575121768E-01 0.  0.
         14    1    1    2    0    0  0.13650425433E-02 -0.15465650529E-01  0.17035825828E-01  0.23049274372E-01  0.00000000000E+00 0.  1.
     999901    1    3    3    0    0 -0.95487219466E-01  0.24057990079E-01  0.73509863772E-01  0.88853829183E+00  0.88000000000E+00 0. -1.
        -11    1    4    4    0    0  0.65750263802E-01 -0.12025057566E-01 -0.53897741638E-01  0.85865749133E-01  0.51100000000E-03 0. -1.
         11    1    4    4    0    0  0.28371913120E-01  0.34327180167E-02 -0.36647947961E-01  0.46476684670E-01  0.51100000000E-03 0.  1.
</event>
<event>
 8    1  0.1082757E+005  0.1043930E+01  0.7957747E-01            NaN
         13   -1    0    0    0    0  0.00000000000E+00  0.00000000000E+00  0.74505805969E-08  0.10566000000E+00  0.10566000000E+00 0. -1.
     999900   -1    0    0    0    0 -0.00000000000E+00 -0.00000000000E+00 -0.74505805969E-08  0.93827000000E+00  0.93827000000E+00 0.  1.
     999902    2    1    2    0    0  0.16427149249E-01  0.16734296818E-01 -0.29370246627E-02  0.10202970984E+01  0.10200233600E+01 0.  0.
     999903    2    3    3    0    0  0.23911273438E-01  0.99039689274E-01  0.82081484366E-01  0.13234533363E+00  0.19932591644E-01 0.  0.
         14    1    1    2    0    0 -0.16427149249E-01 -0.16734296818E-01  0.29370246627E-02  0.23632901564E-01  0.00000000000E+00 0.  1.
     999901    1    3    3    0    0 -0.74841241881E-02 -0.82305392456E-01 -0.85018509028E-01  0.88795176480E+00  0.88000000000E+00 0. -1.
        -11    1    4    4    0    0  0.59956737039E-02  0.47212820695E-01  0.48956430696E-01  0.68278779782E-01  0.51100000000E-03 0. -1.
         11    1    4    4    0    0  0.17915599734E-01  0.51826868579E-01  0.33125053670E-01  0.64066553850E-01  0.51100000000E-03 0.  1.
</event>
<event>
 8    1  0.1082757E+005  0.1043930E+01  0.7957747E-01            NaN
         13   -1    0    0    0    0  0.00000000000E+00  0.00000000000E+00  0.74505805969E-08  0.10566000000E+00  0.10566000000E+00 0.  1.
     999900   -1    0    0    0    0 -0.00000000000E+00 -0.00000000000E+00 -0.74505805969E-08  0.93827000000E+00  0.93827000000E+00 0.  1.
     999902    2    1    2    0    0 -0.23413742474E-01 -0.14260468277E-02 -0.58091939134E-03  0.10204656779E+01  0.10201958759E+01 0.  0.
     999903    2    3    3    0    0 -0.10489782202E+00  0.29931826721E-01  0.73561531385E-01  0.13304239979E+00  0.19736107181E-01 0.  0.
         14    1    1    2    0    0  0.23413742474E-01  0.14260468277E-02  0.58091939134E-03  0.23464322141E-01  0.00000000000E+00 0. -1.
     999901    1    3    3    0    0  0.81484079546E-01 -0.31357873548E-01 -0.74142450777E-01  0.88742327807E+00  0.88000000000E+00 0.  1.
        -11    1    4    4    0    0 -0.56989622703E-01  0.92675114674E-02  0.29987097519E-01  0.65062977209E-01  0.51100000000E-03 0.  1.
         11    1    4    4    0    0 -0.47908199317E-01  0.20664315253E-01  0.43574433866E-01  0.67979422581E-01  0.51100000000E-03 0. -1.
</event>
<event>
 8    1  0.1082757E+005  0.1043930E+01  0.7957747E-01            NaN
         13   -1    0    0    0    0  0.00000000000E+00  0.00000000000E+00  0.74505805969E-08  0.10566000000E+00  0.10566000000E+00 0. -1.
     999900   -1    0    0    0    0 -0.00000000000E+00 -0.00000000000E+00 -0.74505805969E-08  0.93827000000E+00  0.93827000000E+00 0.  1.
     999902    2    1    2    0    0 -0.77839968374E-02  0.18360480400E-01  0.13236432353E-01  0.10199946498E+01  0.10197137758E+01 0.  0.
     999903    2    3    3    0    0 -0.47176457111E-01  0.10585071745E+00 -0.59517785892E-01  0.13179451258E+00  0.19935752250E-01 0.  0.
         14    1    1    2    0    0  0.77839968374E-02 -0.18360480400E-01 -0.13236432353E-01  0.23935350190E-01  0.00000000000E+00 0. -1.
     999901    1    3    3    0    0  0.39392460273E-01 -0.87490237050E-01  0.72754218245E-01  0.88820013723E+00  0.88000000000E+00 0.  1.
        -11    1    4    4    0    0 -0.41885655520E-02  0.30834791851E-01 -0.16356710425E-01  0.35158662757E-01  0.51100000000E-03 0.  1.
         11    1    4    4    0    0 -0.42987891559E-01  0.75015925599E-01 -0.43161075467E-01  0.96635849821E-01  0.51100000000E-03 0. -1.
</event>
<event>
 8    1  0.1082757E+005  0.1043930E+01  0.7957747E-01            NaN
         13   -1    0    0    0    0  0.00000000000E+00  0.00000000000E+00  0.74505805969E-08  0.10566000000E+00  0.10566000000E+00 0. -1.
     999900   -1    0    0    0    0 -0.00000000000E+00 -0.00000000000E+00 -0.74505805969E-08  0.93827000000E+00  0.93827000000E+00 0.  1.
     999902    2    1    2    0    0 -0.18082959865E-01  0.90065524299E-02 -0.10627254270E-01  0.10211034813E+01  0.10208483088E+01 0.  0.
     999903    2    3    3    0    0 -0.47820975100E-01  0.11199487265E+00  0.48293779740E-01  0.13264265945E+00  0.20786745431E-01 0.  0.
         14    1    1    2    0    0  0.18082959865E-01 -0.90065524299E-02  0.10627254270E-01  0.22826518733E-01  0.00000000000E+00 0. -1.
     999901    1    3    3    0    0  0.29738015234E-01 -0.10298832022E+00 -0.58921034011E-01  0.88846082182E+00  0.88000000000E+00 0.  1.
        -11    1    4    4    0    0 -0.38168381481E-02  0.21179686910E-01  0.20142398019E-02  0.21620954512E-01  0.51100000000E-03 0. -1.
         11    1    4    4    0    0 -0.44004136951E-01  0.90815185739E-01  0.46279539939E-01  0.11102170494E+00  0.51100000000E-03 0.  1.
</event>
<event>
 8    1  0.1082757E+005  0.1043930E+01  0.7957747E-01            NaN
         13   -1    0    0    0    0  0.00000000000E+00  0.00000000000E+00  0.74505805969E-08  0.10566000000E+00  0.10566000000E+00 0.  1.
     999900   -1    0    0    0    0 -0.00000000000E+00 -0.00000000000E+00 -0.74505805969E-08  0.93827000000E+00  0.93827000000E+00 0. -1.
     999902    2    1    2    0    0 -0.12844492646E-01 -0.18183967292E-01 -0.61213292431E-02  0.10208408612E+01  0.10205797155E+01 0.  0.
     999903    2    3    3    0    0 -0.78837344590E-01  0.59828999866E-01 -0.84053271211E-01  0.13150714032E+00  0.20840811574E-01 0.  0.
         14    1    1    2    0    0  0.12844492646E-01  0.18183967292E-01  0.61213292431E-02  0.23089138778E-01  0.00000000000E+00 0.  1.
     999901    1    3    3    0    0  0.65992851943E-01 -0.78012967158E-01  0.77931941968E-01  0.88933372090E+00  0.88000000000E+00 0.  1.
        -11    1    4    4    0    0 -0.13670291560E-01  0.81224005228E-02 -0.48228285596E-02  0.16624411506E-01  0.51100000000E-03 0. -1.
         11    1    4    4    0    0 -0.65167053030E-01  0.51706599344E-01 -0.79230442652E-01  0.11488272882E+00  0.51100000000E-03 0.  1.
</event>
<event>
 8    1  0.1082757E+005  0.1043930E+01  0.7957747E-01            NaN
         13   -1    0    0    0    0  0.00000000000E+00  0.00000000000E+00  0.74505805969E-08  0.10566000000E+00  0.10566000000E+00 0. -1.
     999900   -1    0    0    0    0 -0.00000000000E+00 -0.00000000000E+00 -0.74505805969E-08  0.93827000000E+00  0.93827000000E+00 0.  1.
     999902    2    1    2    0    0  0.35084642234E-02 -0.19451744203E-01 -0.13455373036E-01  0.10200191920E+01  0.10197389006E+01 0.  0.
     999903    2    3    3    0    0  0.12867554773E+00 -0.71347331652E-02  0.95212086991E-02  0.13077994928E+00  0.20110711536E-01 0.  0.
         14    1    1    2    0    0 -0.35084642234E-02  0.19451744203E-01  0.13455373036E-01  0.23910807959E-01  0.00000000000E+00 0. -1.
     999901    1    3    3    0    0 -0.12516708350E+00 -0.12317011037E-01 -0.22976581735E-01  0.88923924276E+00  0.88000000000E+00 0.  1.
        -11    1    4    4    0    0  0.58206917075E-01 -0.12968524477E-01  0.20040967073E-02  0.59669970229E-01  0.51100000000E-03 0. -1.
         11    1    4    4    0    0  0.70468630653E-01  0.58337913115E-02  0.75171119918E-02  0.71109979053E-01  0.51100000000E-03 0.  1.
</event>
<event>
 8    1  0.1082757E+005  0.1043930E+01  0.7957747E-01            NaN
         13   -1    0    0    0    0  0.00000000000E+00  0.00000000000E+00  0.74505805969E-08  0.10566000000E+00  0.10566000000E+00 0.  1.
     999900   -1    0    0    0    0 -0.00000000000E+00 -0.00000000000E+00 -0.74505805969E-08  0.93827000000E+00  0.93827000000E+00 0.  1.
     999902    2    1    2    0    0 -0.17531166916E-01 -0.14141651517E-01 -0.80751462793E-02  0.10200022732E+01  0.10197215803E+01 0.  0.
     999903    2    3    3    0    0  0.84696220147E-01  0.92030626351E-01  0.14420680774E-01  0.12746148789E+00  0.19884390049E-01 0.  0.
         14    1    1    2    0    0  0.17531166916E-01  0.14141651517E-01  0.80751462793E-02  0.23927726773E-01  0.00000000000E+00 0. -1.
     999901    1    3    3    0    0 -0.10222738706E+00 -0.10617227787E+00 -0.22495827053E-01  0.89254078534E+00  0.88000000000E+00 0. -1.
        -11    1    4    4    0    0  0.21960676356E-01  0.36549333211E-01  0.86590189134E-02  0.43512811834E-01  0.51100000000E-03 0. -1.
         11    1    4    4    0    0  0.62735543791E-01  0.55481293140E-01  0.57616618607E-02  0.83948676056E-01  0.51100000000E-03 0.  1.
</event>
<event>
 8    1  0.1082757E+005  0.1043930E+01  0.7957747E-01            NaN
         13   -1    0    0    0    0  0.00000000000E+00  0.00000000000E+00  0.74505805969E-08  0.10566000000E+00  0.10566000000E+00 0.  1.
     999900   -1    0    0    0    0 -0.00000000000E+00 -0.00000000000E+00 -0.74505805969E-08  0.93827000000E+00  0.93827000000E+00 0.  1.
     999902    2    1    2    0    0 -0.18587925288E-01  0.73518325986E-02 -0.12214438968E-01  0.10205045239E+01  0.10202356250E+01 0.  0.
     999903    2    3    3    0    0 -0.62686491580E-01 -0.10937144742E+00 -0.31527060454E-01  0.13149272144E+00  0.20116423972E-01 0.  0.
         14    1    1    2    0    0  0.18587925288E-01 -0.73518325986E-02  0.12214438968E-01  0.23425476054E-01  0.00000000000E+00 0.  1.
     999901    1    3    3    0    0  0.44098566292E-01  0.11672328002E+00  0.19312621486E-01  0.88901180251E+00  0.88000000000E+00 0. -1.
        -11    1    4    4    0    0 -0.61666385176E-01 -0.95351520657E-01 -0.29012996714E-01  0.11720354368E+00  0.51100000000E-03 0. -1.
         11    1    4    4    0    0 -0.10201064043E-02 -0.14019926762E-01 -0.25140637396E-02  0.14289177757E-01  0.51100000000E-03 0.  1.
</event>
<event>
 8    1  0.1082757E+005  0.1043930E+01  0.7957747E-01            NaN
         13   -1    0    0    0    0  0.00000000000E+00  0.00000000000E+00  0.74505805969E-08  0.10566000000E+00  0.10566000000E+00 0.  1.
     999900   -1    0    0    0    0 -0.00000000000E+00 -0.00000000000E+00 -0.74505805969E-08  0.93827000000E+00  0.93827000000E+00 0. -1.
     999902    2    1    2    0    0  0.12957601367E-01  0.45895884405E-02  0.19354581274E-01  0.10201905061E+01  0.10199142636E+01 0.  0.
     999903    2    3    3    0    0 -0.17520206645E-01  0.11797457663E+00  0.52554953237E-01  0.13177207030E+00  0.19413836036E-01 0.  0.
         14    1    1    2    0    0 -0.12957601367E-01 -0.45895884405E-02 -0.19354581274E-01  0.23739493919E-01  0.00000000000E+00 0. -1.
     999901    1    3    3    0    0  0.30477808012E-01 -0.11338498819E+00 -0.33200371963E-01  0.88841843578E+00  0.88000000000E+00 0. -1.
        -11    1    4    4    0    0 -0.19357522931E-01  0.65404221179E-01  0.30933861714E-01  0.74897201307E-01  0.51100000000E-03 0. -1.
         11    1    4    4    0    0  0.18373162864E-02  0.52570355455E-01  0.21621091522E-01  0.56874868997E-01  0.51100000000E-03 0.  1.
</event>
<event>
 8    1  0.1082757E+005  0.1043930E+01  0.7957747E-01            NaN
         13   -1    0    0    0    0  0.00000000000E+00  0.00000000000E+00  0.74505805969E-08  0.10566000000E+00  0.10566000000E+00 0. -1.
     999900   -1    0    0    0    0 -0.00000000000E+00 -0.00000000000E+00 -0.74505805969E-08  0.93827000000E+00  0.93827000000E+00 0. -1.
     999902    2    1    2    0    0  0.18887934763E-01 -0.10709430283E-01 -0.12042821042E-01  0.10191010750E+01  0.10187985697E+01 0.  0.
     999903    2    3    3    0    0 -0.23044322934E-02 -0.12410511931E+00 -0.37725604383E-01  0.13120057155E+00  0.19569816103E-01 0.  0.
         14    1    1    2    0    0 -0.18887934763E-01  0.10709430283E-01  0.12042821042E-01  0.24828924972E-01  0.00000000000E+00 0.  1.
     999901    1    3    3    0    0  0.21192367057E-01  0.11339568903E+00  0.25682783341E-01  0.88790050348E+00  0.88000000000E+00 0.  1.
        -11    1    4    4    0    0 -0.17188981065E-02 -0.89494465715E-01 -0.17828375911E-01  0.91270620207E-01  0.51100000000E-03 0.  1.
         11    1    4    4    0    0 -0.58553418692E-03 -0.34610653596E-01 -0.19897228472E-01  0.39929951346E-01  0.51100000000E-03 0. -1.
</event>
<event>
 8    1  0.1082757E+005  0.1043930E+01  0.7957747E-01            NaN
         13   -1    0    0    0    0  0.00000000000E+00  0.00000000000E+00  0.74505805969E-08  0.10566000000E+00  0.10566000000E+00 0. -1.
     999900   -1    0    0    0    0 -0.00000000000E+00 -0.00000000000E+00 -0.74505805969E-08  0.93827000000E+00  0.93827000000E+00 0. -1.
     999902    2    1    2    0    0 -0.85189822631E-02 -0.18984331039E-01  0.13235536142E-01  0.10192691545E+01  0.10189707807E+01 0.  0.
     999903    2    3    3    0    0 -0.12067714530E+00 -0.43223774704E-01 -0.19812267669E-01  0.13120431368E+00  0.19768102629E-01 0.  0.
         14    1    1    2    0    0  0.85189822631E-02  0.18984331039E-01 -0.13235536142E-01  0.24660845500E-01  0.00000000000E+00 0.  1.
     999901    1    3    3    0    0  0.11215816303E+00  0.24239443665E-01  0.33047803811E-01  0.88806484082E+00  0.88000000000E+00 0. -1.
        -11    1    4    4    0    0 -0.54399532856E-01 -0.91317641942E-02 -0.88871046267E-02  0.55874323637E-01  0.51100000000E-03 0.  1.
         11    1    4    4    0    0 -0.66277612440E-01 -0.34092010509E-01 -0.10925163042E-01  0.75329990043E-01  0.51100000000E-03 0. -1.
</event>
<event>
 8    1  0.1082757E+005  0.1043930E+01  0.7957747E-01            NaN
         13   -1    0    0    0    0  0.00000000000E+00  0.00000000000E+00  0.74505805969E-08  0.10566000000E+00  0.10566000000E+00 0.  1.
     999900   -1    0    0    0    0 -0.00000000000E+00 -0.00000000000E+00 -0.74505805969E-08  0.93827000000E+00  0.93827000000E+00 0.  1.
     999902    2    1    2    0    0  0.26709015904E-01  0.10461801867E-01  0.76360388297E-02  0.10142461674E+01  0.10138116976E+01 0.  0.
     999903    2    3    3    0    0  0.61333738840E-01  0.57073435549E-02 -0.10806263028E+00  0.12598513688E+00  0.20008032387E-01 0.  0.
         14    1    1    2    0    0 -0.26709015904E-01 -0.10461801867E-01 -0.76360388297E-02  0.29683832601E-01  0.00000000000E+00 0.  1.
     999901    1    3    3    0    0 -0.34624722935E-01  0.47544583121E-02  0.11569866911E+00  0.88826103052E+00  0.88000000000E+00 0. -1.
        -11    1    4    4    0    0  0.17174596577E-01  0.74917491186E-02 -0.47045033460E-01  0.50641774917E-01  0.51100000000E-03 0. -1.
         11    1    4    4    0    0  0.44159142263E-01 -0.17844055637E-02 -0.61017596820E-01  0.75343361959E-01  0.51100000000E-03 0.  1.
</event>
<event>
 8    1  0.1082757E+005  0.1043930E+01  0.7957747E-01            NaN
         13   -1    0    0    0    0  0.00000000000E+00  0.00000000000E+00  0.74505805969E-08  0.10566000000E+00  0.10566000000E+00 0.  1.
     999900   -1    0    0    0    0 -0.00000000000E+00 -0.00000000000E+00 -0.74505805969E-08  0.93827000000E+00  0.93827000000E+00 0. -1.
     999902    2    1    2    0    0  0.11286821512E-01 -0.13493976538E-01 -0.17117476910E-01  0.10193843739E+01  0.10190888156E+01 0.  0.
     999903    2    3    3    0    0 -0.20291573819E-01  0.12055597381E+00  0.30138173788E-01  0.12742042806E+00  0.19549045415E-01 0.  0.
         14    1    1    2    0    0 -0.11286821512E-01  0.13493976538E-01  0.17117476910E-01  0.24545626055E-01  0.00000000000E+00 0.  1.
     999901    1    3    3    0    0  0.31578395331E-01 -0.13404995035E+00 -0.47255650699E-01  0.89196394589E+00  0.88000000000E+00 0.  1.
        -11    1    4    4    0    0 -0.18941008815E-01  0.10717578725E+00  0.20213930430E-01  0.11069903023E+00  0.51100000000E-03 0.  1.
         11    1    4    4    0    0 -0.13505650045E-02  0.13380186560E-01  0.99242433581E-02  0.16721397832E-01  0.51100000000E-03 0. -1.
</event>
<event>
 8    1  0.1082757E+005  0.1043930E+01  0.7957747E-01            NaN
         13   -1    0    0    0    0  0.00000000000E+00  0.00000000000E+00  0.74505805969E-08  0.10566000000E+00  0.10566000000E+00 0. -1.
     999900   -1    0    0    0    0 -0.00000000000E+00 -0.00000000000E+00 -0.74505805969E-08  0.93827000000E+00  0.93827000000E+00 0. -1.
     999902    2    1    2    0    0 -0.18258735211E-01 -0.10075403762E-01 -0.10981556886E-01  0.10203611696E+01  0.10200889308E+01 0.  0.
     999903    2    3    3    0    0  0.35650602555E-01  0.11885668732E+00  0.26376955686E-01  0.12855101089E+00  0.20778378777E-01 0.  0.
         14    1    1    2    0    0  0.18258735211E-01  0.10075403762E-01  0.10981556886E-01  0.23568830351E-01  0.00000000000E+00 0. -1.
     999901    1    3    3    0    0 -0.53909337766E-01 -0.12893209109E+00 -0.37358512572E-01  0.89181015876E+00  0.88000000000E+00 0. -1.
        -11    1    4    4    0    0  0.18816326383E-01  0.83789693089E-01  0.25708522025E-01  0.89643494087E-01  0.51100000000E-03 0. -1.
         11    1    4    4    0    0  0.16834276172E-01  0.35066994235E-01  0.66843366002E-03  0.38907516799E-01  0.51100000000E-03 0.  1.
</event>
<event>
 8    1  0.1082757E+005  0.1043930E+01  0.7957747E-01            NaN
         13   -1    0    0    0    0  0.00000000000E+00  0.00000000000E+00  0.74505805969E-08  0.10566000000E+00  0.10566000000E+00 0. -1.
     999900   -1    0    0    0    0 -0.00000000000E+00 -0.00000000000E+00 -0.74505805969E-08  0.93827000000E+00  0.93827000000E+00 0.  1.
     999902    2    1    2    0    0 -0.12930566758E-01 -0.10437077581E-01 -0.17479805768E-01  0.10198120450E+01  0.10195268174E+01 0.  0.
     999903    2    3    3    0    0  0.39447201397E-01  0.50171569216E-01 -0.11180328325E+00  0.13115364206E+00  0.25060638924E-01 0.  0.
         14    1    1    2    0    0  0.12930566758E-01  0.10437077581E-01  0.17479805768E-01  0.24117955030E-01  0.00000000000E+00 0. -1.
     999901    1    3    3    0    0 -0.52377768156E-01 -0.60608646796E-01  0.94323477483E-01  0.88865840291E+00  0.88000000000E+00 0. -1.
        -11    1    4    4    0    0  0.13041356779E-01  0.25455471770E-01 -0.28711219917E-01  0.40529659507E-01  0.51100000000E-03 0.  1.
         11    1    4    4    0    0  0.26405844619E-01  0.24716097446E-01 -0.83092063334E-01  0.90623982550E-01  0.51100000000E-03 0. -1.
</event>
<event>
 8    1  0.1082757E+005  0.1043930E+01  0.7957747E-01            NaN
         13   -1    0    0    0    0  0.00000000000E+00  0.00000000000E+00  0.74505805969E-08  0.10566000000E+00  0.10566000000E+00 0.  1.
     999900   -1    0    0    0    0 -0.00000000000E+00 -0.00000000000E+00 -0.74505805969E-08  0.93827000000E+00  0.93827000000E+00 0. -1.
     999902    2    1    2    0    0  0.34349947574E-02  0.77823048836E-02  0.21138410200E-01  0.10211441306E+01  0.10208898763E+01 0.  0.
     999903    2    3    3    0    0  0.37951852814E-01  0.52581664804E-01 -0.11033440951E+00  0.12958173881E+00  0.20311831699E-01 0.  0.
         14    1    1    2    0    0 -0.34349947574E-02 -0.77823048836E-02 -0.21138410200E-01  0.22785869395E-01  0.00000000000E+00 0. -1.
     999901    1    3    3    0    0 -0.34516858057E-01 -0.44799359920E-01  0.13147281971E+00  0.89156239179E+00  0.88000000000E+00 0.  1.
        -11    1    4    4    0    0  0.25213699719E-01  0.33012282458E-01 -0.87777764101E-01  0.97111989158E-01  0.51100000000E-03 0. -1.
         11    1    4    4    0    0  0.12738153096E-01  0.19569382346E-01 -0.22556645404E-01  0.32469749654E-01  0.51100000000E-03 0.  1.
</event>
<event>
 8    1  0.1082757E+005  0.1043930E+01  0.7957747E-01            NaN
         13   -1    0    0    0    0  0.00000000000E+00  0.00000000000E+00  0.74505805969E-08  0.10566000000E+00  0.10566000000E+00 0.  1.
     999900   -1    0    0    0    0 -0.00000000000E+00 -0.00000000000E+00 -0.74505805969E-08  0.93827000000E+00  0.93827000000E+00 0. -1.
     999902    2    1    2    0    0  0.72209196135E-02  0.12854597375E-01  0.19306880639E-01  0.10196372440E+01  0.10193478167E+01 0.  0.
     999903    2    3    3    0    0  0.71809352670E-02  0.12685933377E+00 -0.15661634115E-01  0.13159452063E+00  0.30446258910E-01 0.  0.
         14    1    1    2    0    0 -0.72209196135E-02 -0.12854597375E-01 -0.19306880639E-01  0.24292755993E-01  0.00000000000E+00 0. -1.
     999901    1    3    3    0    0  0.39984346482E-04 -0.11400473639E+00  0.34968514754E-01  0.88804272338E+00  0.88000000000E+00 0.  1.
        -11    1    4    4    0    0 -0.10903000140E-01  0.52913829161E-01 -0.12207381448E-01  0.55389800608E-01  0.51100000000E-03 0.  1.
         11    1    4    4    0    0  0.18083935407E-01  0.73945504605E-01 -0.34542526670E-02  0.76204720022E-01  0.51100000000E-03 0. -1.
</event>
<event>
 8    1  0.1082757E+005  0.1043930E+01  0.7957747E-01            NaN
         13   -1    0    0    0    0  0.00000000000E+00  0.00000000000E+00  0.74505805969E-08  0.10566000000E+00  0.10566000000E+00 0.  1.
     999900   -1    0    0    0    0 -0.00000000000E+00 -0.00000000000E+00 -0.74505805969E-08  0.93827000000E+00  0.93827000000E+00 0.  1.
     999902    2    1    2    0    0  0.23085028223E-01 -0.10563583062E-02  0.45368710782E-02  0.10203796790E+01  0.10201078726E+01 0.  0.
     999903    2    3    3    0    0 -0.18809045531E-01  0.86453648132E-01 -0.92661054663E-01  0.12972792245E+00  0.20377667747E-01 0.  0.
         14    1    1    2    0    0 -0.23085028223E-01  0.10563583062E-02 -0.45368710782E-02  0.23550321020E-01  0.00000000000E+00 0.  1.
     999901    1    3    3    0    0  0.41894073754E-01 -0.87510006438E-01  0.97197925741E-01  0.89065175653E+00  0.88000000000E+00 0.  1.
        -11    1    4    4    0    0 -0.38142365478E-02  0.44462545000E-01 -0.58369851511E-01  0.73476302266E-01  0.51100000000E-03 0. -1.
         11    1    4    4    0    0 -0.14994808983E-01  0.41991103132E-01 -0.34291203152E-01  0.56251620184E-01  0.51100000000E-03 0.  1.
</event>
<event>
 8    1  0.1082757E+005  0.1043930E+01  0.7957747E-01            NaN
         13   -1    0    0    0    0  0.00000000000E+00  0.00000000000E+00  0.74505805969E-08  0.10566000000E+00  0.10566000000E+00 0.  1.
     999900   -1    0    0    0    0 -0.00000000000E+00 -0.00000000000E+00 -0.74505805969E-08  0.93827000000E+00  0.93827000000E+00 0. -1.
     999902    2    1    2    0    0 -0.10501881263E-01  0.17857449445E-01  0.81814685965E-02  0.10216563735E+01  0.10214135455E+01 0.  0.
     999903    2    3    3    0    0  0.68714261720E-01 -0.59278970879E-01  0.91838079862E-01  0.13080079973E+00  0.20951614354E-01 0.  0.
         14    1    1    2    0    0  0.10501881263E-01 -0.17857449445E-01 -0.81814685965E-02  0.22273626537E-01  0.00000000000E+00 0.  1.
     999901    1    3    3    0    0 -0.79216142983E-01  0.77136420324E-01 -0.83656611265E-01  0.89085557374E+00  0.88000000000E+00 0. -1.
        -11    1    4    4    0    0  0.88607395429E-03 -0.41021807510E-02  0.34016652032E-03  0.42414441205E-02  0.51100000000E-03 0.  1.
         11    1    4    4    0    0  0.67828187766E-01 -0.55176790128E-01  0.91497913341E-01  0.12655935561E+00  0.51100000000E-03 0. -1.
</event>
<event>
 8    1  0.1082757E+005  0.1043930E+01  0.7957747E-01            NaN
         13   -1    0    0    0    0  0.00000000000E+00  0.00000000000E+00  0.74505805969E-08  0.10566000000E+00  0.10566000000E+00 0.  1.
     999900   -1    0    0    0    0 -0.00000000000E+00 -0.00000000000E+00 -0.74505805969E-08  0.93827000000E+00  0.93827000000E+00 0.  1.
     999902    2    1    2    0    0 -0.87251168585E-03  0.23554951885E-01 -0.18679841361E-01  0.10138545364E+01  0.10134083518E+01 0.  0.
     999903    2    3    3    0    0  0.36610561771E-01  0.74658398672E-01  0.90913299461E-01  0.12479480865E+00  0.19857152903E-01 0.  0.
         14    1    1    2    0    0  0.87251168585E-03 -0.23554951885E-01  0.18679841361E-01  0.30075463558E-01  0.00000000000E+00 0. -1.
     999901    1    3    3    0    0 -0.37483073456E-01 -0.51103446787E-01 -0.10959314082E+00  0.88905972779E+00  0.88000000000E+00 0. -1.
        -11    1    4    4    0    0  0.38052699523E-01  0.68681646824E-01  0.79030176254E-01  0.11140559425E+00  0.51100000000E-03 0. -1.
         11    1    4    4    0    0 -0.14421377521E-02  0.59767518477E-02  0.11883123207E-01  0.13389214394E-01  0.51100000000E-03 0.  1.
</event>
<event>
 8    1  0.1082757E+005  0.1043930E+01  0.7957747E-01            NaN
         13   -1    0    0    0    0  0.00000000000E+00  0.00000000000E+00  0.74505805969E-08  0.10566000000E+00  0.10566000000E+00 0.  1.
     999900   -1    0    0    0    0 -0.00000000000E+00 -0.00000000000E+00 -0.74505805969E-08  0.93827000000E+00  0.93827000000E+00 0. -1.
     999902    2    1    2    0    0 -0.67576375842E-02 -0.21789314989E-01 -0.11029916618E-01  0.10185903281E+01  0.10182750893E+01 0.  0.
     999903    2    3    3    0    0  0.67196298756E-01  0.53092312438E-01 -0.93881741820E-01  0.12845501938E+00  0.18782288184E-01 0.  0.
         14    1    1    2    0    0  0.67576375842E-02  0.21789314989E-01  0.11029916618E-01  0.25339671939E-01  0.00000000000E+00 0.  1.
     999901    1    3    3    0    0 -0.73953936341E-01 -0.74881627427E-01  0.82851825202E-01  0.89013530868E+00  0.88000000000E+00 0.  1.
        -11    1    4    4    0    0  0.16861962273E-01  0.24437347224E-01 -0.34064769008E-01  0.45190478196E-01  0.51100000000E-03 0. -1.
         11    1    4    4    0    0  0.50334336483E-01  0.28654965214E-01 -0.59816972812E-01  0.83264541181E-01  0.51100000000E-03 0.  1.
</event>
<event>
 8    1  0.1082757E+005  0.1043930E+01  0.7957747E-01            NaN
         13   -1    0    0    0    0  0.00000000000E+00  0.00000000000E+00  0.74505805969E-08  0.10566000000E+00  0.10566000000E+00 0.  1.
     999900   -1    0    0    0    0 -0.00000000000E+00 -0.00000000000E+00 -0.74505805969E-08  0.93827000000E+00  0.93827000000E+00 0. -1.
     999902    2    1    2    0    0  0.58577935375E-02 -0.20148999504E-01 -0.27210240839E-02  0.10227710799E+01  0.10225521904E+01 0.  0.
     999903    2    3    3    0    0  0.91656182419E-01  0.61635755211E-01  0.69271567214E-01  0.13191023624E+00  0.20048399033E-01 0.  0.
         14    1    1    2    0    0 -0.58577935375E-02  0.20148999504E-01  0.27210240839E-02  0.21158920062E-01  0.00000000000E+00 0.  1.
     999901    1    3    3    0    0 -0.85798388881E-01 -0.81784754714E-01 -0.71992591298E-01  0.89086084370E+00  0.88000000000E+00 0.  1.
        -11    1    4    4    0    0  0.53396981504E-01  0.28995641312E-01  0.28253744741E-01  0.67011342785E-01  0.51100000000E-03 0.  1.
         11    1    4    4    0    0  0.38259200915E-01  0.32640113898E-01  0.41017822473E-01  0.64898893452E-01  0.51100000000E-03 0. -1.
</event>
<event>
 8    1  0.1082757E+005  0.1043930E+01  0.7957747E-01            NaN
         13   -1    0    0    0    0  0.00000000000E+00  0.00000000000E+00  0.74505805969E-08  0.10566000000E+00  0.10566000000E+00 0.  1.
     999900   -1    0    0    0    0 -0.00000000000E+00 -0.00000000000E+00 -0.74505805969E-08  0.93827000000E+00  0.93827000000E+00 0. -1.
     999902    2    1    2    0    0 -0.21304472684E-01  0.70342119739E-02  0.41893762163E-02  0.10211065128E+01  0.10208514088E+01 0.  0.
     999903    2    3    3    0    0 -0.11623445600E+00  0.24252503277E-01 -0.58020278909E-01  0.13365047870E+00  0.19936524667E-01 0.  0.
         14    1    1    2    0    0  0.21304472684E-01 -0.70342119739E-02 -0.41893762163E-02  0.22823487190E-01  0.00000000000E+00 0.  1.
     999901    1    3    3    0    0  0.94929983315E-01 -0.17218291303E-01  0.62209655125E-01  0.88745603411E+00  0.88000000000E+00 0.  1.
        -11    1    4    4    0    0 -0.57721566646E-01  0.95396227306E-02 -0.39284198815E-01  0.70471930976E-01  0.51100000000E-03 0. -1.
         11    1    4    4    0    0 -0.58512889352E-01  0.14712880546E-01 -0.18736080094E-01  0.63178547725E-01  0.51100000000E-03 0.  1.
</event>
<event>
 8    1  0.1082757E+005  0.1043930E+01  0.7957747E-01            NaN
         13   -1    0    0    0    0  0.00000000000E+00  0.00000000000E+00  0.74505805969E-08  0.10566000000E+00  0.10566000000E+00 0. -1.
     999900   -1    0    0    0    0 -0.00000000000E+00 -0.00000000000E+00 -0.74505805969E-08  0.93827000000E+00  0.93827000000E+00 0.  1.
     999902    2    1    2    0    0 -0.98217370214E-02  0.77482775733E-02  0.17527137520E-01  0.10223962388E+01  0.10221694410E+01 0.  0.
     999903    2    3    3    0    0  0.91284603371E-01 -0.91320842234E-01  0.10880977044E-01  0.13105940343E+00  0.19641703770E-01 0.  0.
         14    1    1    2    0    0  0.98217370214E-02 -0.77482775733E-02 -0.17527137520E-01  0.21533761240E-01  0.00000000000E+00 0. -1.
     999901    1    3    3    0    0 -0.10110634039E+00  0.99069119808E-01  0.66461604761E-02  0.89133683533E+00  0.88000000000E+00 0.  1.
        -11    1    4    4    0    0  0.77156660217E-01 -0.74402551418E-01  0.17657581782E-02  0.10720200043E+00  0.51100000000E-03 0. -1.
         11    1    4    4    0    0  0.14127943155E-01 -0.16918290816E-01  0.91152188660E-02  0.23857403000E-01  0.51100000000E-03 0.  1.
</event>
<event>
 8    1  0.1082757E+005  0.1043930E+01  0.7957747E-01            NaN
         13   -1    0    0    0    0  0.00000000000E+00  0.00000000000E+00  0.74505805969E-08  0.10566000000E+00  0.10566000000E+00 0.  1.
     999900   -1    0    0    0    0 -0.00000000000E+00 -0.00000000000E+00 -0.74505805969E-08  0.93827000000E+00  0.93827000000E+00 0. -1.
     999902    2    1    2    0    0 -0.11109604232E-01  0.14454456378E-01  0.14131448187E-01  0.10208637380E+01  0.10206031154E+01 0.  0.
     999903    2    3    3    0    0 -0.98296460561E-01 -0.65701908088E-01  0.55288049577E-01  0.13197653675E+00  0.19547453599E-01 0.  0.
         14    1    1    2    0    0  0.11109604232E-01 -0.14454456378E-01 -0.14131448187E-01  0.23066262012E-01  0.00000000000E+00 0. -1.
     999901    1    3    3    0    0  0.87186856329E-01  0.80156364465E-01 -0.41156601390E-01  0.88888720123E+00  0.88000000000E+00 0. -1.
        -11    1    4    4    0    0 -0.46839461062E-01 -0.42863647529E-01  0.27523841951E-01  0.69202965173E-01  0.51100000000E-03 0.  1.
         11    1    4    4    0    0 -0.51456999499E-01 -0.22838260559E-01  0.27764207626E-01  0.62773571580E-01  0.51100000000E-03 0. -1.
</event>
<event>
 8    1  0.1082757E+005  0.1043930E+01  0.7957747E-01            NaN
         13   -1    0    0    0    0  0.00000000000E+00  0.00000000000E+00  0.74505805969E-08  0.10566000000E+00  0.10566000000E+00 0. -1.
     999900   -1    0    0    0    0 -0.00000000000E+00 -0.00000000000E+00 -0.74505805969E-08  0.93827000000E+00  0.93827000000E+00 0. -1.
     999902    2    1    2    0    0 -0.16796848997E-03  0.21762298468E-02  0.22050596630E-01  0.10217716381E+01  0.10215313443E+01 0.  0.
     999903    2    3    3    0    0  0.80066455649E-01  0.95723445467E-01  0.41298219539E-01  0.13297519609E+00  0.20080948825E-01 0.  0.
         14    1    1    2    0    0  0.16796848997E-03 -0.21762298468E-02 -0.22050596630E-01  0.22158361886E-01  0.00000000000E+00 0.  1.
     999901    1    3    3    0    0 -0.80234424139E-01 -0.93547215620E-01 -0.19247622910E-01  0.88879644202E+00  0.88000000000E+00 0.  1.
        -11    1    4    4    0    0  0.67148866740E-01  0.69041673357E-01  0.26797458597E-01  0.99970434993E-01  0.51100000000E-03 0. -1.
         11    1    4    4    0    0  0.12917588909E-01  0.26681772109E-01  0.14500760942E-01  0.33004761096E-01  0.51100000000E-03 0.  1.
</event>
<event>
 8    1  0.1082757E+005  0.1043930E+01  0.7957747E-01            NaN
         13   -1    0    0    0    0  0.00000000000E+00  0.00000000000E+00  0.74505805969E-08  0.10566000000E+00  0.10566000000E+00 0.  1.
     999900   -1    0    0    0    0 -0.00000000000E+00 -0.00000000000E+00 -0.74505805969E-08  0.93827000000E+00  0.93827000000E+00 0. -1.
     999902    2    1    2    0    0 -0.16734334182E-01 -0.35069446462E-02  0.15051106214E-01  0.10211512292E+01  0.10208971351E+01 0.  0.
     999903    2    3    3    0    0  0.24941874927E-01  0.11438795456E+00 -0.52201565608E-01  0.12977081908E+00  0.20217832692E-01 0.  0.
         14    1    1    2    0    0  0.16734334182E-01  0.35069446462E-02 -0.15051106214E-01  0.22778770808E-01  0.00000000000E+00 0. -1.
     999901    1    3    3    0    0 -0.41676209109E-01 -0.11789489921E+00  0.67252671822E-01  0.89138041011E+00  0.88000000000E+00 0.  1.
        -11    1    4    4    0    0  0.11980496078E-01  0.43583752495E-01 -0.30710146739E-01  0.54648421767E-01  0.51100000000E-03 0.  1.
         11    1    4    4    0    0  0.12961378849E-01  0.70804202067E-01 -0.21491418869E-01  0.75122397313E-01  0.51100000000E-03 0. -1.
</event>
<event>
 8    1  0.1082757E+005  0.1043930E+01  0.7957747E-01            NaN
         13   -1    0    0    0    0  0.00000000000E+00  0.00000000000E+00  0.74505805969E-08  0.10566000000E+00  0.10566000000E+00 0. -1.
     999900   -1    0    0    0    0 -0.00000000000E+00 -0.00000000000E+00 -0.74505805969E-08  0.93827000000E+00  0.93827000000E+00 0. -1.
     999902    2    1    2    0    0  0.28455919521E-02  0.24319890465E-01  0.52054168779E-02  0.10188970052E+01  0.10185894444E+01 0.  0.
     999903    2    3    3    0    0 -0.82069144636E-01 -0.92272195655E-01  0.21900625424E-01  0.12699849242E+00  0.19986923006E-01 0.  0.
         14    1    1    2    0    0 -0.28455919521E-02 -0.24319890465E-01 -0.52054168779E-02  0.25032994840E-01  0.00000000000E+00 0.  1.
     999901    1    3    3    0    0  0.84914736588E-01  0.11659208612E+00 -0.16695208546E-01  0.89189851274E+00  0.88000000000E+00 0.  1.
        -11    1    4    4    0    0 -0.27679245772E-01 -0.25038150695E-01  0.15049375803E-01  0.40246670295E-01  0.51100000000E-03 0. -1.
         11    1    4    4    0    0 -0.54389898863E-01 -0.67234044960E-01  0.68512496213E-02  0.86751822127E-01  0.51100000000E-03 0.  1.
</event>
<event>
 8    1  0.1082757E+005  0.1043930E+01  0.7957747E-01            NaN
         13   -1    0    0    0    0  0.00000000000E+00  0.00000000000E+00  0.74505805969E-08  0.10566000000E+00  0.10566000000E+00 0. -1.
     999900   -1    0    0    0    0 -0.00000000000E+00 -0.00000000000E+00 -0.74505805969E-08  0.93827000000E+00  0.93827000000E+00 0. -1.
     999902    2    1    2    0    0  0.69237059480E-02 -0.13941956340E-01 -0.18883318255E-01  0.10194576573E+01  0.10191638825E+01 0.  0.
     999903    2    3    3    0    0 -0.10175679723E+00 -0.19574805390E-01  0.72726142899E-01  0.12803437165E+00  0.19133470001E-01 0.  0.
         14    1    1    2    0    0 -0.69237059480E-02  0.13941956340E-01  0.18883318255E-01  0.24472342736E-01  0.00000000000E+00 0. -1.
     999901    1    3    3    0    0  0.10868050318E+00  0.56328490496E-02 -0.91609461155E-01  0.89142328561E+00  0.88000000000E+00 0. -1.
        -11    1    4    4    0    0 -0.39275866907E-01 -0.47220437593E-03  0.34844264119E-01  0.52509052183E-01  0.51100000000E-03 0. -1.
         11    1    4    4    0    0 -0.62480930325E-01 -0.19102601014E-01  0.37881878781E-01  0.75525319468E-01  0.51100000000E-03 0.  1.
</event>
<event>
 8    1  0.1082757E+005  0.1043930E+01  0.7957747E-01            NaN
         13   -1    0    0    0    0  0.00000000000E+00  0.00000000000E+00  0.74505805969E-08  0.10566000000E+00  0.10566000000E+00 0.  1.
     999900   -1    0    0    0    0 -0.00000000000E+00 -0.00000000000E+00 -0.74505805969E-08  0.93827000000E+00  0.93827000000E+00 0.  1.
     999902    2    1    2    0    0  0.92912513750E-02 -0.53029288046E-02  0.20257159854E-01  0.10210214660E+01  0.10207644356E+01 0.  0.
     999903    2    3    3    0    0  0.84170467401E-01  0.20910415726E-01 -0.94648185302E-01  0.13001233315E+00  0.20567321700E-01 0.  0.
         14    1    1    2    0    0 -0.92912513750E-02  0.53029288046E-02 -0.20257159854E-01  0.22908534029E-01  0.00000000000E+00 0. -1.
     999901    1    3    3    0    0 -0.74879216026E-01 -0.26213344531E-01  0.11490534516E+00  0.89100913282E+00  0.88000000000E+00 0. -1.
        -11    1    4    4    0    0  0.29415480545E-01  0.51497496951E-03 -0.42513140440E-01  0.51702649120E-01  0.51100000000E-03 0. -1.
         11    1    4    4    0    0  0.54754986855E-01  0.20395440757E-01 -0.52135044862E-01  0.78309684031E-01  0.51100000000E-03 0.  1.
</event>
<event>
 8    1  0.1082757E+005  0.1043930E+01  0.7957747E-01            NaN
         13   -1    0    0    0    0  0.00000000000E+00  0.00000000000E+00  0.74505805969E-08  0.10566000000E+00  0.10566000000E+00 0. -1.
     999900   -1    0    0    0    0 -0.00000000000E+00 -0.00000000000E+00 -0.74505805969E-08  0.93827000000E+00  0.93827000000E+00 0. -1.
     999902    2    1    2    0    0 -0.23444365443E-01 -0.35418568273E-02  0.87862305597E-03  0.10202033273E+01  0.10199273866E+01 0.  0.
     999903    2    3    3    0    0  0.74806169092E-01  0.21246168671E-01  0.10084252070E+00  0.12876606386E+00  0.19081996847E-01 0.  0.
         14    1    1    2    0    0  0.23444365443E-01  0.35418568273E-02 -0.87862305597E-03  0.23726672740E-01  0.00000000000E+00 0.  1.
     999901    1    3    3    0    0 -0.98250534535E-01 -0.24788025499E-01 -0.99963897644E-01  0.89143726340E+00  0.88000000000E+00 0.  1.
        -11    1    4    4    0    0  0.48743041083E-01  0.53941547908E-02  0.69135503501E-01  0.84764142922E-01  0.51100000000E-03 0. -1.
         11    1    4    4    0    0  0.26063128009E-01  0.15852013881E-01  0.31707017199E-01  0.44001920939E-01  0.51100000000E-03 0.  1.
</event>
<event>
 8    1  0.1082757E+005  0.1043930E+01  0.7957747E-01            NaN
         13   -1    0    0    0    0  0.00000000000E+00  0.00000000000E+00  0.74505805969E-08  0.10566000000E+00  0.10566000000E+00 0. -1.
     999900   -1    0    0    0    0 -0.00000000000E+00 -0.00000000000E+00 -0.74505805969E-08  0.93827000000E+00  0.93827000000E+00 0.  1.
     999902    2    1    2    0    0 -0.18075283462E-01 -0.93069611987E-03  0.15475466007E-01  0.10201167240E+01  0.10198387414E+01 0.  0.
     999903    2    3    3    0    0 -0.10919885996E+00 -0.63146383155E-01 -0.32778599626E-01  0.13191474651E+00  0.20376629522E-01 0.  0.
         14    1    1    2    0    0  0.18075283462E-01  0.93069611987E-03 -0.15475466007E-01  0.23813276037E-01  0.00000000000E+00 0.  1.
     999901    1    3    3    0    0  0.91123576497E-01  0.62215687035E-01  0.48254065633E-01  0.88820197746E+00  0.88000000000E+00 0. -1.
        -11    1    4    4    0    0 -0.80135858387E-01 -0.48927033227E-01 -0.33093168046E-01  0.99554152461E-01  0.51100000000E-03 0. -1.
         11    1    4    4    0    0 -0.29063001572E-01 -0.14219349927E-01  0.31456841981E-03  0.32360594046E-01  0.51100000000E-03 0.  1.
</event>
<event>
 8    1  0.1082757E+005  0.1043930E+01  0.7957747E-01            NaN
         13   -1    0    0    0    0  0.00000000000E+00  0.00000000000E+00  0.74505805969E-08  0.10566000000E+00  0.10566000000E+00 0.  1.
     999900   -1    0    0    0    0 -0.00000000000E+00 -0.00000000000E+00 -0.74505805969E-08  0.93827000000E+00  0.93827000000E+00 0.  1.
     999902    2    1    2    0    0 -0.16779602691E-01 -0.79429312106E-02 -0.12077535701E-01  0.10217824924E+01  0.10215424366E+01 0.  0.
     999903    2    3    3    0    0 -0.70467724291E-01  0.63214250280E-01 -0.92027528810E-01  0.13367339988E+00  0.20922958013E-01 0.  0.
         14    1    1    2    0    0  0.16779602691E-01  0.79429312106E-02  0.12077535701E-01  0.22147507564E-01  0.00000000000E+00 0.  1.
     999901    1    3    3    0    0  0.53688121601E-01 -0.71157181490E-01  0.79949993109E-01  0.88810909255E+00  0.88000000000E+00 0. -1.
        -11    1    4    4    0    0 -0.33350543861E-01  0.29762070565E-01 -0.29187937808E-01  0.53387605815E-01  0.51100000000E-03 0.  1.
         11    1    4    4    0    0 -0.37117180431E-01  0.33452179714E-01 -0.62839591003E-01  0.80285794068E-01  0.51100000000E-03 0. -1.
</event>
<event>
 8    1  0.1082757E+005  0.1043930E+01  0.7957747E-01            NaN
         13   -1    0    0    0    0  0.00000000000E+00  0.00000000000E+00  0.74505805969E-08  0.10566000000E+00  0.10566000000E+00 0.  1.
     999900   -1    0    0    0    0 -0.00000000000E+00 -0.00000000000E+00 -0.74505805969E-08  0.93827000000E+00  0.93827000000E+00 0. -1.
     999902    2    1    2    0    0  0.24523502308E-02  0.21430894392E-01 -0.97975605609E-02  0.10202384519E+01  0.10199633373E+01 0.  0.
     999903    2    3    3    0    0 -0.89362182925E-01 -0.69508895822E-01  0.56595300722E-01  0.12832591926E+00  0.21152473942E-01 0.  0.
         14    1    1    2    0    0 -0.24523502308E-02 -0.21430894392E-01  0.97975605609E-02  0.23691548051E-01  0.00000000000E+00 0.  1.
     999901    1    3    3    0    0  0.91814533156E-01  0.90939790214E-01 -0.66392861283E-01  0.89191253269E+00  0.88000000000E+00 0. -1.
        -11    1    4    4    0    0 -0.53803768876E-01 -0.49699184161E-01  0.45133493422E-01  0.86035735605E-01  0.51100000000E-03 0. -1.
         11    1    4    4    0    0 -0.35558414050E-01 -0.19809711660E-01  0.11461807300E-01  0.42290183653E-01  0.51100000000E-03 0.  1.
</event>
<event>
 8    1  0.1082757E+005  0.1043930E+01  0.7957747E-01            NaN
         13   -1    0    0    0    0  0.00000000000E+00  0.00000000000E+00  0.74505805969E-08  0.10566000000E+00  0.10566000000E+00 0.  1.
     999900   -1    0    0    0    0 -0.00000000000E+00 -0.00000000000E+00 -0.74505805969E-08  0.93827000000E+00  0.93827000000E+00 0. -1.
     999902    2    1    2    0    0 -0.20069496467E-01 -0.14628845941E-01 -0.21847400481E-02  0.10189988767E+01  0.10186938449E+01 0.  0.
     999903    2    3    3    0    0 -0.33261437811E-01 -0.30173440012E-01  0.12063850550E+00  0.13023500961E+00  0.19767371912E-01 0.  0.
         14    1    1    2    0    0  0.20069496467E-01  0.14628845941E-01  0.21847400481E-02  0.24931123342E-01  0.00000000000E+00 0. -1.
     999901    1    3    3    0    0  0.13191941344E-01  0.15544594071E-01 -0.12282324555E+00  0.88876386705E+00  0.88000000000E+00 0. -1.
        -11    1    4    4    0    0 -0.14941391711E-01 -0.16109567608E-01  0.33344544858E-01  0.39935988125E-01  0.51100000000E-03 0. -1.
         11    1    4    4    0    0 -0.18320046100E-01 -0.14063872404E-01  0.87293960640E-01  0.90299021486E-01  0.51100000000E-03 0.  1.
</event>
<event>
 8    1  0.1082757E+005  0.1043930E+01  0.7957747E-01            NaN
         13   -1    0    0    0    0  0.00000000000E+00  0.00000000000E+00  0.74505805969E-08  0.10566000000E+00  0.10566000000E+00 0. -1.
     999900   -1    0    0    0    0 -0.00000000000E+00 -0.00000000000E+00 -0.74505805969E-08  0.93827000000E+00  0.93827000000E+00 0.  1.
     999902    2    1    2    0    0  0.21377592942E-01 -0.33561480213E-02 -0.82091156001E-02  0.10207857828E+01  0.10205233754E+01 0.  0.
     999903    2    3    3    0    0  0.41288995398E-01  0.12321459424E+00 -0.14461599027E-02  0.13148136121E+00  0.19965960870E-01 0.  0.
         14    1    1    2    0    0 -0.21377592942E-01  0.33561480213E-02  0.82091156001E-02  0.23144217171E-01  0.00000000000E+00 0. -1.
     999901    1    3    3    0    0 -0.19911402456E-01 -0.12657074226E+00 -0.67629556974E-02  0.88930442162E+00  0.88000000000E+00 0. -1.
        -11    1    4    4    0    0  0.11390027444E-01  0.25194087755E-01  0.73797845011E-02  0.28621619858E-01  0.51100000000E-03 0.  1.
         11    1    4    4    0    0  0.29898967953E-01  0.98020506480E-01 -0.88259444038E-02  0.10285974135E+00  0.51100000000E-03 0. -1.
</event>
<event>
 8    1  0.1082757E+005  0.1043930E+01  0.7957747E-01            NaN
         13   -1    0    0    0    0  0.00000000000E+00  0.00000000000E+00  0.74505805969E-08  0.10566000000E+00  0.10566000000E+00 0. -1.
     999900   -1    0    0    0    0 -0.00000000000E+00 -0.00000000000E+00 -0.74505805969E-08  0.93827000000E+00  0.93827000000E+00 0. -1.
     999902    2    1    2    0    0  0.56152278285E-02  0.24089777635E-02 -0.23517489205E-01  0.10196317232E+01  0.10193421627E+01 0.  0.
     999903    2    3    3    0    0  0.38455394797E-01 -0.93636040558E-01  0.76030281084E-01  0.12822111035E+00  0.20335289957E-01 0.  0.
         14    1    1    2    0    0 -0.56152278285E-02 -0.24089777635E-02  0.23517489205E-01  0.24298276810E-01  0.00000000000E+00 0. -1.
     999901    1    3    3    0    0 -0.32840166968E-01  0.96045018322E-01 -0.99547770289E-01  0.89141061284E+00  0.88000000000E+00 0.  1.
        -11    1    4    4    0    0  0.28998936665E-01 -0.64014254815E-01  0.63418911910E-01  0.94662466987E-01  0.51100000000E-03 0.  1.
         11    1    4    4    0    0  0.94564581322E-02 -0.29621785744E-01  0.12611369175E-01  0.33558643365E-01  0.51100000000E-03 0. -1.
</event>
<event>
 8    1  0.1082757E+005  0.1043930E+01  0.7957747E-01            NaN
         13   -1    0    0    0    0  0.00000000000E+00  0.00000000000E+00  0.74505805969E-08  0.10566000000E+00  0.10566000000E+00 0.  1.
     999900   -1    0    0    0    0 -0.00000000000E+00 -0.00000000000E+00 -0.74505805969E-08  0.93827000000E+00  0.93827000000E+00 0.  1.
     999902    2    1    2    0    0  0.10574256581E-01  0.98209104347E-03  0.20910060212E-01  0.10204777075E+01  0.10202081854E+01 0.  0.
     999903    2    3    3    0    0  0.95649944833E-02 -0.92964532788E-01  0.92461812477E-01  0.13258884059E+00  0.17225574228E-01 0.  0.
         14    1    1    2    0    0 -0.10574256581E-01 -0.98209104347E-03 -0.20910060212E-01  0.23452292492E-01  0.00000000000E+00 0. -1.
     999901    1    3    3    0    0  0.10092620976E-02  0.93946623831E-01 -0.71551752265E-01  0.88788886691E+00  0.88000000000E+00 0.  1.
        -11    1    4    4    0    0  0.99549577279E-02 -0.27417022672E-01  0.23679311999E-01  0.37573464750E-01  0.51100000000E-03 0. -1.
         11    1    4    4    0    0 -0.38996324463E-03 -0.65547510116E-01  0.68782500478E-01  0.95015375844E-01  0.51100000000E-03 0.  1.
</event>
<event>
 8    1  0.1082757E+005  0.1043930E+01  0.7957747E-01            NaN
         13   -1    0    0    0    0  0.00000000000E+00  0.00000000000E+00  0.74505805969E-08  0.10566000000E+00  0.10566000000E+00 0. -1.
     999900   -1    0    0    0    0 -0.00000000000E+00 -0.00000000000E+00 -0.74505805969E-08  0.93827000000E+00  0.93827000000E+00 0. -1.
     999902    2    1    2    0    0 -0.14176913513E-01 -0.13683594098E-01  0.13020810026E-01  0.10203129062E+01  0.10200395382E+01 0.  0.
     999903    2    3    3    0    0  0.14259766973E-01  0.17709309731E-01  0.12822792864E+00  0.13179344140E+00  0.20252133421E-01 0.  0.
         14    1    1    2    0    0  0.14176913513E-01  0.13683594098E-01 -0.13020810026E-01  0.23617093766E-01  0.00000000000E+00 0. -1.
     999901    1    3    3    0    0 -0.28436680486E-01 -0.31392903829E-01 -0.11520711861E+00  0.88851946483E+00  0.88000000000E+00 0. -1.
        -11    1    4    4    0    0  0.18892879470E-01  0.98626804578E-02  0.88883300838E-01  0.91404133656E-01  0.51100000000E-03 0. -1.
         11    1    4    4    0    0 -0.46331124977E-02  0.78466292732E-02  0.39344627801E-01  0.40389307745E-01  0.51100000000E-03 0.  1.
</event>
<event>
 8    1  0.1082757E+005  0.1043930E+01  0.7957747E-01            NaN
         13   -1    0    0    0    0  0.00000000000E+00  0.00000000000E+00  0.74505805969E-08  0.10566000000E+00  0.10566000000E+00 0.  1.
     999900   -1    0    0    0    0 -0.00000000000E+00 -0.00000000000E+00 -0.74505805969E-08  0.93827000000E+00  0.93827000000E+00 0.  1.
     999902    2    1    2    0    0 -0.15896924793E-01  0.13808303607E-01 -0.69931506930E-02  0.10217424895E+01  0.10215015561E+01 0.  0.
     999903    2    3    3    0    0  0.26597493274E-01  0.70812202679E-01 -0.10825164277E+00  0.13308704315E+00  0.16490851875E-01 0.  0.
         14    1    1    2    0    0  0.15896924793E-01 -0.13808303607E-01  0.69931506930E-02  0.22187510518E-01  0.00000000000E+00 0.  1.
     999901    1    3    3    0    0 -0.42494418067E-01 -0.57003899072E-01  0.10125849208E+00  0.88865544633E+00  0.88000000000E+00 0. -1.
        -11    1    4    4    0    0  0.21535301256E-01  0.38679249062E-01 -0.70527930779E-01  0.83272466332E-01  0.51100000000E-03 0. -1.
         11    1    4    4    0    0  0.50621920177E-02  0.32132953617E-01 -0.37723711991E-01  0.49814576818E-01  0.51100000000E-03 0.  1.
</event>
<event>
 8    1  0.1082757E+005  0.1043930E+01  0.7957747E-01            NaN
         13   -1    0    0    0    0  0.00000000000E+00  0.00000000000E+00  0.74505805969E-08  0.10566000000E+00  0.10566000000E+00 0. -1.
     999900   -1    0    0    0    0 -0.00000000000E+00 -0.00000000000E+00 -0.74505805969E-08  0.93827000000E+00  0.93827000000E+00 0. -1.
     999902    2    1    2    0    0 -0.65191336375E-02 -0.99377534755E-02  0.20442759238E-01  0.10202833416E+01  0.10200092807E+01 0.  0.
     999903    2    3    3    0    0 -0.12812676861E+00 -0.17000633006E-01  0.15879177929E-01  0.13188077103E+00  0.20854235006E-01 0.  0.
         14    1    1    2    0    0  0.65191336375E-02  0.99377534755E-02 -0.20442759238E-01  0.23646658385E-01  0.00000000000E+00 0.  1.
     999901    1    3    3    0    0  0.12160763497E+00  0.70628795304E-02  0.45635813090E-02  0.88840257059E+00  0.88000000000E+00 0.  1.
        -11    1    4    4    0    0 -0.10430500356E+00 -0.21633359238E-01  0.15135782883E-01  0.10759595273E+00  0.51100000000E-03 0.  1.
         11    1    4    4    0    0 -0.23821765056E-01  0.46327262321E-02  0.74339504613E-03  0.24284818301E-01  0.51100000000E-03 0. -1.
</event>
<event>
 8    1  0.1082757E+005  0.1043930E+01  0.7957747E-01            NaN
         13   -1    0    0    0    0  0.00000000000E+00  0.00000000000E+00  0.74505805969E-08  0.10566000000E+00  0.10566000000E+00 0.  1.
     999900   -1    0    0    0    0 -0.00000000000E+00 -0.00000000000E+00 -0.74505805969E-08  0.93827000000E+00  0.93827000000E+00 0. -1.
     999902    2    1    2    0    0  0.21664628044E-01  0.89585139397E-02  0.93365030748E-02  0.10186954727E+01  0.10183828772E+01 0.  0.
     999903    2    3    3    0    0 -0.47550396580E-01  0.75586066608E-03  0.11827303261E+00  0.12924329822E+00  0.21300430752E-01 0.  0.
         14    1    1    2    0    0 -0.21664628044E-01 -0.89585139397E-02 -0.93365030748E-02  0.25234527338E-01  0.00000000000E+00 0. -1.
     999901    1    3    3    0    0  0.69215024625E-01  0.82026532736E-02 -0.10893652954E+00  0.88945217444E+00  0.88000000000E+00 0. -1.
        -11    1    4    4    0    0 -0.24718251871E-01 -0.61404107437E-02  0.81681959563E-01  0.85562259547E-01  0.51100000000E-03 0. -1.
         11    1    4    4    0    0 -0.22832144709E-01  0.68962714098E-02  0.36591073052E-01  0.43681038672E-01  0.51100000000E-03 0.  1.
</event>
<event>
 8    1  0.1082757E+005  0.1043930E+01  0.7957747E-01            NaN
         13   -1    0    0    0    0  0.00000000000E+00  0.00000000000E+00  0.74505805969E-08  0.10566000000E+00  0.10566000000E+00 0. -1.
     999900   -1    0    0    0    0 -0.00000000000E+00 -0.00000000000E+00 -0.74505805969E-08  0.93827000000E+00  0.93827000000E+00 0. -1.
     999902    2    1    2    0    0  0.17042364756E-03 -0.23979977752E-01  0.15989525701E-02  0.10198961691E+01  0.10196129515E+01 0.  0.
     999903    2    3    3    0    0 -0.12728850341E+00 -0.15020048350E-01 -0.12725503693E-01  0.13055301349E+00  0.21311638476E-01 0.  0.
         14    1    1    2    0    0 -0.17042364756E-03  0.23979977752E-01 -0.15989525701E-02  0.24033830875E-01  0.00000000000E+00 0. -1.
     999901    1    3    3    0    0  0.12745892706E+00 -0.89599294021E-02  0.14324456263E-01  0.88934315563E+00  0.88000000000E+00 0.  1.
        -11    1    4    4    0    0 -0.84032617350E-02  0.37097895215E-02  0.16436261287E-02  0.93455857992E-02  0.51100000000E-03 0.  1.
         11    1    4    4    0    0 -0.11888524168E+00 -0.18729837872E-01 -0.14369129821E-01  0.12120742769E+00  0.51100000000E-03 0. -1.
</event>
<event>
 8    1  0.1082757E+005  0.1043930E+01  0.7957747E-01            NaN
         13   -1    0    0    0    0  0.00000000000E+00  0.00000000000E+00  0.74505805969E-08  0.10566000000E+00  0.10566000000E+00 0. -1.
     999900   -1    0    0    0    0 -0.00000000000E+00 -0.00000000000E+00 -0.74505805969E-08  0.93827000000E+00  0.93827000000E+00 0. -1.
     999902    2    1    2    0    0  0.13434397828E-01  0.14358134387E-01  0.12982998579E-01  0.10203673745E+01  0.10200952807E+01 0.  0.
     999903    2    3    3    0    0  0.12945474194E-01 -0.12681295603E+00  0.74096912936E-02  0.12909829192E+00  0.19035606947E-01 0.  0.
         14    1    1    2    0    0 -0.13434397828E-01 -0.14358134387E-01 -0.12982998579E-01  0.23562625494E-01  0.00000000000E+00 0.  1.
     999901    1    3    3    0    0  0.48892363362E-03  0.14117109042E+00  0.55733072851E-02  0.89126908258E+00  0.88000000000E+00 0.  1.
        -11    1    4    4    0    0  0.14662991611E-01 -0.60099522880E-01  0.78408105551E-02  0.62359405101E-01  0.51100000000E-03 0. -1.
         11    1    4    4    0    0 -0.17175174164E-02 -0.66713433154E-01 -0.43111926156E-03  0.66738886821E-01  0.51100000000E-03 0.  1.
</event>
<event>
 8    1  0.1082757E+005  0.1043930E+01  0.7957747E-01            NaN
         13   -1    0    0    0    0  0.00000000000E+00  0.00000000000E+00  0.74505805969E-08  0.10566000000E+00  0.10566000000E+00 0.  1.
     999900   -1    0    0    0    0 -0.00000000000E+00 -0.00000000000E+00 -0.74505805969E-08  0.93827000000E+00  0.93827000000E+00 0. -1.
     999902    2    1    2    0    0 -0.17324403399E-01 -0.13025169249E-01  0.87644095256E-02  0.10205504179E+01  0.10202825837E+01 0.  0.
     999903    2    3    3    0    0  0.11388731807E-01 -0.12948273486E+00  0.15746051187E-01  0.13238627084E+00  0.19562840794E-01 0.  0.
         14    1    1    2    0    0  0.17324403399E-01  0.13025169249E-01 -0.87644095256E-02  0.23379582149E-01  0.00000000000E+00 0. -1.
     999901    1    3    3    0    0 -0.28713135207E-01  0.11645756561E+00 -0.69816416618E-02  0.88816414701E+00  0.88000000000E+00 0.  1.
        -11    1    4    4    0    0  0.33140480587E-02 -0.10711640135E+00  0.17275740881E-01  0.10855237766E+00  0.51100000000E-03 0.  1.
         11    1    4    4    0    0  0.80746837487E-02 -0.22366333508E-01 -0.15296896937E-02  0.23833893173E-01  0.51100000000E-03 0. -1.
</event>
<event>
 8    1  0.1082757E+005  0.1043930E+01  0.7957747E-01            NaN
         13   -1    0    0    0    0  0.00000000000E+00  0.00000000000E+00  0.74505805969E-08  0.10566000000E+00  0.10566000000E+00 0. -1.
     999900   -1    0    0    0    0 -0.00000000000E+00 -0.00000000000E+00 -0.74505805969E-08  0.93827000000E+00  0.93827000000E+00 0.  1.
     999902    2    1    2    0    0  0.18087834399E-01  0.16275621674E-01  0.18776564040E-02  0.10195252626E+01  0.10192331283E+01 0.  0.
     999903    2    3    3    0    0 -0.93134594182E-02  0.10297518913E+00  0.78790910123E-01  0.13150313759E+00  0.19860452564E-01 0.  0.
         14    1    1    2    0    0 -0.18087834399E-01 -0.16275621674E-01 -0.18776564040E-02  0.24404737403E-01  0.00000000000E+00 0.  1.
     999901    1    3    3    0    0  0.27401293817E-01 -0.86699567455E-01 -0.76913253719E-01  0.88802212500E+00  0.88000000000E+00 0.  1.
        -11    1    4    4    0    0  0.16912872233E-02  0.74810921063E-01  0.59821197809E-01  0.95803816161E-01  0.51100000000E-03 0. -1.
         11    1    4    4    0    0 -0.11004746641E-01  0.28164268067E-01  0.18969712314E-01  0.35699321431E-01  0.51100000000E-03 0.  1.
</event>
<event>
 8    1  0.1092611E+005  0.1043930E+01  0.7957747E-01            NaN
         13   -1    0    0    0    0  0.00000000000E+00  0.00000000000E+00  0.74505805969E-08  0.10566000000E+00  0.10566000000E+00 0. -1.
     999900   -1    0    0    0    0 -0.00000000000E+00 -0.00000000000E+00 -0.74505805969E-08  0.93827000000E+00  0.93827000000E+00 0.  1.
     999902    2    1    2    0    0  0.20669555391E-01  0.11757261574E-01  0.28407020573E-02  0.10199814446E+01  0.10197002569E+01 0.  0.
     999903    2    3    3    0    0 -0.69304301165E-01 -0.80307704865E-01  0.66935430922E-01  0.12830920254E+00  0.27027503089E-01 0.  0.
         14    1    1    2    0    0 -0.20669555391E-01 -0.11757261574E-01 -0.28407020573E-02  0.23948555446E-01  0.00000000000E+00 0. -1.
     999901    1    3    3    0    0  0.89973856557E-01  0.92064966438E-01 -0.64094728864E-01  0.89167224201E+00  0.88000000000E+00 0. -1.
        -11    1    4    4    0    0 -0.34147424384E-01 -0.47674459008E-01  0.51123770004E-01  0.77799753305E-01  0.51100000000E-03 0.  1.
         11    1    4    4    0    0 -0.35156876781E-01 -0.32633245857E-01  0.15811660917E-01  0.50509449236E-01  0.51100000000E-03 0. -1.
</event>
<event>
 7    1  0.1082757E+005  0.1043930E+01  0.7957747E-01            NaN
         13   -1    0    0    0    0  0.00000000000E+00  0.00000000000E+00  0.74505805969E-08  0.10566000000E+00  0.10566000000E+00 0.  1.
     999900   -1    0    0    0    0 -0.00000000000E+00 -0.00000000000E+00 -0.74505805969E-08  0.93827000000E+00  0.93827000000E+00 0. -1.
     999902    2    1    2    0    0 -0.20428928687E-01  0.97937789792E-02  0.25279151773E-01  0.10099845327E+01  0.10094139199E+01 0.  0.
         14    1    1    2    0    0  0.20428928687E-01 -0.97937789792E-02 -0.25279151773E-01  0.33945467272E-01  0.00000000000E+00 0. -1.
     999901    1    3    3    0    0 -0.75241608797E-01  0.81652599999E-01  0.85878978005E-01  0.89112493268E+00  0.88000000000E+00 0.  1.
        -11    1    3    3    0    0  0.41514472368E-01 -0.23297426534E-01 -0.46551394642E-01  0.66584645101E-01  0.51100000000E-03 0. -1.
         11    1    3    3    0    0  0.13298207743E-01 -0.48561394485E-01 -0.14048431590E-01  0.52274954947E-01  0.51100000000E-03 0.  1.
</event>
<event>
 8    1  0.1082757E+005  0.1043930E+01  0.7957747E-01            NaN
         13   -1    0    0    0    0  0.00000000000E+00  0.00000000000E+00  0.74505805969E-08  0.10566000000E+00  0.10566000000E+00 0.  1.
     999900   -1    0    0    0    0 -0.00000000000E+00 -0.00000000000E+00 -0.74505805969E-08  0.93827000000E+00  0.93827000000E+00 0. -1.
     999902    2    1    2    0    0 -0.19018402915E-01 -0.73451779464E-02  0.13940646417E-01  0.10192319654E+01  0.10189326800E+01 0.  0.
     999903    2    3    3    0    0  0.10790083988E+00  0.52222048424E-01  0.39603446904E-01  0.12776389087E+00  0.19632758723E-01 0.  0.
         14    1    1    2    0    0  0.19018402915E-01  0.73451779464E-02 -0.13940646417E-01  0.24698034558E-01  0.00000000000E+00 0. -1.
     999901    1    3    3    0    0 -0.12691924280E+00 -0.59567226370E-01 -0.25662800487E-01  0.89146807457E+00  0.88000000000E+00 0. -1.
        -11    1    4    4    0    0  0.39210261748E-01  0.25642365385E-01  0.23293316920E-01  0.52324136524E-01  0.51100000000E-03 0. -1.
         11    1    4    4    0    0  0.68690578135E-01  0.26579683039E-01  0.16310129984E-01  0.75439754347E-01  0.51100000000E-03 0.  1.
</event>
<event>
 8    1  0.1082757E+005  0.1043930E+01  0.7957747E-01            NaN
         13   -1    0    0    0    0  0.00000000000E+00  0.00000000000E+00  0.74505805969E-08  0.10566000000E+00  0.10566000000E+00 0.  1.
     999900   -1    0    0    0    0 -0.00000000000E+00 -0.00000000000E+00 -0.74505805969E-08  0.93827000000E+00  0.93827000000E+00 0. -1.
     999902    2    1    2    0    0 -0.78091233608E-02 -0.23730132533E-01 -0.10358309683E-01  0.10168856628E+01  0.10165259736E+01 0.  0.
     999903    2    3    3    0    0 -0.83078539843E-01 -0.92491974669E-01  0.32306521873E-01  0.12997306061E+00  0.19811006221E-01 0.  0.
         14    1    1    2    0    0  0.78091233608E-02  0.23730132533E-01  0.10358309683E-01  0.27044337248E-01  0.00000000000E+00 0. -1.
     999901    1    3    3    0    0  0.75269416482E-01  0.68761842136E-01 -0.42664831556E-01  0.88691260214E+00  0.88000000000E+00 0. -1.
        -11    1    4    4    0    0 -0.38452410717E-01 -0.29006406366E-01  0.95920736287E-02  0.49114442862E-01  0.51100000000E-03 0.  1.
         11    1    4    4    0    0 -0.44626129126E-01 -0.63485568303E-01  0.22714448244E-01  0.80858617745E-01  0.51100000000E-03 0. -1.
</event>
<event>
 8    1  0.1082757E+005  0.1043930E+01  0.7957747E-01            NaN
         13   -1    0    0    0    0  0.00000000000E+00  0.00000000000E+00  0.74505805969E-08  0.10566000000E+00  0.10566000000E+00 0.  1.
     999900   -1    0    0    0    0 -0.00000000000E+00 -0.00000000000E+00 -0.74505805969E-08  0.93827000000E+00  0.93827000000E+00 0.  1.
     999902    2    1    2    0    0 -0.10437002462E-02 -0.76775228046E-02 -0.22922735116E-01  0.10197331934E+01  0.10194460752E+01 0.  0.
     999903    2    3    3    0    0 -0.37060315764E-01  0.36388656927E-01 -0.12034484488E+00  0.13252966977E+00  0.19586483184E-01 0.  0.
         14    1    1    2    0    0  0.10437002462E-02  0.76775228046E-02  0.22922735116E-01  0.24196806645E-01  0.00000000000E+00 0.  1.
     999901    1    3    3    0    0  0.36016615518E-01 -0.44066179731E-01  0.97422109762E-01  0.88720352358E+00  0.88000000000E+00 0. -1.
        -11    1    4    4    0    0 -0.25470697642E-01  0.11325750585E-01 -0.59116325494E-01  0.65360769010E-01  0.51100000000E-03 0.  1.
         11    1    4    4    0    0 -0.11589618122E-01  0.25062906342E-01 -0.61228519384E-01  0.67168900761E-01  0.51100000000E-03 0. -1.
</event>
<event>
 8    1  0.1082757E+005  0.1043930E+01  0.7957747E-01            NaN
         13   -1    0    0    0    0  0.00000000000E+00  0.00000000000E+00  0.74505805969E-08  0.10566000000E+00  0.10566000000E+00 0. -1.
     999900   -1    0    0    0    0 -0.00000000000E+00 -0.00000000000E+00 -0.74505805969E-08  0.93827000000E+00  0.93827000000E+00 0.  1.
     999902    2    1    2    0    0  0.44836545544E-02  0.12564565559E-01 -0.19262749596E-01  0.10204987178E+01  0.10202296839E+01 0.  0.
     999903    2    3    3    0    0 -0.58312370453E-01 -0.43567457243E-01 -0.10821683041E+00  0.13201294227E+00  0.20446972001E-01 0.  0.
         14    1    1    2    0    0 -0.44836545544E-02 -0.12564565559E-01  0.19262749596E-01  0.23431282249E-01  0.00000000000E+00 0. -1.
     999901    1    3    3    0    0  0.62796025007E-01  0.56132022802E-01  0.88954080815E-01  0.88848577548E+00  0.88000000000E+00 0. -1.
        -11    1    4    4    0    0 -0.29940159083E-01 -0.10596832102E-01 -0.39544367416E-01  0.50722027679E-01  0.51100000000E-03 0.  1.
         11    1    4    4    0    0 -0.28372211369E-01 -0.32970625141E-01 -0.68672462995E-01  0.81290914590E-01  0.51100000000E-03 0. -1.
</event>
<event>
 8    1  0.1082757E+005  0.1043930E+01  0.7957747E-01            NaN
         13   -1    0    0    0    0  0.00000000000E+00  0.00000000000E+00  0.74505805969E-08  0.10566000000E+00  0.10566000000E+00 0.  1.
     999900   -1    0    0    0    0 -0.00000000000E+00 -0.00000000000E+00 -0.74505805969E-08  0.93827000000E+00  0.93827000000E+00 0.  1.
     999902    2    1    2    0    0 -0.21578026452E-01  0.67034460040E-02 -0.65265138991E-02  0.10204110120E+01  0.10201399368E+01 0.  0.
     999903    2    3    3    0    0 -0.87375921633E-01  0.64824196408E-01  0.73061013525E-01  0.13246869451E+00  0.19321366556E-01 0.  0.
         14    1    1    2    0    0  0.21578026452E-01 -0.67034460040E-02  0.65265138991E-02  0.23518988021E-01  0.00000000000E+00 0.  1.
     999901    1    3    3    0    0  0.65797895181E-01 -0.58120750404E-01 -0.79587527424E-01  0.88794231747E+00  0.88000000000E+00 0.  1.
        -11    1    4    4    0    0 -0.78164365516E-01  0.63558323779E-01  0.69959322756E-01  0.12265356301E+00  0.51100000000E-03 0. -1.
         11    1    4    4    0    0 -0.92115561164E-02  0.12658726285E-02  0.31016907692E-02  0.98151314930E-02  0.51100000000E-03 0.  1.
</event>
<event>
 8    1  0.1082757E+005  0.1043930E+01  0.7957747E-01            NaN
         13   -1    0    0    0    0  0.00000000000E+00  0.00000000000E+00  0.74505805969E-08  0.10566000000E+00  0.10566000000E+00 0. -1.
     999900   -1    0    0    0    0 -0.00000000000E+00 -0.00000000000E+00 -0.74505805969E-08  0.93827000000E+00  0.93827000000E+00 0. -1.
     999902    2    1    2    0    0  0.22132777192E-01 -0.24133011981E-02 -0.76537877725E-02  0.10203871812E+01  0.10201155500E+01 0.  0.
     999903    2    3    3    0    0 -0.11206124268E+00 -0.50083104138E-01  0.29501326789E-01  0.12816470469E+00  0.22131963656E-01 0.  0.
         14    1    1    2    0    0 -0.22132777192E-01  0.24133011981E-02  0.76537877725E-02  0.23542818781E-01  0.00000000000E+00 0. -1.
     999901    1    3    3    0    0  0.13419401987E+00  0.47669802940E-01 -0.37155114561E-01  0.89222247653E+00  0.88000000000E+00 0. -1.
        -11    1    4    4    0    0 -0.71389343603E-01 -0.31599472186E-01  0.76978476583E-02  0.78450513077E-01  0.51100000000E-03 0.  1.
         11    1    4    4    0    0 -0.40671899078E-01 -0.18483631952E-01  0.21803479130E-01  0.49714191615E-01  0.51100000000E-03 0. -1.
</event>
<event>
 8    1  0.1082757E+005  0.1043930E+01  0.7957747E-01            NaN
         13   -1    0    0    0    0  0.00000000000E+00  0.00000000000E+00  0.74505805969E-08  0.10566000000E+00  0.10566000000E+00 0. -1.
     999900   -1    0    0    0    0 -0.00000000000E+00 -0.00000000000E+00 -0.74505805969E-08  0.93827000000E+00  0.93827000000E+00 0.  1.
     999902    2    1    2    0    0 -0.41156042550E-02 -0.14180020231E-01  0.17680832316E-01  0.10208947443E+01  0.10206348299E+01 0.  0.
     999903    2    3    3    0    0 -0.46673672552E-01  0.84694546025E-01  0.86956101759E-01  0.13163301009E+00  0.20354062924E-01 0.  0.
         14    1    1    2    0    0  0.41156042550E-02  0.14180020231E-01 -0.17680832316E-01  0.23035255664E-01  0.00000000000E+00 0. -1.
     999901    1    3    3    0    0  0.42558068297E-01 -0.98874566256E-01 -0.69275269443E-01  0.88926173424E+00  0.88000000000E+00 0.  1.
        -11    1    4    4    0    0 -0.19281035449E-01  0.16746365793E-01  0.23506088109E-01  0.34713057982E-01  0.51100000000E-03 0.  1.
         11    1    4    4    0    0 -0.27392637103E-01  0.67948180232E-01  0.63450013650E-01  0.96919952113E-01  0.51100000000E-03 0. -1.
</event>
<event>
 8    1  0.1082757E+005  0.1043930E+01  0.7957747E-01            NaN
         13   -1    0    0    0    0  0.00000000000E+00  0.00000000000E+00  0.74505805969E-08  0.10566000000E+00  0.10566000000E+00 0.  1.
     999900   -1    0    0    0    0 -0.00000000000E+00 -0.00000000000E+00 -0.74505805969E-08  0.93827000000E+00  0.93827000000E+00 0. -1.
     999902    2    1    2    0    0 -0.76026529172E-02 -0.17698458176E-01 -0.15373928311E-01  0.10192846470E+01  0.10189866526E+01 0.  0.
     999903    2    3    3    0    0  0.11696007649E-01  0.46447824634E-01  0.11543183330E+00  0.12709782173E+00  0.23133334013E-01 0.  0.
         14    1    1    2    0    0  0.76026529172E-02  0.17698458176E-01  0.15373928311E-01  0.24645353009E-01  0.00000000000E+00 0.  1.
     999901    1    3    3    0    0 -0.19298660566E-01 -0.64146282811E-01 -0.13080576161E+00  0.89218682526E+00  0.88000000000E+00 0. -1.
        -11    1    4    4    0    0 -0.32240201937E-02  0.32808075117E-01  0.71537215242E-01  0.78769273100E-01  0.51100000000E-03 0. -1.
         11    1    4    4    0    0  0.14920027842E-01  0.13639749517E-01  0.43894618054E-01  0.48328548631E-01  0.51100000000E-03 0.  1.
</event>
<event>
 8    1  0.1082757E+005  0.1043930E+01  0.7957747E-01            NaN
         13   -1    0    0    0    0  0.00000000000E+00  0.00000000000E+00  0.74505805969E-08  0.10566000000E+00  0.10566000000E+00 0.  1.
     999900   -1    0    0    0    0 -0.00000000000E+00 -0.00000000000E+00 -0.74505805969E-08  0.93827000000E+00  0.93827000000E+00 0. -1.
     999902    2    1    2    0    0  0.23761397258E-01  0.63260686707E-02  0.17580620367E-01  0.10137025066E+01  0.10132517311E+01 0.  0.
     999903    2    3    3    0    0  0.85929684309E-01  0.84108256673E-01  0.38289852273E-01  0.12784482223E+00  0.20495762904E-01 0.  0.
         14    1    1    2    0    0 -0.23761397258E-01 -0.63260686707E-02 -0.17580620367E-01  0.30227493395E-01  0.00000000000E+00 0. -1.
     999901    1    3    3    0    0 -0.62168287051E-01 -0.77782188003E-01 -0.20709231907E-01  0.88585768438E+00  0.88000000000E+00 0. -1.
        -11    1    4    4    0    0  0.31192445753E-01  0.44406899535E-01  0.14675437537E-01  0.56218955756E-01  0.51100000000E-03 0.  1.
         11    1    4    4    0    0  0.54737238556E-01  0.39701357138E-01  0.23614414736E-01  0.71625866471E-01  0.51100000000E-03 0. -1.
</event>
<event>
 8    1  0.1082757E+005  0.1043930E+01  0.7957747E-01            NaN
         13   -1    0    0    0    0  0.00000000000E+00  0.00000000000E+00  0.74505805969E-08  0.10566000000E+00  0.10566000000E+00 0. -1.
     999900   -1    0    0    0    0 -0.00000000000E+00 -0.00000000000E+00 -0.74505805969E-08  0.93827000000E+00  0.93827000000E+00 0.  1.
     999902    2    1    2    0    0  0.39807489755E-02 -0.12176078858E-01 -0.20686743605E-01  0.10195980330E+01  0.10193076593E+01 0.  0.
     999903    2    3    3    0    0 -0.99001587137E-01 -0.76067230137E-01 -0.35010231359E-01  0.13117662222E+00  0.19850747144E-01 0.  0.
         14    1    1    2    0    0 -0.39807489755E-02  0.12176078858E-01  0.20686743605E-01  0.24331967033E-01  0.00000000000E+00 0. -1.
     999901    1    3    3    0    0  0.10298233611E+00  0.63891151279E-01  0.14323487754E-01  0.88842141074E+00  0.88000000000E+00 0. -1.
        -11    1    4    4    0    0 -0.63998122115E-01 -0.53448869192E-01 -0.14172378255E-01  0.84579304080E-01  0.51100000000E-03 0.  1.
         11    1    4    4    0    0 -0.35003465021E-01 -0.22618360945E-01 -0.20837853104E-01  0.46597318145E-01  0.51100000000E-03 0. -1.
</event>
<event>
 8    1  0.1082757E+005  0.1043930E+01  0.7957747E-01            NaN
         13   -1    0    0    0    0  0.00000000000E+00  0.00000000000E+00  0.74505805969E-08  0.10566000000E+00  0.10566000000E+00 0. -1.
     999900   -1    0    0    0    0 -0.00000000000E+00 -0.00000000000E+00 -0.74505805969E-08  0.93827000000E+00  0.93827000000E+00 0.  1.
     999902    2    1    2    0    0  0.43620689929E-03  0.16364880171E-01  0.16754798162E-01  0.10205051661E+01  0.10202362821E+01 0.  0.
     999903    2    3    3    0    0  0.84066296216E-01 -0.78448512328E-02 -0.95614602736E-01  0.12909786015E+00  0.19885205262E-01 0.  0.
         14    1    1    2    0    0 -0.43620689929E-03 -0.16364880171E-01 -0.16754798162E-01  0.23424833851E-01  0.00000000000E+00 0.  1.
     999901    1    3    3    0    0 -0.83630089317E-01  0.24209731404E-01  0.11236940090E+00  0.89140730600E+00  0.88000000000E+00 0. -1.
        -11    1    4    4    0    0  0.57353665500E-01 -0.13929575725E-01 -0.60039558285E-01  0.84193145245E-01  0.51100000000E-03 0.  1.
         11    1    4    4    0    0  0.26712630716E-01  0.60847244925E-02 -0.35575044451E-01  0.44904714904E-01  0.51100000000E-03 0. -1.
</event>
<event>
 8    1  0.1082757E+005  0.1043930E+01  0.7957747E-01            NaN
         13   -1    0    0    0    0  0.00000000000E+00  0.00000000000E+00  0.74505805969E-08  0.10566000000E+00  0.10566000000E+00 0. -1.
     999900   -1    0    0    0    0 -0.00000000000E+00 -0.00000000000E+00 -0.74505805969E-08  0.93827000000E+00  0.93827000000E+00 0. -1.
     999902    2    1    2    0    0 -0.17079985521E-01  0.42827307512E-03 -0.17379855666E-01  0.10195585268E+01  0.10192671980E+01 0.  0.
     999903    2    3    3    0    0  0.65659947723E-01 -0.91279661730E-01 -0.59243768432E-01  0.12994690982E+00  0.27077110144E-01 0.  0.
         14    1    1    2    0    0  0.17079985521E-01 -0.42827307512E-03  0.17379855666E-01  0.24371473205E-01  0.00000000000E+00 0. -1.
     999901    1    3    3    0    0 -0.82739933244E-01  0.91707934806E-01  0.41863912766E-01  0.88961161697E+00  0.88000000000E+00 0.  1.
        -11    1    4    4    0    0  0.28176390416E-01 -0.46772830718E-01 -0.43077741452E-01  0.69552567170E-01  0.51100000000E-03 0.  1.
         11    1    4    4    0    0  0.37483557307E-01 -0.44506831012E-01 -0.16166026980E-01  0.60394342653E-01  0.51100000000E-03 0. -1.
</event>
<event>
 8    1  0.1082757E+005  0.1043930E+01  0.7957747E-01            NaN
         13   -1    0    0    0    0  0.00000000000E+00  0.00000000000E+00  0.74505805969E-08  0.10566000000E+00  0.10566000000E+00 0. -1.
     999900   -1    0    0    0    0 -0.00000000000E+00 -0.00000000000E+00 -0.74505805969E-08  0.93827000000E+00  0.93827000000E+00 0. -1.
     999902    2    1    2    0    0 -0.19610989668E-02  0.76537811928E-03  0.19184054419E-01  0.10246307861E+01  0.10244490169E+01 0.  0.
     999903    2    3    3    0    0 -0.76481158347E-01  0.16550523329E-01  0.11022926596E+00  0.13666026824E+00  0.20056181990E-01 0.  0.
         14    1    1    2    0    0  0.19610989668E-02 -0.76537811928E-03 -0.19184054419E-01  0.19299213890E-01  0.00000000000E+00 0.  1.
     999901    1    3    3    0    0  0.74520059380E-01 -0.15785145210E-01 -0.91045211545E-01  0.88797051787E+00  0.88000000000E+00 0. -1.
        -11    1    4    4    0    0 -0.13153393709E-01  0.20908431061E-03  0.32561224776E-01  0.35121929933E-01  0.51100000000E-03 0. -1.
         11    1    4    4    0    0 -0.63327764638E-01  0.16341439019E-01  0.77668041189E-01  0.10153833831E+00  0.51100000000E-03 0.  1.
</event>
<event>
 8    1  0.1082757E+005  0.1043930E+01  0.7957747E-01            NaN
         13   -1    0    0    0    0  0.00000000000E+00  0.00000000000E+00  0.74505805969E-08  0.10566000000E+00  0.10566000000E+00 0.  1.
     999900   -1    0    0    0    0 -0.00000000000E+00 -0.00000000000E+00 -0.74505805969E-08  0.93827000000E+00  0.93827000000E+00 0. -1.
     999902    2    1    2    0    0  0.80765756496E-02 -0.72320463831E-02  0.21724243687E-01  0.10196508663E+01  0.10193617674E+01 0.  0.
     999903    2    3    3    0    0  0.65285926464E-01  0.49885832244E-01 -0.96207559723E-01  0.12811103425E+00  0.20141849397E-01 0.  0.
         14    1    1    2    0    0 -0.80765756496E-02  0.72320463831E-02 -0.21724243687E-01  0.24279133693E-01  0.00000000000E+00 0. -1.
     999901    1    3    3    0    0 -0.57209350814E-01 -0.57117878628E-01  0.11793180341E+00  0.89153983205E+00  0.88000000000E+00 0.  1.
        -11    1    4    4    0    0  0.91262416622E-02  0.16672320436E-01 -0.26684852211E-01  0.32765790303E-01  0.51100000000E-03 0. -1.
         11    1    4    4    0    0  0.56159684802E-01  0.33213511808E-01 -0.69522707511E-01  0.95345243952E-01  0.51100000000E-03 0.  1.
</event>
<event>
 8    1  0.1082757E+005  0.1043930E+01  0.7957747E-01            NaN
         13   -1    0    0    0    0  0.00000000000E+00  0.00000000000E+00  0.74505805969E-08  0.10566000000E+00  0.10566000000E+00 0.  1.
     999900   -1    0    0    0    0 -0.00000000000E+00 -0.00000000000E+00 -0.74505805969E-08  0.93827000000E+00  0.93827000000E+00 0. -1.
     999902    2    1    2    0    0  0.13051580841E-01  0.13727314047E-01 -0.14841347655E-01  0.10198665731E+01  0.10195826491E+01 0.  0.
     999903    2    3    3    0    0 -0.12132823698E+00 -0.31524999079E-01 -0.19911787800E-01  0.12850165534E+00  0.20045684709E-01 0.  0.
         14    1    1    2    0    0 -0.13051580841E-01 -0.13727314047E-01  0.14841347655E-01  0.24063426888E-01  0.00000000000E+00 0.  1.
     999901    1    3    3    0    0  0.13437981782E+00  0.45252313126E-01  0.50704401454E-02  0.89136491778E+00  0.88000000000E+00 0.  1.
        -11    1    4    4    0    0 -0.64097181071E-01 -0.23524855223E-01 -0.32464870017E-02  0.68356917963E-01  0.51100000000E-03 0.  1.
         11    1    4    4    0    0 -0.57231055906E-01 -0.80001438562E-02 -0.16665300798E-01  0.60144737372E-01  0.51100000000E-03 0. -1.
</event>
<event>
 8    1  0.1082757E+005  0.1043930E+01  0.7957747E-01            NaN
         13   -1    0    0    0    0  0.00000000000E+00  0.00000000000E+00  0.74505805969E-08  0.10566000000E+00  0.10566000000E+00 0.  1.
     999900   -1    0    0    0    0 -0.00000000000E+00 -0.00000000000E+00 -0.74505805969E-08  0.93827000000E+00  0.93827000000E+00 0. -1.
     999902    2    1    2    0    0 -0.99660299092E-02  0.20285120813E-01 -0.54313856043E-02  0.10206854775E+01  0.10204207642E+01 0.  0.
     999903    2    3    3    0    0 -0.43292366646E-01  0.98782877985E-01  0.75087147396E-01  0.13290409854E+00  0.19827599741E-01 0.  0.
         14    1    1    2    0    0  0.99660299092E-02 -0.20285120813E-01  0.54313856043E-02  0.23244522541E-01  0.00000000000E+00 0. -1.
     999901    1    3    3    0    0  0.33326336737E-01 -0.78497757172E-01 -0.80518533001E-01  0.88778137892E+00  0.88000000000E+00 0. -1.
        -11    1    4    4    0    0 -0.12641790142E-01  0.53494656407E-01  0.38071980773E-01  0.66867256285E-01  0.51100000000E-03 0. -1.
         11    1    4    4    0    0 -0.30650576504E-01  0.45288221578E-01  0.37015166623E-01  0.66036842254E-01  0.51100000000E-03 0.  1.
</event>
<event>
 8    1  0.1082757E+005  0.1043930E+01  0.7957747E-01            NaN
         13   -1    0    0    0    0  0.00000000000E+00  0.00000000000E+00  0.74505805969E-08  0.10566000000E+00  0.10566000000E+00 0. -1.
     999900   -1    0    0    0    0 -0.00000000000E+00 -0.00000000000E+00 -0.74505805969E-08  0.93827000000E+00  0.93827000000E+00 0.  1.
     999902    2    1    2    0    0  0.48228724224E-03 -0.47111226774E-02 -0.23118278390E-01  0.10203316510E+01  0.10200587219E+01 0.  0.
     999903    2    3    3    0    0  0.88758302316E-01  0.83922018023E-01  0.37930878968E-01  0.12939086284E+00  0.19552556558E-01 0.  0.
         14    1    1    2    0    0 -0.48228724224E-03  0.47111226774E-02  0.23118278390E-01  0.23598348959E-01  0.00000000000E+00 0. -1.
     999901    1    3    3    0    0 -0.88276015074E-01 -0.88633140700E-01 -0.61049157358E-01  0.89094078820E+00  0.88000000000E+00 0.  1.
        -11    1    4    4    0    0  0.54553293670E-01  0.40645670768E-01  0.26765737767E-01  0.73108127056E-01  0.51100000000E-03 0. -1.
         11    1    4    4    0    0  0.34205008646E-01  0.43276347255E-01  0.11165141200E-01  0.56282735783E-01  0.51100000000E-03 0.  1.
</event>
<event>
 8    1  0.1082757E+005  0.1043930E+01  0.7957747E-01            NaN
         13   -1    0    0    0    0  0.00000000000E+00  0.00000000000E+00  0.74505805969E-08  0.10566000000E+00  0.10566000000E+00 0.  1.
     999900   -1    0    0    0    0 -0.00000000000E+00 -0.00000000000E+00 -0.74505805969E-08  0.93827000000E+00  0.93827000000E+00 0.  1.
     999902    2    1    2    0    0  0.31900685490E-01  0.16773069384E-01  0.86987025424E-02  0.10068536326E+01  0.10061707512E+01 0.  0.
     999903    2    3    3    0    0  0.70206999002E-01 -0.84478949212E-01  0.43123276184E-01  0.11955188227E+00  0.19165595127E-01 0.  0.
         14    1    1    2    0    0 -0.31900685490E-01 -0.16773069384E-01 -0.86987025424E-02  0.37076367368E-01  0.00000000000E+00 0. -1.
     999901    1    3    3    0    0 -0.38306313512E-01  0.10125201860E+00 -0.34424573642E-01  0.88730175036E+00  0.88000000000E+00 0.  1.
        -11    1    4    4    0    0  0.24667961569E-01 -0.22111507937E-01  0.20976659091E-01  0.39213625933E-01  0.51100000000E-03 0.  1.
         11    1    4    4    0    0  0.45539037433E-01 -0.62367441275E-01  0.22146617094E-01  0.80338256337E-01  0.51100000000E-03 0. -1.
</event>
<event>
 8    1  0.1082757E+005  0.1043930E+01  0.7957747E-01            NaN
         13   -1    0    0    0    0  0.00000000000E+00  0.00000000000E+00  0.74505805969E-08  0.10566000000E+00  0.10566000000E+00 0. -1.
     999900   -1    0    0    0    0 -0.00000000000E+00 -0.00000000000E+00 -0.74505805969E-08  0.93827000000E+00  0.93827000000E+00 0.  1.
     999902    2    1    2    0    0 -0.19252355634E-01 -0.22356477465E-01 -0.56336538536E-02  0.10138933002E+01  0.10134482822E+01 0.  0.
     999903    2    3    3    0    0  0.50192095858E-02  0.40876325733E-01  0.11420369900E+00  0.12319217889E+00  0.20922753253E-01 0.  0.
         14    1    1    2    0    0  0.19252355634E-01  0.22356477465E-01  0.56336538536E-02  0.30036699849E-01  0.00000000000E+00 0.  1.
     999901    1    3    3    0    0 -0.24271565220E-01 -0.63232803199E-01 -0.11983735285E+00  0.89070112126E+00  0.88000000000E+00 0.  1.
        -11    1    4    4    0    0 -0.32781323909E-02  0.17123573493E-01  0.71755473055E-01  0.73844918278E-01  0.51100000000E-03 0.  1.
         11    1    4    4    0    0  0.82973419767E-02  0.23752752241E-01  0.42448225945E-01  0.49347260611E-01  0.51100000000E-03 0. -1.
</event>
<event>
 8    1  0.1082757E+005  0.1043930E+01  0.7957747E-01            NaN
         13   -1    0    0    0    0  0.00000000000E+00  0.00000000000E+00  0.74505805969E-08  0.10566000000E+00  0.10566000000E+00 0. -1.
     999900   -1    0    0    0    0 -0.00000000000E+00 -0.00000000000E+00 -0.74505805969E-08  0.93827000000E+00  0.93827000000E+00 0. -1.
     999902    2    1    2    0    0  0.23187349652E-01  0.49449848715E-02  0.40035782011E-02  0.10198855683E+01  0.10196020977E+01 0.  0.
     999903    2    3    3    0    0  0.82157159125E-01  0.20596937990E-01  0.99691498086E-01  0.13259835429E+00  0.21677087430E-01 0.  0.
         14    1    1    2    0    0 -0.23187349652E-01 -0.49449848715E-02 -0.40035782011E-02  0.24044431740E-01  0.00000000000E+00 0. -1.
     999901    1    3    3    0    0 -0.58969809472E-01 -0.15651953118E-01 -0.95687919885E-01  0.88728721397E+00  0.88000000000E+00 0. -1.
        -11    1    4    4    0    0  0.32958504067E-01  0.15271035251E-01  0.29949788881E-01  0.47082039920E-01  0.51100000000E-03 0.  1.
         11    1    4    4    0    0  0.49198655058E-01  0.53259027390E-02  0.69741709205E-01  0.85516314369E-01  0.51100000000E-03 0. -1.
</event>
<event>
 8    1  0.1082757E+005  0.1043930E+01  0.7957747E-01            NaN
         13   -1    0    0    0    0  0.00000000000E+00  0.00000000000E+00  0.74505805969E-08  0.10566000000E+00  0.10566000000E+00 0. -1.
     999900   -1    0    0    0    0 -0.00000000000E+00 -0.00000000000E+00 -0.74505805969E-08  0.93827000000E+00  0.93827000000E+00 0. -1.
     999902    2    1    2    0    0  0.49795713347E-02  0.19713375477E-01  0.12853433801E-01  0.10198753941E+01  0.10195916808E+01 0.  0.
     999903    2    3    3    0    0 -0.17828221892E-01 -0.73833571438E-01  0.10344427975E+00  0.13000016238E+00  0.20738404897E-01 0.  0.
         14    1    1    2    0    0 -0.49795713347E-02 -0.19713375477E-01 -0.12853433801E-01  0.24054605876E-01  0.00000000000E+00 0.  1.
     999901    1    3    3    0    0  0.22807793227E-01  0.93546946916E-01 -0.90590845948E-01  0.88987523175E+00  0.88000000000E+00 0. -1.
        -11    1    4    4    0    0 -0.21138529758E-01 -0.50370580554E-01  0.77998221910E-01  0.95226133849E-01  0.51100000000E-03 0. -1.
         11    1    4    4    0    0  0.33103078663E-02 -0.23462990885E-01  0.25446057839E-01  0.34774028527E-01  0.51100000000E-03 0.  1.
</event>
<event>
 8    1  0.1082757E+005  0.1043930E+01  0.7957747E-01            NaN
         13   -1    0    0    0    0  0.00000000000E+00  0.00000000000E+00  0.74505805969E-08  0.10566000000E+00  0.10566000000E+00 0. -1.
     999900   -1    0    0    0    0 -0.00000000000E+00 -0.00000000000E+00 -0.74505805969E-08  0.93827000000E+00  0.93827000000E+00 0.  1.
     999902    2    1    2    0    0  0.33580378071E-02 -0.12200867210E-01 -0.21144053888E-01  0.10192883971E+01  0.10189904945E+01 0.  0.
     999903    2    3    3    0    0 -0.10528540746E+00 -0.55868983296E-01 -0.50925548550E-01  0.13103323107E+00  0.19233715964E-01 0.  0.
         14    1    1    2    0    0 -0.33580378071E-02  0.12200867210E-01  0.21144053888E-01  0.24641602899E-01  0.00000000000E+00 0. -1.
     999901    1    3    3    0    0  0.10864344527E+00  0.43668116086E-01  0.29781494662E-01  0.88825516603E+00  0.88000000000E+00 0. -1.
        -11    1    4    4    0    0 -0.12238137161E-01 -0.52660599044E-02 -0.12741931084E-01  0.18442378286E-01  0.51100000000E-03 0.  1.
         11    1    4    4    0    0 -0.93047270300E-01 -0.50602923392E-01 -0.38183617467E-01  0.11259085278E+00  0.51100000000E-03 0. -1.
</event>
<event>
 8    1  0.1082757E+005  0.1043930E+01  0.7957747E-01            NaN
         13   -1    0    0    0    0  0.00000000000E+00  0.00000000000E+00  0.74505805969E-08  0.10566000000E+00  0.10566000000E+00 0.  1.
     999900   -1    0    0    0    0 -0.00000000000E+00 -0.00000000000E+00 -0.74505805969E-08  0.93827000000E+00  0.93827000000E+00 0.  1.
     999902    2    1    2    0    0 -0.19707856319E-01  0.13095267129E-01  0.31584817850E-02  0.10200582253E+01  0.10197788590E+01 0.  0.
     999903    2    3    3    0    0 -0.11605660228E+00  0.76382135204E-02 -0.60414873748E-01  0.13250291329E+00  0.19483013667E-01 0.  0.
         14    1    1    2    0    0  0.19707856319E-01 -0.13095267129E-01 -0.31584817850E-02  0.23871774736E-01  0.00000000000E+00 0. -1.
     999901    1    3    3    0    0  0.96348745960E-01  0.54570536089E-02  0.63573355533E-01  0.88755531198E+00  0.88000000000E+00 0. -1.
        -11    1    4    4    0    0 -0.67395414798E-01  0.85449122225E-02 -0.25338378262E-01  0.72508289144E-01  0.51100000000E-03 0.  1.
         11    1    4    4    0    0 -0.48661187481E-01 -0.90669870207E-03 -0.35076495486E-01  0.59994624144E-01  0.51100000000E-03 0. -1.
</event>
<event>
 8    1  0.1082757E+005  0.1043930E+01  0.7957747E-01            NaN
         13   -1    0    0    0    0  0.00000000000E+00  0.00000000000E+00  0.74505805969E-08  0.10566000000E+00  0.10566000000E+00 0.  1.
     999900   -1    0    0    0    0 -0.00000000000E+00 -0.00000000000E+00 -0.74505805969E-08  0.93827000000E+00  0.93827000000E+00 0.  1.
     999902    2    1    2    0    0 -0.16819079791E-01  0.15714853888E-01  0.24684530291E-02  0.10207798091E+01  0.10205172646E+01 0.  0.
     999903    2    3    3    0    0  0.47078979964E-01  0.12124345990E+00  0.11346918786E-01  0.13213022920E+00  0.20328255696E-01 0.  0.
         14    1    1    2    0    0  0.16819079791E-01 -0.15714853888E-01 -0.24684530291E-02  0.23150190887E-01  0.00000000000E+00 0.  1.
     999901    1    3    3    0    0 -0.63898059756E-01 -0.10552860601E+00 -0.88784657567E-02  0.88864957991E+00  0.88000000000E+00 0.  1.
        -11    1    4    4    0    0  0.27687964279E-01  0.71243934962E-01 -0.33898181919E-02  0.76511918177E-01  0.51100000000E-03 0. -1.
         11    1    4    4    0    0  0.19391015686E-01  0.49999524936E-01  0.14736736978E-01  0.55618311021E-01  0.51100000000E-03 0.  1.
</event>
<event>
 8    1  0.1082757E+005  0.1043930E+01  0.7957747E-01            NaN
         13   -1    0    0    0    0  0.00000000000E+00  0.00000000000E+00  0.74505805969E-08  0.10566000000E+00  0.10566000000E+00 0.  1.
     999900   -1    0    0    0    0 -0.00000000000E+00 -0.00000000000E+00 -0.74505805969E-08  0.93827000000E+00  0.93827000000E+00 0.  1.
     999902    2    1    2    0    0  0.12917738638E-01 -0.17465489451E-01 -0.96530283041E-02  0.10201583310E+01  0.10198813303E+01 0.  0.
     999903    2    3    3    0    0  0.72438997090E-02  0.18592908607E-01  0.12601674103E+00  0.12901373729E+00  0.19135178515E-01 0.  0.
         14    1    1    2    0    0 -0.12917738638E-01  0.17465489451E-01  0.96530283041E-02  0.23771669035E-01  0.00000000000E+00 0. -1.
     999901    1    3    3    0    0  0.56738389294E-02 -0.36058398058E-01 -0.13566976933E+00  0.89114459367E+00  0.88000000000E+00 0.  1.
        -11    1    4    4    0    0  0.80768576999E-03  0.17981073026E-01  0.11347131640E+00  0.11489113156E+00  0.51100000000E-03 0.  1.
         11    1    4    4    0    0  0.64362139390E-02  0.61183558157E-03  0.12545424627E-01  0.14122605734E-01  0.51100000000E-03 0. -1.
</event>
<event>
 8    1  0.1082757E+005  0.1043930E+01  0.7957747E-01            NaN
         13   -1    0    0    0    0  0.00000000000E+00  0.00000000000E+00  0.74505805969E-08  0.10566000000E+00  0.10566000000E+00 0. -1.
     999900   -1    0    0    0    0 -0.00000000000E+00 -0.00000000000E+00 -0.74505805969E-08  0.93827000000E+00  0.93827000000E+00 0. -1.
     999902    2    1    2    0    0  0.21799781462E-01  0.11037579461E-02 -0.95273196258E-02  0.10201136490E+01  0.10198355938E+01 0.  0.
     999903    2    3    3    0    0  0.11105624692E+00 -0.66389115459E-01  0.20429794207E-01  0.13252171958E+00  0.20090421529E-01 0.  0.
         14    1    1    2    0    0 -0.21799781462E-01 -0.11037579461E-02  0.95273196258E-02  0.23816350951E-01  0.00000000000E+00 0.  1.
     999901    1    3    3    0    0 -0.89256465461E-01  0.67492873406E-01 -0.29957113833E-01  0.88759192947E+00  0.88000000000E+00 0.  1.
        -11    1    4    4    0    0  0.72537180467E-01 -0.39428803375E-01  0.38059492500E-02  0.82649981587E-01  0.51100000000E-03 0. -1.
         11    1    4    4    0    0  0.38519066456E-01 -0.26960312084E-01  0.16623844957E-01  0.49871737994E-01  0.51100000000E-03 0.  1.
</event>
<event>
 7    1  0.1082757E+005  0.1043930E+01  0.7957747E-01            NaN
         13   -1    0    0    0    0  0.00000000000E+00  0.00000000000E+00  0.74505805969E-08  0.10566000000E+00  0.10566000000E+00 0. -1.
     999900   -1    0    0    0    0 -0.00000000000E+00 -0.00000000000E+00 -0.74505805969E-08  0.93827000000E+00  0.93827000000E+00 0.  1.
     999903    2    1    2    0    0  0.16058397991E-01  0.28557664158E-01  0.35723645453E-01  0.53551089554E-01  0.22762425614E-01 0.  0.
         14    1    1    2    0    0  0.31923752875E-01  0.52848559326E-01  0.76418238984E-01  0.98243796089E-01  0.00000000000E+00 0.  1.
     999901    1    1    2    0    0 -0.47982150866E-01 -0.81406223484E-01 -0.11214188444E+00  0.89213511436E+00  0.88000000000E+00 0.  1.
        -11    1    3    3    0    0  0.10252404367E-01  0.96984088504E-02  0.17107551109E-02  0.14225285009E-01  0.51100000000E-03 0. -1.
         11    1    3    3    0    0  0.58059936235E-02  0.18859255307E-01  0.34012890342E-01  0.39325804546E-01  0.51100000000E-03 0.  1.
</event>
<event>
 8    1  0.1082757E+005  0.1043930E+01  0.7957747E-01            NaN
         13   -1    0    0    0    0  0.00000000000E+00  0.00000000000E+00  0.74505805969E-08  0.10566000000E+00  0.10566000000E+00 0.  1.
     999900   -1    0    0    0    0 -0.00000000000E+00 -0.00000000000E+00 -0.74505805969E-08  0.93827000000E+00  0.93827000000E+00 0.  1.
     999902    2    1    2    0    0  0.54946157216E-02 -0.13180564870E-01  0.19815314863E-01  0.10195053240E+01  0.10192127064E+01 0.  0.
     999903    2    3    3    0    0  0.12610595085E-01 -0.77173792644E-01  0.10570343503E+00  0.13298260040E+00  0.19908150390E-01 0.  0.
         14    1    1    2    0    0 -0.54946157216E-02  0.13180564870E-01 -0.19815314863E-01  0.24424675952E-01  0.00000000000E+00 0.  1.
     999901    1    3    3    0    0 -0.71159793637E-02  0.63993227773E-01 -0.85888120167E-01  0.88652272365E+00  0.88000000000E+00 0.  1.
        -11    1    4    4    0    0 -0.90396399140E-03 -0.45238600433E-01  0.50681365993E-01  0.67942697179E-01  0.51100000000E-03 0. -1.
         11    1    4    4    0    0  0.13514559077E-01 -0.31935192210E-01  0.55022069037E-01  0.65039903218E-01  0.51100000000E-03 0.  1.
</event>
<event>
 8    1  0.1082757E+005  0.1043930E+01  0.7957747E-01            NaN
         13   -1    0    0    0    0  0.00000000000E+00  0.00000000000E+00  0.74505805969E-08  0.10566000000E+00  0.10566000000E+00 0.  1.
     999900   -1    0    0    0    0 -0.00000000000E+00 -0.00000000000E+00 -0.74505805969E-08  0.93827000000E+00  0.93827000000E+00 0. -1.
     999902    2    1    2    0    0  0.14428248247E-01 -0.18770861852E-01 -0.37979393486E-02  0.10199520112E+01  0.10196701237E+01 0.  0.
     999903    2    3    3    0    0 -0.12631478920E+00 -0.24957284073E-02  0.11215478492E-01  0.12849315897E+00  0.20568186944E-01 0.  0.
         14    1    1    2    0    0 -0.14428248247E-01  0.18770861852E-01  0.37979393486E-02  0.23977988770E-01  0.00000000000E+00 0. -1.
     999901    1    3    3    0    0  0.14074303744E+00 -0.16275133445E-01 -0.15013417841E-01  0.89145885226E+00  0.88000000000E+00 0. -1.
        -11    1    4    4    0    0 -0.38616302660E-01 -0.94994436233E-02 -0.23818382138E-03  0.39771549037E-01  0.51100000000E-03 0.  1.
         11    1    4    4    0    0 -0.87698486537E-01  0.70037152160E-02  0.11453662314E-01  0.88721609933E-01  0.51100000000E-03 0. -1.
</event>
<event>
 8    1  0.1082757E+005  0.1043930E+01  0.7957747E-01            NaN
         13   -1    0    0    0    0  0.00000000000E+00  0.00000000000E+00  0.74505805969E-08  0.10566000000E+00  0.10566000000E+00 0. -1.
     999900   -1    0    0    0    0 -0.00000000000E+00 -0.00000000000E+00 -0.74505805969E-08  0.93827000000E+00  0.93827000000E+00 0. -1.
     999902    2    1    2    0    0  0.67633459144E-02 -0.61995120466E-02 -0.21802604624E-01  0.10202756058E+01  0.10200013634E+01 0.  0.
     999903    2    3    3    0    0  0.24958639957E-01  0.48911524437E-01 -0.11945888308E+00  0.13297349049E+00  0.19906117019E-01 0.  0.
         14    1    1    2    0    0 -0.67633459144E-02  0.61995120466E-02  0.21802604624E-01  0.23654394221E-01  0.00000000000E+00 0. -1.
     999901    1    3    3    0    0 -0.18195294043E-01 -0.55111036483E-01  0.97656278461E-01  0.88730211529E+00  0.88000000000E+00 0. -1.
        -11    1    4    4    0    0  0.95118715336E-02  0.20541139028E-01 -0.72660858526E-01  0.76107000830E-01  0.51100000000E-03 0. -1.
         11    1    4    4    0    0  0.15446768423E-01  0.28370385408E-01 -0.46798024559E-01  0.56866489663E-01  0.51100000000E-03 0.  1.
</event>
<event>
 8    1  0.1082757E+005  0.1043930E+01  0.7957747E-01            NaN
         13   -1    0    0    0    0  0.00000000000E+00  0.00000000000E+00  0.74505805969E-08  0.10566000000E+00  0.10566000000E+00 0. -1.
     999900   -1    0    0    0    0 -0.00000000000E+00 -0.00000000000E+00 -0.74505805969E-08  0.93827000000E+00  0.93827000000E+00 0. -1.
     999902    2    1    2    0    0 -0.86580603058E-02 -0.12053440363E-01 -0.17744360150E-01  0.10207975607E+01  0.10205354232E+01 0.  0.
     999903    2    3    3    0    0  0.12735820791E-01  0.66332865041E-01 -0.11212172780E+00  0.13202920020E+00  0.17267823973E-01 0.  0.
         14    1    1    2    0    0  0.86580603058E-02  0.12053440363E-01  0.17744360150E-01  0.23132439344E-01  0.00000000000E+00 0. -1.
     999901    1    3    3    0    0 -0.21393881096E-01 -0.78386305403E-01  0.94377367651E-01  0.88876836046E+00  0.88000000000E+00 0.  1.
        -11    1    4    4    0    0  0.35300263997E-03  0.38639475408E-01 -0.53193741336E-01  0.65749288277E-01  0.51100000000E-03 0. -1.
         11    1    4    4    0    0  0.12382818151E-01  0.27693389633E-01 -0.58927986465E-01  0.66279911923E-01  0.51100000000E-03 0.  1.
</event>
<event>
 8    1  0.1082757E+005  0.1043930E+01  0.7957747E-01            NaN
         13   -1    0    0    0    0  0.00000000000E+00  0.00000000000E+00  0.74505805969E-08  0.10566000000E+00  0.10566000000E+00 0.  1.
     999900   -1    0    0    0    0 -0.00000000000E+00 -0.00000000000E+00 -0.74505805969E-08  0.93827000000E+00  0.93827000000E+00 0. -1.
     999902    2    1    2    0    0 -0.71189466443E-02  0.21233585730E-01 -0.79767430370E-02  0.10201566327E+01  0.10198795920E+01 0.  0.
     999903    2    3    3    0    0  0.28907823537E-01  0.61268214617E-01  0.10986945675E+00  0.13066890006E+00  0.20337343277E-01 0.  0.
         14    1    1    2    0    0  0.71189466443E-02 -0.21233585730E-01  0.79767430370E-02  0.23773367320E-01  0.00000000000E+00 0.  1.
     999901    1    3    3    0    0 -0.36026770182E-01 -0.40034628888E-01 -0.11784619979E+00  0.88948773262E+00  0.88000000000E+00 0. -1.
        -11    1    4    4    0    0  0.21870203295E-01  0.38214381363E-01  0.86650053649E-01  0.97196387039E-01  0.51100000000E-03 0. -1.
         11    1    4    4    0    0  0.70376202428E-02  0.23053833254E-01  0.23219403103E-01  0.33472513019E-01  0.51100000000E-03 0.  1.
</event>
<event>
 8    1  0.1082757E+005  0.1043930E+01  0.7957747E-01            NaN
         13   -1    0    0    0    0  0.00000000000E+00  0.00000000000E+00  0.74505805969E-08  0.10566000000E+00  0.10566000000E+00 0.  1.
     999900   -1    0    0    0    0 -0.00000000000E+00 -0.00000000000E+00 -0.74505805969E-08  0.93827000000E+00  0.93827000000E+00 0. -1.
     999902    2    1    2    0    0  0.13566269731E-02 -0.16904500875E-01  0.16539769580E-01  0.10202410455E+01  0.10199659918E+01 0.  0.
     999903    2    3    3    0    0  0.88804215448E-01 -0.57649919140E-02 -0.91387842688E-01  0.12927553615E+00  0.21000062947E-01 0.  0.
         14    1    1    2    0    0 -0.13566269731E-02  0.16904500875E-01 -0.16539769580E-01  0.23688954480E-01  0.00000000000E+00 0. -1.
     999901    1    3    3    0    0 -0.87447588475E-01 -0.11139508961E-01  0.10792761227E+00  0.89096550937E+00  0.88000000000E+00 0.  1.
        -11    1    4    4    0    0  0.64579198753E-01  0.39869550341E-02 -0.58078646042E-01  0.86946874407E-01  0.51100000000E-03 0. -1.
         11    1    4    4    0    0  0.24225016694E-01 -0.97519469481E-02 -0.33309196646E-01  0.42328661747E-01  0.51100000000E-03 0.  1.
</event>
<event>
 8    1  0.1082757E+005  0.1043930E+01  0.7957747E-01            NaN
         13   -1    0    0    0    0  0.00000000000E+00  0.00000000000E+00  0.74505805969E-08  0.10566000000E+00  0.10566000000E+00 0. -1.
     999900   -1    0    0    0    0 -0.00000000000E+00 -0.00000000000E+00 -0.74505805969E-08  0.93827000000E+00  0.93827000000E+00 0. -1.
     999902    2    1    2    0    0 -0.22779880579E-01  0.12924949884E-02 -0.39395090988E-02  0.10207758808E+01  0.10205132462E+01 0.  0.
     999903    2    3    3    0    0  0.62168927523E-01  0.10123155781E+00  0.47954053766E-01  0.12954243322E+00  0.19205386873E-01 0.  0.
         14    1    1    2    0    0  0.22779880579E-01 -0.12924949884E-02  0.39395090988E-02  0.23154119168E-01  0.00000000000E+00 0. -1.
     999901    1    3    3    0    0 -0.84948808103E-01 -0.99939062826E-01 -0.51893562865E-01  0.89123344761E+00  0.88000000000E+00 0. -1.
        -11    1    4    4    0    0  0.26246991948E-01  0.26643164560E-01  0.11982430393E-01  0.39275979468E-01  0.51100000000E-03 0. -1.
         11    1    4    4    0    0  0.35921935576E-01  0.74588393254E-01  0.35971623373E-01  0.90266453751E-01  0.51100000000E-03 0.  1.
</event>
<event>
 8    1  0.1082757E+005  0.1043930E+01  0.7957747E-01            NaN
         13   -1    0    0    0    0  0.00000000000E+00  0.00000000000E+00  0.74505805969E-08  0.10566000000E+00  0.10566000000E+00 0. -1.
     999900   -1    0    0    0    0 -0.00000000000E+00 -0.00000000000E+00 -0.74505805969E-08  0.93827000000E+00  0.93827000000E+00 0. -1.
     999902    2    1    2    0    0 -0.47711469816E-02 -0.41279842171E-03  0.21855541872E-01  0.10215559312E+01  0.10213108839E+01 0.  0.
     999903    2    3    3    0    0  0.10117666061E+00 -0.80809432002E-01  0.12259290188E-01  0.13151062632E+00  0.19438973389E-01 0.  0.
         14    1    1    2    0    0  0.47711469816E-02  0.41279842171E-03 -0.21855541872E-01  0.22374068842E-01  0.00000000000E+00 0.  1.
     999901    1    3    3    0    0 -0.10594780759E+00  0.80396633580E-01  0.95962516836E-02  0.89004530484E+00  0.88000000000E+00 0.  1.
        -11    1    4    4    0    0  0.28968218918E-01 -0.31402348981E-01  0.10502076044E-01  0.43997953941E-01  0.51100000000E-03 0. -1.
         11    1    4    4    0    0  0.72208441688E-01 -0.49407083021E-01  0.17572141435E-02  0.87512672375E-01  0.51100000000E-03 0.  1.
</event>
<event>
 8    1  0.1082757E+005  0.1043930E+01  0.7957747E-01            NaN
         13   -1    0    0    0    0  0.00000000000E+00  0.00000000000E+00  0.74505805969E-08  0.10566000000E+00  0.10566000000E+00 0.  1.
     999900   -1    0    0    0    0 -0.00000000000E+00 -0.00000000000E+00 -0.74505805969E-08  0.93827000000E+00  0.93827000000E+00 0.  1.
     999902    2    1    2    0    0 -0.21972448398E-01  0.24627712543E-02 -0.82422704395E-02  0.10203336284E+01  0.10200607455E+01 0.  0.
     999903    2    3    3    0    0 -0.73143183565E-01 -0.10148172300E+00  0.35935329887E-01  0.13164101427E+00  0.19736851324E-01 0.  0.
         14    1    1    2    0    0  0.21972448398E-01 -0.24627712543E-02  0.82422704395E-02  0.23596371604E-01  0.00000000000E+00 0.  1.
     999901    1    3    3    0    0  0.51170735167E-01  0.10394449425E+00 -0.44177600326E-01  0.88869261412E+00  0.88000000000E+00 0.  1.
        -11    1    4    4    0    0 -0.37935271053E-02 -0.72043975590E-03  0.31310519558E-02  0.49974482179E-02  0.51100000000E-03 0.  1.
         11    1    4    4    0    0 -0.69349656460E-01 -0.10076128324E+00  0.32804277931E-01  0.12664356606E+00  0.51100000000E-03 0. -1.
</event>
<event>
 8    1  0.1082757E+005  0.1043930E+01  0.7957747E-01            NaN
         13   -1    0    0    0    0  0.00000000000E+00  0.00000000000E+00  0.74505805969E-08  0.10566000000E+00  0.10566000000E+00 0. -1.
     999900   -1    0    0    0    0 -0.00000000000E+00 -0.00000000000E+00 -0.74505805969E-08  0.93827000000E+00  0.93827000000E+00 0. -1.
     999902    2    1    2    0    0  0.95744109410E-02  0.20943635419E-01 -0.50836941247E-02  0.10203471852E+01  0.10200746194E+01 0.  0.
     999903    2    3    3    0    0  0.12058432297E+00 -0.25108098836E-01 -0.41268383930E-01  0.13144151269E+00  0.20069782526E-01 0.  0.
         14    1    1    2    0    0 -0.95744109410E-02 -0.20943635419E-01  0.50836941247E-02  0.23582814831E-01  0.00000000000E+00 0. -1.
     999901    1    3    3    0    0 -0.11100991203E+00  0.46051734255E-01  0.36184689806E-01  0.88890567248E+00  0.88000000000E+00 0.  1.
        -11    1    4    4    0    0  0.79104140929E-01 -0.25143837633E-01 -0.23145394116E-01  0.86172200116E-01  0.51100000000E-03 0. -1.
         11    1    4    4    0    0  0.41480182044E-01  0.35738796498E-04 -0.18122989814E-01  0.45269312569E-01  0.51100000000E-03 0.  1.
</event>
<event>
 8    1  0.1082757E+005  0.1043930E+01  0.7957747E-01            NaN
         13   -1    0    0    0    0  0.00000000000E+00  0.00000000000E+00  0.74505805969E-08  0.10566000000E+00  0.10566000000E+00 0.  1.
     999900   -1    0    0    0    0 -0.00000000000E+00 -0.00000000000E+00 -0.74505805969E-08  0.93827000000E+00  0.93827000000E+00 0.  1.
     999902    2    1    2    0    0  0.14064510432E-01 -0.90468914472E-02  0.16060574789E-01  0.10207438239E+01  0.10204804532E+01 0.  0.
     999903    2    3    3    0    0  0.10592497528E+00 -0.78428394850E-02 -0.74487106537E-01  0.13134027247E+00  0.20501892921E-01 0.  0.
         14    1    1    2    0    0 -0.14064510432E-01  0.90468914472E-02 -0.16060574789E-01  0.23186176078E-01  0.00000000000E+00 0. -1.
     999901    1    3    3    0    0 -0.91860464846E-01 -0.12040519622E-02  0.90547681326E-01  0.88940355145E+00  0.88000000000E+00 0.  1.
        -11    1    4    4    0    0  0.51237039099E-01  0.42855168678E-02 -0.43321376537E-01  0.67235426796E-01  0.51100000000E-03 0. -1.
         11    1    4    4    0    0  0.54687936180E-01 -0.12128356353E-01 -0.31165730000E-01  0.64104845673E-01  0.51100000000E-03 0.  1.
</event>
<event>
 8    1  0.1082757E+005  0.1043930E+01  0.7957747E-01            NaN
         13   -1    0    0    0    0  0.00000000000E+00  0.00000000000E+00  0.74505805969E-08  0.10566000000E+00  0.10566000000E+00 0. -1.
     999900   -1    0    0    0    0 -0.00000000000E+00 -0.00000000000E+00 -0.74505805969E-08  0.93827000000E+00  0.93827000000E+00 0. -1.
     999902    2    1    2    0    0  0.19905483762E-01  0.98708667780E-02  0.10906891091E-01  0.10191787865E+01  0.10188781951E+01 0.  0.
     999903    2    3    3    0    0 -0.19126105550E-01 -0.48867547702E-01 -0.11445564196E+00  0.12750091253E+00  0.20063488939E-01 0.  0.
         14    1    1    2    0    0 -0.19905483762E-01 -0.98708667780E-02 -0.10906891091E-01  0.24751213465E-01  0.00000000000E+00 0.  1.
     999901    1    3    3    0    0  0.39031589311E-01  0.58738414480E-01  0.12536253305E+00  0.89167787401E+00  0.88000000000E+00 0.  1.
        -11    1    4    4    0    0 -0.13644909320E-02 -0.25467844067E-01 -0.66927699707E-01  0.71624374524E-01  0.51100000000E-03 0. -1.
         11    1    4    4    0    0 -0.17761614618E-01 -0.23399703635E-01 -0.47527942248E-01  0.55876538005E-01  0.51100000000E-03 0.  1.
</event>
<event>
 8    1  0.1082757E+005  0.1043930E+01  0.7957747E-01            NaN
         13   -1    0    0    0    0  0.00000000000E+00  0.00000000000E+00  0.74505805969E-08  0.10566000000E+00  0.10566000000E+00 0.  1.
     999900   -1    0    0    0    0 -0.00000000000E+00 -0.00000000000E+00 -0.74505805969E-08  0.93827000000E+00  0.93827000000E+00 0.  1.
     999902    2    1    2    0    0 -0.77992973649E-02 -0.52764754767E-02  0.11507061172E-01  0.10290611504E+01  0.10289537251E+01 0.  0.
     999903    2    3    3    0    0 -0.10998619392E+00 -0.24177112624E-01  0.81122352079E-01  0.14021600938E+00  0.19954890412E-01 0.  0.
         14    1    1    2    0    0  0.77992973649E-02  0.52764754767E-02 -0.11507061172E-01  0.14868849642E-01  0.00000000000E+00 0.  1.
     999901    1    3    3    0    0  0.10218689656E+00  0.18900637147E-01 -0.69615290906E-01  0.88884514098E+00  0.88000000000E+00 0.  1.
        -11    1    4    4    0    0 -0.66095619980E-01 -0.16236178067E-01  0.36976891624E-01  0.77458350705E-01  0.51100000000E-03 0.  1.
         11    1    4    4    0    0 -0.43890573942E-01 -0.79409345572E-02  0.44145460455E-01  0.62757658675E-01  0.51100000000E-03 0. -1.
</event>
<event>
 8    1  0.1082757E+005  0.1043930E+01  0.7957747E-01            NaN
         13   -1    0    0    0    0  0.00000000000E+00  0.00000000000E+00  0.74505805969E-08  0.10566000000E+00  0.10566000000E+00 0. -1.
     999900   -1    0    0    0    0 -0.00000000000E+00 -0.00000000000E+00 -0.74505805969E-08  0.93827000000E+00  0.93827000000E+00 0. -1.
     999902    2    1    2    0    0  0.18060770595E-01  0.13516774161E-01  0.52296047562E-02  0.10207730705E+01  0.10205103714E+01 0.  0.
     999903    2    3    3    0    0  0.62476818399E-01 -0.81170781396E-01  0.79782939794E-01  0.13144932840E+00  0.20531923100E-01 0.  0.
         14    1    1    2    0    0 -0.18060770595E-01 -0.13516774161E-01 -0.52296047562E-02  0.23156929505E-01  0.00000000000E+00 0. -1.
     999901    1    3    3    0    0 -0.44416047804E-01  0.94687555557E-01 -0.74553335038E-01  0.88932374209E+00  0.88000000000E+00 0. -1.
        -11    1    4    4    0    0  0.38699337944E-01 -0.40416048696E-01  0.53588855121E-01  0.77479818428E-01  0.51100000000E-03 0.  1.
         11    1    4    4    0    0  0.23777480455E-01 -0.40754732700E-01  0.26194084673E-01  0.53969509976E-01  0.51100000000E-03 0. -1.
</event>
<event>
 8    1  0.1082757E+005  0.1043930E+01  0.7957747E-01            NaN
         13   -1    0    0    0    0  0.00000000000E+00  0.00000000000E+00  0.74505805969E-08  0.10566000000E+00  0.10566000000E+00 0. -1.
     999900   -1    0    0    0    0 -0.00000000000E+00 -0.00000000000E+00 -0.74505805969E-08  0.93827000000E+00  0.93827000000E+00 0. -1.
     999902    2    1    2    0    0 -0.48828538330E-02 -0.23101842191E-01 -0.27280627514E-02  0.10201606984E+01  0.10198837536E+01 0.  0.
     999903    2    3    3    0    0  0.82542965973E-01 -0.10136731827E+00  0.60641638396E-02  0.13232847211E+00  0.19630995959E-01 0.  0.
         14    1    1    2    0    0  0.48828538330E-02  0.23101842191E-01  0.27280627514E-02  0.23769301642E-01  0.00000000000E+00 0.  1.
     999901    1    3    3    0    0 -0.87425819806E-01  0.78265476082E-01 -0.87922265910E-02  0.88783222625E+00  0.88000000000E+00 0.  1.
        -11    1    4    4    0    0  0.50228038101E-01 -0.75819688735E-01  0.26044263835E-02  0.90986401012E-01  0.51100000000E-03 0. -1.
         11    1    4    4    0    0  0.32314927872E-01 -0.25547629539E-01  0.34597374561E-02  0.41342071099E-01  0.51100000000E-03 0.  1.
</event>
<event>
 8    1  0.1082757E+005  0.1043930E+01  0.7957747E-01            NaN
         13   -1    0    0    0    0  0.00000000000E+00  0.00000000000E+00  0.74505805969E-08  0.10566000000E+00  0.10566000000E+00 0.  1.
     999900   -1    0    0    0    0 -0.00000000000E+00 -0.00000000000E+00 -0.74505805969E-08  0.93827000000E+00  0.93827000000E+00 0. -1.
     999902    2    1    2    0    0 -0.11426982034E-01 -0.19835724564E-01  0.11309465920E-01  0.10183969644E+01  0.10180768346E+01 0.  0.
     999903    2    3    3    0    0  0.11577567649E+00 -0.46742966148E-01 -0.22802912105E-01  0.12819015117E+00  0.17995274537E-01 0.  0.
         14    1    1    2    0    0  0.11426982034E-01  0.19835724564E-01 -0.11309465920E-01  0.25533035597E-01  0.00000000000E+00 0.  1.
     999901    1    3    3    0    0 -0.12720265853E+00  0.26907241583E-01  0.34112378025E-01  0.89020681323E+00  0.88000000000E+00 0.  1.
        -11    1    4    4    0    0  0.46861132586E-01 -0.10015503413E-01 -0.58377872602E-02  0.48276463592E-01  0.51100000000E-03 0.  1.
         11    1    4    4    0    0  0.68914543907E-01 -0.36727462734E-01 -0.16965124845E-01  0.79913687581E-01  0.51100000000E-03 0. -1.
</event>
<event>
 8    1  0.1082757E+005  0.1043930E+01  0.7957747E-01            NaN
         13   -1    0    0    0    0  0.00000000000E+00  0.00000000000E+00  0.74505805969E-08  0.10566000000E+00  0.10566000000E+00 0.  1.
     999900   -1    0    0    0    0 -0.00000000000E+00 -0.00000000000E+00 -0.74505805969E-08  0.93827000000E+00  0.93827000000E+00 0.  1.
     999902    2    1    2    0    0 -0.11886111917E-01 -0.19564034124E-01 -0.17055799747E-02  0.10209748243E+01  0.10207167344E+01 0.  0.
     999903    2    3    3    0    0  0.16259521200E-01 -0.13078968572E+00 -0.86751112449E-02  0.13349981250E+00  0.19406917845E-01 0.  0.
         14    1    1    2    0    0  0.11886111917E-01  0.19564034124E-01  0.17055799747E-02  0.22955175686E-01  0.00000000000E+00 0.  1.
     999901    1    3    3    0    0 -0.28145633117E-01  0.11122565160E+00  0.69695312702E-02  0.88747501182E+00  0.88000000000E+00 0. -1.
        -11    1    4    4    0    0  0.17377822191E-01 -0.11673366167E+00 -0.23688109869E-02  0.11804494423E+00  0.51100000000E-03 0. -1.
         11    1    4    4    0    0 -0.11183009913E-02 -0.14056024053E-01 -0.63063002580E-02  0.15454868270E-01  0.51100000000E-03 0.  1.
</event>
<event>
 8    1  0.1082757E+005  0.1043930E+01  0.7957747E-01            NaN
         13   -1    0    0    0    0  0.00000000000E+00  0.00000000000E+00  0.74505805969E-08  0.10566000000E+00  0.10566000000E+00 0. -1.
     999900   -1    0    0    0    0 -0.00000000000E+00 -0.00000000000E+00 -0.74505805969E-08  0.93827000000E+00  0.93827000000E+00 0.  1.
     999902    2    1    2    0    0 -0.37142279035E-02  0.57030577566E-02 -0.21753366659E-01  0.10211368142E+01  0.10208823948E+01 0.  0.
     999903    2    3    3    0    0 -0.25404120436E-01  0.12812313246E+00 -0.24062671955E-02  0.13218718889E+00  0.20168202160E-01 0.  0.
         14    1    1    2    0    0  0.37142279035E-02 -0.57030577566E-02  0.21753366659E-01  0.22793185773E-01  0.00000000000E+00 0. -1.
     999901    1    3    3    0    0  0.21689892533E-01 -0.12242007470E+00 -0.19347099463E-01  0.88894962534E+00  0.88000000000E+00 0.  1.
        -11    1    4    4    0    0 -0.12387814377E-01  0.10338637206E+00 -0.37888051197E-02  0.10419604617E+00  0.51100000000E-03 0. -1.
         11    1    4    4    0    0 -0.13016306059E-01  0.24736760398E-01  0.13825379241E-02  0.27991142716E-01  0.51100000000E-03 0.  1.
</event>
<event>
 8    1  0.1082757E+005  0.1043930E+01  0.7957747E-01            NaN
         13   -1    0    0    0    0  0.00000000000E+00  0.00000000000E+00  0.74505805969E-08  0.10566000000E+00  0.10566000000E+00 0. -1.
     999900   -1    0    0    0    0 -0.00000000000E+00 -0.00000000000E+00 -0.74505805969E-08  0.93827000000E+00  0.93827000000E+00 0. -1.
     999902    2    1    2    0    0  0.14371293319E-01 -0.17119476467E-01 -0.75304175247E-02  0.10203436112E+01  0.10200709619E+01 0.  0.
     999903    2    3    3    0    0 -0.96806748847E-02  0.12604409071E+00  0.66020494575E-02  0.12833798864E+00  0.21124014850E-01 0.  0.
         14    1    1    2    0    0 -0.14371293319E-01  0.17119476467E-01  0.75304175247E-02  0.23586388750E-01  0.00000000000E+00 0.  1.
     999901    1    3    3    0    0  0.24051968204E-01 -0.14316356717E+00 -0.14132466982E-01  0.89200562261E+00  0.88000000000E+00 0.  1.
        -11    1    4    4    0    0  0.56374721861E-02  0.14862434557E-01 -0.11125018823E-03  0.15904293484E-01  0.51100000000E-03 0.  1.
         11    1    4    4    0    0 -0.15318147071E-01  0.11118165615E+00  0.67132996457E-02  0.11243369516E+00  0.51100000000E-03 0. -1.
</event>
<event>
 8    1  0.1082757E+005  0.1043930E+01  0.7957747E-01            NaN
         13   -1    0    0    0    0  0.00000000000E+00  0.00000000000E+00  0.74505805969E-08  0.10566000000E+00  0.10566000000E+00 0. -1.
     999900   -1    0    0    0    0 -0.00000000000E+00 -0.00000000000E+00 -0.74505805969E-08  0.93827000000E+00  0.93827000000E+00 0.  1.
     999902    2    1    2    0    0 -0.22162990089E-01 -0.21802721973E-03  0.34565676143E-02  0.10214980245E+01  0.10212516930E+01 0.  0.
     999903    2    3    3    0    0 -0.13322739432E-01 -0.85200574563E-01  0.98714205946E-01  0.13224316730E+00  0.17525054898E-01 0.  0.
         14    1    1    2    0    0  0.22162990089E-01  0.21802721973E-03 -0.34565676143E-02  0.22431975508E-01  0.00000000000E+00 0.  1.
     999901    1    3    3    0    0 -0.88402506564E-02  0.84982547343E-01 -0.95257638332E-01  0.88925485720E+00  0.88000000000E+00 0.  1.
        -11    1    4    4    0    0 -0.45361690611E-02 -0.67028940061E-01  0.82171301267E-01  0.10614065907E+00  0.51100000000E-03 0.  1.
         11    1    4    4    0    0 -0.87865703710E-02 -0.18171634502E-01  0.16542904680E-01  0.26102508224E-01  0.51100000000E-03 0. -1.
</event>
<event>
 8    1  0.1082757E+005  0.1043930E+01  0.7957747E-01            NaN
         13   -1    0    0    0    0  0.00000000000E+00  0.00000000000E+00  0.74505805969E-08  0.10566000000E+00  0.10566000000E+00 0.  1.
     999900   -1    0    0    0    0 -0.00000000000E+00 -0.00000000000E+00 -0.74505805969E-08  0.93827000000E+00  0.93827000000E+00 0.  1.
     999902    2    1    2    0    0  0.12629115759E-01  0.68859934337E-02  0.19596927540E-01  0.10196205154E+01  0.10193306846E+01 0.  0.
     999903    2    3    3    0    0 -0.93166431562E-02  0.12860459180E+00  0.24270986231E-02  0.13080566602E+00  0.21869855594E-01 0.  0.
         14    1    1    2    0    0 -0.12629115759E-01 -0.68859934337E-02 -0.19596927540E-01  0.24309484557E-01  0.00000000000E+00 0. -1.
     999901    1    3    3    0    0  0.21945758915E-01 -0.12171859837E+00  0.17169828917E-01  0.88881484942E+00  0.88000000000E+00 0.  1.
        -11    1    4    4    0    0 -0.33199390475E-03  0.10645011468E+00 -0.20798804671E-02  0.10647217552E+00  0.51100000000E-03 0.  1.
         11    1    4    4    0    0 -0.89846492515E-02  0.22154477120E-01  0.45069790901E-02  0.24333490505E-01  0.51100000000E-03 0. -1.
</event>
<event>
 8    1  0.1374057E+005  0.1043930E+01  0.7957747E-01            NaN
         13   -1    0    0    0    0  0.00000000000E+00  0.00000000000E+00  0.74505805969E-08  0.10566000000E+00  0.10566000000E+00 0.  1.
     999900   -1    0    0    0    0 -0.00000000000E+00 -0.00000000000E+00 -0.74505805969E-08  0.93827000000E+00  0.93827000000E+00 0. -1.
     999902    2    1    2    0    0 -0.29600579835E-02 -0.20955539442E-01 -0.10133495514E-01  0.10204654670E+01  0.10201956602E+01 0.  0.
     999903    2    3    3    0    0 -0.76924305985E-01 -0.88325640401E-01  0.57823726037E-01  0.13219319770E+00  0.20314788250E-01 0.  0.
         14    1    1    2    0    0  0.29600579835E-02  0.20955539442E-01  0.10133495514E-01  0.23464532979E-01  0.00000000000E+00 0. -1.
     999901    1    3    3    0    0  0.73964248001E-01  0.67370100959E-01 -0.67957221552E-01  0.88827226932E+00  0.88000000000E+00 0. -1.
        -11    1    4    4    0    0 -0.49113093959E-01 -0.41093289135E-01  0.29880739795E-01  0.70667348485E-01  0.51100000000E-03 0.  1.
         11    1    4    4    0    0 -0.27811212026E-01 -0.47232351266E-01  0.27942986242E-01  0.61525849215E-01  0.51100000000E-03 0. -1.
</event>
<event>
 8    1  0.1082757E+005  0.1043930E+01  0.7957747E-01            NaN
         13   -1    0    0    0    0  0.00000000000E+00  0.00000000000E+00  0.74505805969E-08  0.10566000000E+00  0.10566000000E+00 0.  1.
     999900   -1    0    0    0    0 -0.00000000000E+00 -0.00000000000E+00 -0.74505805969E-08  0.93827000000E+00  0.93827000000E+00 0. -1.
     999902    2    1    2    0    0 -0.15024850455E-01 -0.18089291747E-01 -0.62627275782E-02  0.10195950382E+01  0.10193045922E+01 0.  0.
     999903    2    3    3    0    0  0.12306801815E+00 -0.73008923035E-02  0.27553153545E-01  0.12811899048E+00  0.21360227772E-01 0.  0.
         14    1    1    2    0    0  0.15024850455E-01  0.18089291747E-01  0.62627275782E-02  0.24334961759E-01  0.00000000000E+00 0.  1.
     999901    1    3    3    0    0 -0.13809286861E+00 -0.10788399443E-01 -0.33815881124E-01  0.89147604776E+00  0.88000000000E+00 0. -1.
        -11    1    4    4    0    0  0.43980237761E-01 -0.74579093510E-02  0.77055658088E-03  0.44617671430E-01  0.51100000000E-03 0.  1.
         11    1    4    4    0    0  0.79087780390E-01  0.15701704749E-03  0.26782596965E-01  0.83501319046E-01  0.51100000000E-03 0. -1.
</event>
<event>
 8    1  0.1082757E+005  0.1043930E+01  0.7957747E-01            NaN
         13   -1    0    0    0    0  0.00000000000E+00  0.00000000000E+00  0.74505805969E-08  0.10566000000E+00  0.10566000000E+00 0.  1.
     999900   -1    0    0    0    0 -0.00000000000E+00 -0.00000000000E+00 -0.74505805969E-08  0.93827000000E+00  0.93827000000E+00 0.  1.
     999902    2    1    2    0    0 -0.10689164079E-01  0.95723740209E-02 -0.18798340137E-01  0.10202811910E+01  0.10200070797E+01 0.  0.
     999903    2    3    3    0    0 -0.94473579482E-01 -0.87517684241E-01  0.62412056084E-02  0.13063334693E+00  0.21012291851E-01 0.  0.
         14    1    1    2    0    0  0.10689164079E-01 -0.95723740209E-02  0.18798340137E-01  0.23648808956E-01  0.00000000000E+00 0.  1.
     999901    1    3    3    0    0  0.83784415403E-01  0.97090058262E-01 -0.25039545745E-01  0.88964784411E+00  0.88000000000E+00 0.  1.
        -11    1    4    4    0    0 -0.40325794484E-01 -0.44512728127E-01 -0.61614160891E-02  0.60380268593E-01  0.51100000000E-03 0. -1.
         11    1    4    4    0    0 -0.54147784998E-01 -0.43004956114E-01  0.12402621697E-01  0.70253078342E-01  0.51100000000E-03 0.  1.
</event>
<event>
 8    1  0.1082757E+005  0.1043930E+01  0.7957747E-01            NaN
         13   -1    0    0    0    0  0.00000000000E+00  0.00000000000E+00  0.74505805969E-08  0.10566000000E+00  0.10566000000E+00 0. -1.
     999900   -1    0    0    0    0 -0.00000000000E+00 -0.00000000000E+00 -0.74505805969E-08  0.93827000000E+00  0.93827000000E+00 0.  1.
     999902    2    1    2    0    0 -0.17682651188E-01 -0.62223906625E-03 -0.18050770723E-01  0.10186536542E+01  0.10183400088E+01 0.  0.
     999903    2    3    3    0    0 -0.87172768645E-01 -0.90285591498E-01 -0.32719828296E-01  0.13125094151E+00  0.20140577417E-01 0.  0.
         14    1    1    2    0    0  0.17682651188E-01  0.62223906625E-03  0.18050770723E-01  0.25276345824E-01  0.00000000000E+00 0. -1.
     999901    1    3    3    0    0  0.69490117457E-01  0.89663352432E-01  0.14669057573E-01  0.88740271266E+00  0.88000000000E+00 0.  1.
        -11    1    4    4    0    0 -0.44895109461E-01 -0.45119634339E-01 -0.62497444486E-02  0.63958366795E-01  0.51100000000E-03 0. -1.
         11    1    4    4    0    0 -0.42277659184E-01 -0.45165957160E-01 -0.26470083848E-01  0.67292574718E-01  0.51100000000E-03 0.  1.
</event>
<event>
 8    1  0.1082757E+005  0.1043930E+01  0.7957747E-01            NaN
         13   -1    0    0    0    0  0.00000000000E+00  0.00000000000E+00  0.74505805969E-08  0.10566000000E+00  0.10566000000E+00 0. -1.
     999900   -1    0    0    0    0 -0.00000000000E+00 -0.00000000000E+00 -0.74505805969E-08  0.93827000000E+00  0.93827000000E+00 0. -1.
     999902    2    1    2    0    0  0.21435299906E-01  0.64443491232E-02 -0.67121546039E-02  0.10205621859E+01  0.10202946244E+01 0.  0.
     999903    2    3    3    0    0 -0.11313345560E+00 -0.54815178372E-01 -0.13177752253E-01  0.12820391498E+00  0.21417472006E-01 0.  0.
         14    1    1    2    0    0 -0.21435299906E-01 -0.64443491232E-02  0.67121546039E-02  0.23367814128E-01  0.00000000000E+00 0. -1.
     999901    1    3    3    0    0  0.13456875551E+00  0.61259527495E-01  0.64655976489E-02  0.89235827089E+00  0.88000000000E+00 0. -1.
        -11    1    4    4    0    0 -0.38485303344E-01 -0.77453948352E-02 -0.49331628517E-02  0.39569014789E-01  0.51100000000E-03 0. -1.
         11    1    4    4    0    0 -0.74648152256E-01 -0.47069783537E-01 -0.82445894011E-02  0.88634900196E-01  0.51100000000E-03 0.  1.
</event>
<event>
 8    1  0.1082757E+005  0.1043930E+01  0.7957747E-01            NaN
         13   -1    0    0    0    0  0.00000000000E+00  0.00000000000E+00  0.74505805969E-08  0.10566000000E+00  0.10566000000E+00 0.  1.
     999900   -1    0    0    0    0 -0.00000000000E+00 -0.00000000000E+00 -0.74505805969E-08  0.93827000000E+00  0.93827000000E+00 0.  1.
     999902    2    1    2    0    0  0.10418157494E-01  0.19686640386E-01  0.85727522201E-02  0.10200638337E+01  0.10197846002E+01 0.  0.
     999903    2    3    3    0    0  0.31252478550E-01  0.11177217456E+00 -0.60130058787E-01  0.13235110378E+00  0.20771477576E-01 0.  0.
         14    1    1    2    0    0 -0.10418157494E-01 -0.19686640386E-01 -0.85727522201E-02  0.23866166343E-01  0.00000000000E+00 0. -1.
     999901    1    3    3    0    0 -0.20834321056E-01 -0.92085534178E-01  0.68702811007E-01  0.88771272987E+00  0.88000000000E+00 0. -1.
        -11    1    4    4    0    0  0.88521353751E-02  0.33828429779E-01 -0.29178399387E-01  0.45545176186E-01  0.51100000000E-03 0.  1.
         11    1    4    4    0    0  0.22400343175E-01  0.77943744786E-01 -0.30951659400E-01  0.86805927598E-01  0.51100000000E-03 0. -1.
</event>
<event>
 8    1  0.1082757E+005  0.1043930E+01  0.7957747E-01            NaN
         13   -1    0    0    0    0  0.00000000000E+00  0.00000000000E+00  0.74505805969E-08  0.10566000000E+00  0.10566000000E+00 0. -1.
     999900   -1    0    0    0    0 -0.00000000000E+00 -0.00000000000E+00 -0.74505805969E-08  0.93827000000E+00  0.93827000000E+00 0.  1.
     999902    2    1    2    0    0  0.13305417210E-01  0.42057948225E-02  0.19402071345E-01  0.10200309789E+01  0.10197509670E+01 0.  0.
     999903    2    3    3    0    0 -0.50434746759E-01 -0.10443471135E+00  0.55949953866E-01  0.13031118267E+00  0.20008357632E-01 0.  0.
         14    1    1    2    0    0 -0.13305417210E-01 -0.42057948225E-02 -0.19402071345E-01  0.23899021104E-01  0.00000000000E+00 0.  1.
     999901    1    3    3    0    0  0.63740163969E-01  0.10864050617E+00 -0.36547882520E-01  0.88971979623E+00  0.88000000000E+00 0. -1.
        -11    1    4    4    0    0 -0.11741750590E-02 -0.15160909686E-01  0.11536779367E-01  0.19094247006E-01  0.51100000000E-03 0. -1.
         11    1    4    4    0    0 -0.49260571700E-01 -0.89273801665E-01  0.44413174499E-01  0.11121693566E+00  0.51100000000E-03 0.  1.
</event>
<event>
 8    1  0.1082757E+005  0.1043930E+01  0.7957747E-01            NaN
         13   -1    0    0    0    0  0.00000000000E+00  0.00000000000E+00  0.74505805969E-08  0.10566000000E+00  0.10566000000E+00 0. -1.
     999900   -1    0    0    0    0 -0.00000000000E+00 -0.00000000000E+00 -0.74505805969E-08  0.93827000000E+00  0.93827000000E+00 0. -1.
     999902    2    1    2    0    0 -0.16882694607E-01  0.89058169816E-02 -0.13398247382E-01  0.10206093657E+01  0.10203428959E+01 0.  0.
     999903    2    3    3    0    0 -0.19593365695E-01  0.12789989959E+00 -0.14058049989E-01  0.13259620428E+00  0.25334567797E-01 0.  0.
         14    1    1    2    0    0  0.16882694607E-01 -0.89058169816E-02  0.13398247382E-01  0.23320634344E-01  0.00000000000E+00 0.  1.
     999901    1    3    3    0    0  0.27106710875E-02 -0.11899408261E+00  0.65980260739E-03  0.88801316137E+00  0.88000000000E+00 0.  1.
        -11    1    4    4    0    0 -0.51546823049E-02  0.74650334908E-01  0.28644683271E-02  0.74884641625E-01  0.51100000000E-03 0.  1.
         11    1    4    4    0    0 -0.14438683390E-01  0.53249564685E-01 -0.16922518316E-01  0.57711562657E-01  0.51100000000E-03 0. -1.
</event>
<event>
 8    1  0.1082757E+005  0.1043930E+01  0.7957747E-01            NaN
         13   -1    0    0    0    0  0.00000000000E+00  0.00000000000E+00  0.74505805969E-08  0.10566000000E+00  0.10566000000E+00 0.  1.
     999900   -1    0    0    0    0 -0.00000000000E+00 -0.00000000000E+00 -0.74505805969E-08  0.93827000000E+00  0.93827000000E+00 0.  1.
     999902    2    1    2    0    0 -0.13842824348E-01  0.18780996299E-01 -0.70353620326E-02  0.10195610458E+01  0.10192697780E+01 0.  0.
     999903    2    3    3    0    0 -0.92541387779E-01  0.83580657401E-01  0.40160625770E-01  0.13241961336E+00  0.19298792594E-01 0.  0.
         14    1    1    2    0    0  0.13842824348E-01 -0.18780996299E-01  0.70353620326E-02  0.24368954160E-01  0.00000000000E+00 0.  1.
     999901    1    3    3    0    0  0.78698563430E-01 -0.64799661102E-01 -0.47195987803E-01  0.88714143248E+00  0.88000000000E+00 0. -1.
        -11    1    4    4    0    0 -0.58133019388E-01  0.54405227705E-01  0.15896694798E-01  0.81193243385E-01  0.51100000000E-03 0. -1.
         11    1    4    4    0    0 -0.34408368391E-01  0.29175429695E-01  0.24263930972E-01  0.51226369971E-01  0.51100000000E-03 0.  1.
</event>
<event>
 8    1  0.1082757E+005  0.1043930E+01  0.7957747E-01            NaN
         13   -1    0    0    0    0  0.00000000000E+00  0.00000000000E+00  0.74505805969E-08  0.10566000000E+00  0.10566000000E+00 0. -1.
     999900   -1    0    0    0    0 -0.00000000000E+00 -0.00000000000E+00 -0.74505805969E-08  0.93827000000E+00  0.93827000000E+00 0. -1.
     999902    2    1    2    0    0  0.97389354267E-02 -0.10758310235E-01  0.18673609260E-01  0.10202806494E+01  0.10200065253E+01 0.  0.
     999903    2    3    3    0    0 -0.14429109771E-01  0.33608674540E-01 -0.12099783549E+00  0.12783421612E+00  0.19062224567E-01 0.  0.
         14    1    1    2    0    0 -0.97389354267E-02  0.10758310235E-01 -0.18673609260E-01  0.23649350629E-01  0.00000000000E+00 0.  1.
     999901    1    3    3    0    0  0.24168045197E-01 -0.44366984776E-01  0.13967144475E+00  0.89244643325E+00  0.88000000000E+00 0.  1.
        -11    1    4    4    0    0 -0.58976245825E-02 -0.40559758580E-03 -0.22872256908E-01  0.23629383026E-01  0.51100000000E-03 0. -1.
         11    1    4    4    0    0 -0.85314851880E-02  0.34014272126E-01 -0.98125578578E-01  0.10420483309E+00  0.51100000000E-03 0.  1.
</event>
<event>
 8    1  0.1082757E+005  0.1043930E+01  0.7957747E-01            NaN
         13   -1    0    0    0    0  0.00000000000E+00  0.00000000000E+00  0.74505805969E-08  0.10566000000E+00  0.10566000000E+00 0. -1.
     999900   -1    0    0    0    0 -0.00000000000E+00 -0.00000000000E+00 -0.74505805969E-08  0.93827000000E+00  0.93827000000E+00 0. -1.
     999902    2    1    2    0    0  0.14650755556E-01 -0.47057868851E-03  0.18597670211E-01  0.10202500629E+01  0.10199752210E+01 0.  0.
     999903    2    3    3    0    0  0.30753752635E-01 -0.94308613225E-01  0.85679478278E-01  0.13257621955E+00  0.19889021140E-01 0.  0.
         14    1    1    2    0    0 -0.14650755556E-01  0.47057868851E-03 -0.18597670211E-01  0.23679937077E-01  0.00000000000E+00 0.  1.
     999901    1    3    3    0    0 -0.16102997079E-01  0.93838034537E-01 -0.67081808066E-01  0.88767384338E+00  0.88000000000E+00 0. -1.
        -11    1    4    4    0    0  0.23561818399E-01 -0.58806083373E-01  0.65424398321E-01  0.91071003863E-01  0.51100000000E-03 0. -1.
         11    1    4    4    0    0  0.71919342361E-02 -0.35502529852E-01  0.20255079957E-01  0.41505215684E-01  0.51100000000E-03 0.  1.
</event>
<event>
 8    1  0.1082757E+005  0.1043930E+01  0.7957747E-01            NaN
         13   -1    0    0    0    0  0.00000000000E+00  0.00000000000E+00  0.74505805969E-08  0.10566000000E+00  0.10566000000E+00 0.  1.
     999900   -1    0    0    0    0 -0.00000000000E+00 -0.00000000000E+00 -0.74505805969E-08  0.93827000000E+00  0.93827000000E+00 0. -1.
     999902    2    1    2    0    0 -0.10188737336E-01 -0.21076327450E-01 -0.45243115580E-02  0.10200869435E+01  0.10198082570E+01 0.  0.
     999903    2    3    3    0    0  0.11038463606E+00  0.41363727720E-01 -0.47465464321E-01  0.12863832388E+00  0.19978043398E-01 0.  0.
         14    1    1    2    0    0  0.10188737336E-01  0.21076327450E-01  0.45243115580E-02  0.23843056481E-01  0.00000000000E+00 0.  1.
     999901    1    3    3    0    0 -0.12057337339E+00 -0.62440055170E-01  0.42941152763E-01  0.89144861964E+00  0.88000000000E+00 0. -1.
        -11    1    4    4    0    0  0.96405955373E-01  0.29431072741E-01 -0.43729353537E-01  0.10987635667E+00  0.51100000000E-03 0. -1.
         11    1    4    4    0    0  0.13978680685E-01  0.11932654979E-01 -0.37361107845E-02  0.18761967204E-01  0.51100000000E-03 0.  1.
</event>
<event>
 8    1  0.1082757E+005  0.1043930E+01  0.7957747E-01            NaN
         13   -1    0    0    0    0  0.00000000000E+00  0.00000000000E+00  0.74505805969E-08  0.10566000000E+00  0.10566000000E+00 0. -1.
     999900   -1    0    0    0    0 -0.00000000000E+00 -0.00000000000E+00 -0.74505805969E-08  0.93827000000E+00  0.93827000000E+00 0.  1.
     999902    2    1    2    0    0 -0.53495023709E-02  0.21912076951E-01 -0.74799929063E-02  0.10201664442E+01  0.10198896348E+01 0.  0.
     999903    2    3    3    0    0 -0.10279096497E+00 -0.71018494523E-01 -0.28060631598E-01  0.12968652163E+00  0.20532554748E-01 0.  0.
         14    1    1    2    0    0  0.53495023709E-02 -0.21912076951E-01  0.74799929063E-02  0.23763555832E-01  0.00000000000E+00 0. -1.
     999901    1    3    3    0    0  0.97441462596E-01  0.92930571474E-01  0.20580638692E-01  0.89047992253E+00  0.88000000000E+00 0. -1.
        -11    1    4    4    0    0 -0.86926042765E-01 -0.63724525933E-01 -0.17281667510E-01  0.10915983359E+00  0.51100000000E-03 0. -1.
         11    1    4    4    0    0 -0.15864922202E-01 -0.72939685908E-02 -0.10778964088E-01  0.20526688045E-01  0.51100000000E-03 0.  1.
</event>
<event>
 8    1  0.1082757E+005  0.1043930E+01  0.7957747E-01            NaN
         13   -1    0    0    0    0  0.00000000000E+00  0.00000000000E+00  0.74505805969E-08  0.10566000000E+00  0.10566000000E+00 0.  1.
     999900   -1    0    0    0    0 -0.00000000000E+00 -0.00000000000E+00 -0.74505805969E-08  0.93827000000E+00  0.93827000000E+00 0.  1.
     999902    2    1    2    0    0  0.18150105370E-01  0.16132449620E-01  0.95246678740E-02  0.10178454921E+01  0.10175112010E+01 0.  0.
     999903    2    3    3    0    0 -0.40180857403E-02 -0.90656688185E-01 -0.85129988264E-01  0.12607486429E+00  0.20321820236E-01 0.  0.
         14    1    1    2    0    0 -0.18150105370E-01 -0.16132449620E-01 -0.95246678740E-02  0.26084507927E-01  0.00000000000E+00 0. -1.
     999901    1    3    3    0    0  0.22168191110E-01  0.10678913781E+00  0.94654656138E-01  0.89177062778E+00  0.88000000000E+00 0.  1.
        -11    1    4    4    0    0 -0.23749953201E-02 -0.37694488999E-01 -0.22228146780E-01  0.43827693687E-01  0.51100000000E-03 0. -1.
         11    1    4    4    0    0 -0.16430904202E-02 -0.52962199187E-01 -0.62901841485E-01  0.82247170602E-01  0.51100000000E-03 0.  1.
</event>
<event>
 8    1  0.1082757E+005  0.1043930E+01  0.7957747E-01            NaN
         13   -1    0    0    0    0  0.00000000000E+00  0.00000000000E+00  0.74505805969E-08  0.10566000000E+00  0.10566000000E+00 0. -1.
     999900   -1    0    0    0    0 -0.00000000000E+00 -0.00000000000E+00 -0.74505805969E-08  0.93827000000E+00  0.93827000000E+00 0. -1.
     999902    2    1    2    0    0  0.21085527999E-01  0.23962765919E-03  0.98354214236E-02  0.10206621590E+01  0.10203969082E+01 0.  0.
     999903    2    3    3    0    0  0.35503532130E-01  0.84119221771E-01 -0.91397772230E-01  0.13077911908E+00  0.20324393087E-01 0.  0.
         14    1    1    2    0    0 -0.21085527999E-01 -0.23962765919E-03 -0.98354214236E-02  0.23267841047E-01  0.00000000000E+00 0.  1.
     999901    1    3    3    0    0 -0.14418004131E-01 -0.83879594112E-01  0.10123319365E+00  0.88988303987E+00  0.88000000000E+00 0.  1.
        -11    1    4    4    0    0  0.12623248376E-01  0.34176891000E-01 -0.50583940818E-01  0.62341017538E-01  0.51100000000E-03 0. -1.
         11    1    4    4    0    0  0.22880283753E-01  0.49942330772E-01 -0.40813831412E-01  0.68438101545E-01  0.51100000000E-03 0.  1.
</event>
<event>
 8    1  0.1082757E+005  0.1043930E+01  0.7957747E-01            NaN
         13   -1    0    0    0    0  0.00000000000E+00  0.00000000000E+00  0.74505805969E-08  0.10566000000E+00  0.10566000000E+00 0. -1.
     999900   -1    0    0    0    0 -0.00000000000E+00 -0.00000000000E+00 -0.74505805969E-08  0.93827000000E+00  0.93827000000E+00 0.  1.
     999902    2    1    2    0    0 -0.22358743697E-01 -0.61599586518E-02  0.17990928261E-02  0.10206685459E+01  0.10204034425E+01 0.  0.
     999903    2    3    3    0    0 -0.44790234862E-01 -0.11827485055E+00 -0.34149363986E-01  0.13254399818E+00  0.20164993908E-01 0.  0.
         14    1    1    2    0    0  0.22358743697E-01  0.61599586518E-02 -0.17990928261E-02  0.23261454067E-01  0.00000000000E+00 0.  1.
     999901    1    3    3    0    0  0.22431491165E-01  0.11211489190E+00  0.35948456812E-01  0.88812454776E+00  0.88000000000E+00 0.  1.
        -11    1    4    4    0    0 -0.34154164349E-01 -0.95698954371E-01 -0.35265416717E-01  0.10755792647E+00  0.51100000000E-03 0.  1.
         11    1    4    4    0    0 -0.10636070513E-01 -0.22575896183E-01  0.11160527311E-02  0.24986071703E-01  0.51100000000E-03 0. -1.
</event>
<event>
 8    1  0.1082757E+005  0.1043930E+01  0.7957747E-01            NaN
         13   -1    0    0    0    0  0.00000000000E+00  0.00000000000E+00  0.74505805969E-08  0.10566000000E+00  0.10566000000E+00 0.  1.
     999900   -1    0    0    0    0 -0.00000000000E+00 -0.00000000000E+00 -0.74505805969E-08  0.93827000000E+00  0.93827000000E+00 0. -1.
     999902    2    1    2    0    0  0.20056294834E-01  0.10096440614E-01  0.37510399726E-02  0.10211646013E+01  0.10209108089E+01 0.  0.
     999903    2    3    3    0    0  0.10042904927E-01  0.12785120282E+00  0.28926816912E-01  0.13290772872E+00  0.19517008371E-01 0.  0.
         14    1    1    2    0    0 -0.20056294834E-01 -0.10096440614E-01 -0.37510399726E-02  0.22765398666E-01  0.00000000000E+00 0.  1.
     999901    1    3    3    0    0  0.10013389906E-01 -0.11775476220E+00 -0.25175776939E-01  0.88825687261E+00  0.88000000000E+00 0.  1.
        -11    1    4    4    0    0 -0.19447531309E-02  0.78255409391E-01  0.22678178220E-01  0.81500012590E-01  0.51100000000E-03 0.  1.
         11    1    4    4    0    0  0.11987658058E-01  0.49595793427E-01  0.62486386919E-02  0.51407716132E-01  0.51100000000E-03 0. -1.
</event>
<event>
 8    1  0.1082757E+005  0.1043930E+01  0.7957747E-01            NaN
         13   -1    0    0    0    0  0.00000000000E+00  0.00000000000E+00  0.74505805969E-08  0.10566000000E+00  0.10566000000E+00 0.  1.
     999900   -1    0    0    0    0 -0.00000000000E+00 -0.00000000000E+00 -0.74505805969E-08  0.93827000000E+00  0.93827000000E+00 0. -1.
     999902    2    1    2    0    0  0.16995312388E-01 -0.72987479600E-02  0.13528461817E-01  0.10210142490E+01  0.10207570548E+01 0.  0.
     999903    2    3    3    0    0 -0.39383648374E-01 -0.10294031393E+00 -0.66987651483E-01  0.13039157869E+00  0.19153024587E-01 0.  0.
         14    1    1    2    0    0 -0.16995312388E-01  0.72987479600E-02 -0.13528461817E-01  0.22915751004E-01  0.00000000000E+00 0. -1.
     999901    1    3    3    0    0  0.56378960762E-01  0.95641565973E-01  0.80516113300E-01  0.89062267030E+00  0.88000000000E+00 0.  1.
        -11    1    4    4    0    0 -0.31169783485E-01 -0.61306575634E-01 -0.48165362376E-01  0.83965557654E-01  0.51100000000E-03 0. -1.
         11    1    4    4    0    0 -0.82138648888E-02 -0.41633738299E-01 -0.18822289107E-01  0.46426021038E-01  0.51100000000E-03 0.  1.
</event>
<event>
 8    1  0.1082757E+005  0.1043930E+01  0.7957747E-01            NaN
         13   -1    0    0    0    0  0.00000000000E+00  0.00000000000E+00  0.74505805969E-08  0.10566000000E+00  0.10566000000E+00 0. -1.
     999900   -1    0    0    0    0 -0.00000000000E+00 -0.00000000000E+00 -0.74505805969E-08  0.93827000000E+00  0.93827000000E+00 0. -1.
     999902    2    1    2    0    0 -0.13345618481E-01 -0.17653509265E-01 -0.12135067819E-01  0.10186909074E+01  0.10183781975E+01 0.  0.
     999903    2    3    3    0    0 -0.10657878410E+00  0.27316615429E-01  0.65798826196E-01  0.12920317447E+00  0.16085399116E-01 0.  0.
         14    1    1    2    0    0  0.13345618481E-01  0.17653509265E-01  0.12135067819E-01  0.25239092555E-01  0.00000000000E+00 0. -1.
     999901    1    3    3    0    0  0.93233165618E-01 -0.44970124694E-01 -0.77933894015E-01  0.88948773298E+00  0.88000000000E+00 0. -1.
        -11    1    4    4    0    0 -0.71419475229E-01  0.11482731447E-01  0.38413734386E-01  0.81905254252E-01  0.51100000000E-03 0. -1.
         11    1    4    4    0    0 -0.35159308869E-01  0.15833883982E-01  0.27385091810E-01  0.47297920214E-01  0.51100000000E-03 0.  1.
</event>
<event>
 8    1  0.1082757E+005  0.1043930E+01  0.7957747E-01            NaN
         13   -1    0    0    0    0  0.00000000000E+00  0.00000000000E+00  0.74505805969E-08  0.10566000000E+00  0.10566000000E+00 0. -1.
     999900   -1    0    0    0    0 -0.00000000000E+00 -0.00000000000E+00 -0.74505805969E-08  0.93827000000E+00  0.93827000000E+00 0. -1.
     999902    2    1    2    0    0  0.14282200071E-01  0.20272176304E-01  0.13772758112E-02  0.10190937511E+01  0.10187910651E+01 0.  0.
     999903    2    3    3    0    0 -0.20803592055E-01  0.12584816576E+00  0.25864368091E-01  0.13175113404E+00  0.20465715604E-01 0.  0.
         14    1    1    2    0    0 -0.14282200071E-01 -0.20272176304E-01 -0.13772758112E-02  0.24836248904E-01  0.00000000000E+00 0. -1.
     999901    1    3    3    0    0  0.35085792126E-01 -0.10557598946E+00 -0.24487092279E-01  0.88734261706E+00  0.88000000000E+00 0. -1.
        -11    1    4    4    0    0 -0.53619812875E-02  0.37757804159E-01 -0.16610807950E-02  0.38176208935E-01  0.51100000000E-03 0. -1.
         11    1    4    4    0    0 -0.15441610768E-01  0.88090361604E-01  0.27525448886E-01  0.93574925103E-01  0.51100000000E-03 0.  1.
</event>
<event>
 8    1  0.1082757E+005  0.1043930E+01  0.7957747E-01            NaN
         13   -1    0    0    0    0  0.00000000000E+00  0.00000000000E+00  0.74505805969E-08  0.10566000000E+00  0.10566000000E+00 0.  1.
     999900   -1    0    0    0    0 -0.00000000000E+00 -0.00000000000E+00 -0.74505805969E-08  0.93827000000E+00  0.93827000000E+00 0. -1.
     999902    2    1    2    0    0  0.87158463785E-02 -0.16711734085E-01  0.14686871630E-01  0.10200353932E+01  0.10197554860E+01 0.  0.
     999903    2    3    3    0    0  0.10857689669E+00  0.56716535933E-01 -0.39614009380E-01  0.12969134407E+00  0.15648228117E-01 0.  0.
         14    1    1    2    0    0 -0.87158463785E-02  0.16711734085E-01 -0.14686871630E-01  0.23894606766E-01  0.00000000000E+00 0. -1.
     999901    1    3    3    0    0 -0.99861050315E-01 -0.73428270017E-01  0.54300881010E-01  0.89034404917E+00  0.88000000000E+00 0. -1.
        -11    1    4    4    0    0  0.35653851214E-01  0.24009403207E-01 -0.19912379864E-01  0.47375231309E-01  0.51100000000E-03 0. -1.
         11    1    4    4    0    0  0.72923045479E-01  0.32707132726E-01 -0.19701629516E-01  0.82316112758E-01  0.51100000000E-03 0.  1.
</event>
<event>
 8    1  0.1082757E+005  0.1043930E+01  0.7957747E-01            NaN
         13   -1    0    0    0    0  0.00000000000E+00  0.00000000000E+00  0.74505805969E-08  0.10566000000E+00  0.10566000000E+00 0. -1.
     999900   -1    0    0    0    0 -0.00000000000E+00 -0.00000000000E+00 -0.74505805969E-08  0.93827000000E+00  0.93827000000E+00 0.  1.
     999902    2    1    2    0    0 -0.80204558029E-02 -0.58905880411E-02  0.23525679057E-01  0.10183862275E+01  0.10180658250E+01 0.  0.
     999903    2    3    3    0    0  0.58266436521E-02  0.32802972397E-01 -0.11964505201E+00  0.12586911728E+00  0.20447773485E-01 0.  0.
         14    1    1    2    0    0  0.80204558029E-02  0.58905880411E-02 -0.23525679057E-01  0.25543772507E-01  0.00000000000E+00 0.  1.
     999901    1    3    3    0    0 -0.13847099455E-01 -0.38693560438E-01  0.14317073107E+00  0.89251711021E+00  0.88000000000E+00 0. -1.
        -11    1    4    4    0    0  0.91334421262E-03  0.87358764140E-02 -0.92219763679E-02  0.12745811214E-01  0.51100000000E-03 0. -1.
         11    1    4    4    0    0  0.49132994395E-02  0.24067095983E-01 -0.11042307564E+00  0.11312330607E+00  0.51100000000E-03 0.  1.
</event>
<event>
 8    1  0.1082757E+005  0.1043930E+01  0.7957747E-01            NaN
         13   -1    0    0    0    0  0.00000000000E+00  0.00000000000E+00  0.74505805969E-08  0.10566000000E+00  0.10566000000E+00 0.  1.
     999900   -1    0    0    0    0 -0.00000000000E+00 -0.00000000000E+00 -0.74505805969E-08  0.93827000000E+00  0.93827000000E+00 0. -1.
     999902    2    1    2    0    0 -0.31228011872E-02  0.21747867096E-01 -0.84046377495E-02  0.10204064045E+01  0.10201352218E+01 0.  0.
     999903    2    3    3    0    0  0.42932908210E-01 -0.11753419944E+00 -0.15477245861E-01  0.12823453527E+00  0.23388635077E-01 0.  0.
         14    1    1    2    0    0  0.31228011872E-02 -0.21747867096E-01  0.84046377495E-02  0.23523595519E-01  0.00000000000E+00 0. -1.
     999901    1    3    3    0    0 -0.46055709397E-01  0.13928206654E+00  0.70726081114E-02  0.89217186921E+00  0.88000000000E+00 0. -1.
        -11    1    4    4    0    0  0.36565181601E-03 -0.27769726943E-01 -0.61564963397E-02  0.28450922726E-01  0.51100000000E-03 0. -1.
         11    1    4    4    0    0  0.42567256394E-01 -0.89764472497E-01 -0.93207495212E-02  0.99783612544E-01  0.51100000000E-03 0.  1.
</event>
<event>
 8    1  0.1082757E+005  0.1043930E+01  0.7957747E-01            NaN
         13   -1    0    0    0    0  0.00000000000E+00  0.00000000000E+00  0.74505805969E-08  0.10566000000E+00  0.10566000000E+00 0.  1.
     999900   -1    0    0    0    0 -0.00000000000E+00 -0.00000000000E+00 -0.74505805969E-08  0.93827000000E+00  0.93827000000E+00 0. -1.
     999902    2    1    2    0    0  0.16669794782E-01  0.17149477971E-01  0.11614355141E-01  0.10173427869E+01  0.10169953128E+01 0.  0.
     999903    2    3    3    0    0  0.14270824775E-01 -0.85070222594E-01  0.92135062956E-01  0.12777086370E+00  0.19897853458E-01 0.  0.
         14    1    1    2    0    0 -0.16669794782E-01 -0.17149477971E-01 -0.11614355141E-01  0.26587213056E-01  0.00000000000E+00 0. -1.
     999901    1    3    3    0    0  0.23989700069E-02  0.10221970057E+00 -0.80520707814E-01  0.88957192325E+00  0.88000000000E+00 0.  1.
        -11    1    4    4    0    0 -0.24153246381E-02 -0.34826438858E-01  0.29098638360E-01  0.45450044137E-01  0.51100000000E-03 0.  1.
         11    1    4    4    0    0  0.16686149413E-01 -0.50243783736E-01  0.63036424596E-01  0.82320819560E-01  0.51100000000E-03 0. -1.
</event>
<event>
 8    1  0.1082757E+005  0.1043930E+01  0.7957747E-01            NaN
         13   -1    0    0    0    0  0.00000000000E+00  0.00000000000E+00  0.74505805969E-08  0.10566000000E+00  0.10566000000E+00 0.  1.
     999900   -1    0    0    0    0 -0.00000000000E+00 -0.00000000000E+00 -0.74505805969E-08  0.93827000000E+00  0.93827000000E+00 0. -1.
     999902    2    1    2    0    0  0.80521321979E-02 -0.61814763876E-02 -0.23435251522E-01  0.10183906481E+01  0.10180703579E+01 0.  0.
     999903    2    3    3    0    0 -0.47363497046E-01  0.10852100705E+00 -0.47091851954E-01  0.12890361252E+00  0.19452222888E-01 0.  0.
         14    1    1    2    0    0 -0.80521321979E-02  0.61814763876E-02  0.23435251522E-01  0.25539351933E-01  0.00000000000E+00 0.  1.
     999901    1    3    3    0    0  0.55415629244E-01 -0.11470248344E+00  0.23656600432E-01  0.88948703555E+00  0.88000000000E+00 0. -1.
        -11    1    4    4    0    0 -0.17127033949E-02  0.22509002070E-01 -0.10119308920E-01  0.24743687298E-01  0.51100000000E-03 0.  1.
         11    1    4    4    0    0 -0.45650793651E-01  0.86012004981E-01 -0.36972543034E-01  0.10415992522E+00  0.51100000000E-03 0. -1.
</event>
<event>
 8    1  0.1082757E+005  0.1043930E+01  0.7957747E-01            NaN
         13   -1    0    0    0    0  0.00000000000E+00  0.00000000000E+00  0.74505805969E-08  0.10566000000E+00  0.10566000000E+00 0. -1.
     999900   -1    0    0    0    0 -0.00000000000E+00 -0.00000000000E+00 -0.74505805969E-08  0.93827000000E+00  0.93827000000E+00 0.  1.
     999902    2    1    2    0    0  0.20807409799E-01 -0.11075560096E-01 -0.19057749274E-02  0.10202815685E+01  0.10200074660E+01 0.  0.
     999903    2    3    3    0    0 -0.12334315776E+00 -0.18976122183E-01  0.21611420736E-01  0.12820821754E+00  0.19916469561E-01 0.  0.
         14    1    1    2    0    0 -0.20807409799E-01  0.11075560096E-01  0.19057749274E-02  0.23648431492E-01  0.00000000000E+00 0. -1.
     999901    1    3    3    0    0  0.14415056756E+00  0.79005620872E-02 -0.23517195663E-01  0.89207335096E+00  0.88000000000E+00 0. -1.
        -11    1    4    4    0    0 -0.87624686542E-01 -0.46036117945E-02  0.12423442829E-01  0.88622130339E-01  0.51100000000E-03 0.  1.
         11    1    4    4    0    0 -0.35718471220E-01 -0.14372510389E-01  0.91879779070E-02  0.39586087204E-01  0.51100000000E-03 0. -1.
</event>
<event>
 7    1  0.1082757E+005  0.1043930E+01  0.7957747E-01            NaN
         13   -1    0    0    0    0  0.00000000000E+00  0.00000000000E+00  0.74505805969E-08  0.10566000000E+00  0.10566000000E+00 0. -1.
     999900   -1    0    0    0    0 -0.00000000000E+00 -0.00000000000E+00 -0.74505805969E-08  0.93827000000E+00  0.93827000000E+00 0. -1.
     999903    2    1    2    0    0  0.81888182261E-01  0.33955585892E-01  0.48277926679E-01  0.10284723650E+00  0.19701259936E-01 0.  0.
         14    1    1    2    0    0  0.27686715504E-01  0.40957107251E-01  0.39682893599E-02  0.49596231411E-01  0.00000000000E+00 0. -1.
     999901    1    1    2    0    0 -0.10957489776E+00 -0.74912693142E-01 -0.52246216039E-01  0.89148653209E+00  0.88000000000E+00 0. -1.
        -11    1    3    3    0    0  0.54328679852E-01  0.26613470408E-01  0.41973134197E-01  0.73633466420E-01  0.51100000000E-03 0. -1.
         11    1    3    3    0    0  0.27559502408E-01  0.73421154833E-02  0.63047924816E-02  0.29213770075E-01  0.51100000000E-03 0.  1.
</event>
<event>
 8    1  0.1082757E+005  0.1043930E+01  0.7957747E-01            NaN
         13   -1    0    0    0    0  0.00000000000E+00  0.00000000000E+00  0.74505805969E-08  0.10566000000E+00  0.10566000000E+00 0. -1.
     999900   -1    0    0    0    0 -0.00000000000E+00 -0.00000000000E+00 -0.74505805969E-08  0.93827000000E+00  0.93827000000E+00 0. -1.
     999902    2    1    2    0    0  0.20443029188E-01  0.32177773062E-02 -0.10408682762E-01  0.10207651082E+01  0.10205022264E+01 0.  0.
     999903    2    3    3    0    0  0.11352915172E+00 -0.30471593581E-01 -0.60926275988E-01  0.13377467586E+00  0.19138090014E-01 0.  0.
         14    1    1    2    0    0 -0.20443029188E-01 -0.32177773062E-02  0.10408682762E-01  0.23164891755E-01  0.00000000000E+00 0.  1.
     999901    1    3    3    0    0 -0.93086122535E-01  0.33689370888E-01  0.50517593225E-01  0.88699043239E+00  0.88000000000E+00 0.  1.
        -11    1    4    4    0    0  0.10224626728E+00 -0.22950593557E-01 -0.58419788615E-01  0.11997567145E+00  0.51100000000E-03 0.  1.
         11    1    4    4    0    0  0.11282884440E-01 -0.75210000245E-02 -0.25064873725E-02  0.13799004406E-01  0.51100000000E-03 0. -1.
</event>
<event>
 8    1  0.1082757E+005  0.1043930E+01  0.7957747E-01            NaN
         13   -1    0    0    0    0  0.00000000000E+00  0.00000000000E+00  0.74505805969E-08  0.10566000000E+00  0.10566000000E+00 0. -1.
     999900   -1    0    0    0    0 -0.00000000000E+00 -0.00000000000E+00 -0.74505805969E-08  0.93827000000E+00  0.93827000000E+00 0.  1.
     999902    2    1    2    0    0  0.46279995747E-02 -0.18490607006E-01  0.13901881460E-01  0.10203379836E+01  0.10200652026E+01 0.  0.
     999903    2    3    3    0    0  0.81527268320E-01  0.12841460884E-01 -0.97687756528E-01  0.12941293443E+00  0.19829554341E-01 0.  0.
         14    1    1    2    0    0 -0.46279995747E-02  0.18490607006E-01 -0.13901881460E-01  0.23592016354E-01  0.00000000000E+00 0. -1.
     999901    1    3    3    0    0 -0.76899268745E-01 -0.31332067890E-01  0.11158963799E+00  0.89092504921E+00  0.88000000000E+00 0. -1.
        -11    1    4    4    0    0  0.54586780666E-01  0.17066976122E-02 -0.73253043114E-01  0.91372309190E-01  0.51100000000E-03 0.  1.
         11    1    4    4    0    0  0.26940487654E-01  0.11134763272E-01 -0.24434713414E-01  0.38040625242E-01  0.51100000000E-03 0. -1.
</event>
<event>
 8    1  0.1082757E+005  0.1043930E+01  0.7957747E-01            NaN
         13   -1    0    0    0    0  0.00000000000E+00  0.00000000000E+00  0.74505805969E-08  0.10566000000E+00  0.10566000000E+00 0. -1.
     999900   -1    0    0    0    0 -0.00000000000E+00 -0.00000000000E+00 -0.74505805969E-08  0.93827000000E+00  0.93827000000E+00 0.  1.
     999902    2    1    2    0    0  0.12276693971E-01  0.67482749416E-02  0.18383364564E-01  0.10208171351E+01  0.10205554462E+01 0.  0.
     999903    2    3    3    0    0  0.30268339640E-01  0.55478686882E-01 -0.11150618814E+00  0.12976739002E+00  0.20295034822E-01 0.  0.
         14    1    1    2    0    0 -0.12276693971E-01 -0.67482749416E-02 -0.18383364564E-01  0.23112864865E-01  0.00000000000E+00 0.  1.
     999901    1    3    3    0    0 -0.17991645669E-01 -0.48730411940E-01  0.12988955270E+00  0.89104974511E+00  0.88000000000E+00 0. -1.
        -11    1    4    4    0    0  0.92706614838E-02  0.10363062516E-01 -0.11453955552E-01  0.18021998997E-01  0.51100000000E-03 0. -1.
         11    1    4    4    0    0  0.20997678156E-01  0.45115624366E-01 -0.10005223258E+00  0.11174539103E+00  0.51100000000E-03 0.  1.
</event>
<event>
 8    1  0.1082757E+005  0.1043930E+01  0.7957747E-01            NaN
         13   -1    0    0    0    0  0.00000000000E+00  0.00000000000E+00  0.74505805969E-08  0.10566000000E+00  0.10566000000E+00 0. -1.
     999900   -1    0    0    0    0 -0.00000000000E+00 -0.00000000000E+00 -0.74505805969E-08  0.93827000000E+00  0.93827000000E+00 0. -1.
     999902    2    1    2    0    0 -0.16588603062E-01  0.35773364542E-02  0.16344440763E-01  0.10203690189E+01  0.10200969635E+01 0.  0.
     999903    2    3    3    0    0 -0.97330795675E-01 -0.69191540487E-01  0.54604504092E-01  0.13285651555E+00  0.20210116140E-01 0.  0.
         14    1    1    2    0    0  0.16588603062E-01 -0.35773364542E-02 -0.16344440763E-01  0.23560981124E-01  0.00000000000E+00 0.  1.
     999901    1    3    3    0    0  0.80742192613E-01  0.72768876942E-01 -0.38260063329E-01  0.88751250333E+00  0.88000000000E+00 0. -1.
        -11    1    4    4    0    0 -0.27507187276E-01 -0.17170646785E-01  0.24790456586E-01  0.40820391003E-01  0.51100000000E-03 0. -1.
         11    1    4    4    0    0 -0.69823608398E-01 -0.52020893703E-01  0.29814047506E-01  0.92036124544E-01  0.51100000000E-03 0.  1.
</event>
<event>
 8    1  0.1082757E+005  0.1043930E+01  0.7957747E-01            NaN
         13   -1    0    0    0    0  0.00000000000E+00  0.00000000000E+00  0.74505805969E-08  0.10566000000E+00  0.10566000000E+00 0.  1.
     999900   -1    0    0    0    0 -0.00000000000E+00 -0.00000000000E+00 -0.74505805969E-08  0.93827000000E+00  0.93827000000E+00 0. -1.
     999902    2    1    2    0    0  0.15340113183E-01 -0.86619884858E-02  0.20270108225E-01  0.10170743413E+01  0.10167197201E+01 0.  0.
     999903    2    3    3    0    0  0.48920957549E-01 -0.27935111877E-01  0.11663344838E+00  0.13096767745E+00  0.19378872289E-01 0.  0.
         14    1    1    2    0    0 -0.15340113183E-01  0.86619884858E-02 -0.20270108225E-01  0.26855658704E-01  0.00000000000E+00 0. -1.
     999901    1    3    3    0    0 -0.33580844366E-01  0.19273123391E-01 -0.96363340157E-01  0.88610666385E+00  0.88000000000E+00 0. -1.
        -11    1    4    4    0    0  0.26673322300E-01 -0.88512644888E-02  0.74611121837E-01  0.79730117448E-01  0.51100000000E-03 0.  1.
         11    1    4    4    0    0  0.22247635249E-01 -0.19083847388E-01  0.42022326544E-01  0.51237559997E-01  0.51100000000E-03 0. -1.
</event>
<event>
 8    1  0.1082757E+005  0.1043930E+01  0.7957747E-01            NaN
         13   -1    0    0    0    0  0.00000000000E+00  0.00000000000E+00  0.74505805969E-08  0.10566000000E+00  0.10566000000E+00 0.  1.
     999900   -1    0    0    0    0 -0.00000000000E+00 -0.00000000000E+00 -0.74505805969E-08  0.93827000000E+00  0.93827000000E+00 0. -1.
     999902    2    1    2    0    0  0.11062411645E-01  0.19266656533E-01 -0.13689716376E-01  0.10178342275E+01  0.10174996439E+01 0.  0.
     999903    2    3    3    0    0  0.11945939773E+00 -0.39159235318E-01 -0.19695512217E-01  0.12924007890E+00  0.22607330129E-01 0.  0.
         14    1    1    2    0    0 -0.11062411645E-01 -0.19266656533E-01  0.13689716376E-01  0.26095772451E-01  0.00000000000E+00 0.  1.
     999901    1    3    3    0    0 -0.10839698609E+00  0.58425891852E-01  0.60057958411E-02  0.88859414865E+00  0.88000000000E+00 0.  1.
        -11    1    4    4    0    0  0.31602512318E-01 -0.19236314904E-03 -0.41325241313E-02  0.31876239820E-01  0.51100000000E-03 0. -1.
         11    1    4    4    0    0  0.87856885413E-01 -0.38966872169E-01 -0.15562988085E-01  0.97363839079E-01  0.51100000000E-03 0.  1.
</event>
<event>
 8    1  0.1082757E+005  0.1043930E+01  0.7957747E-01            NaN
         13   -1    0    0    0    0  0.00000000000E+00  0.00000000000E+00  0.74505805969E-08  0.10566000000E+00  0.10566000000E+00 0.  1.
     999900   -1    0    0    0    0 -0.00000000000E+00 -0.00000000000E+00 -0.74505805969E-08  0.93827000000E+00  0.93827000000E+00 0.  1.
     999902    2    1    2    0    0 -0.87565662194E-02 -0.21790178070E-01 -0.32849123995E-02  0.10202175568E+01  0.10199419509E+01 0.  0.
     999903    2    3    3    0    0 -0.74305155018E-01  0.55330053792E-01  0.88865490954E-01  0.12963581183E+00  0.18047085991E-01 0.  0.
         14    1    1    2    0    0  0.87565662194E-02  0.21790178070E-01  0.32849123995E-02  0.23712443184E-01  0.00000000000E+00 0. -1.
     999901    1    3    3    0    0  0.65548588799E-01 -0.77120231862E-01 -0.92150403353E-01  0.89058174498E+00  0.88000000000E+00 0.  1.
        -11    1    4    4    0    0 -0.29010079491E-01  0.15909475462E-01  0.41964811497E-01  0.53441581625E-01  0.51100000000E-03 0. -1.
         11    1    4    4    0    0 -0.45295075527E-01  0.39420578329E-01  0.46900679456E-01  0.76194230210E-01  0.51100000000E-03 0.  1.
</event>
<event>
 8    1  0.1082757E+005  0.1043930E+01  0.7957747E-01            NaN
         13   -1    0    0    0    0  0.00000000000E+00  0.00000000000E+00  0.74505805969E-08  0.10566000000E+00  0.10566000000E+00 0.  1.
     999900   -1    0    0    0    0 -0.00000000000E+00 -0.00000000000E+00 -0.74505805969E-08  0.93827000000E+00  0.93827000000E+00 0.  1.
     999902    2    1    2    0    0  0.38746812304E-02 -0.90373144967E-02 -0.22285546148E-01  0.10195715974E+01  0.10192805848E+01 0.  0.
     999903    2    3    3    0    0  0.12582271962E+00 -0.15732824626E-01  0.19521899743E-01  0.13015380110E+00  0.21909560168E-01 0.  0.
         14    1    1    2    0    0 -0.38746812304E-02  0.90373144967E-02  0.22285546148E-01  0.24358402556E-01  0.00000000000E+00 0.  1.
     999901    1    3    3    0    0 -0.12194803839E+00  0.66955101291E-02 -0.41807445891E-01  0.88941779635E+00  0.88000000000E+00 0.  1.
        -11    1    4    4    0    0  0.77641734817E-01 -0.16843387085E-01  0.20105276829E-01  0.81953779359E-01  0.51100000000E-03 0. -1.
         11    1    4    4    0    0  0.48180984806E-01  0.11105624593E-02 -0.58337708521E-03  0.48200021740E-01  0.51100000000E-03 0.  1.
</event>
<event>
 8    1  0.1082757E+005  0.1043930E+01  0.7957747E-01            NaN
         13   -1    0    0    0    0  0.00000000000E+00  0.00000000000E+00  0.74505805969E-08  0.10566000000E+00  0.10566000000E+00 0. -1.
     999900   -1    0    0    0    0 -0.00000000000E+00 -0.00000000000E+00 -0.74505805969E-08  0.93827000000E+00  0.93827000000E+00 0. -1.
     999902    2    1    2    0    0  0.18321082383E-01 -0.18822150170E-01 -0.96283239561E-03  0.10176457377E+01  0.10173062396E+01 0.  0.
     999903    2    3    3    0    0 -0.12302166947E+00 -0.14078962132E-01 -0.14490094268E-01  0.12625174059E+00  0.19924628847E-01 0.  0.
         14    1    1    2    0    0 -0.18321082383E-01  0.18822150170E-01  0.96283239561E-03  0.26284262267E-01  0.00000000000E+00 0.  1.
     999901    1    3    3    0    0  0.14134275186E+00 -0.47431880386E-02  0.13527261872E-01  0.89139399715E+00  0.88000000000E+00 0.  1.
        -11    1    4    4    0    0 -0.66971259968E-01 -0.51886814623E-02 -0.17508460503E-01  0.69418148832E-01  0.51100000000E-03 0. -1.
         11    1    4    4    0    0 -0.56050409505E-01 -0.88902806692E-02  0.30183662357E-02  0.56833591755E-01  0.51100000000E-03 0.  1.
</event>
<event>
 7    1  0.1082757E+005  0.1043930E+01  0.7957747E-01            NaN
         13   -1    0    0    0    0  0.00000000000E+00  0.00000000000E+00  0.74505805969E-08  0.10566000000E+00  0.10566000000E+00 0. -1.
     999900   -1    0    0    0    0 -0.00000000000E+00 -0.00000000000E+00 -0.74505805969E-08  0.93827000000E+00  0.93827000000E+00 0. -1.
     999903    2    1    2    0    0  0.66765950133E-03  0.97865407122E-01  0.27280445318E-01  0.10336730241E+00  0.19039244497E-01 0.  0.
         14    1    1    2    0    0  0.29636657761E-01 -0.16455242856E-01  0.41534828192E-01  0.53612017809E-01  0.00000000000E+00 0. -1.
     999901    1    1    2    0    0 -0.30304317262E-01 -0.81410164266E-01 -0.68815273510E-01  0.88695067978E+00  0.88000000000E+00 0. -1.
        -11    1    3    3    0    0 -0.34555069187E-02  0.26038503984E-01 -0.41178405112E-03  0.26274986296E-01  0.51100000000E-03 0. -1.
         11    1    3    3    0    0  0.41231664200E-02  0.71826903138E-01  0.27692229370E-01  0.77092316116E-01  0.51100000000E-03 0.  1.
</event>
<event>
 8    1  0.1082757E+005  0.1043930E+01  0.7957747E-01            NaN
         13   -1    0    0    0    0  0.00000000000E+00  0.00000000000E+00  0.74505805969E-08  0.10566000000E+00  0.10566000000E+00 0. -1.
     999900   -1    0    0    0    0 -0.00000000000E+00 -0.00000000000E+00 -0.74505805969E-08  0.93827000000E+00  0.93827000000E+00 0. -1.
     999902    2    1    2    0    0  0.19370233709E-01  0.10411573238E-01  0.58009543202E-02  0.10211866959E+01  0.10209334013E+01 0.  0.
     999903    2    3    3    0    0  0.61183848316E-01 -0.44063839765E-01  0.10701236822E+00  0.13272752446E+00  0.21905787532E-01 0.  0.
         14    1    1    2    0    0 -0.19370233709E-01 -0.10411573238E-01 -0.58009543202E-02  0.22743304119E-01  0.00000000000E+00 0. -1.
     999901    1    3    3    0    0 -0.41813614607E-01  0.54475413003E-01 -0.10121141390E+00  0.88845917143E+00  0.88000000000E+00 0. -1.
        -11    1    4    4    0    0  0.33923928997E-01 -0.23038283243E-01  0.39484392260E-01  0.56928672973E-01  0.51100000000E-03 0. -1.
         11    1    4    4    0    0  0.27259919318E-01 -0.21025556522E-01  0.67527975956E-01  0.75798851482E-01  0.51100000000E-03 0.  1.
</event>
<event>
 8    1  0.1082757E+005  0.1043930E+01  0.7957747E-01            NaN
         13   -1    0    0    0    0  0.00000000000E+00  0.00000000000E+00  0.74505805969E-08  0.10566000000E+00  0.10566000000E+00 0. -1.
     999900   -1    0    0    0    0 -0.00000000000E+00 -0.00000000000E+00 -0.74505805969E-08  0.93827000000E+00  0.93827000000E+00 0. -1.
     999902    2    1    2    0    0 -0.73811092270E-02  0.19145971094E-01  0.11330782867E-01  0.10204899568E+01  0.10202207195E+01 0.  0.
     999903    2    3    3    0    0 -0.36086724689E-01 -0.71624743914E-01  0.10128419420E+00  0.13079621669E+00  0.20415843507E-01 0.  0.
         14    1    1    2    0    0  0.73811092270E-02 -0.19145971094E-01 -0.11330782867E-01  0.23440043151E-01  0.00000000000E+00 0. -1.
     999901    1    3    3    0    0  0.28705615462E-01  0.90770715008E-01 -0.89953411337E-01  0.88969374016E+00  0.88000000000E+00 0. -1.
        -11    1    4    4    0    0 -0.22891813890E-01 -0.47204442173E-01  0.49971336256E-01  0.72454744995E-01  0.51100000000E-03 0.  1.
         11    1    4    4    0    0 -0.13194910800E-01 -0.24420301741E-01  0.51312857948E-01  0.58341471698E-01  0.51100000000E-03 0. -1.
</event>
<event>
 8    1  0.1082757E+005  0.1043930E+01  0.7957747E-01            NaN
         13   -1    0    0    0    0  0.00000000000E+00  0.00000000000E+00  0.74505805969E-08  0.10566000000E+00  0.10566000000E+00 0.  1.
     999900   -1    0    0    0    0 -0.00000000000E+00 -0.00000000000E+00 -0.74505805969E-08  0.93827000000E+00  0.93827000000E+00 0. -1.
     999902    2    1    2    0    0  0.44675905164E-02  0.17063603572E-01  0.16099772128E-01  0.10200484466E+01  0.10197688487E+01 0.  0.
     999903    2    3    3    0    0 -0.11444257420E+00 -0.11895682279E-01  0.58838252356E-01  0.13055148468E+00  0.18524042889E-01 0.  0.
         14    1    1    2    0    0 -0.44675905164E-02 -0.17063603572E-01 -0.16099772128E-01  0.23881553434E-01  0.00000000000E+00 0. -1.
     999901    1    3    3    0    0  0.11891016472E+00  0.28959285851E-01 -0.42738480228E-01  0.88949696189E+00  0.88000000000E+00 0.  1.
        -11    1    4    4    0    0 -0.73030371264E-01 -0.93361095811E-03  0.43704380270E-01  0.85115455308E-01  0.51100000000E-03 0.  1.
         11    1    4    4    0    0 -0.41412202938E-01 -0.10962071321E-01  0.15133872086E-01  0.45436029373E-01  0.51100000000E-03 0. -1.
</event>
<event>
 8    1  0.1082757E+005  0.1043930E+01  0.7957747E-01            NaN
         13   -1    0    0    0    0  0.00000000000E+00  0.00000000000E+00  0.74505805969E-08  0.10566000000E+00  0.10566000000E+00 0. -1.
     999900   -1    0    0    0    0 -0.00000000000E+00 -0.00000000000E+00 -0.74505805969E-08  0.93827000000E+00  0.93827000000E+00 0.  1.
     999902    2    1    2    0    0  0.20638234943E-02 -0.18745745271E-01  0.87033199125E-02  0.10231595857E+01  0.10229487415E+01 0.  0.
     999903    2    3    3    0    0  0.42483810270E-01 -0.28401281397E-02 -0.12364636979E+00  0.13220324313E+00  0.19399285279E-01 0.  0.
         14    1    1    2    0    0 -0.20638234943E-02  0.18745745271E-01 -0.87033199125E-02  0.20770414312E-01  0.00000000000E+00 0.  1.
     999901    1    3    3    0    0 -0.40419986776E-01 -0.15905617131E-01  0.13234968970E+00  0.89095634256E+00  0.88000000000E+00 0. -1.
        -11    1    4    4    0    0  0.39016862138E-01 -0.72013578500E-02 -0.93966824911E-01  0.10200098230E+00  0.51100000000E-03 0. -1.
         11    1    4    4    0    0  0.34669481326E-02  0.43612297103E-02 -0.29679544874E-01  0.30202260824E-01  0.51100000000E-03 0.  1.
</event>
<event>
 8    1  0.1082757E+005  0.1043930E+01  0.7957747E-01            NaN
         13   -1    0    0    0    0  0.00000000000E+00  0.00000000000E+00  0.74505805969E-08  0.10566000000E+00  0.10566000000E+00 0.  1.
     999900   -1    0    0    0    0 -0.00000000000E+00 -0.00000000000E+00 -0.74505805969E-08  0.93827000000E+00  0.93827000000E+00 0.  1.
     999902    2    1    2    0    0 -0.24938984642E-01  0.94889778291E-03  0.10665902883E-01  0.10167893507E+01  0.10164270602E+01 0.  0.
     999903    2    3    3    0    0 -0.12349625071E+00 -0.55016564765E-02 -0.32432445848E-01  0.13021582748E+00  0.24954078206E-01 0.  0.
         14    1    1    2    0    0  0.24938984642E-01 -0.94889778291E-03 -0.10665902883E-01  0.27140649334E-01  0.00000000000E+00 0. -1.
     999901    1    3    3    0    0  0.98557266071E-01  0.64505542594E-02  0.43098348731E-01  0.88657352318E+00  0.88000000000E+00 0. -1.
        -11    1    4    4    0    0 -0.11249287953E+00  0.11400796622E-02 -0.33297686741E-01  0.11732410149E+00  0.51100000000E-03 0. -1.
         11    1    4    4    0    0 -0.11003371185E-01 -0.66417361387E-02  0.86524089300E-03  0.12891725997E-01  0.51100000000E-03 0.  1.
</event>
<event>
 8    1  0.1082757E+005  0.1043930E+01  0.7957747E-01            NaN
         13   -1    0    0    0    0  0.00000000000E+00  0.00000000000E+00  0.74505805969E-08  0.10566000000E+00  0.10566000000E+00 0. -1.
     999900   -1    0    0    0    0 -0.00000000000E+00 -0.00000000000E+00 -0.74505805969E-08  0.93827000000E+00  0.93827000000E+00 0.  1.
     999902    2    1    2    0    0  0.34446982839E-02 -0.18600170714E-01 -0.14137934943E-01  0.10203140414E+01  0.10200406999E+01 0.  0.
     999903    2    3    3    0    0 -0.44920812748E-01 -0.17603909740E-01 -0.12159455033E+00  0.13245868189E+00  0.20791601215E-01 0.  0.
         14    1    1    2    0    0 -0.34446982839E-02  0.18600170714E-01  0.14137934943E-01  0.23615958615E-01  0.00000000000E+00 0. -1.
     999901    1    3    3    0    0  0.48365511032E-01 -0.99626097416E-03  0.10745661539E+00  0.88785535950E+00  0.88000000000E+00 0. -1.
        -11    1    4    4    0    0 -0.95349799286E-02 -0.14006034878E-01 -0.40638186821E-01  0.44031899849E-01  0.51100000000E-03 0. -1.
         11    1    4    4    0    0 -0.35385832819E-01 -0.35978748616E-02 -0.80956363512E-01  0.88426782040E-01  0.51100000000E-03 0.  1.
</event>
<event>
 8    1  0.1082757E+005  0.1043930E+01  0.7957747E-01            NaN
         13   -1    0    0    0    0  0.00000000000E+00  0.00000000000E+00  0.74505805969E-08  0.10566000000E+00  0.10566000000E+00 0.  1.
     999900   -1    0    0    0    0 -0.00000000000E+00 -0.00000000000E+00 -0.74505805969E-08  0.93827000000E+00  0.93827000000E+00 0. -1.
     999902    2    1    2    0    0 -0.17190629657E-01  0.14852805592E-01  0.69874835101E-02  0.10201613545E+01  0.10198844252E+01 0.  0.
     999903    2    3    3    0    0 -0.77096759059E-01 -0.99524206196E-01  0.30417690474E-01  0.13043115960E+00  0.15429634598E-01 0.  0.
         14    1    1    2    0    0  0.17190629657E-01 -0.14852805592E-01 -0.69874835101E-02  0.23768645476E-01  0.00000000000E+00 0. -1.
     999901    1    3    3    0    0  0.59906129402E-01  0.11437701179E+00 -0.23430206964E-01  0.88973019493E+00  0.88000000000E+00 0. -1.
        -11    1    4    4    0    0 -0.57047191580E-01 -0.83670612266E-01  0.24146139995E-01  0.10410787973E+00  0.51100000000E-03 0.  1.
         11    1    4    4    0    0 -0.20049567479E-01 -0.15853593930E-01  0.62715504788E-02  0.26323279867E-01  0.51100000000E-03 0. -1.
</event>
<event>
 8    1  0.1082757E+005  0.1043930E+01  0.7957747E-01            NaN
         13   -1    0    0    0    0  0.00000000000E+00  0.00000000000E+00  0.74505805969E-08  0.10566000000E+00  0.10566000000E+00 0.  1.
     999900   -1    0    0    0    0 -0.00000000000E+00 -0.00000000000E+00 -0.74505805969E-08  0.93827000000E+00  0.93827000000E+00 0. -1.
     999902    2    1    2    0    0  0.23631241223E-01 -0.59011359830E-02  0.37275177888E-02  0.10192895179E+01  0.10189916428E+01 0.  0.
     999903    2    3    3    0    0 -0.73756119225E-01  0.98327448131E-01 -0.27292489552E-01  0.12726365700E+00  0.18517727382E-01 0.  0.
         14    1    1    2    0    0 -0.23631241223E-01  0.59011359830E-02 -0.37275177888E-02  0.24640482067E-01  0.00000000000E+00 0. -1.
     999901    1    3    3    0    0  0.97387360448E-01 -0.10422858411E+00  0.31020007341E-01  0.89202586094E+00  0.88000000000E+00 0.  1.
        -11    1    4    4    0    0 -0.46525385785E-01  0.62601588737E-01 -0.81212697706E-02  0.78420574970E-01  0.51100000000E-03 0. -1.
         11    1    4    4    0    0 -0.27230733440E-01  0.35725859394E-01 -0.19171219781E-01  0.48843082028E-01  0.51100000000E-03 0.  1.
</event>
<event>
 8    1  0.1082757E+005  0.1043930E+01  0.7957747E-01            NaN
         13   -1    0    0    0    0  0.00000000000E+00  0.00000000000E+00  0.74505805969E-08  0.10566000000E+00  0.10566000000E+00 0. -1.
     999900   -1    0    0    0    0 -0.00000000000E+00 -0.00000000000E+00 -0.74505805969E-08  0.93827000000E+00  0.93827000000E+00 0. -1.
     999902    2    1    2    0    0  0.16406443010E-01 -0.42130000271E-03  0.16268486383E-01  0.10208212892E+01  0.10205596954E+01 0.  0.
     999903    2    3    3    0    0 -0.62296359381E-01  0.99224557465E-01  0.55272375533E-01  0.13085233952E+00  0.18464833186E-01 0.  0.
         14    1    1    2    0    0 -0.16406443010E-01  0.42130000271E-03 -0.16268486383E-01  0.23108710806E-01  0.00000000000E+00 0.  1.
     999901    1    3    3    0    0  0.78702802391E-01 -0.99645857468E-01 -0.39003889150E-01  0.88996894967E+00  0.88000000000E+00 0.  1.
        -11    1    4    4    0    0 -0.21931351822E-01  0.50827344352E-01  0.29858737239E-01  0.62898397731E-01  0.51100000000E-03 0. -1.
         11    1    4    4    0    0 -0.40365007558E-01  0.48397213113E-01  0.25413638294E-01  0.67953941788E-01  0.51100000000E-03 0.  1.
</event>
<event>
 8    1  0.1082757E+005  0.1043930E+01  0.7957747E-01            NaN
         13   -1    0    0    0    0  0.00000000000E+00  0.00000000000E+00  0.74505805969E-08  0.10566000000E+00  0.10566000000E+00 0.  1.
     999900   -1    0    0    0    0 -0.00000000000E+00 -0.00000000000E+00 -0.74505805969E-08  0.93827000000E+00  0.93827000000E+00 0.  1.
     999902    2    1    2    0    0  0.16719876714E-01 -0.32696194157E-02  0.16909000988E-01  0.10199266877E+01  0.10196441974E+01 0.  0.
     999903    2    3    3    0    0 -0.81734301170E-01  0.68922621588E-01  0.70097844314E-01  0.12990758795E+00  0.23053196657E-01 0.  0.
         14    1    1    2    0    0 -0.16719876714E-01  0.32696194157E-02 -0.16909000988E-01  0.24003312331E-01  0.00000000000E+00 0. -1.
     999901    1    3    3    0    0  0.98454177884E-01 -0.72192241003E-01 -0.53188843326E-01  0.89001909972E+00  0.88000000000E+00 0.  1.
        -11    1    4    4    0    0 -0.61661029696E-01  0.62865219045E-01  0.60520043242E-01  0.10685062051E+00  0.51100000000E-03 0.  1.
         11    1    4    4    0    0 -0.20073271473E-01  0.60574025428E-02  0.95778010720E-02  0.23056967441E-01  0.51100000000E-03 0. -1.
</event>
<event>
 8    1  0.1082757E+005  0.1043930E+01  0.7957747E-01            NaN
         13   -1    0    0    0    0  0.00000000000E+00  0.00000000000E+00  0.74505805969E-08  0.10566000000E+00  0.10566000000E+00 0. -1.
     999900   -1    0    0    0    0 -0.00000000000E+00 -0.00000000000E+00 -0.74505805969E-08  0.93827000000E+00  0.93827000000E+00 0.  1.
     999902    2    1    2    0    0  0.15152036162E-01 -0.48438887512E-03  0.20435226812E-01  0.10184856032E+01  0.10181677203E+01 0.  0.
     999903    2    3    3    0    0 -0.70805217432E-01  0.93323521835E-01 -0.44730981618E-01  0.12695029362E+00  0.19820640481E-01 0.  0.
         14    1    1    2    0    0 -0.15152036162E-01  0.48438887512E-03 -0.20435226812E-01  0.25444396777E-01  0.00000000000E+00 0.  1.
     999901    1    3    3    0    0  0.85957253594E-01 -0.93807910710E-01  0.65166208431E-01  0.89153530961E+00  0.88000000000E+00 0.  1.
        -11    1    4    4    0    0 -0.45340080271E-01  0.43913906491E-01 -0.21205620811E-01  0.66588989610E-01  0.51100000000E-03 0.  1.
         11    1    4    4    0    0 -0.25465137161E-01  0.49409615344E-01 -0.23525360807E-01  0.60361304005E-01  0.51100000000E-03 0. -1.
</event>
<event>
 8    1  0.1082757E+005  0.1043930E+01  0.7957747E-01            NaN
         13   -1    0    0    0    0  0.00000000000E+00  0.00000000000E+00  0.74505805969E-08  0.10566000000E+00  0.10566000000E+00 0. -1.
     999900   -1    0    0    0    0 -0.00000000000E+00 -0.00000000000E+00 -0.74505805969E-08  0.93827000000E+00  0.93827000000E+00 0.  1.
     999902    2    1    2    0    0 -0.11127583567E-01 -0.16869194580E-01 -0.12519917127E-01  0.10201573021E+01  0.10198802772E+01 0.  0.
     999903    2    3    3    0    0  0.12452720869E-01 -0.12270239174E+00 -0.45315888154E-01  0.13289619502E+00  0.19922894727E-01 0.  0.
         14    1    1    2    0    0  0.11127583567E-01  0.16869194580E-01  0.12519917127E-01  0.23772697926E-01  0.00000000000E+00 0. -1.
     999901    1    3    3    0    0 -0.23580304436E-01  0.10583319716E+00  0.32795971028E-01  0.88726110706E+00  0.88000000000E+00 0.  1.
        -11    1    4    4    0    0  0.34547102632E-02 -0.14257838618E-01 -0.12379689967E-01  0.19202573519E-01  0.51100000000E-03 0. -1.
         11    1    4    4    0    0  0.89980106060E-02 -0.10844455313E+00 -0.32936198187E-01  0.11369362150E+00  0.51100000000E-03 0.  1.
</event>
<event>
 8    1  0.1082757E+005  0.1043930E+01  0.7957747E-01            NaN
         13   -1    0    0    0    0  0.00000000000E+00  0.00000000000E+00  0.74505805969E-08  0.10566000000E+00  0.10566000000E+00 0. -1.
     999900   -1    0    0    0    0 -0.00000000000E+00 -0.00000000000E+00 -0.74505805969E-08  0.93827000000E+00  0.93827000000E+00 0. -1.
     999902    2    1    2    0    0 -0.91288125645E-02  0.19807388452E-01 -0.12865169933E-01  0.10186084587E+01  0.10182936765E+01 0.  0.
     999903    2    3    3    0    0 -0.58846294647E-02  0.41335795748E-01 -0.12304660104E+00  0.13147039459E+00  0.20018035630E-01 0.  0.
         14    1    1    2    0    0  0.91288125645E-02 -0.19807388452E-01  0.12865169933E-01  0.25321541295E-01  0.00000000000E+00 0. -1.
     999901    1    3    3    0    0 -0.32441830997E-02 -0.21528407296E-01  0.11018143111E+00  0.88713806412E+00  0.88000000000E+00 0.  1.
        -11    1    4    4    0    0  0.70999345862E-02  0.19133192376E-01 -0.49014525975E-01  0.53095884955E-01  0.51100000000E-03 0.  1.
         11    1    4    4    0    0 -0.12984564051E-01  0.22202603372E-01 -0.74032075069E-01  0.78374509633E-01  0.51100000000E-03 0. -1.
</event>
<event>
 8    1  0.1082757E+005  0.1043930E+01  0.7957747E-01            NaN
         13   -1    0    0    0    0  0.00000000000E+00  0.00000000000E+00  0.74505805969E-08  0.10566000000E+00  0.10566000000E+00 0. -1.
     999900   -1    0    0    0    0 -0.00000000000E+00 -0.00000000000E+00 -0.74505805969E-08  0.93827000000E+00  0.93827000000E+00 0. -1.
     999902    2    1    2    0    0 -0.74821933428E-02  0.13121336512E-01  0.17836085046E-01  0.10205573960E+01  0.10202897235E+01 0.  0.
     999903    2    3    3    0    0 -0.71320067517E-02  0.96822241801E-01  0.89680970432E-01  0.13367090283E+00  0.19995543924E-01 0.  0.
         14    1    1    2    0    0  0.74821933428E-02 -0.13121336512E-01 -0.17836085046E-01  0.23372604024E-01  0.00000000000E+00 0.  1.
     999901    1    3    3    0    0 -0.35018659109E-03 -0.83700905289E-01 -0.71844885386E-01  0.88688649315E+00  0.88000000000E+00 0. -1.
        -11    1    4    4    0    0 -0.27646530268E-02  0.43713449310E-01  0.27247879691E-01  0.51586985041E-01  0.51100000000E-03 0.  1.
         11    1    4    4    0    0 -0.43673537249E-02  0.53108792491E-01  0.62433090741E-01  0.82083917785E-01  0.51100000000E-03 0. -1.
</event>
<event>
 8    1  0.1082757E+005  0.1043930E+01  0.7957747E-01            NaN
         13   -1    0    0    0    0  0.00000000000E+00  0.00000000000E+00  0.74505805969E-08  0.10566000000E+00  0.10566000000E+00 0.  1.
     999900   -1    0    0    0    0 -0.00000000000E+00 -0.00000000000E+00 -0.74505805969E-08  0.93827000000E+00  0.93827000000E+00 0. -1.
     999902    2    1    2    0    0 -0.40661212754E-02  0.23271465573E-01 -0.10622684962E-02  0.10202821065E+01  0.10200080166E+01 0.  0.
     999903    2    3    3    0    0 -0.23156772225E-01  0.11480494839E+00  0.60304246486E-01  0.13320337235E+00  0.19751556582E-01 0.  0.
         14    1    1    2    0    0  0.40661212754E-02 -0.23271465573E-01  0.10622684962E-02  0.23647893489E-01  0.00000000000E+00 0.  1.
     999901    1    3    3    0    0  0.19090650950E-01 -0.91533482819E-01 -0.61366514982E-01  0.88707873416E+00  0.88000000000E+00 0. -1.
        -11    1    4    4    0    0 -0.18649880750E-01  0.93607210015E-01  0.57278000443E-01  0.11131557966E+00  0.51100000000E-03 0. -1.
         11    1    4    4    0    0 -0.45068914746E-02  0.21197738376E-01  0.30262460429E-02  0.21887792697E-01  0.51100000000E-03 0.  1.
</event>
<event>
 8    1  0.1082757E+005  0.1043930E+01  0.7957747E-01            NaN
         13   -1    0    0    0    0  0.00000000000E+00  0.00000000000E+00  0.74505805969E-08  0.10566000000E+00  0.10566000000E+00 0.  1.
     999900   -1    0    0    0    0 -0.00000000000E+00 -0.00000000000E+00 -0.74505805969E-08  0.93827000000E+00  0.93827000000E+00 0.  1.
     999902    2    1    2    0    0  0.12481417501E-01  0.15511764914E-01  0.13889757113E-01  0.10196539627E+01  0.10193649384E+01 0.  0.
     999903    2    3    3    0    0  0.21304560324E-01  0.12804613893E+00  0.15858205483E-01  0.13244163865E+00  0.20966806677E-01 0.  0.
         14    1    1    2    0    0 -0.12481417501E-01 -0.15511764914E-01 -0.13889757113E-01  0.24276037285E-01  0.00000000000E+00 0.  1.
     999901    1    3    3    0    0 -0.88231428228E-02 -0.11253437401E+00 -0.19684483704E-02  0.88721232407E+00  0.88000000000E+00 0.  1.
        -11    1    4    4    0    0 -0.20554439531E-02  0.10441581791E-01  0.57660245533E-02  0.12114439331E-01  0.51100000000E-03 0.  1.
         11    1    4    4    0    0  0.23360004277E-01  0.11760455714E+00  0.10092180930E-01  0.12032719932E+00  0.51100000000E-03 0. -1.
</event>
<event>
 8    1  0.1082757E+005  0.1043930E+01  0.7957747E-01            NaN
         13   -1    0    0    0    0  0.00000000000E+00  0.00000000000E+00  0.74505805969E-08  0.10566000000E+00  0.10566000000E+00 0. -1.
     999900   -1    0    0    0    0 -0.00000000000E+00 -0.00000000000E+00 -0.74505805969E-08  0.93827000000E+00  0.93827000000E+00 0. -1.
     999902    2    1    2    0    0  0.19140565893E-02  0.20871397271E-01  0.11491849771E-01  0.10200272502E+01  0.10197471499E+01 0.  0.
     999903    2    3    3    0    0 -0.49024030520E-01  0.44601758707E-01  0.11285804714E+00  0.13242772072E+00  0.20186380622E-01 0.  0.
         14    1    1    2    0    0 -0.19140565893E-02 -0.20871397271E-01 -0.11491849771E-01  0.23902749797E-01  0.00000000000E+00 0.  1.
     999901    1    3    3    0    0  0.50938087109E-01 -0.23730361436E-01 -0.10136619737E+00  0.88759952948E+00  0.88000000000E+00 0. -1.
        -11    1    4    4    0    0 -0.28251967583E-01  0.25761748555E-01  0.83426055731E-01  0.91771505691E-01  0.51100000000E-03 0. -1.
         11    1    4    4    0    0 -0.20772062936E-01  0.18840010152E-01  0.29431991408E-01  0.40656215028E-01  0.51100000000E-03 0.  1.
</event>
<event>
 8    1  0.1082757E+005  0.1043930E+01  0.7957747E-01            NaN
         13   -1    0    0    0    0  0.00000000000E+00  0.00000000000E+00  0.74505805969E-08  0.10566000000E+00  0.10566000000E+00 0.  1.
     999900   -1    0    0    0    0 -0.00000000000E+00 -0.00000000000E+00 -0.74505805969E-08  0.93827000000E+00  0.93827000000E+00 0. -1.
     999902    2    1    2    0    0 -0.22831214549E-01  0.84759233780E-02 -0.23962682880E-02  0.10194586344E+01  0.10191648833E+01 0.  0.
     999903    2    3    3    0    0  0.29967873544E-01 -0.31267749616E-01  0.11938700304E+00  0.12861719592E+00  0.20331772716E-01 0.  0.
         14    1    1    2    0    0  0.22831214549E-01 -0.84759233780E-02  0.23962682880E-02  0.24471365646E-01  0.00000000000E+00 0. -1.
     999901    1    3    3    0    0 -0.52799088093E-01  0.39743672994E-01 -0.12178327133E+00  0.89084143843E+00  0.88000000000E+00 0. -1.
        -11    1    4    4    0    0  0.61927870193E-02 -0.18643061093E-01  0.36315697059E-01  0.41291709965E-01  0.51100000000E-03 0.  1.
         11    1    4    4    0    0  0.23775086525E-01 -0.12624688523E-01  0.83071305982E-01  0.87325485960E-01  0.51100000000E-03 0. -1.
</event>
<event>
 8    1  0.1082757E+005  0.1043930E+01  0.7957747E-01            NaN
         13   -1    0    0    0    0  0.00000000000E+00  0.00000000000E+00  0.74505805969E-08  0.10566000000E+00  0.10566000000E+00 0.  1.
     999900   -1    0    0    0    0 -0.00000000000E+00 -0.00000000000E+00 -0.74505805969E-08  0.93827000000E+00  0.93827000000E+00 0.  1.
     999902    2    1    2    0    0 -0.31556483805E-02 -0.18436773060E-01  0.22744138508E-02  0.10250873442E+01  0.10249141514E+01 0.  0.
     999903    2    3    3    0    0 -0.88347921911E-01  0.97591616438E-01  0.82086651567E-02  0.13337240887E+00  0.19782273831E-01 0.  0.
         14    1    1    2    0    0  0.31556483805E-02  0.18436773060E-01 -0.22744138508E-02  0.18842655756E-01  0.00000000000E+00 0. -1.
     999901    1    3    3    0    0  0.85192273530E-01 -0.11602838950E+00 -0.59342513059E-02  0.89171493538E+00  0.88000000000E+00 0. -1.
        -11    1    4    4    0    0 -0.69173356043E-01  0.65852429775E-01  0.11223131503E-01  0.96165043001E-01  0.51100000000E-03 0. -1.
         11    1    4    4    0    0 -0.19174565867E-01  0.31739186663E-01 -0.30144663460E-02  0.37207365865E-01  0.51100000000E-03 0.  1.
</event>
<event>
 8    1  0.1082757E+005  0.1043930E+01  0.7957747E-01            NaN
         13   -1    0    0    0    0  0.00000000000E+00  0.00000000000E+00  0.74505805969E-08  0.10566000000E+00  0.10566000000E+00 0. -1.
     999900   -1    0    0    0    0 -0.00000000000E+00 -0.00000000000E+00 -0.74505805969E-08  0.93827000000E+00  0.93827000000E+00 0. -1.
     999902    2    1    2    0    0  0.71909569611E-02 -0.80708495478E-02 -0.22014185665E-01  0.10194050567E+01  0.10191100023E+01 0.  0.
     999903    2    3    3    0    0 -0.62962486397E-01  0.63276417120E-01 -0.93543786587E-01  0.13085093796E+00  0.20083533065E-01 0.  0.
         14    1    1    2    0    0 -0.71909569611E-02  0.80708495478E-02  0.22014185665E-01  0.24524943321E-01  0.00000000000E+00 0. -1.
     999901    1    3    3    0    0  0.70153443358E-01 -0.71347266667E-01  0.71529600923E-01  0.88855411871E+00  0.88000000000E+00 0.  1.
        -11    1    4    4    0    0 -0.33141302278E-01  0.46227746547E-01 -0.63025718840E-01  0.84899074340E-01  0.51100000000E-03 0.  1.
         11    1    4    4    0    0 -0.29821184119E-01  0.17048670572E-01 -0.30518067747E-01  0.45951863625E-01  0.51100000000E-03 0. -1.
</event>
<event>
 8    1  0.1082757E+005  0.1043930E+01  0.7957747E-01            NaN
         13   -1    0    0    0    0  0.00000000000E+00  0.00000000000E+00  0.74505805969E-08  0.10566000000E+00  0.10566000000E+00 0. -1.
     999900   -1    0    0    0    0 -0.00000000000E+00 -0.00000000000E+00 -0.74505805969E-08  0.93827000000E+00  0.93827000000E+00 0.  1.
     999902    2    1    2    0    0 -0.16998659133E-01  0.11971995129E-01 -0.63137047629E-02  0.10222010804E+01  0.10219701086E+01 0.  0.
     999903    2    3    3    0    0 -0.50181713121E-01 -0.36511569167E-01  0.11463138647E+00  0.13198791144E+00  0.20716056282E-01 0.  0.
         14    1    1    2    0    0  0.16998659133E-01 -0.11971995129E-01  0.63137047629E-02  0.21728919612E-01  0.00000000000E+00 0.  1.
     999901    1    3    3    0    0  0.33183053988E-01  0.48483564296E-01 -0.12094509123E+00  0.89021316895E+00  0.88000000000E+00 0. -1.
        -11    1    4    4    0    0 -0.24552630560E-01 -0.26100282904E-01  0.48516359515E-01  0.60317117775E-01  0.51100000000E-03 0. -1.
         11    1    4    4    0    0 -0.25629082561E-01 -0.10411286263E-01  0.66115026951E-01  0.71670793663E-01  0.51100000000E-03 0.  1.
</event>
<event>
 8    1  0.1082757E+005  0.1043930E+01  0.7957747E-01            NaN
         13   -1    0    0    0    0  0.00000000000E+00  0.00000000000E+00  0.74505805969E-08  0.10566000000E+00  0.10566000000E+00 0.  1.
     999900   -1    0    0    0    0 -0.00000000000E+00 -0.00000000000E+00 -0.74505805969E-08  0.93827000000E+00  0.93827000000E+00 0.  1.
     999902    2    1    2    0    0  0.77654569935E-02  0.13773614910E-01 -0.15511870854E-01  0.10217797646E+01  0.10215396490E+01 0.  0.
     999903    2    3    3    0    0 -0.97073892669E-02  0.12718100977E+00 -0.29512828906E-01  0.13421987121E+00  0.29575735067E-01 0.  0.
         14    1    1    2    0    0 -0.77654569935E-02 -0.13773614910E-01  0.15511870854E-01  0.22150235380E-01  0.00000000000E+00 0.  1.
     999901    1    3    3    0    0  0.17472846260E-01 -0.11340739486E+00  0.14000958052E-01  0.88755989341E+00  0.88000000000E+00 0. -1.
        -11    1    4    4    0    0 -0.16064903680E-01  0.43397539979E-01 -0.16822481272E-01  0.49241086540E-01  0.51100000000E-03 0.  1.
         11    1    4    4    0    0  0.63575144129E-02  0.83783469791E-01 -0.12690347633E-01  0.84978784669E-01  0.51100000000E-03 0. -1.
</event>
<event>
 8    1  0.1082757E+005  0.1043930E+01  0.7957747E-01            NaN
         13   -1    0    0    0    0  0.00000000000E+00  0.00000000000E+00  0.74505805969E-08  0.10566000000E+00  0.10566000000E+00 0. -1.
     999900   -1    0    0    0    0 -0.00000000000E+00 -0.00000000000E+00 -0.74505805969E-08  0.93827000000E+00  0.93827000000E+00 0. -1.
     999902    2    1    2    0    0  0.95482143282E-02 -0.65891172902E-02  0.20607171127E-01  0.10202817365E+01  0.10200076380E+01 0.  0.
     999903    2    3    3    0    0  0.87236617874E-01 -0.19515469739E-02 -0.93599474132E-01  0.12949548106E+00  0.19854017820E-01 0.  0.
         14    1    1    2    0    0 -0.95482143282E-02  0.65891172902E-02 -0.20607171127E-01  0.23648263475E-01  0.00000000000E+00 0. -1.
     999901    1    3    3    0    0 -0.77688403545E-01 -0.46375703163E-02  0.11420664526E+00  0.89078625546E+00  0.88000000000E+00 0.  1.
        -11    1    4    4    0    0  0.47995271395E-01  0.13319128096E-02 -0.65057911176E-01  0.80858598773E-01  0.51100000000E-03 0.  1.
         11    1    4    4    0    0  0.39241346479E-01 -0.32834597835E-02 -0.28541562956E-01  0.48636882287E-01  0.51100000000E-03 0. -1.
</event>
<event>
 8    1  0.1082757E+005  0.1043930E+01  0.7957747E-01            NaN
         13   -1    0    0    0    0  0.00000000000E+00  0.00000000000E+00  0.74505805969E-08  0.10566000000E+00  0.10566000000E+00 0. -1.
     999900   -1    0    0    0    0 -0.00000000000E+00 -0.00000000000E+00 -0.74505805969E-08  0.93827000000E+00  0.93827000000E+00 0.  1.
     999902    2    1    2    0    0  0.72391608358E-03 -0.88165246504E-02  0.22223585884E-01  0.10200104906E+01  0.10197299927E+01 0.  0.
     999903    2    3    3    0    0  0.10641327139E+00 -0.71558720870E-01 -0.16379702357E-01  0.13063034864E+00  0.18749892668E-01 0.  0.
         14    1    1    2    0    0 -0.72391608358E-03  0.88165246504E-02 -0.22223585884E-01  0.23919509422E-01  0.00000000000E+00 0.  1.
     999901    1    3    3    0    0 -0.10568935531E+00  0.62742196219E-01  0.38603288241E-01  0.88938014194E+00  0.88000000000E+00 0. -1.
        -11    1    4    4    0    0  0.18084073178E-01 -0.10367601830E-01  0.40738496221E-02  0.21245664079E-01  0.51100000000E-03 0. -1.
         11    1    4    4    0    0  0.88329198216E-01 -0.61191119040E-01 -0.20453551979E-01  0.10938468456E+00  0.51100000000E-03 0.  1.
</event>
<event>
 8    1  0.1082757E+005  0.1043930E+01  0.7957747E-01            NaN
         13   -1    0    0    0    0  0.00000000000E+00  0.00000000000E+00  0.74505805969E-08  0.10566000000E+00  0.10566000000E+00 0.  1.
     999900   -1    0    0    0    0 -0.00000000000E+00 -0.00000000000E+00 -0.74505805969E-08  0.93827000000E+00  0.93827000000E+00 0. -1.
     999902    2    1    2    0    0 -0.20468028753E-01 -0.60123393056E-02  0.11260767450E-01  0.10198075352E+01  0.10195221996E+01 0.  0.
     999903    2    3    3    0    0  0.37003174433E-01 -0.54143490982E-01 -0.10882002866E+00  0.12849448998E+00  0.19190695267E-01 0.  0.
         14    1    1    2    0    0  0.20468028753E-01  0.60123393056E-02 -0.11260767450E-01  0.24122464811E-01  0.00000000000E+00 0.  1.
     999901    1    3    3    0    0 -0.57471203186E-01  0.48131151676E-01  0.12008079611E+00  0.89131304520E+00  0.88000000000E+00 0.  1.
        -11    1    4    4    0    0  0.34570975051E-02 -0.19220920188E-01 -0.25500535928E-01  0.32123725650E-01  0.51100000000E-03 0.  1.
         11    1    4    4    0    0  0.33546076928E-01 -0.34922570793E-01 -0.83319492733E-01  0.96370764334E-01  0.51100000000E-03 0. -1.
</event>
<event>
 8    1  0.1082757E+005  0.1043930E+01  0.7957747E-01            NaN
         13   -1    0    0    0    0  0.00000000000E+00  0.00000000000E+00  0.74505805969E-08  0.10566000000E+00  0.10566000000E+00 0.  1.
     999900   -1    0    0    0    0 -0.00000000000E+00 -0.00000000000E+00 -0.74505805969E-08  0.93827000000E+00  0.93827000000E+00 0. -1.
     999902    2    1    2    0    0  0.12633529446E-01 -0.10665471220E-01  0.17654124234E-01  0.10197426801E+01  0.10194557897E+01 0.  0.
     999903    2    3    3    0    0 -0.22567242821E-01 -0.29247973832E-01 -0.11973037714E+00  0.12819408073E+00  0.27085691862E-01 0.  0.
         14    1    1    2    0    0 -0.12633529446E-01  0.10665471220E-01 -0.17654124234E-01  0.24187319924E-01  0.00000000000E+00 0. -1.
     999901    1    3    3    0    0  0.35200772268E-01  0.18582502612E-01  0.13738450137E+00  0.89154859934E+00  0.88000000000E+00 0.  1.
        -11    1    4    4    0    0 -0.28273545904E-01 -0.19030402315E-01 -0.88029259499E-01  0.94397888002E-01  0.51100000000E-03 0. -1.
         11    1    4    4    0    0  0.57063030830E-02 -0.10217571517E-01 -0.31701117640E-01  0.33796192732E-01  0.51100000000E-03 0.  1.
</event>
<event>
 8    1  0.1082757E+005  0.1043930E+01  0.7957747E-01            NaN
         13   -1    0    0    0    0  0.00000000000E+00  0.00000000000E+00  0.74505805969E-08  0.10566000000E+00  0.10566000000E+00 0. -1.
     999900   -1    0    0    0    0 -0.00000000000E+00 -0.00000000000E+00 -0.74505805969E-08  0.93827000000E+00  0.93827000000E+00 0. -1.
     999902    2    1    2    0    0 -0.64445889096E-02  0.25885718007E-02 -0.22727605335E-01  0.10201649527E+01  0.10198881082E+01 0.  0.
     999903    2    3    3    0    0 -0.56199184068E-01  0.82905173991E-01  0.78536855500E-01  0.12933344933E+00  0.22967091210E-01 0.  0.
         14    1    1    2    0    0  0.64445889096E-02 -0.25885718007E-02  0.22727605335E-01  0.23765047326E-01  0.00000000000E+00 0. -1.
     999901    1    3    3    0    0  0.49754595159E-01 -0.80316602190E-01 -0.10126446083E+00  0.89083150335E+00  0.88000000000E+00 0. -1.
        -11    1    4    4    0    0 -0.64620591797E-02  0.17868586266E-01  0.25402279411E-01  0.31726668660E-01  0.51100000000E-03 0. -1.
         11    1    4    4    0    0 -0.49737124889E-01  0.65036587725E-01  0.53134576089E-01  0.97606780667E-01  0.51100000000E-03 0.  1.
</event>
<event>
 8    1  0.1082757E+005  0.1043930E+01  0.7957747E-01            NaN
         13   -1    0    0    0    0  0.00000000000E+00  0.00000000000E+00  0.74505805969E-08  0.10566000000E+00  0.10566000000E+00 0. -1.
     999900   -1    0    0    0    0 -0.00000000000E+00 -0.00000000000E+00 -0.74505805969E-08  0.93827000000E+00  0.93827000000E+00 0.  1.
     999902    2    1    2    0    0  0.17262425876E-03  0.89184437706E-02 -0.22424050824E-01  0.10197969005E+01  0.10195113102E+01 0.  0.
     999903    2    3    3    0    0  0.46474566850E-01 -0.66723632075E-02 -0.12247528321E+00  0.13278100868E+00  0.20644502270E-01 0.  0.
         14    1    1    2    0    0 -0.17262425876E-03 -0.89184437706E-02  0.22424050824E-01  0.24133099547E-01  0.00000000000E+00 0. -1.
     999901    1    3    3    0    0 -0.46301942591E-01  0.15590806978E-01  0.10005123239E+00  0.88701589177E+00  0.88000000000E+00 0. -1.
        -11    1    4    4    0    0  0.14218231359E-01  0.69375371250E-02 -0.46641515040E-01  0.49254234037E-01  0.51100000000E-03 0. -1.
         11    1    4    4    0    0  0.32256335491E-01 -0.13609900333E-01 -0.75833768173E-01  0.83526774645E-01  0.51100000000E-03 0.  1.
</event>
<event>
 8    1  0.1082757E+005  0.1043930E+01  0.7957747E-01            NaN
         13   -1    0    0    0    0  0.00000000000E+00  0.00000000000E+00  0.74505805969E-08  0.10566000000E+00  0.10566000000E+00 0. -1.
     999900   -1    0    0    0    0 -0.00000000000E+00 -0.00000000000E+00 -0.74505805969E-08  0.93827000000E+00  0.93827000000E+00 0.  1.
     999902    2    1    2    0    0 -0.18616742077E-01 -0.60440697215E-02  0.13013580072E-01  0.10204253807E+01  0.10201546404E+01 0.  0.
     999903    2    3    3    0    0 -0.60385201902E-01 -0.11162441061E+00 -0.30932243609E-01  0.13204311606E+00  0.19292463582E-01 0.  0.
         14    1    1    2    0    0  0.18616742077E-01  0.60440697215E-02 -0.13013580072E-01  0.23504619347E-01  0.00000000000E+00 0.  1.
     999901    1    3    3    0    0  0.41768459825E-01  0.10558034089E+00  0.43945823681E-01  0.88838226459E+00  0.88000000000E+00 0. -1.
        -11    1    4    4    0    0 -0.48838738115E-01 -0.72173388869E-01 -0.18417741821E-01  0.89071290191E-01  0.51100000000E-03 0. -1.
         11    1    4    4    0    0 -0.11546463787E-01 -0.39451021746E-01 -0.12514501788E-01  0.42971825872E-01  0.51100000000E-03 0.  1.
</event>
<event>
 8    1  0.1082757E+005  0.1043930E+01  0.7957747E-01            NaN
         13   -1    0    0    0    0  0.00000000000E+00  0.00000000000E+00  0.74505805969E-08  0.10566000000E+00  0.10566000000E+00 0.  1.
     999900   -1    0    0    0    0 -0.00000000000E+00 -0.00000000000E+00 -0.74505805969E-08  0.93827000000E+00  0.93827000000E+00 0.  1.
     999902    2    1    2    0    0 -0.21487800242E-01  0.83107976117E-05 -0.11406020364E-01  0.10196025889E+01  0.10193123253E+01 0.  0.
     999903    2    3    3    0    0 -0.68691257944E-01  0.59388123357E-01 -0.93325095658E-01  0.13254855256E+00  0.24781186268E-01 0.  0.
         14    1    1    2    0    0  0.21487800242E-01 -0.83107976117E-05  0.11406020364E-01  0.24327411060E-01  0.00000000000E+00 0.  1.
     999901    1    3    3    0    0  0.47203457702E-01 -0.59379812559E-01  0.81919075293E-01  0.88705403638E+00  0.88000000000E+00 0.  1.
        -11    1    4    4    0    0 -0.61468439452E-01  0.60980649261E-01 -0.87703094490E-01  0.12324407709E+00  0.51100000000E-03 0.  1.
         11    1    4    4    0    0 -0.72228184925E-02 -0.15925259039E-02 -0.56220011677E-02  0.93044754747E-02  0.51100000000E-03 0. -1.
</event>
<event>
 8    1  0.1082757E+005  0.1043930E+01  0.7957747E-01            NaN
         13   -1    0    0    0    0  0.00000000000E+00  0.00000000000E+00  0.74505805969E-08  0.10566000000E+00  0.10566000000E+00 0. -1.
     999900   -1    0    0    0    0 -0.00000000000E+00 -0.00000000000E+00 -0.74505805969E-08  0.93827000000E+00  0.93827000000E+00 0.  1.
     999902    2    1    2    0    0 -0.68887527350E-02 -0.26811286417E-01 -0.47664500701E-02  0.10158405173E+01  0.10154520853E+01 0.  0.
     999903    2    3    3    0    0 -0.10024617261E+00 -0.61653466650E-01  0.48098470089E-01  0.12864026640E+00  0.19606382682E-01 0.  0.
         14    1    1    2    0    0  0.68887527350E-02  0.26811286417E-01  0.47664500701E-02  0.28089482726E-01  0.00000000000E+00 0.  1.
     999901    1    3    3    0    0  0.93357419872E-01  0.34842180233E-01 -0.52864920159E-01  0.88720025087E+00  0.88000000000E+00 0.  1.
        -11    1    4    4    0    0 -0.39861494224E-01 -0.21799079697E-01  0.28667537320E-01  0.53723620638E-01  0.51100000000E-03 0. -1.
         11    1    4    4    0    0 -0.60384678383E-01 -0.39854386953E-01  0.19430932768E-01  0.74916645761E-01  0.51100000000E-03 0.  1.
</event>
<event>
 8    1  0.1082757E+005  0.1043930E+01  0.7957747E-01            NaN
         13   -1    0    0    0    0  0.00000000000E+00  0.00000000000E+00  0.74505805969E-08  0.10566000000E+00  0.10566000000E+00 0. -1.
     999900   -1    0    0    0    0 -0.00000000000E+00 -0.00000000000E+00 -0.74505805969E-08  0.93827000000E+00  0.93827000000E+00 0. -1.
     999902    2    1    2    0    0  0.84108077219E-02  0.11317856250E-01  0.21999455680E-01  0.10177993359E+01  0.10174638453E+01 0.  0.
     999903    2    3    3    0    0 -0.28279774948E-01 -0.11021774336E+00 -0.49823184894E-01  0.12579283786E+00  0.19844185059E-01 0.  0.
         14    1    1    2    0    0 -0.84108077219E-02 -0.11317856250E-01 -0.21999455680E-01  0.26130664110E-01  0.00000000000E+00 0.  1.
     999901    1    3    3    0    0  0.36690582670E-01  0.12153559961E+00  0.71822640574E-01  0.89200649803E+00  0.88000000000E+00 0.  1.
        -11    1    4    4    0    0 -0.12169276154E-01 -0.17503221858E-01 -0.10997358722E-01  0.23992854715E-01  0.51100000000E-03 0.  1.
         11    1    4    4    0    0 -0.16110498794E-01 -0.92714521504E-01 -0.38825826172E-01  0.10179998314E+00  0.51100000000E-03 0. -1.
</event>
<event>
 8    1  0.1082757E+005  0.1043930E+01  0.7957747E-01            NaN
         13   -1    0    0    0    0  0.00000000000E+00  0.00000000000E+00  0.74505805969E-08  0.10566000000E+00  0.10566000000E+00 0.  1.
     999900   -1    0    0    0    0 -0.00000000000E+00 -0.00000000000E+00 -0.74505805969E-08  0.93827000000E+00  0.93827000000E+00 0. -1.
     999902    2    1    2    0    0 -0.20848452586E-01 -0.87106772026E-03 -0.73472917245E-02  0.10218076260E+01  0.10215681207E+01 0.  0.
     999903    2    3    3    0    0 -0.38947211333E-01  0.12293880807E+00  0.16777070251E-01  0.13262910895E+00  0.26041786669E-01 0.  0.
         14    1    1    2    0    0  0.20848452586E-01  0.87106772026E-03  0.73472917245E-02  0.22122373966E-01  0.00000000000E+00 0.  1.
     999901    1    3    3    0    0  0.18098758748E-01 -0.12380987579E+00 -0.24124361975E-01  0.88917851709E+00  0.88000000000E+00 0.  1.
        -11    1    4    4    0    0 -0.32869465903E-01  0.60755412116E-01  0.83545620009E-02  0.69582193968E-01  0.51100000000E-03 0.  1.
         11    1    4    4    0    0 -0.60777454304E-02  0.62183395955E-01  0.84225082497E-02  0.63046914977E-01  0.51100000000E-03 0. -1.
</event>
<event>
 8    1  0.1082757E+005  0.1043930E+01  0.7957747E-01            NaN
         13   -1    0    0    0    0  0.00000000000E+00  0.00000000000E+00  0.74505805969E-08  0.10566000000E+00  0.10566000000E+00 0. -1.
     999900   -1    0    0    0    0 -0.00000000000E+00 -0.00000000000E+00 -0.74505805969E-08  0.93827000000E+00  0.93827000000E+00 0. -1.
     999902    2    1    2    0    0 -0.65412080204E-02  0.11528895855E-01 -0.17481188451E-01  0.10219915682E+01  0.10217560720E+01 0.  0.
     999903    2    3    3    0    0 -0.94592275678E-01 -0.67366239078E-01 -0.61681375820E-01  0.13298589360E+00  0.19868240704E-01 0.  0.
         14    1    1    2    0    0  0.65412080204E-02 -0.11528895855E-01  0.17481188451E-01  0.21938431841E-01  0.00000000000E+00 0. -1.
     999901    1    3    3    0    0  0.88051067658E-01  0.78895134932E-01  0.44200187369E-01  0.88900567456E+00  0.88000000000E+00 0.  1.
        -11    1    4    4    0    0 -0.17922042259E-01 -0.23133413182E-01 -0.16673639205E-01  0.33684206529E-01  0.51100000000E-03 0.  1.
         11    1    4    4    0    0 -0.76670233419E-01 -0.44232825895E-01 -0.45007736615E-01  0.99301687072E-01  0.51100000000E-03 0. -1.
</event>
<event>
 8    1  0.1082757E+005  0.1043930E+01  0.7957747E-01            NaN
         13   -1    0    0    0    0  0.00000000000E+00  0.00000000000E+00  0.74505805969E-08  0.10566000000E+00  0.10566000000E+00 0.  1.
     999900   -1    0    0    0    0 -0.00000000000E+00 -0.00000000000E+00 -0.74505805969E-08  0.93827000000E+00  0.93827000000E+00 0. -1.
     999902    2    1    2    0    0  0.14278150033E-01 -0.35881418414E-02  0.18478628213E-01  0.10203037428E+01  0.10200301601E+01 0.  0.
     999903    2    3    3    0    0 -0.43841883618E-01  0.89242085022E-01  0.83466847388E-01  0.13113623438E+00  0.18540141784E-01 0.  0.
         14    1    1    2    0    0 -0.14278150033E-01  0.35881418414E-02 -0.18478628213E-01  0.23626257233E-01  0.00000000000E+00 0. -1.
     999901    1    3    3    0    0  0.58120033651E-01 -0.92830226864E-01 -0.64988219175E-01  0.88916750838E+00  0.88000000000E+00 0.  1.
        -11    1    4    4    0    0 -0.75266809599E-02  0.31424714351E-01  0.33345254955E-01  0.46436308502E-01  0.51100000000E-03 0. -1.
         11    1    4    4    0    0 -0.36315202658E-01  0.57817370671E-01  0.50121592433E-01  0.84699925883E-01  0.51100000000E-03 0.  1.
</event>
<event>
 8    1  0.1082757E+005  0.1043930E+01  0.7957747E-01            NaN
         13   -1    0    0    0    0  0.00000000000E+00  0.00000000000E+00  0.74505805969E-08  0.10566000000E+00  0.10566000000E+00 0. -1.
     999900   -1    0    0    0    0 -0.00000000000E+00 -0.00000000000E+00 -0.74505805969E-08  0.93827000000E+00  0.93827000000E+00 0.  1.
     999902    2    1    2    0    0 -0.85838354727E-02 -0.18161034906E-01  0.12472347817E-01  0.10202854471E+01  0.10200114356E+01 0.  0.
     999903    2    3    3    0    0  0.41762610468E-01 -0.11503860815E+00 -0.44910826666E-01  0.13168381674E+00  0.18591617538E-01 0.  0.
         14    1    1    2    0    0  0.85838354727E-02  0.18161034906E-01 -0.12472347817E-01  0.23644552868E-01  0.00000000000E+00 0. -1.
     999901    1    3    3    0    0 -0.50346445941E-01  0.96877573241E-01  0.57383174483E-01  0.88860163039E+00  0.88000000000E+00 0. -1.
        -11    1    4    4    0    0  0.29457440906E-01 -0.86847164661E-01 -0.41727923536E-01  0.10075540461E+00  0.51100000000E-03 0. -1.
         11    1    4    4    0    0  0.12305169562E-01 -0.28191443486E-01 -0.31829031300E-02  0.30928412133E-01  0.51100000000E-03 0.  1.
</event>
<event>
 8    1  0.1082757E+005  0.1043930E+01  0.7957747E-01            NaN
         13   -1    0    0    0    0  0.00000000000E+00  0.00000000000E+00  0.74505805969E-08  0.10566000000E+00  0.10566000000E+00 0.  1.
     999900   -1    0    0    0    0 -0.00000000000E+00 -0.00000000000E+00 -0.74505805969E-08  0.93827000000E+00  0.93827000000E+00 0. -1.
     999902    2    1    2    0    0 -0.83489418157E-02 -0.17850960187E-01 -0.92727084164E-02  0.10221505434E+01  0.10219184843E+01 0.  0.
     999903    2    3    3    0    0 -0.12744016029E+00 -0.18424047900E-02  0.32493937201E-01  0.13300294886E+00  0.19736756119E-01 0.  0.
         14    1    1    2    0    0  0.83489418157E-02  0.17850960187E-01  0.92727084164E-02  0.21779456614E-01  0.00000000000E+00 0.  1.
     999901    1    3    3    0    0  0.11909121847E+00 -0.16008555397E-01 -0.41766645617E-01  0.88914759452E+00  0.88000000000E+00 0.  1.
        -11    1    4    4    0    0 -0.68706894120E-01 -0.97818585608E-02  0.22049447566E-01  0.72820061216E-01  0.51100000000E-03 0. -1.
         11    1    4    4    0    0 -0.58733266166E-01  0.79394537708E-02  0.10444489634E-01  0.60182887646E-01  0.51100000000E-03 0.  1.
</event>
<event>
 8    1  0.1082757E+005  0.1043930E+01  0.7957747E-01            NaN
         13   -1    0    0    0    0  0.00000000000E+00  0.00000000000E+00  0.74505805969E-08  0.10566000000E+00  0.10566000000E+00 0.  1.
     999900   -1    0    0    0    0 -0.00000000000E+00 -0.00000000000E+00 -0.74505805969E-08  0.93827000000E+00  0.93827000000E+00 0.  1.
     999902    2    1    2    0    0  0.11814953624E-01 -0.10840261919E-01  0.19987349899E-01  0.10183058207E+01  0.10179833721E+01 0.  0.
     999903    2    3    3    0    0 -0.82379988222E-01 -0.96628987268E-01  0.10474383727E-01  0.12907981515E+00  0.20694499852E-01 0.  0.
         14    1    1    2    0    0 -0.11814953624E-01  0.10840261919E-01 -0.19987349899E-01  0.25624179277E-01  0.00000000000E+00 0. -1.
     999901    1    3    3    0    0  0.94194941846E-01  0.85788725349E-01  0.95129661724E-02  0.88922600558E+00  0.88000000000E+00 0. -1.
        -11    1    4    4    0    0 -0.56650940402E-01 -0.57644516870E-01 -0.15728587070E-02  0.80839064685E-01  0.51100000000E-03 0.  1.
         11    1    4    4    0    0 -0.25729047820E-01 -0.38984470398E-01  0.12047242434E-01  0.48240750463E-01  0.51100000000E-03 0. -1.
</event>
<event>
 8    1  0.1082757E+005  0.1043930E+01  0.7957747E-01            NaN
         13   -1    0    0    0    0  0.00000000000E+00  0.00000000000E+00  0.74505805969E-08  0.10566000000E+00  0.10566000000E+00 0.  1.
     999900   -1    0    0    0    0 -0.00000000000E+00 -0.00000000000E+00 -0.74505805969E-08  0.93827000000E+00  0.93827000000E+00 0. -1.
     999902    2    1    2    0    0  0.17320061363E-01 -0.15456271422E-01  0.34003912011E-02  0.10204684674E+01  0.10201987304E+01 0.  0.
     999903    2    3    3    0    0  0.10449322135E+00 -0.19829605929E-02  0.79195963583E-01  0.13281670081E+00  0.21107106045E-01 0.  0.
         14    1    1    2    0    0 -0.17320061363E-01  0.15456271422E-01 -0.34003912011E-02  0.23461532606E-01  0.00000000000E+00 0. -1.
     999901    1    3    3    0    0 -0.87173159986E-01 -0.13473310830E-01 -0.75795572382E-01  0.88765176658E+00  0.88000000000E+00 0.  1.
        -11    1    4    4    0    0  0.71377100198E-01 -0.30748560387E-02  0.41490686076E-01  0.82618904159E-01  0.51100000000E-03 0.  1.
         11    1    4    4    0    0  0.33116121151E-01  0.10918954458E-02  0.37705277507E-01  0.50197796652E-01  0.51100000000E-03 0. -1.
</event>
<event>
 8    1  0.1082757E+005  0.1043930E+01  0.7957747E-01            NaN
         13   -1    0    0    0    0  0.00000000000E+00  0.00000000000E+00  0.74505805969E-08  0.10566000000E+00  0.10566000000E+00 0. -1.
     999900   -1    0    0    0    0 -0.00000000000E+00 -0.00000000000E+00 -0.74505805969E-08  0.93827000000E+00  0.93827000000E+00 0. -1.
     999902    2    1    2    0    0 -0.29570166320E-02 -0.16771956744E-02  0.23162709454E-01  0.10205191469E+01  0.10202505874E+01 0.  0.
     999903    2    3    3    0    0 -0.30444360489E-01  0.12383778257E+00  0.22862295040E-01  0.13118813201E+00  0.20615187794E-01 0.  0.
         14    1    1    2    0    0  0.29570166320E-02  0.16771956744E-02 -0.23162709454E-01  0.23410853080E-01  0.00000000000E+00 0.  1.
     999901    1    3    3    0    0  0.27487343857E-01 -0.12551497824E+00  0.30041441337E-03  0.88933101491E+00  0.88000000000E+00 0.  1.
        -11    1    4    4    0    0 -0.24528111057E-01  0.62761694373E-01  0.66192163671E-02  0.67710661339E-01  0.51100000000E-03 0. -1.
         11    1    4    4    0    0 -0.59162494315E-02  0.61076088197E-01  0.16243078673E-01  0.63477470669E-01  0.51100000000E-03 0.  1.
</event>
<event>
 8    1  0.1082757E+005  0.1043930E+01  0.7957747E-01            NaN
         13   -1    0    0    0    0  0.00000000000E+00  0.00000000000E+00  0.74505805969E-08  0.10566000000E+00  0.10566000000E+00 0.  1.
     999900   -1    0    0    0    0 -0.00000000000E+00 -0.00000000000E+00 -0.74505805969E-08  0.93827000000E+00  0.93827000000E+00 0. -1.
     999902    2    1    2    0    0 -0.10863880959E-01 -0.46751085735E-02 -0.26581439168E-01  0.10148361268E+01  0.10144190016E+01 0.  0.
     999903    2    3    3    0    0 -0.94932101303E-02  0.97216799262E-01 -0.79238996699E-01  0.12739223675E+00  0.20217227523E-01 0.  0.
         14    1    1    2    0    0  0.10863880959E-01  0.46751085735E-02  0.26581439168E-01  0.29093873202E-01  0.00000000000E+00 0.  1.
     999901    1    3    3    0    0 -0.13706708288E-02 -0.10189190784E+00  0.52657557531E-01  0.88744389005E+00  0.88000000000E+00 0.  1.
        -11    1    4    4    0    0 -0.10088771309E-01  0.46169443558E-01 -0.27379394718E-01  0.54619531315E-01  0.51100000000E-03 0. -1.
         11    1    4    4    0    0  0.59556117913E-03  0.51047355704E-01 -0.51859601981E-01  0.72772705434E-01  0.51100000000E-03 0.  1.
</event>
<event>
 8    1  0.1082757E+005  0.1043930E+01  0.7957747E-01            NaN
         13   -1    0    0    0    0  0.00000000000E+00  0.00000000000E+00  0.74505805969E-08  0.10566000000E+00  0.10566000000E+00 0. -1.
     999900   -1    0    0    0    0 -0.00000000000E+00 -0.00000000000E+00 -0.74505805969E-08  0.93827000000E+00  0.93827000000E+00 0.  1.
     999902    2    1    2    0    0  0.25148227510E-01 -0.16411641489E-01  0.94548319285E-02  0.10124471607E+01  0.10119575505E+01 0.  0.
     999903    2    3    3    0    0  0.80205125284E-01 -0.47628178108E-01  0.84082433125E-01  0.12702352593E+00  0.19073937947E-01 0.  0.
         14    1    1    2    0    0 -0.25148227510E-01  0.16411641489E-01 -0.94548319285E-02  0.31482839295E-01  0.00000000000E+00 0.  1.
     999901    1    3    3    0    0 -0.55056897773E-01  0.31216536619E-01 -0.74627601197E-01  0.88542363477E+00  0.88000000000E+00 0.  1.
        -11    1    4    4    0    0  0.18729408905E-01 -0.32438084437E-02  0.12562486888E-01  0.22790134904E-01  0.51100000000E-03 0. -1.
         11    1    4    4    0    0  0.61475716379E-01 -0.44384369664E-01  0.71519946237E-01  0.10423339103E+00  0.51100000000E-03 0.  1.
</event>
<event>
 8    1  0.1082757E+005  0.1043930E+01  0.7957747E-01            NaN
         13   -1    0    0    0    0  0.00000000000E+00  0.00000000000E+00  0.74505805969E-08  0.10566000000E+00  0.10566000000E+00 0.  1.
     999900   -1    0    0    0    0 -0.00000000000E+00 -0.00000000000E+00 -0.74505805969E-08  0.93827000000E+00  0.93827000000E+00 0. -1.
     999902    2    1    2    0    0 -0.18370241114E-01 -0.16053406374E-01 -0.36592343535E-02  0.10192608368E+01  0.10189622593E+01 0.  0.
     999903    2    3    3    0    0  0.44725087979E-01 -0.10536435564E+00  0.59632314932E-01  0.13023705402E+00  0.17426885055E-01 0.  0.
         14    1    1    2    0    0  0.18370241114E-01  0.16053406374E-01  0.36592343535E-02  0.24669163156E-01  0.00000000000E+00 0.  1.
     999901    1    3    3    0    0 -0.63095329092E-01  0.89310949263E-01 -0.63291549286E-01  0.88902378282E+00  0.88000000000E+00 0. -1.
        -11    1    4    4    0    0  0.25689259502E-01 -0.48459655008E-01  0.36711586028E-01  0.66002105171E-01  0.51100000000E-03 0.  1.
         11    1    4    4    0    0  0.19035828476E-01 -0.56904700629E-01  0.22920728904E-01  0.64234948851E-01  0.51100000000E-03 0. -1.
</event>
<event>
 7    1  0.1082757E+005  0.1043930E+01  0.7957747E-01            NaN
         13   -1    0    0    0    0  0.00000000000E+00  0.00000000000E+00  0.74505805969E-08  0.10566000000E+00  0.10566000000E+00 0.  1.
     999900   -1    0    0    0    0 -0.00000000000E+00 -0.00000000000E+00 -0.74505805969E-08  0.93827000000E+00  0.93827000000E+00 0. -1.
     999903    2    1    2    0    0 -0.73497217323E-01  0.27771290288E-01 -0.47815292593E-01  0.93992317797E-01  0.19369256070E-01 0.  0.
         14    1    1    2    0    0  0.68017462428E-01  0.28837213937E-03  0.90831353389E-02  0.68621874802E-01  0.00000000000E+00 0.  1.
     999901    1    1    2    0    0  0.54797548944E-02 -0.28059662428E-01  0.38732157254E-01  0.88131580740E+00  0.88000000000E+00 0.  1.
        -11    1    3    3    0    0 -0.32224570531E-01  0.21743039449E-01 -0.27312288021E-01  0.47512155374E-01  0.51100000000E-03 0.  1.
         11    1    3    3    0    0 -0.41272646792E-01  0.60282508395E-02 -0.20503004572E-01  0.46480162423E-01  0.51100000000E-03 0. -1.
</event>
<event>
 8    1  0.1082757E+005  0.1043930E+01  0.7957747E-01            NaN
         13   -1    0    0    0    0  0.00000000000E+00  0.00000000000E+00  0.74505805969E-08  0.10566000000E+00  0.10566000000E+00 0. -1.
     999900   -1    0    0    0    0 -0.00000000000E+00 -0.00000000000E+00 -0.74505805969E-08  0.93827000000E+00  0.93827000000E+00 0. -1.
     999902    2    1    2    0    0 -0.17893131602E-01  0.33145983569E-02 -0.13617577242E-01  0.10212014028E+01  0.10209484394E+01 0.  0.
     999903    2    3    3    0    0 -0.11340665857E+00  0.67973586559E-01 -0.34285426888E-02  0.13361623223E+00  0.18975350665E-01 0.  0.
         14    1    1    2    0    0  0.17893131602E-01 -0.33145983569E-02  0.13617577242E-01  0.22728597201E-01  0.00000000000E+00 0. -1.
     999901    1    3    3    0    0  0.95513526967E-01 -0.64658988202E-01 -0.10189034553E-01  0.88758517057E+00  0.88000000000E+00 0.  1.
        -11    1    4    4    0    0 -0.40390927724E-01  0.20904186759E-01  0.73621716534E-02  0.46074665044E-01  0.51100000000E-03 0.  1.
         11    1    4    4    0    0 -0.73015730845E-01  0.47069399799E-01 -0.10790714342E-01  0.87541567186E-01  0.51100000000E-03 0. -1.
</event>
<event>
 8    1  0.1082757E+005  0.1043930E+01  0.7957747E-01            NaN
         13   -1    0    0    0    0  0.00000000000E+00  0.00000000000E+00  0.74505805969E-08  0.10566000000E+00  0.10566000000E+00 0.  1.
     999900   -1    0    0    0    0 -0.00000000000E+00 -0.00000000000E+00 -0.74505805969E-08  0.93827000000E+00  0.93827000000E+00 0. -1.
     999902    2    1    2    0    0  0.18089471794E-01  0.93642774089E-02  0.12708573793E-01  0.10199211156E+01  0.10196384926E+01 0.  0.
     999903    2    3    3    0    0  0.11798049346E+00  0.13982900167E-01  0.56864585126E-01  0.13315773048E+00  0.19557142243E-01 0.  0.
         14    1    1    2    0    0 -0.18089471794E-01 -0.93642774089E-02 -0.12708573793E-01  0.24008884377E-01  0.00000000000E+00 0.  1.
     999901    1    3    3    0    0 -0.99891021663E-01 -0.46186227579E-02 -0.44156011333E-01  0.88676338514E+00  0.88000000000E+00 0. -1.
        -11    1    4    4    0    0  0.44717214051E-01  0.13492377704E-01  0.27649679659E-01  0.54281114532E-01  0.51100000000E-03 0.  1.
         11    1    4    4    0    0  0.73263279407E-01  0.49052246272E-03  0.29214905467E-01  0.78876615953E-01  0.51100000000E-03 0. -1.
</event>
<event>
 8    1  0.1082757E+005  0.1043930E+01  0.7957747E-01            NaN
         13   -1    0    0    0    0  0.00000000000E+00  0.00000000000E+00  0.74505805969E-08  0.10566000000E+00  0.10566000000E+00 0. -1.
     999900   -1    0    0    0    0 -0.00000000000E+00 -0.00000000000E+00 -0.74505805969E-08  0.93827000000E+00  0.93827000000E+00 0. -1.
     999902    2    1    2    0    0 -0.23245649465E-02 -0.83246765872E-02  0.22274673760E-01  0.10200372201E+01  0.10197573561E+01 0.  0.
     999903    2    3    3    0    0 -0.85211125091E-01 -0.43881350400E-01  0.89499034896E-01  0.13287682101E+00  0.21439765894E-01 0.  0.
         14    1    1    2    0    0  0.23245649465E-02  0.83246765872E-02 -0.22274673760E-01  0.23892779946E-01  0.00000000000E+00 0.  1.
     999901    1    3    3    0    0  0.82886560145E-01  0.35556673813E-01 -0.67224361136E-01  0.88716039905E+00  0.88000000000E+00 0.  1.
        -11    1    4    4    0    0 -0.51561977223E-01 -0.32434105107E-01  0.68169590808E-01  0.91421895086E-01  0.51100000000E-03 0. -1.
         11    1    4    4    0    0 -0.33649147868E-01 -0.11447245293E-01  0.21329444088E-01  0.41454925921E-01  0.51100000000E-03 0.  1.
</event>
<event>
 8    1  0.1082757E+005  0.1043930E+01  0.7957747E-01            NaN
         13   -1    0    0    0    0  0.00000000000E+00  0.00000000000E+00  0.74505805969E-08  0.10566000000E+00  0.10566000000E+00 0. -1.
     999900   -1    0    0    0    0 -0.00000000000E+00 -0.00000000000E+00 -0.74505805969E-08  0.93827000000E+00  0.93827000000E+00 0.  1.
     999902    2    1    2    0    0  0.23784639928E-01 -0.64792757117E-02 -0.20896836643E-02  0.10191902165E+01  0.10188899060E+01 0.  0.
     999903    2    3    3    0    0  0.58129608361E-02  0.25816882956E-01  0.12492146197E+00  0.12930378878E+00  0.20341980535E-01 0.  0.
         14    1    1    2    0    0 -0.23784639928E-01  0.64792757117E-02  0.20896836643E-02  0.24739783509E-01  0.00000000000E+00 0. -1.
     999901    1    3    3    0    0  0.17971679092E-01 -0.32296158668E-01 -0.12701114563E+00  0.88988642771E+00  0.88000000000E+00 0.  1.
        -11    1    4    4    0    0  0.12814837513E-01  0.11176547801E-01  0.69601495725E-01  0.71650293855E-01  0.51100000000E-03 0.  1.
         11    1    4    4    0    0 -0.70018766770E-02  0.14640335155E-01  0.55319966245E-01  0.57653494922E-01  0.51100000000E-03 0. -1.
</event>
<event>
 8    1  0.1082757E+005  0.1043930E+01  0.7957747E-01            NaN
         13   -1    0    0    0    0  0.00000000000E+00  0.00000000000E+00  0.74505805969E-08  0.10566000000E+00  0.10566000000E+00 0. -1.
     999900   -1    0    0    0    0 -0.00000000000E+00 -0.00000000000E+00 -0.74505805969E-08  0.93827000000E+00  0.93827000000E+00 0.  1.
     999902    2    1    2    0    0  0.21074445410E-02 -0.14931565347E-01 -0.17886016664E-01  0.10205355015E+01  0.10202673215E+01 0.  0.
     999903    2    3    3    0    0 -0.99893727897E-01 -0.73296560488E-01  0.37291769871E-01  0.13101017870E+00  0.20538942797E-01 0.  0.
         14    1    1    2    0    0 -0.21074445410E-02  0.14931565347E-01  0.17886016664E-01  0.23394498462E-01  0.00000000000E+00 0.  1.
     999901    1    3    3    0    0  0.10200117244E+00  0.58364995141E-01 -0.55177786535E-01  0.88952532283E+00  0.88000000000E+00 0.  1.
        -11    1    4    4    0    0 -0.17429855537E-01 -0.20784364742E-01  0.25273367183E-02  0.27247719788E-01  0.51100000000E-03 0. -1.
         11    1    4    4    0    0 -0.82463872361E-01 -0.52512195746E-01  0.34764433153E-01  0.10376245892E+00  0.51100000000E-03 0.  1.
</event>
<event>
 8    1  0.1082757E+005  0.1043930E+01  0.7957747E-01            NaN
         13   -1    0    0    0    0  0.00000000000E+00  0.00000000000E+00  0.74505805969E-08  0.10566000000E+00  0.10566000000E+00 0.  1.
     999900   -1    0    0    0    0 -0.00000000000E+00 -0.00000000000E+00 -0.74505805969E-08  0.93827000000E+00  0.93827000000E+00 0.  1.
     999902    2    1    2    0    0 -0.23865768754E-01  0.51460068835E-02 -0.56475179666E-02  0.10188710542E+01  0.10185628475E+01 0.  0.
     999903    2    3    3    0    0  0.89629792411E-01  0.50148722959E-01  0.72012364979E-01  0.12705406386E+00  0.20212875363E-01 0.  0.
         14    1    1    2    0    0  0.23865768754E-01 -0.51460068835E-02  0.56475179666E-02  0.25058945793E-01  0.00000000000E+00 0. -1.
     999901    1    3    3    0    0 -0.11349556117E+00 -0.45002716076E-01 -0.77659882946E-01  0.89181699035E+00  0.88000000000E+00 0.  1.
        -11    1    4    4    0    0  0.66065439418E-01  0.28713983048E-01  0.42579983395E-01  0.83680650182E-01  0.51100000000E-03 0. -1.
         11    1    4    4    0    0  0.23564352993E-01  0.21434739911E-01  0.29432381584E-01  0.43373413674E-01  0.51100000000E-03 0.  1.
</event>
<event>
 8    1  0.1082757E+005  0.1043930E+01  0.7957747E-01            NaN
         13   -1    0    0    0    0  0.00000000000E+00  0.00000000000E+00  0.74505805969E-08  0.10566000000E+00  0.10566000000E+00 0. -1.
     999900   -1    0    0    0    0 -0.00000000000E+00 -0.00000000000E+00 -0.74505805969E-08  0.93827000000E+00  0.93827000000E+00 0. -1.
     999902    2    1    2    0    0 -0.64454800911E-02 -0.15086543350E-01  0.17572923059E-01  0.10198892923E+01  0.10196059106E+01 0.  0.
     999903    2    3    3    0    0  0.78569910486E-01 -0.69085475764E-01 -0.73509782091E-01  0.12947390576E+00  0.20341347407E-01 0.  0.
         14    1    1    2    0    0  0.64454800911E-02  0.15086543350E-01 -0.17572923059E-01  0.24040707741E-01  0.00000000000E+00 0.  1.
     999901    1    3    3    0    0 -0.85015390577E-01  0.53998932415E-01  0.91082705150E-01  0.89041538650E+00  0.88000000000E+00 0.  1.
        -11    1    4    4    0    0  0.66904800076E-01 -0.60667610925E-01 -0.70954028502E-01  0.11485445821E+00  0.51100000000E-03 0. -1.
         11    1    4    4    0    0  0.11665110410E-01 -0.84178648396E-02 -0.25557535896E-02  0.14619447552E-01  0.51100000000E-03 0.  1.
</event>
<event>
 8    1  0.1082757E+005  0.1043930E+01  0.7957747E-01            NaN
         13   -1    0    0    0    0  0.00000000000E+00  0.00000000000E+00  0.74505805969E-08  0.10566000000E+00  0.10566000000E+00 0. -1.
     999900   -1    0    0    0    0 -0.00000000000E+00 -0.00000000000E+00 -0.74505805969E-08  0.93827000000E+00  0.93827000000E+00 0.  1.
     999902    2    1    2    0    0 -0.21301855101E-01  0.10496867736E-01 -0.85814923774E-03  0.10201667998E+01  0.10198899989E+01 0.  0.
     999903    2    3    3    0    0  0.83224446321E-01 -0.29424367854E-01 -0.91170046987E-01  0.12849663007E+00  0.20181788372E-01 0.  0.
         14    1    1    2    0    0  0.21301855101E-01 -0.10496867736E-01  0.85814923774E-03  0.23763200187E-01  0.00000000000E+00 0. -1.
     999901    1    3    3    0    0 -0.10452630142E+00  0.39921235589E-01  0.90311897749E-01  0.89167016975E+00  0.88000000000E+00 0.  1.
        -11    1    4    4    0    0  0.38397763714E-01 -0.30654979676E-02 -0.37380352712E-01  0.53678090744E-01  0.51100000000E-03 0. -1.
         11    1    4    4    0    0  0.44826682607E-01 -0.26358869886E-01 -0.53789694275E-01  0.74818539323E-01  0.51100000000E-03 0.  1.
</event>
<event>
 8    1  0.1082757E+005  0.1043930E+01  0.7957747E-01            NaN
         13   -1    0    0    0    0  0.00000000000E+00  0.00000000000E+00  0.74505805969E-08  0.10566000000E+00  0.10566000000E+00 0. -1.
     999900   -1    0    0    0    0 -0.00000000000E+00 -0.00000000000E+00 -0.74505805969E-08  0.93827000000E+00  0.93827000000E+00 0. -1.
     999902    2    1    2    0    0  0.15609288438E-01  0.17874241321E-01  0.78250258109E-03  0.10201865651E+01  0.10199102299E+01 0.  0.
     999903    2    3    3    0    0 -0.79855744152E-01  0.97231235842E-01  0.31611902469E-01  0.13093881737E+00  0.17742841355E-01 0.  0.
         14    1    1    2    0    0 -0.15609288438E-01 -0.17874241321E-01 -0.78250258109E-03  0.23743434853E-01  0.00000000000E+00 0.  1.
     999901    1    3    3    0    0  0.95465032590E-01 -0.79356994521E-01 -0.30829399888E-01  0.88924774778E+00  0.88000000000E+00 0. -1.
        -11    1    4    4    0    0 -0.42025812484E-01  0.55649290985E-01  0.26061665985E-01  0.74447861333E-01  0.51100000000E-03 0.  1.
         11    1    4    4    0    0 -0.37829931668E-01  0.41581944856E-01  0.55502364841E-02  0.56490956038E-01  0.51100000000E-03 0. -1.
</event>
<event>
 8    1  0.1082757E+005  0.1043930E+01  0.7957747E-01            NaN
         13   -1    0    0    0    0  0.00000000000E+00  0.00000000000E+00  0.74505805969E-08  0.10566000000E+00  0.10566000000E+00 0.  1.
     999900   -1    0    0    0    0 -0.00000000000E+00 -0.00000000000E+00 -0.74505805969E-08  0.93827000000E+00  0.93827000000E+00 0. -1.
     999902    2    1    2    0    0 -0.10204082307E-01  0.21723194949E-01 -0.38770220204E-02  0.10196184432E+01  0.10193285623E+01 0.  0.
     999903    2    3    3    0    0 -0.53704625546E-01 -0.80635453205E-02  0.11644870270E+00  0.12986688957E+00  0.18865340636E-01 0.  0.
         14    1    1    2    0    0  0.10204082307E-01 -0.21723194949E-01  0.38770220204E-02  0.24311556804E-01  0.00000000000E+00 0.  1.
     999901    1    3    3    0    0  0.43500543238E-01  0.29786740269E-01 -0.12032572472E+00  0.88975155363E+00  0.88000000000E+00 0. -1.
        -11    1    4    4    0    0 -0.28608565717E-01 -0.87472009731E-02  0.44164647503E-01  0.53345484976E-01  0.51100000000E-03 0.  1.
         11    1    4    4    0    0 -0.25096059829E-01  0.68365565258E-03  0.72284055194E-01  0.76521404589E-01  0.51100000000E-03 0. -1.
</event>
<event>
 8    1  0.1082757E+005  0.1043930E+01  0.7957747E-01            NaN
         13   -1    0    0    0    0  0.00000000000E+00  0.00000000000E+00  0.74505805969E-08  0.10566000000E+00  0.10566000000E+00 0.  1.
     999900   -1    0    0    0    0 -0.00000000000E+00 -0.00000000000E+00 -0.74505805969E-08  0.93827000000E+00  0.93827000000E+00 0.  1.
     999902    2    1    2    0    0 -0.11140046931E-01  0.19672177829E-02  0.21045260850E-01  0.10200370388E+01  0.10197571706E+01 0.  0.
     999903    2    3    3    0    0 -0.12115582188E+00  0.37824939289E-01  0.30663470071E-01  0.13241000175E+00  0.21970456515E-01 0.  0.
         14    1    1    2    0    0  0.11140046931E-01 -0.19672177829E-02 -0.21045260850E-01  0.23892961216E-01  0.00000000000E+00 0. -1.
     999901    1    3    3    0    0  0.11001577494E+00 -0.35857721507E-01 -0.96182092216E-02  0.88762703704E+00  0.88000000000E+00 0.  1.
        -11    1    4    4    0    0 -0.75467254213E-01  0.22270011968E-01  0.80136117890E-02  0.79093229713E-01  0.51100000000E-03 0. -1.
         11    1    4    4    0    0 -0.45688567663E-01  0.15554927322E-01  0.22649858282E-01  0.53316772035E-01  0.51100000000E-03 0.  1.
</event>
<event>
 8    1  0.1082757E+005  0.1043930E+01  0.7957747E-01            NaN
         13   -1    0    0    0    0  0.00000000000E+00  0.00000000000E+00  0.74505805969E-08  0.10566000000E+00  0.10566000000E+00 0. -1.
     999900   -1    0    0    0    0 -0.00000000000E+00 -0.00000000000E+00 -0.74505805969E-08  0.93827000000E+00  0.93827000000E+00 0.  1.
     999902    2    1    2    0    0 -0.16567391091E-01 -0.16089740997E-01  0.55657529301E-02  0.10201742466E+01  0.10198976212E+01 0.  0.
     999903    2    3    3    0    0 -0.17948199471E-01  0.89437307449E-01 -0.88817202273E-01  0.12885723970E+00  0.19862602468E-01 0.  0.
         14    1    1    2    0    0  0.16567391091E-01  0.16089740997E-01 -0.55657529301E-02  0.23755753379E-01  0.00000000000E+00 0. -1.
     999901    1    3    3    0    0  0.13808083798E-02 -0.10552704845E+00  0.94382955203E-01  0.89131700692E+00  0.88000000000E+00 0. -1.
        -11    1    4    4    0    0 -0.12308777231E-01  0.48970734627E-01 -0.35698473874E-01  0.61840771380E-01  0.51100000000E-03 0.  1.
         11    1    4    4    0    0 -0.56394222399E-02  0.40466572822E-01 -0.53118728398E-01  0.67016468325E-01  0.51100000000E-03 0. -1.
</event>
<event>
 8    1  0.1082757E+005  0.1043930E+01  0.7957747E-01            NaN
         13   -1    0    0    0    0  0.00000000000E+00  0.00000000000E+00  0.74505805969E-08  0.10566000000E+00  0.10566000000E+00 0. -1.
     999900   -1    0    0    0    0 -0.00000000000E+00 -0.00000000000E+00 -0.74505805969E-08  0.93827000000E+00  0.93827000000E+00 0.  1.
     999902    2    1    2    0    0  0.80280154059E-02  0.16506163280E-01  0.15028815772E-01  0.10202072733E+01  0.10199314255E+01 0.  0.
     999903    2    3    3    0    0 -0.66625164593E-01  0.66965276796E-01  0.90385164477E-01  0.13240222788E+00  0.20919157164E-01 0.  0.
         14    1    1    2    0    0 -0.80280154059E-02 -0.16506163280E-01 -0.15028815772E-01  0.23722726679E-01  0.00000000000E+00 0.  1.
     999901    1    3    3    0    0  0.74653179999E-01 -0.50459113516E-01 -0.75356348705E-01  0.88780504544E+00  0.88000000000E+00 0.  1.
        -11    1    4    4    0    0 -0.36625880318E-01  0.22538772647E-01  0.36782649519E-01  0.56592188579E-01  0.51100000000E-03 0. -1.
         11    1    4    4    0    0 -0.29999284276E-01  0.44426504150E-01  0.53602514958E-01  0.75810039301E-01  0.51100000000E-03 0.  1.
</event>
<event>
 8    1  0.1082757E+005  0.1043930E+01  0.7957747E-01            NaN
         13   -1    0    0    0    0  0.00000000000E+00  0.00000000000E+00  0.74505805969E-08  0.10566000000E+00  0.10566000000E+00 0.  1.
     999900   -1    0    0    0    0 -0.00000000000E+00 -0.00000000000E+00 -0.74505805969E-08  0.93827000000E+00  0.93827000000E+00 0. -1.
     999902    2    1    2    0    0  0.20953911406E-01  0.77483947137E-02 -0.71666668822E-02  0.10204680065E+01  0.10201982588E+01 0.  0.
     999903    2    3    3    0    0 -0.79433798238E-02  0.59039134190E-01  0.11416539217E+00  0.13019430594E+00  0.19186033443E-01 0.  0.
         14    1    1    2    0    0 -0.20953911406E-01 -0.77483947137E-02  0.71666668822E-02  0.23461993480E-01  0.00000000000E+00 0. -1.
     999901    1    3    3    0    0  0.28897291230E-01 -0.51290739476E-01 -0.12133205906E+00  0.89027370058E+00  0.88000000000E+00 0. -1.
        -11    1    4    4    0    0 -0.20186470068E-02  0.42811617947E-01  0.63078244957E-01  0.76262937754E-01  0.51100000000E-03 0. -1.
         11    1    4    4    0    0 -0.59247328169E-02  0.16227516243E-01  0.51087147216E-01  0.53931368183E-01  0.51100000000E-03 0.  1.
</event>
<event>
 8    1  0.1082757E+005  0.1043930E+01  0.7957747E-01            NaN
         13   -1    0    0    0    0  0.00000000000E+00  0.00000000000E+00  0.74505805969E-08  0.10566000000E+00  0.10566000000E+00 0.  1.
     999900   -1    0    0    0    0 -0.00000000000E+00 -0.00000000000E+00 -0.74505805969E-08  0.93827000000E+00  0.93827000000E+00 0. -1.
     999902    2    1    2    0    0 -0.71141323385E-02  0.10872752675E-01  0.23890047260E-01  0.10167351110E+01  0.10163713514E+01 0.  0.
     999903    2    3    3    0    0  0.19644202117E-01 -0.76969683924E-01 -0.93426893822E-01  0.12421308506E+00  0.19750419984E-01 0.  0.
         14    1    1    2    0    0  0.71141323385E-02 -0.10872752675E-01 -0.23890047260E-01  0.27194889000E-01  0.00000000000E+00 0.  1.
     999901    1    3    3    0    0 -0.26758334456E-01  0.87842436599E-01  0.11731694108E+00  0.89252202594E+00  0.88000000000E+00 0.  1.
        -11    1    4    4    0    0  0.58259536115E-02 -0.24445723850E-01 -0.44517460383E-01  0.51123385549E-01  0.51100000000E-03 0. -1.
         11    1    4    4    0    0  0.13818248506E-01 -0.52523960074E-01 -0.48909433440E-01  0.73089699507E-01  0.51100000000E-03 0.  1.
</event>
<event>
 8    1  0.1082757E+005  0.1043930E+01  0.7957747E-01            NaN
         13   -1    0    0    0    0  0.00000000000E+00  0.00000000000E+00  0.74505805969E-08  0.10566000000E+00  0.10566000000E+00 0.  1.
     999900   -1    0    0    0    0 -0.00000000000E+00 -0.00000000000E+00 -0.74505805969E-08  0.93827000000E+00  0.93827000000E+00 0. -1.
     999902    2    1    2    0    0  0.12860842148E-02 -0.12710250443E-01 -0.19796646937E-01  0.10203691913E+01  0.10200971399E+01 0.  0.
     999903    2    3    3    0    0 -0.93881938015E-01  0.19242943863E-01 -0.88770732392E-01  0.13197998401E+00  0.18824560434E-01 0.  0.
         14    1    1    2    0    0 -0.12860842148E-02  0.12710250443E-01  0.19796646937E-01  0.23560808748E-01  0.00000000000E+00 0.  1.
     999901    1    3    3    0    0  0.95168022230E-01 -0.31953194306E-01  0.68974085456E-01  0.88838920724E+00  0.88000000000E+00 0. -1.
        -11    1    4    4    0    0 -0.43354617922E-01  0.82395562477E-02 -0.53637535855E-01  0.69460489171E-01  0.51100000000E-03 0.  1.
         11    1    4    4    0    0 -0.50527320093E-01  0.11003387616E-01 -0.35133196537E-01  0.62519494838E-01  0.51100000000E-03 0. -1.
</event>
<event>
 8    1  0.1082757E+005  0.1043930E+01  0.7957747E-01            NaN
         13   -1    0    0    0    0  0.00000000000E+00  0.00000000000E+00  0.74505805969E-08  0.10566000000E+00  0.10566000000E+00 0. -1.
     999900   -1    0    0    0    0 -0.00000000000E+00 -0.00000000000E+00 -0.74505805969E-08  0.93827000000E+00  0.93827000000E+00 0.  1.
     999902    2    1    2    0    0 -0.50495597919E-02  0.69009775970E-02 -0.21111955156E-01  0.10211520239E+01  0.10208979477E+01 0.  0.
     999903    2    3    3    0    0  0.60795551711E-01 -0.11328492061E+00 -0.69245715493E-02  0.13043236501E+00  0.20858566692E-01 0.  0.
         14    1    1    2    0    0  0.50495597919E-02 -0.69009775970E-02  0.21111955156E-01  0.22777976126E-01  0.00000000000E+00 0. -1.
     999901    1    3    3    0    0 -0.65845111503E-01  0.12018589821E+00 -0.14187383606E-01  0.89071965887E+00  0.88000000000E+00 0. -1.
        -11    1    4    4    0    0  0.26241272247E-01 -0.28817830722E-01 -0.26797455400E-02  0.39070626995E-01  0.51100000000E-03 0. -1.
         11    1    4    4    0    0  0.34554279464E-01 -0.84467089891E-01 -0.42448260093E-02  0.91361738013E-01  0.51100000000E-03 0.  1.
</event>
<event>
 8    1  0.1082757E+005  0.1043930E+01  0.7957747E-01            NaN
         13   -1    0    0    0    0  0.00000000000E+00  0.00000000000E+00  0.74505805969E-08  0.10566000000E+00  0.10566000000E+00 0. -1.
     999900   -1    0    0    0    0 -0.00000000000E+00 -0.00000000000E+00 -0.74505805969E-08  0.93827000000E+00  0.93827000000E+00 0.  1.
     999902    2    1    2    0    0 -0.19276091671E-01 -0.95795379007E-02  0.10378461912E-01  0.10200333950E+01  0.10197534404E+01 0.  0.
     999903    2    3    3    0    0 -0.12417661528E+00 -0.43558075233E-01  0.24221839204E-02  0.13311628325E+00  0.19923357914E-01 0.  0.
         14    1    1    2    0    0  0.19276091671E-01  0.95795379007E-02 -0.10378461912E-01  0.23896604950E-01  0.00000000000E+00 0. -1.
     999901    1    3    3    0    0  0.10490052361E+00  0.33978537332E-01  0.79562779914E-02  0.88691711180E+00  0.88000000000E+00 0.  1.
        -11    1    4    4    0    0 -0.45642865525E-01 -0.81622153873E-02  0.67798263694E-02  0.46862779474E-01  0.51100000000E-03 0. -1.
         11    1    4    4    0    0 -0.78533749751E-01 -0.35395859846E-01 -0.43576424490E-02  0.86253503772E-01  0.51100000000E-03 0.  1.
</event>
<event>
 8    1  0.1082757E+005  0.1043930E+01  0.7957747E-01            NaN
         13   -1    0    0    0    0  0.00000000000E+00  0.00000000000E+00  0.74505805969E-08  0.10566000000E+00  0.10566000000E+00 0.  1.
     999900   -1    0    0    0    0 -0.00000000000E+00 -0.00000000000E+00 -0.74505805969E-08  0.93827000000E+00  0.93827000000E+00 0.  1.
     999902    2    1    2    0    0  0.92474612265E-02 -0.17000593388E-01  0.13421182203E-01  0.10203786976E+01  0.10201068682E+01 0.  0.
     999903    2    3    3    0    0  0.27990152985E-03 -0.13134410819E+00  0.23368631327E-02  0.13286660264E+00  0.19917832913E-01 0.  0.
         14    1    1    2    0    0 -0.92474612265E-02  0.17000593388E-01 -0.13421182203E-01  0.23551302435E-01  0.00000000000E+00 0.  1.
     999901    1    3    3    0    0  0.89675596967E-02  0.11434351480E+00  0.11084319071E-01  0.88751209492E+00  0.88000000000E+00 0.  1.
        -11    1    4    4    0    0 -0.61817374877E-02 -0.72110104195E-01  0.88875149883E-02  0.72920025021E-01  0.51100000000E-03 0.  1.
         11    1    4    4    0    0  0.64616390176E-02 -0.59234003992E-01 -0.65506518556E-02  0.59946577621E-01  0.51100000000E-03 0. -1.
</event>
<event>
 8    1  0.1082757E+005  0.1043930E+01  0.7957747E-01            NaN
         13   -1    0    0    0    0  0.00000000000E+00  0.00000000000E+00  0.74505805969E-08  0.10566000000E+00  0.10566000000E+00 0. -1.
     999900   -1    0    0    0    0 -0.00000000000E+00 -0.00000000000E+00 -0.74505805969E-08  0.93827000000E+00  0.93827000000E+00 0. -1.
     999902    2    1    2    0    0  0.74332640196E-02 -0.20024246168E-01 -0.90499663920E-02  0.10207324626E+01  0.10204688307E+01 0.  0.
     999903    2    3    3    0    0  0.12520423514E+00  0.32960898164E-01  0.52693715648E-02  0.13119186737E+00  0.20518734957E-01 0.  0.
         14    1    1    2    0    0 -0.74332640196E-02  0.20024246168E-01  0.90499663920E-02  0.23197537376E-01  0.00000000000E+00 0.  1.
     999901    1    3    3    0    0 -0.11777097112E+00 -0.52985144332E-01 -0.14319337957E-01  0.88954059525E+00  0.88000000000E+00 0. -1.
        -11    1    4    4    0    0  0.22924517048E-01  0.11026314694E-01  0.76162089636E-02  0.26559007090E-01  0.51100000000E-03 0.  1.
         11    1    4    4    0    0  0.10227971809E+00  0.21934583470E-01 -0.23468373988E-02  0.10463286028E+00  0.51100000000E-03 0. -1.
</event>
<event>
 8    1  0.1082757E+005  0.1043930E+01  0.7957747E-01            NaN
         13   -1    0    0    0    0  0.00000000000E+00  0.00000000000E+00  0.74505805969E-08  0.10566000000E+00  0.10566000000E+00 0.  1.
     999900   -1    0    0    0    0 -0.00000000000E+00 -0.00000000000E+00 -0.74505805969E-08  0.93827000000E+00  0.93827000000E+00 0.  1.
     999902    2    1    2    0    0 -0.60148048380E-02  0.10867628946E-01 -0.20151003829E-01  0.10202583674E+01  0.10199837205E+01 0.  0.
     999903    2    3    3    0    0  0.13332383318E-02 -0.42385480134E-01 -0.12409220602E+00  0.13251197291E+00  0.19032627749E-01 0.  0.
         14    1    1    2    0    0  0.60148048380E-02 -0.10867628946E-01  0.20151003829E-01  0.23671632633E-01  0.00000000000E+00 0.  1.
     999901    1    3    3    0    0 -0.73480431697E-02  0.53253109080E-01  0.10394120219E+00  0.88774639446E+00  0.88000000000E+00 0. -1.
        -11    1    4    4    0    0  0.13216462754E-02 -0.13930225892E-01 -0.18800581713E-01  0.23441862896E-01  0.51100000000E-03 0. -1.
         11    1    4    4    0    0  0.11592056339E-04 -0.28455254241E-01 -0.10529162430E+00  0.10907011001E+00  0.51100000000E-03 0.  1.
</event>
<event>
 8    1  0.1082757E+005  0.1043930E+01  0.7957747E-01            NaN
         13   -1    0    0    0    0  0.00000000000E+00  0.00000000000E+00  0.74505805969E-08  0.10566000000E+00  0.10566000000E+00 0. -1.
     999900   -1    0    0    0    0 -0.00000000000E+00 -0.00000000000E+00 -0.74505805969E-08  0.93827000000E+00  0.93827000000E+00 0.  1.
     999902    2    1    2    0    0  0.15585745637E-01 -0.14034469839E-01 -0.97834162768E-02  0.10207870303E+01  0.10205246515E+01 0.  0.
     999903    2    3    3    0    0 -0.21998177044E-01  0.44597568010E-01  0.11725113842E+00  0.12894172694E+00  0.20131483320E-01 0.  0.
         14    1    1    2    0    0 -0.15585745637E-01  0.14034469839E-01  0.97834162768E-02  0.23142969662E-01  0.00000000000E+00 0. -1.
     999901    1    3    3    0    0  0.37583922681E-01 -0.58632037849E-01 -0.12703455469E+00  0.89184530340E+00  0.88000000000E+00 0. -1.
        -11    1    4    4    0    0 -0.17633581389E-01  0.15745034817E-01  0.63816308429E-01  0.68056091986E-01  0.51100000000E-03 0.  1.
         11    1    4    4    0    0 -0.43645956553E-02  0.28852533193E-01  0.53434829988E-01  0.60885634954E-01  0.51100000000E-03 0. -1.
</event>
<event>
 8    1  0.1082757E+005  0.1043930E+01  0.7957747E-01            NaN
         13   -1    0    0    0    0  0.00000000000E+00  0.00000000000E+00  0.74505805969E-08  0.10566000000E+00  0.10566000000E+00 0.  1.
     999900   -1    0    0    0    0 -0.00000000000E+00 -0.00000000000E+00 -0.74505805969E-08  0.93827000000E+00  0.93827000000E+00 0.  1.
     999902    2    1    2    0    0 -0.12234109888E-02 -0.19354288542E-01 -0.15026772674E-01  0.10193965715E+01  0.10191013104E+01 0.  0.
     999903    2    3    3    0    0 -0.63541645661E-01  0.99132131805E-01  0.43975220064E-01  0.12731819523E+00  0.20282568044E-01 0.  0.
         14    1    1    2    0    0  0.12234109888E-02  0.19354288542E-01  0.15026772674E-01  0.24533428550E-01  0.00000000000E+00 0.  1.
     999901    1    3    3    0    0  0.62318234672E-01 -0.11848642035E+00 -0.59001992739E-01  0.89207837622E+00  0.88000000000E+00 0. -1.
        -11    1    4    4    0    0 -0.50895999641E-01  0.70988509906E-01  0.40443045942E-01  0.96258362776E-01  0.51100000000E-03 0. -1.
         11    1    4    4    0    0 -0.12645646020E-01  0.28143621898E-01  0.35321741225E-02  0.31059832451E-01  0.51100000000E-03 0.  1.
</event>
<event>
 8    1  0.1082757E+005  0.1043930E+01  0.7957747E-01            NaN
         13   -1    0    0    0    0  0.00000000000E+00  0.00000000000E+00  0.74505805969E-08  0.10566000000E+00  0.10566000000E+00 0.  1.
     999900   -1    0    0    0    0 -0.00000000000E+00 -0.00000000000E+00 -0.74505805969E-08  0.93827000000E+00  0.93827000000E+00 0. -1.
     999902    2    1    2    0    0 -0.79461526973E-02 -0.90567028955E-02 -0.20018898662E-02  0.10317163694E+01  0.10316440733E+01 0.  0.
     999903    2    3    3    0    0 -0.13202360191E+00 -0.16653539918E-01 -0.45377782980E-01  0.14192179002E+00  0.19366967794E-01 0.  0.
         14    1    1    2    0    0  0.79461526973E-02  0.90567028955E-02  0.20018898662E-02  0.12213630626E-01  0.00000000000E+00 0.  1.
     999901    1    3    3    0    0  0.12407744922E+00  0.75968370229E-02  0.43375893114E-01  0.88979457935E+00  0.88000000000E+00 0.  1.
        -11    1    4    4    0    0 -0.97163531346E-01 -0.12969845702E-01 -0.24220963270E-01  0.10097467457E+00  0.51100000000E-03 0.  1.
         11    1    4    4    0    0 -0.34860070568E-01 -0.36836942165E-02 -0.21156819710E-01  0.40947115458E-01  0.51100000000E-03 0. -1.
</event>
<event>
 8    1  0.1082757E+005  0.1043930E+01  0.7957747E-01            NaN
         13   -1    0    0    0    0  0.00000000000E+00  0.00000000000E+00  0.74505805969E-08  0.10566000000E+00  0.10566000000E+00 0. -1.
     999900   -1    0    0    0    0 -0.00000000000E+00 -0.00000000000E+00 -0.74505805969E-08  0.93827000000E+00  0.93827000000E+00 0. -1.
     999902    2    1    2    0    0 -0.17795382612E-01 -0.97914248677E-02 -0.13337361145E-01  0.10196311760E+01  0.10193416024E+01 0.  0.
     999903    2    3    3    0    0 -0.31127669605E-02  0.12721870437E+00 -0.50617717476E-02  0.12886979380E+00  0.19685379359E-01 0.  0.
         14    1    1    2    0    0  0.17795382612E-01  0.97914248677E-02  0.13337361145E-01  0.24298823954E-01  0.00000000000E+00 0. -1.
     999901    1    3    3    0    0 -0.14682615651E-01 -0.13701012924E+00 -0.82755893973E-02  0.89076138224E+00  0.88000000000E+00 0.  1.
        -11    1    4    4    0    0  0.57358137288E-02  0.68209524459E-01  0.37337859021E-02  0.68553928146E-01  0.51100000000E-03 0.  1.
         11    1    4    4    0    0 -0.88485806893E-02  0.59009179915E-01 -0.87955576498E-02  0.60315865656E-01  0.51100000000E-03 0. -1.
</event>
<event>
 8    1  0.1082757E+005  0.1043930E+01  0.7957747E-01            NaN
         13   -1    0    0    0    0  0.00000000000E+00  0.00000000000E+00  0.74505805969E-08  0.10566000000E+00  0.10566000000E+00 0. -1.
     999900   -1    0    0    0    0 -0.00000000000E+00 -0.00000000000E+00 -0.74505805969E-08  0.93827000000E+00  0.93827000000E+00 0. -1.
     999902    2    1    2    0    0 -0.89206345871E-03 -0.25041843852E-01 -0.17444877802E-01  0.10133978287E+01  0.10129377798E+01 0.  0.
     999903    2    3    3    0    0  0.11877388016E+00 -0.11472823153E-01  0.27491049967E-01  0.12405914522E+00  0.19901090579E-01 0.  0.
         14    1    1    2    0    0  0.89206345871E-03  0.25041843852E-01  0.17444877802E-01  0.30532171266E-01  0.00000000000E+00 0. -1.
     999901    1    3    3    0    0 -0.11966594362E+00 -0.13569020699E-01 -0.44935927769E-01  0.88933868351E+00  0.88000000000E+00 0. -1.
        -11    1    4    4    0    0  0.22475817900E-01 -0.43121735695E-02  0.13249492109E-01  0.26449336349E-01  0.51100000000E-03 0. -1.
         11    1    4    4    0    0  0.96298062258E-01 -0.71606495837E-02  0.14241557858E-01  0.97609808874E-01  0.51100000000E-03 0.  1.
</event>
<event>
 8    1  0.1082757E+005  0.1043930E+01  0.7957747E-01            NaN
         13   -1    0    0    0    0  0.00000000000E+00  0.00000000000E+00  0.74505805969E-08  0.10566000000E+00  0.10566000000E+00 0. -1.
     999900   -1    0    0    0    0 -0.00000000000E+00 -0.00000000000E+00 -0.74505805969E-08  0.93827000000E+00  0.93827000000E+00 0.  1.
     999902    2    1    2    0    0  0.22721759163E-01  0.31344351408E-02 -0.67289480902E-02  0.10200264068E+01  0.10197462865E+01 0.  0.
     999903    2    3    3    0    0 -0.74497410400E-01  0.10358934957E+00  0.40604915724E-03  0.12896318522E+00  0.18727540289E-01 0.  0.
         14    1    1    2    0    0 -0.22721759163E-01 -0.31344351408E-02  0.67289480902E-02  0.23903593151E-01  0.00000000000E+00 0. -1.
     999901    1    3    3    0    0  0.97219169563E-01 -0.10045491442E+00 -0.71349972474E-02  0.89106322163E+00  0.88000000000E+00 0.  1.
        -11    1    4    4    0    0 -0.11882185273E-01  0.17394593039E-01  0.70442409159E-02  0.22218025226E-01  0.51100000000E-03 0.  1.
         11    1    4    4    0    0 -0.62615225127E-01  0.86194756526E-01 -0.66381917586E-02  0.10674515999E+00  0.51100000000E-03 0. -1.
</event>
<event>
 8    1  0.1082757E+005  0.1043930E+01  0.7957747E-01            NaN
         13   -1    0    0    0    0  0.00000000000E+00  0.00000000000E+00  0.74505805969E-08  0.10566000000E+00  0.10566000000E+00 0.  1.
     999900   -1    0    0    0    0 -0.00000000000E+00 -0.00000000000E+00 -0.74505805969E-08  0.93827000000E+00  0.93827000000E+00 0. -1.
     999902    2    1    2    0    0  0.54079844602E-02 -0.46790502481E-02  0.22959348951E-01  0.10198827234E+01  0.10195991850E+01 0.  0.
     999903    2    3    3    0    0 -0.10904636566E+00 -0.32451465868E-01  0.60289361648E-01  0.13125195916E+00  0.25457064920E-01 0.  0.
         14    1    1    2    0    0 -0.54079844602E-02  0.46790502481E-02 -0.22959348951E-01  0.24047276590E-01  0.00000000000E+00 0. -1.
     999901    1    3    3    0    0  0.11445435012E+00  0.27772415620E-01 -0.37330012697E-01  0.88863076425E+00  0.88000000000E+00 0.  1.
        -11    1    4    4    0    0 -0.93218490032E-01 -0.19493700347E-01  0.55533062916E-01  0.11024460728E+00  0.51100000000E-03 0.  1.
         11    1    4    4    0    0 -0.15827875625E-01 -0.12957765521E-01  0.47562987321E-02  0.21007351873E-01  0.51100000000E-03 0. -1.
</event>
<event>
 8    1  0.1082757E+005  0.1043930E+01  0.7957747E-01            NaN
         13   -1    0    0    0    0  0.00000000000E+00  0.00000000000E+00  0.74505805969E-08  0.10566000000E+00  0.10566000000E+00 0.  1.
     999900   -1    0    0    0    0 -0.00000000000E+00 -0.00000000000E+00 -0.74505805969E-08  0.93827000000E+00  0.93827000000E+00 0. -1.
     999902    2    1    2    0    0  0.38178746622E-02 -0.12292960122E-01  0.19443384699E-01  0.10206118044E+01  0.10203453911E+01 0.  0.
     999903    2    3    3    0    0 -0.34331512556E-01  0.10044021132E+00 -0.69523277990E-01  0.12815496472E+00  0.17981101074E-01 0.  0.
         14    1    1    2    0    0 -0.38178746622E-02  0.12292960122E-01 -0.19443384699E-01  0.23318195557E-01  0.00000000000E+00 0. -1.
     999901    1    3    3    0    0  0.38149387218E-01 -0.11273317145E+00  0.88966662689E-01  0.89245683972E+00  0.88000000000E+00 0.  1.
        -11    1    4    4    0    0 -0.11205678284E-01  0.55154144648E-01 -0.30207329037E-01  0.63877153554E-01  0.51100000000E-03 0. -1.
         11    1    4    4    0    0 -0.23125834271E-01  0.45286066677E-01 -0.39315948953E-01  0.64277811171E-01  0.51100000000E-03 0.  1.
</event>
<event>
 8    1  0.1082757E+005  0.1043930E+01  0.7957747E-01            NaN
         13   -1    0    0    0    0  0.00000000000E+00  0.00000000000E+00  0.74505805969E-08  0.10566000000E+00  0.10566000000E+00 0.  1.
     999900   -1    0    0    0    0 -0.00000000000E+00 -0.00000000000E+00 -0.74505805969E-08  0.93827000000E+00  0.93827000000E+00 0.  1.
     999902    2    1    2    0    0 -0.10238195931E-01  0.14965814580E-01 -0.14274440273E-01  0.10208528271E+01  0.10205919551E+01 0.  0.
     999903    2    3    3    0    0  0.95364419723E-01 -0.29064934165E-01 -0.82423209724E-01  0.13083323520E+00  0.19611399347E-01 0.  0.
         14    1    1    2    0    0  0.10238195931E-01 -0.14965814580E-01  0.14274440273E-01  0.23077172856E-01  0.00000000000E+00 0.  1.
     999901    1    3    3    0    0 -0.10560261565E+00  0.44030748744E-01  0.68148769451E-01  0.89001959194E+00  0.88000000000E+00 0. -1.
        -11    1    4    4    0    0  0.41823638843E-01 -0.20099418853E-01 -0.46760513605E-01  0.65878753464E-01  0.51100000000E-03 0. -1.
         11    1    4    4    0    0  0.53540780880E-01 -0.89655153117E-02 -0.35662696118E-01  0.64954481735E-01  0.51100000000E-03 0.  1.
</event>
<event>
 8    1  0.1082757E+005  0.1043930E+01  0.7957747E-01            NaN
         13   -1    0    0    0    0  0.00000000000E+00  0.00000000000E+00  0.74505805969E-08  0.10566000000E+00  0.10566000000E+00 0.  1.
     999900   -1    0    0    0    0 -0.00000000000E+00 -0.00000000000E+00 -0.74505805969E-08  0.93827000000E+00  0.93827000000E+00 0. -1.
     999902    2    1    2    0    0  0.23007139755E-01 -0.38027122661E-02 -0.71882738896E-02  0.10195279431E+01  0.10192358738E+01 0.  0.
     999903    2    3    3    0    0 -0.12543777021E+00  0.28830877872E-02  0.52137429636E-02  0.12698416195E+00  0.18837406417E-01 0.  0.
         14    1    1    2    0    0 -0.23007139755E-01  0.38027122661E-02  0.71882738896E-02  0.24402056918E-01  0.00000000000E+00 0.  1.
     999901    1    3    3    0    0  0.14844490996E+00 -0.66858000534E-02 -0.12402016853E-01  0.89254378113E+00  0.88000000000E+00 0.  1.
        -11    1    4    4    0    0 -0.64793104178E-01  0.87425588783E-02 -0.32867988246E-02  0.65464821486E-01  0.51100000000E-03 0.  1.
         11    1    4    4    0    0 -0.60644666030E-01 -0.58594710911E-02  0.85005417882E-02  0.61519340463E-01  0.51100000000E-03 0. -1.
</event>
<event>
 8    1  0.1082757E+005  0.1043930E+01  0.7957747E-01            NaN
         13   -1    0    0    0    0  0.00000000000E+00  0.00000000000E+00  0.74505805969E-08  0.10566000000E+00  0.10566000000E+00 0. -1.
     999900   -1    0    0    0    0 -0.00000000000E+00 -0.00000000000E+00 -0.74505805969E-08  0.93827000000E+00  0.93827000000E+00 0. -1.
     999902    2    1    2    0    0  0.63012848504E-02  0.10750235194E-01  0.22001245047E-01  0.10186450533E+01  0.10183311917E+01 0.  0.
     999903    2    3    3    0    0 -0.25175725226E-01  0.87294117693E-01 -0.87412264617E-01  0.12801545338E+00  0.22202976675E-01 0.  0.
         14    1    1    2    0    0 -0.63012848504E-02 -0.10750235194E-01 -0.22001245047E-01  0.25284946729E-01  0.00000000000E+00 0.  1.
     999901    1    3    3    0    0  0.31477010077E-01 -0.76543882499E-01  0.10941350966E+00  0.89062959989E+00  0.88000000000E+00 0.  1.
        -11    1    4    4    0    0 -0.57820643957E-02  0.41078545686E-02 -0.12595465321E-01  0.14464218108E-01  0.51100000000E-03 0.  1.
         11    1    4    4    0    0 -0.19393660830E-01  0.83186263124E-01 -0.74816799296E-01  0.11355123527E+00  0.51100000000E-03 0. -1.
</event>
<event>
 7    1  0.1082757E+005  0.1043930E+01  0.7957747E-01            NaN
         13   -1    0    0    0    0  0.00000000000E+00  0.00000000000E+00  0.74505805969E-08  0.10566000000E+00  0.10566000000E+00 0.  1.
     999900   -1    0    0    0    0 -0.00000000000E+00 -0.00000000000E+00 -0.74505805969E-08  0.93827000000E+00  0.93827000000E+00 0. -1.
     999903    2    1    2    0    0  0.67300787318E-01 -0.81056428026E-01 -0.50200235079E-01  0.11837105812E+00  0.19801598461E-01 0.  0.
         14    1    1    2    0    0 -0.14741098757E-01  0.23891598847E-01  0.31150319082E-01  0.41933886857E-01  0.00000000000E+00 0.  1.
     999901    1    1    2    0    0 -0.52559688562E-01  0.57164829178E-01  0.19049915997E-01  0.88362505502E+00  0.88000000000E+00 0.  1.
        -11    1    3    3    0    0  0.17726067668E-01 -0.23187392483E-01 -0.24000360596E-01  0.37790833212E-01  0.51100000000E-03 0.  1.
         11    1    3    3    0    0  0.49574719650E-01 -0.57869035542E-01 -0.26199874483E-01  0.80580224912E-01  0.51100000000E-03 0. -1.
</event>
<event>
 8    1  0.1082757E+005  0.1043930E+01  0.7957747E-01            NaN
         13   -1    0    0    0    0  0.00000000000E+00  0.00000000000E+00  0.74505805969E-08  0.10566000000E+00  0.10566000000E+00 0. -1.
     999900   -1    0    0    0    0 -0.00000000000E+00 -0.00000000000E+00 -0.74505805969E-08  0.93827000000E+00  0.93827000000E+00 0. -1.
     999902    2    1    2    0    0  0.98921882083E-02 -0.18391251501E-01 -0.10044033548E-01  0.10207572546E+01  0.10204941924E+01 0.  0.
     999903    2    3    3    0    0  0.11356875921E+00  0.46365592267E-02 -0.65459403208E-01  0.13264128547E+00  0.19733636077E-01 0.  0.
         14    1    1    2    0    0 -0.98921882083E-02  0.18391251501E-01  0.10044033548E-01  0.23172745397E-01  0.00000000000E+00 0.  1.
     999901    1    3    3    0    0 -0.10367657100E+00 -0.23027810727E-01  0.55415369660E-01  0.88811596914E+00  0.88000000000E+00 0.  1.
        -11    1    4    4    0    0  0.91941725966E-01  0.52605167445E-02 -0.43643377030E-01  0.10191152776E+00  0.51100000000E-03 0.  1.
         11    1    4    4    0    0  0.21627033240E-01 -0.62395751780E-03 -0.21816026177E-01  0.30729757710E-01  0.51100000000E-03 0. -1.
</event>
<event>
 8    1  0.1082757E+005  0.1043930E+01  0.7957747E-01            NaN
         13   -1    0    0    0    0  0.00000000000E+00  0.00000000000E+00  0.74505805969E-08  0.10566000000E+00  0.10566000000E+00 0. -1.
     999900   -1    0    0    0    0 -0.00000000000E+00 -0.00000000000E+00 -0.74505805969E-08  0.93827000000E+00  0.93827000000E+00 0.  1.
     999902    2    1    2    0    0 -0.17745150021E-01  0.37186290861E-02 -0.13168243184E-01  0.10215219394E+01  0.10212761387E+01 0.  0.
     999903    2    3    3    0    0  0.11982953014E+00 -0.18181327367E-01 -0.41840867713E-01  0.13010255431E+00  0.22053105647E-01 0.  0.
         14    1    1    2    0    0  0.17745150021E-01 -0.37186290861E-02  0.13168243184E-01  0.22408060606E-01  0.00000000000E+00 0. -1.
     999901    1    3    3    0    0 -0.13757468016E+00  0.21899956453E-01  0.28672624529E-01  0.89141938509E+00  0.88000000000E+00 0. -1.
        -11    1    4    4    0    0  0.91132134401E-01 -0.23213877828E-01 -0.31331522209E-01  0.99125553967E-01  0.51100000000E-03 0.  1.
         11    1    4    4    0    0  0.28697395735E-01  0.50325504617E-02 -0.10509345503E-01  0.30977000340E-01  0.51100000000E-03 0. -1.
</event>
<event>
 8    1  0.1181223E+005  0.1043930E+01  0.7957747E-01            NaN
         13   -1    0    0    0    0  0.00000000000E+00  0.00000000000E+00  0.74505805969E-08  0.10566000000E+00  0.10566000000E+00 0. -1.
     999900   -1    0    0    0    0 -0.00000000000E+00 -0.00000000000E+00 -0.74505805969E-08  0.93827000000E+00  0.93827000000E+00 0. -1.
     999902    2    1    2    0    0  0.14725383226E-02 -0.24704656566E-01 -0.96298064693E-02  0.10173739913E+01  0.10170273431E+01 0.  0.
     999903    2    3    3    0    0  0.12369026816E+00 -0.10781109117E-01 -0.27171194775E-01  0.12864527062E+00  0.19895152109E-01 0.  0.
         14    1    1    2    0    0 -0.14725383226E-02  0.24704656566E-01  0.96298064693E-02  0.26556008695E-01  0.00000000000E+00 0. -1.
     999901    1    3    3    0    0 -0.12221772984E+00 -0.13923547450E-01  0.17541388306E-01  0.88872872068E+00  0.88000000000E+00 0. -1.
        -11    1    4    4    0    0  0.59486678637E-01 -0.15148484990E-01 -0.12919865277E-01  0.62732173345E-01  0.51100000000E-03 0. -1.
         11    1    4    4    0    0  0.64203589521E-01  0.43673758736E-02 -0.14251329498E-01  0.65913097279E-01  0.51100000000E-03 0.  1.
</event>
<event>
 8    1  0.1082757E+005  0.1043930E+01  0.7957747E-01            NaN
         13   -1    0    0    0    0  0.00000000000E+00  0.00000000000E+00  0.74505805969E-08  0.10566000000E+00  0.10566000000E+00 0. -1.
     999900   -1    0    0    0    0 -0.00000000000E+00 -0.00000000000E+00 -0.74505805969E-08  0.93827000000E+00  0.93827000000E+00 0. -1.
     999902    2    1    2    0    0 -0.67485493162E-02 -0.23061353753E-01  0.38755640319E-02  0.10195909583E+01  0.10193004137E+01 0.  0.
     999903    2    3    3    0    0 -0.12153497228E+00  0.25677283391E-01  0.33077986959E-01  0.13031925675E+00  0.21421556691E-01 0.  0.
         14    1    1    2    0    0  0.67485493162E-02  0.23061353753E-01 -0.38755640319E-02  0.24339041710E-01  0.00000000000E+00 0.  1.
     999901    1    3    3    0    0  0.11478642296E+00 -0.48738637144E-01 -0.29202422927E-01  0.88927170154E+00  0.88000000000E+00 0. -1.
        -11    1    4    4    0    0 -0.10254324218E-01  0.57009695387E-02 -0.20627733038E-02  0.11923437992E-01  0.51100000000E-03 0. -1.
         11    1    4    4    0    0 -0.11128064806E+00  0.19976313852E-01  0.35140760262E-01  0.11839581876E+00  0.51100000000E-03 0.  1.
</event>
<event>
 8    1  0.1082757E+005  0.1043930E+01  0.7957747E-01            NaN
         13   -1    0    0    0    0  0.00000000000E+00  0.00000000000E+00  0.74505805969E-08  0.10566000000E+00  0.10566000000E+00 0. -1.
     999900   -1    0    0    0    0 -0.00000000000E+00 -0.00000000000E+00 -0.74505805969E-08  0.93827000000E+00  0.93827000000E+00 0.  1.
     999902    2    1    2    0    0 -0.15754511154E-01  0.11690146087E-01  0.12639340877E-01  0.10205929677E+01  0.10203261188E+01 0.  0.
     999903    2    3    3    0    0 -0.10126146267E+00 -0.41541687623E-01 -0.69293207002E-01  0.13106612200E+00  0.19929479868E-01 0.  0.
         14    1    1    2    0    0  0.15754511154E-01 -0.11690146087E-01 -0.12639340877E-01  0.23337032267E-01  0.00000000000E+00 0. -1.
     999901    1    3    3    0    0  0.85506951512E-01  0.53231833709E-01  0.81932547880E-01  0.88952684573E+00  0.88000000000E+00 0. -1.
        -11    1    4    4    0    0 -0.54600150779E-01 -0.20099675703E-01 -0.48171220043E-01  0.75537414504E-01  0.51100000000E-03 0. -1.
         11    1    4    4    0    0 -0.46661311887E-01 -0.21442011919E-01 -0.21121986959E-01  0.55528707497E-01  0.51100000000E-03 0.  1.
</event>
<event>
 7    1  0.1082757E+005  0.1043930E+01  0.7957747E-01            NaN
         13   -1    0    0    0    0  0.00000000000E+00  0.00000000000E+00  0.74505805969E-08  0.10566000000E+00  0.10566000000E+00 0. -1.
     999900   -1    0    0    0    0 -0.00000000000E+00 -0.00000000000E+00 -0.74505805969E-08  0.93827000000E+00  0.93827000000E+00 0. -1.
     999903    2    1    2    0    0 -0.56803314194E-01 -0.46880238634E-01 -0.80906592033E-01  0.11180309812E+00  0.23014839520E-01 0.  0.
         14    1    1    2    0    0 -0.19569189180E-02 -0.42108690431E-01  0.24941519260E-02  0.42227859705E-01  0.00000000000E+00 0. -1.
     999901    1    1    2    0    0  0.58760233112E-01  0.88988929065E-01  0.78412440107E-01  0.88989904217E+00  0.88000000000E+00 0. -1.
        -11    1    3    3    0    0 -0.27616202004E-01 -0.90875976402E-02 -0.25684211671E-01  0.38796635088E-01  0.51100000000E-03 0. -1.
         11    1    3    3    0    0 -0.29187112189E-01 -0.37792640994E-01 -0.55222380362E-01  0.73006463036E-01  0.51100000000E-03 0.  1.
</event>
<event>
 8    1  0.1082757E+005  0.1043930E+01  0.7957747E-01            NaN
         13   -1    0    0    0    0  0.00000000000E+00  0.00000000000E+00  0.74505805969E-08  0.10566000000E+00  0.10566000000E+00 0.  1.
     999900   -1    0    0    0    0 -0.00000000000E+00 -0.00000000000E+00 -0.74505805969E-08  0.93827000000E+00  0.93827000000E+00 0. -1.
     999902    2    1    2    0    0 -0.63443430569E-02 -0.23268581281E-01 -0.33082968480E-02  0.10195861632E+01  0.10192955027E+01 0.  0.
     999903    2    3    3    0    0 -0.10389177191E+00  0.49354477855E-01  0.55704491099E-01  0.12926480616E+00  0.19417389847E-01 0.  0.
         14    1    1    2    0    0  0.63443430569E-02  0.23268581281E-01  0.33082968480E-02  0.24343836832E-01  0.00000000000E+00 0. -1.
     999901    1    3    3    0    0  0.97547428857E-01 -0.72623059136E-01 -0.59012787947E-01  0.89032135700E+00  0.88000000000E+00 0. -1.
        -11    1    4    4    0    0 -0.35093985316E-01  0.26338440069E-01  0.17193695668E-01  0.47129454934E-01  0.51100000000E-03 0. -1.
         11    1    4    4    0    0 -0.68797786598E-01  0.23016037786E-01  0.38510795431E-01  0.82135351231E-01  0.51100000000E-03 0.  1.
</event>
<event>
 8    1  0.1211812E+005  0.1043930E+01  0.7957747E-01            NaN
         13   -1    0    0    0    0  0.00000000000E+00  0.00000000000E+00  0.74505805969E-08  0.10566000000E+00  0.10566000000E+00 0. -1.
     999900   -1    0    0    0    0 -0.00000000000E+00 -0.00000000000E+00 -0.74505805969E-08  0.93827000000E+00  0.93827000000E+00 0. -1.
     999902    2    1    2    0    0  0.22968907655E-01  0.30350637736E-03  0.62434790908E-02  0.10201257175E+01  0.10198479473E+01 0.  0.
     999903    2    3    3    0    0  0.45438640840E-01 -0.45847763796E-02 -0.12051761168E+00  0.13074550725E+00  0.22004606041E-01 0.  0.
         14    1    1    2    0    0 -0.22968907655E-01 -0.30350637736E-03 -0.62434790908E-02  0.23804282517E-01  0.00000000000E+00 0.  1.
     999901    1    3    3    0    0 -0.22469733185E-01  0.48882827570E-02  0.12676109077E+00  0.88938021023E+00  0.88000000000E+00 0.  1.
        -11    1    4    4    0    0  0.95151898788E-02  0.12746732712E-02 -0.54643117097E-01  0.55482384569E-01  0.51100000000E-03 0.  1.
         11    1    4    4    0    0  0.35923450961E-01 -0.58594496509E-02 -0.65874494578E-01  0.75263122683E-01  0.51100000000E-03 0. -1.
</event>
<event>
 8    1  0.1082757E+005  0.1043930E+01  0.7957747E-01            NaN
         13   -1    0    0    0    0  0.00000000000E+00  0.00000000000E+00  0.74505805969E-08  0.10566000000E+00  0.10566000000E+00 0.  1.
     999900   -1    0    0    0    0 -0.00000000000E+00 -0.00000000000E+00 -0.74505805969E-08  0.93827000000E+00  0.93827000000E+00 0.  1.
     999902    2    1    2    0    0  0.35778817446E-02  0.21273539090E-01  0.11947715683E-01  0.10192700606E+01  0.10189717090E+01 0.  0.
     999903    2    3    3    0    0 -0.11698121309E+00 -0.39514488544E-01 -0.21645771865E-01  0.12833897340E+00  0.27501884177E-01 0.  0.
         14    1    1    2    0    0 -0.35778817446E-02 -0.21273539090E-01 -0.11947715683E-01  0.24659939441E-01  0.00000000000E+00 0.  1.
     999901    1    3    3    0    0  0.12055909484E+00  0.60788027634E-01  0.33593487549E-01  0.89093108715E+00  0.88000000000E+00 0.  1.
        -11    1    4    4    0    0 -0.47387036138E-01 -0.42817805696E-02 -0.15702268469E-01  0.50106757976E-01  0.51100000000E-03 0.  1.
         11    1    4    4    0    0 -0.69594176955E-01 -0.35232707974E-01 -0.59435033961E-02  0.78232215429E-01  0.51100000000E-03 0. -1.
</event>
<event>
 8    1  0.1082757E+005  0.1043930E+01  0.7957747E-01            NaN
         13   -1    0    0    0    0  0.00000000000E+00  0.00000000000E+00  0.74505805969E-08  0.10566000000E+00  0.10566000000E+00 0.  1.
     999900   -1    0    0    0    0 -0.00000000000E+00 -0.00000000000E+00 -0.74505805969E-08  0.93827000000E+00  0.93827000000E+00 0.  1.
     999902    2    1    2    0    0 -0.25248181960E-02  0.23057005314E-01  0.68352728412E-02  0.10197489918E+01  0.10194622530E+01 0.  0.
     999903    2    3    3    0    0 -0.74180558943E-01 -0.99559224306E-01  0.23823291869E-01  0.12820096860E+00  0.21287194387E-01 0.  0.
         14    1    1    2    0    0  0.25248181960E-02 -0.23057005314E-01 -0.68352728412E-02  0.24181008163E-01  0.00000000000E+00 0.  1.
     999901    1    3    3    0    0  0.71655740747E-01  0.12261622962E+00 -0.16988019028E-01  0.89154802324E+00  0.88000000000E+00 0. -1.
        -11    1    4    4    0    0 -0.14902357279E-01 -0.32761319320E-01  0.12850941059E-01  0.38220310087E-01  0.51100000000E-03 0.  1.
         11    1    4    4    0    0 -0.59278201664E-01 -0.66797904987E-01  0.10972350810E-01  0.89980658513E-01  0.51100000000E-03 0. -1.
</event>
<event>
 8    1  0.1082757E+005  0.1043930E+01  0.7957747E-01            NaN
         13   -1    0    0    0    0  0.00000000000E+00  0.00000000000E+00  0.74505805969E-08  0.10566000000E+00  0.10566000000E+00 0. -1.
     999900   -1    0    0    0    0 -0.00000000000E+00 -0.00000000000E+00 -0.74505805969E-08  0.93827000000E+00  0.93827000000E+00 0.  1.
     999902    2    1    2    0    0  0.14680662401E-01  0.60811698482E-02 -0.66488153340E-02  0.10267047505E+01  0.10265602444E+01 0.  0.
     999903    2    3    3    0    0 -0.19121175570E-01  0.11305545516E+00 -0.72755559133E-01  0.13712273429E+00  0.19029387224E-01 0.  0.
         14    1    1    2    0    0 -0.14680662401E-01 -0.60811698482E-02  0.66488153340E-02  0.17225249508E-01  0.00000000000E+00 0.  1.
     999901    1    3    3    0    0  0.33801837971E-01 -0.10697428531E+00  0.66106743799E-01  0.88958201620E+00  0.88000000000E+00 0. -1.
        -11    1    4    4    0    0 -0.16757354511E-01  0.69842873633E-01 -0.54439876201E-01  0.90126561952E-01  0.51100000000E-03 0. -1.
         11    1    4    4    0    0 -0.23638210586E-02  0.43212581530E-01 -0.18315682932E-01  0.46996172342E-01  0.51100000000E-03 0.  1.
</event>
<event>
 8    1  0.1082757E+005  0.1043930E+01  0.7957747E-01            NaN
         13   -1    0    0    0    0  0.00000000000E+00  0.00000000000E+00  0.74505805969E-08  0.10566000000E+00  0.10566000000E+00 0.  1.
     999900   -1    0    0    0    0 -0.00000000000E+00 -0.00000000000E+00 -0.74505805969E-08  0.93827000000E+00  0.93827000000E+00 0. -1.
     999902    2    1    2    0    0  0.20961851009E-01  0.99693375879E-02  0.70898564113E-03  0.10207073914E+01  0.10204431828E+01 0.  0.
     999903    2    3    3    0    0 -0.52015025159E-01 -0.70780214519E-01  0.92517340221E-01  0.12926199846E+00  0.20827971445E-01 0.  0.
         14    1    1    2    0    0 -0.20961851009E-01 -0.99693375879E-02 -0.70898564113E-03  0.23222608602E-01  0.00000000000E+00 0. -1.
     999901    1    3    3    0    0  0.72976876167E-01  0.80749552107E-01 -0.91808354580E-01  0.89144539294E+00  0.88000000000E+00 0. -1.
        -11    1    4    4    0    0 -0.44491804461E-01 -0.45188449788E-01  0.68731466045E-01  0.93518940349E-01  0.51100000000E-03 0.  1.
         11    1    4    4    0    0 -0.75232206978E-02 -0.25591764731E-01  0.23785874176E-01  0.35743058110E-01  0.51100000000E-03 0. -1.
</event>
<event>
 8    1  0.1082757E+005  0.1043930E+01  0.7957747E-01            NaN
         13   -1    0    0    0    0  0.00000000000E+00  0.00000000000E+00  0.74505805969E-08  0.10566000000E+00  0.10566000000E+00 0.  1.
     999900   -1    0    0    0    0 -0.00000000000E+00 -0.00000000000E+00 -0.74505805969E-08  0.93827000000E+00  0.93827000000E+00 0.  1.
     999902    2    1    2    0    0  0.12488627710E-01  0.21554175899E-02 -0.19645731364E-01  0.10205512402E+01  0.10202834251E+01 0.  0.
     999903    2    3    3    0    0  0.20187530298E-01  0.96798481027E-01 -0.86495144889E-01  0.13292213603E+00  0.20233681035E-01 0.  0.
         14    1    1    2    0    0 -0.12488627710E-01 -0.21554175899E-02  0.19645731364E-01  0.23378759759E-01  0.00000000000E+00 0. -1.
     999901    1    3    3    0    0 -0.76989025881E-02 -0.94643063437E-01  0.66849413525E-01  0.88762910421E+00  0.88000000000E+00 0. -1.
        -11    1    4    4    0    0  0.19853491021E-01  0.48535389621E-01 -0.40633600399E-01  0.66341508528E-01  0.51100000000E-03 0. -1.
         11    1    4    4    0    0  0.33403927691E-03  0.48263091406E-01 -0.45861544490E-01  0.66580627500E-01  0.51100000000E-03 0.  1.
</event>
<event>
 8    1  0.1082757E+005  0.1043930E+01  0.7957747E-01            NaN
         13   -1    0    0    0    0  0.00000000000E+00  0.00000000000E+00  0.74505805969E-08  0.10566000000E+00  0.10566000000E+00 0. -1.
     999900   -1    0    0    0    0 -0.00000000000E+00 -0.00000000000E+00 -0.74505805969E-08  0.93827000000E+00  0.93827000000E+00 0.  1.
     999902    2    1    2    0    0  0.68999796190E-02 -0.16890349312E-01 -0.15796079490E-01  0.10197968331E+01  0.10195112412E+01 0.  0.
     999903    2    3    3    0    0  0.55193274625E-02  0.12630856968E+00 -0.11447139127E-01  0.12821018564E+00  0.17958200274E-01 0.  0.
         14    1    1    2    0    0 -0.68999796190E-02  0.16890349312E-01  0.15796079490E-01  0.24133166926E-01  0.00000000000E+00 0. -1.
     999901    1    3    3    0    0  0.13806521565E-02 -0.14319891899E+00 -0.43489403630E-02  0.89158664743E+00  0.88000000000E+00 0.  1.
        -11    1    4    4    0    0 -0.62107346470E-02  0.59642461560E-01 -0.37988697399E-02  0.60087344575E-01  0.51100000000E-03 0. -1.
         11    1    4    4    0    0  0.11730062109E-01  0.66666108121E-01 -0.76482693870E-02  0.68122841064E-01  0.51100000000E-03 0.  1.
</event>
<event>
 8    1  0.1082757E+005  0.1043930E+01  0.7957747E-01            NaN
         13   -1    0    0    0    0  0.00000000000E+00  0.00000000000E+00  0.74505805969E-08  0.10566000000E+00  0.10566000000E+00 0. -1.
     999900   -1    0    0    0    0 -0.00000000000E+00 -0.00000000000E+00 -0.74505805969E-08  0.93827000000E+00  0.93827000000E+00 0.  1.
     999902    2    1    2    0    0  0.23850326275E-01  0.12784175850E-02 -0.14526910256E-03  0.10200449939E+01  0.10197653142E+01 0.  0.
     999903    2    3    3    0    0  0.12628342149E-01 -0.22814836904E-01 -0.12644623293E+00  0.13063038228E+00  0.19891082031E-01 0.  0.
         14    1    1    2    0    0 -0.23850326275E-01 -0.12784175850E-02  0.14526910256E-03  0.23885006135E-01  0.00000000000E+00 0. -1.
     999901    1    3    3    0    0  0.11221984126E-01  0.24093254489E-01  0.12630096383E+00  0.88941461159E+00  0.88000000000E+00 0. -1.
        -11    1    4    4    0    0  0.10747131023E-01 -0.22862757220E-01 -0.74900639484E-01  0.79047918436E-01  0.51100000000E-03 0.  1.
         11    1    4    4    0    0  0.18812111260E-02  0.47920316521E-04 -0.51545593444E-01  0.51582463844E-01  0.51100000000E-03 0. -1.
</event>
<event>
 8    1  0.1082757E+005  0.1043930E+01  0.7957747E-01            NaN
         13   -1    0    0    0    0  0.00000000000E+00  0.00000000000E+00  0.74505805969E-08  0.10566000000E+00  0.10566000000E+00 0.  1.
     999900   -1    0    0    0    0 -0.00000000000E+00 -0.00000000000E+00 -0.74505805969E-08  0.93827000000E+00  0.93827000000E+00 0.  1.
     999902    2    1    2    0    0  0.20485863633E-01 -0.10492119563E-01  0.19931275709E-02  0.10208274517E+01  0.10205659990E+01 0.  0.
     999903    2    3    3    0    0 -0.43356005996E-01 -0.86335950943E-01 -0.85619365006E-01  0.13093755964E+00  0.21916413496E-01 0.  0.
         14    1    1    2    0    0 -0.20485863633E-01  0.10492119563E-01 -0.19931275709E-02  0.23102548328E-01  0.00000000000E+00 0. -1.
     999901    1    3    3    0    0  0.63841869630E-01  0.75843831379E-01  0.87612492577E-01  0.88988989203E+00  0.88000000000E+00 0. -1.
        -11    1    4    4    0    0 -0.36103236781E-01 -0.69172085089E-01 -0.56396876394E-01  0.96276112560E-01  0.51100000000E-03 0. -1.
         11    1    4    4    0    0 -0.72527692154E-02 -0.17163865854E-01 -0.29222488612E-01  0.34661447085E-01  0.51100000000E-03 0.  1.
</event>
<event>
 8    1  0.1082757E+005  0.1043930E+01  0.7957747E-01            NaN
         13   -1    0    0    0    0  0.00000000000E+00  0.00000000000E+00  0.74505805969E-08  0.10566000000E+00  0.10566000000E+00 0.  1.
     999900   -1    0    0    0    0 -0.00000000000E+00 -0.00000000000E+00 -0.74505805969E-08  0.93827000000E+00  0.93827000000E+00 0. -1.
     999902    2    1    2    0    0 -0.21288683068E-01 -0.28690166464E-02  0.11201279451E-01  0.10197038170E+01  0.10194159928E+01 0.  0.
     999903    2    3    3    0    0  0.50023637110E-02 -0.10042701682E+00  0.81940753402E-01  0.13110218759E+00  0.19049597741E-01 0.  0.
         14    1    1    2    0    0  0.21288683068E-01  0.28690166464E-02 -0.11201279451E-01  0.24226183039E-01  0.00000000000E+00 0. -1.
     999901    1    3    3    0    0 -0.26291046779E-01  0.97558000173E-01 -0.70739473951E-01  0.88860162937E+00  0.88000000000E+00 0. -1.
        -11    1    4    4    0    0 -0.39882374250E-02 -0.59770079810E-01  0.56237124320E-01  0.82165952505E-01  0.51100000000E-03 0. -1.
         11    1    4    4    0    0  0.89906011360E-02 -0.40656937009E-01  0.25703629081E-01  0.48936235089E-01  0.51100000000E-03 0.  1.
</event>
<event>
 8    1  0.1082757E+005  0.1043930E+01  0.7957747E-01            NaN
         13   -1    0    0    0    0  0.00000000000E+00  0.00000000000E+00  0.74505805969E-08  0.10566000000E+00  0.10566000000E+00 0.  1.
     999900   -1    0    0    0    0 -0.00000000000E+00 -0.00000000000E+00 -0.74505805969E-08  0.93827000000E+00  0.93827000000E+00 0. -1.
     999902    2    1    2    0    0 -0.90990761431E-02  0.13163899029E-01 -0.18391120164E-01  0.10195514290E+01  0.10192599284E+01 0.  0.
     999903    2    3    3    0    0 -0.12279164458E+00  0.22476145728E-01 -0.34988205560E-01  0.13203343969E+00  0.25013787469E-01 0.  0.
         14    1    1    2    0    0  0.90990761431E-02 -0.13163899029E-01  0.18391120164E-01  0.24378571024E-01  0.00000000000E+00 0.  1.
     999901    1    3    3    0    0  0.11369256844E+00 -0.93122466985E-02  0.16597085397E-01  0.88751798928E+00  0.88000000000E+00 0. -1.
        -11    1    4    4    0    0 -0.97728937466E-01  0.17095774903E-01 -0.37948894400E-01  0.10622424603E+00  0.51100000000E-03 0. -1.
         11    1    4    4    0    0 -0.25062707114E-01  0.53803708242E-02  0.29606888394E-02  0.25809193662E-01  0.51100000000E-03 0.  1.
</event>
<event>
 8    1  0.1082757E+005  0.1043930E+01  0.7957747E-01            NaN
         13   -1    0    0    0    0  0.00000000000E+00  0.00000000000E+00  0.74505805969E-08  0.10566000000E+00  0.10566000000E+00 0. -1.
     999900   -1    0    0    0    0 -0.00000000000E+00 -0.00000000000E+00 -0.74505805969E-08  0.93827000000E+00  0.93827000000E+00 0.  1.
     999902    2    1    2    0    0 -0.22001904737E-01  0.24937737130E-03 -0.54933080602E-02  0.10212513220E+01  0.10209994811E+01 0.  0.
     999903    2    3    3    0    0  0.82164831609E-01 -0.85625938017E-01 -0.48612929396E-01  0.12991267679E+00  0.20765978690E-01 0.  0.
         14    1    1    2    0    0  0.22001904737E-01 -0.24937737130E-03  0.54933080602E-02  0.22678677972E-01  0.00000000000E+00 0. -1.
     999901    1    3    3    0    0 -0.10416673635E+00  0.85875315389E-01  0.43119621335E-01  0.89133864524E+00  0.88000000000E+00 0.  1.
        -11    1    4    4    0    0  0.23993376649E-01 -0.13199226465E-01 -0.14159444837E-01  0.30832656411E-01  0.51100000000E-03 0.  1.
         11    1    4    4    0    0  0.58171454960E-01 -0.72426711553E-01 -0.34453484558E-01  0.99080020376E-01  0.51100000000E-03 0. -1.
</event>
<event>
 8    1  0.1082757E+005  0.1043930E+01  0.7957747E-01            NaN
         13   -1    0    0    0    0  0.00000000000E+00  0.00000000000E+00  0.74505805969E-08  0.10566000000E+00  0.10566000000E+00 0. -1.
     999900   -1    0    0    0    0 -0.00000000000E+00 -0.00000000000E+00 -0.74505805969E-08  0.93827000000E+00  0.93827000000E+00 0.  1.
     999902    2    1    2    0    0 -0.28070836569E-01  0.13550698504E-02  0.30426799862E-02  0.10156622448E+01  0.10152687967E+01 0.  0.
     999903    2    3    3    0    0 -0.19995798371E-01  0.95219177717E-01 -0.78595331198E-01  0.12687630782E+00  0.21303700189E-01 0.  0.
         14    1    1    2    0    0  0.28070836569E-01 -0.13550698504E-02 -0.30426799862E-02  0.28267755155E-01  0.00000000000E+00 0.  1.
     999901    1    3    3    0    0 -0.80750381983E-02 -0.93864107867E-01  0.81638011184E-01  0.88878593703E+00  0.88000000000E+00 0. -1.
        -11    1    4    4    0    0 -0.12817056187E-01  0.40420101810E-01 -0.46627939451E-01  0.63027671844E-01  0.51100000000E-03 0. -1.
         11    1    4    4    0    0 -0.71787421839E-02  0.54799075907E-01 -0.31967391747E-01  0.63848635974E-01  0.51100000000E-03 0.  1.
</event>
<event>
 8    1  0.1082757E+005  0.1043930E+01  0.7957747E-01            NaN
         13   -1    0    0    0    0  0.00000000000E+00  0.00000000000E+00  0.74505805969E-08  0.10566000000E+00  0.10566000000E+00 0.  1.
     999900   -1    0    0    0    0 -0.00000000000E+00 -0.00000000000E+00 -0.74505805969E-08  0.93827000000E+00  0.93827000000E+00 0.  1.
     999902    2    1    2    0    0  0.20247656965E-01  0.54318354145E-02  0.89869618584E-02  0.10211212751E+01  0.10208665047E+01 0.  0.
     999903    2    3    3    0    0  0.48793880513E-01  0.54880360291E-01 -0.10746319119E+00  0.13161541135E+00  0.19534132243E-01 0.  0.
         14    1    1    2    0    0 -0.20247656965E-01 -0.54318354145E-02 -0.89869618584E-02  0.22808724909E-01  0.00000000000E+00 0. -1.
     999901    1    3    3    0    0 -0.28546223548E-01 -0.49448524876E-01  0.11645015305E+00  0.88950586374E+00  0.88000000000E+00 0. -1.
        -11    1    4    4    0    0  0.20485306237E-01  0.34750224249E-01 -0.67753585063E-01  0.78854519635E-01  0.51100000000E-03 0. -1.
         11    1    4    4    0    0  0.28308574276E-01  0.20130136042E-01 -0.39709606124E-01  0.52760891711E-01  0.51100000000E-03 0.  1.
</event>
<event>
 8    1  0.1082757E+005  0.1043930E+01  0.7957747E-01            NaN
         13   -1    0    0    0    0  0.00000000000E+00  0.00000000000E+00  0.74505805969E-08  0.10566000000E+00  0.10566000000E+00 0.  1.
     999900   -1    0    0    0    0 -0.00000000000E+00 -0.00000000000E+00 -0.74505805969E-08  0.93827000000E+00  0.93827000000E+00 0.  1.
     999902    2    1    2    0    0 -0.20254830736E-01 -0.48125315559E-02 -0.10456545882E-01  0.10206328332E+01  0.10203669057E+01 0.  0.
     999903    2    3    3    0    0 -0.11809201020E+00 -0.49418526941E-01  0.30334366335E-01  0.13315004070E+00  0.20514528453E-01 0.  0.
         14    1    1    2    0    0  0.20254830736E-01  0.48125315559E-02  0.10456545882E-01  0.23297166778E-01  0.00000000000E+00 0.  1.
     999901    1    3    3    0    0  0.97837179467E-01  0.44605995385E-01 -0.40790912217E-01  0.88748279253E+00  0.88000000000E+00 0. -1.
        -11    1    4    4    0    0 -0.42497540889E-01 -0.23719504606E-01  0.30309916020E-02  0.48765806785E-01  0.51100000000E-03 0. -1.
         11    1    4    4    0    0 -0.75594469314E-01 -0.25699022335E-01  0.27303374733E-01  0.84384233910E-01  0.51100000000E-03 0.  1.
</event>
<event>
 8    1  0.1082757E+005  0.1043930E+01  0.7957747E-01            NaN
         13   -1    0    0    0    0  0.00000000000E+00  0.00000000000E+00  0.74505805969E-08  0.10566000000E+00  0.10566000000E+00 0. -1.
     999900   -1    0    0    0    0 -0.00000000000E+00 -0.00000000000E+00 -0.74505805969E-08  0.93827000000E+00  0.93827000000E+00 0.  1.
     999902    2    1    2    0    0 -0.23783448780E-01 -0.37071863553E-02 -0.45238077583E-02  0.10194379502E+01  0.10191436964E+01 0.  0.
     999903    2    3    3    0    0 -0.80979626818E-01  0.10209626347E+00  0.92270647532E-02  0.13115035079E+00  0.11572761722E-01 0.  0.
         14    1    1    2    0    0  0.23783448780E-01  0.37071863553E-02  0.45238077583E-02  0.24492049796E-01  0.00000000000E+00 0.  1.
     999901    1    3    3    0    0  0.57196178038E-01 -0.10580344983E+00 -0.13750872511E-01  0.88828759941E+00  0.88000000000E+00 0. -1.
        -11    1    4    4    0    0 -0.18934848488E-01  0.24949825185E-01 -0.26557340785E-02  0.31437816535E-01  0.51100000000E-03 0. -1.
         11    1    4    4    0    0 -0.62044778330E-01  0.77146438288E-01  0.11882798832E-01  0.99712534255E-01  0.51100000000E-03 0.  1.
</event>
<event>
 8    1  0.1082757E+005  0.1043930E+01  0.7957747E-01            NaN
         13   -1    0    0    0    0  0.00000000000E+00  0.00000000000E+00  0.74505805969E-08  0.10566000000E+00  0.10566000000E+00 0. -1.
     999900   -1    0    0    0    0 -0.00000000000E+00 -0.00000000000E+00 -0.74505805969E-08  0.93827000000E+00  0.93827000000E+00 0. -1.
     999902    2    1    2    0    0 -0.17881140076E-01 -0.18234204982E-01 -0.41523032617E-02  0.10180560165E+01  0.10177271686E+01 0.  0.
     999903    2    3    3    0    0  0.17686834725E-02  0.11783952066E+00 -0.41559755923E-01  0.12659570221E+00  0.20247904468E-01 0.  0.
         14    1    1    2    0    0  0.17881140076E-01  0.18234204982E-01  0.41523032617E-02  0.25873983538E-01  0.00000000000E+00 0. -1.
     999901    1    3    3    0    0 -0.19649823548E-01 -0.13607372564E+00  0.37407452661E-01  0.89146031425E+00  0.88000000000E+00 0.  1.
        -11    1    4    4    0    0 -0.55395576278E-02  0.33050686287E-01 -0.46687405273E-02  0.33839220172E-01  0.51100000000E-03 0. -1.
         11    1    4    4    0    0  0.73082411004E-02  0.84788834370E-01 -0.36891015396E-01  0.92756482036E-01  0.51100000000E-03 0.  1.
</event>
<event>
 8    1  0.1082757E+005  0.1043930E+01  0.7957747E-01            NaN
         13   -1    0    0    0    0  0.00000000000E+00  0.00000000000E+00  0.74505805969E-08  0.10566000000E+00  0.10566000000E+00 0. -1.
     999900   -1    0    0    0    0 -0.00000000000E+00 -0.00000000000E+00 -0.74505805969E-08  0.93827000000E+00  0.93827000000E+00 0. -1.
     999902    2    1    2    0    0 -0.11144854204E-01  0.20886185439E-01  0.26354004101E-02  0.10201101374E+01  0.10198319992E+01 0.  0.
     999903    2    3    3    0    0  0.66946443574E-01 -0.10212767775E+00  0.31406812815E-01  0.12766492595E+00  0.20001413857E-01 0.  0.
         14    1    1    2    0    0  0.11144854204E-01 -0.20886185439E-01 -0.26354004101E-02  0.23819862568E-01  0.00000000000E+00 0. -1.
     999901    1    3    3    0    0 -0.78091297779E-01  0.12301386319E+00 -0.28771412405E-01  0.89244521148E+00  0.88000000000E+00 0. -1.
        -11    1    4    4    0    0  0.61339287990E-01 -0.83522358519E-01  0.31208403430E-01  0.10822531215E+00  0.51100000000E-03 0.  1.
         11    1    4    4    0    0  0.56071555842E-02 -0.18605319233E-01  0.19840938562E-03  0.19439613803E-01  0.51100000000E-03 0. -1.
</event>
<event>
 8    1  0.1082757E+005  0.1043930E+01  0.7957747E-01            NaN
         13   -1    0    0    0    0  0.00000000000E+00  0.00000000000E+00  0.74505805969E-08  0.10566000000E+00  0.10566000000E+00 0.  1.
     999900   -1    0    0    0    0 -0.00000000000E+00 -0.00000000000E+00 -0.74505805969E-08  0.93827000000E+00  0.93827000000E+00 0.  1.
     999902    2    1    2    0    0  0.15117642110E-01  0.47781402278E-02 -0.15735283919E-01  0.10215922990E+01  0.10213480565E+01 0.  0.
     999903    2    3    3    0    0 -0.92971650375E-01 -0.80675298338E-01  0.34207808481E-01  0.12947128824E+00  0.20985918688E-01 0.  0.
         14    1    1    2    0    0 -0.15117642110E-01 -0.47781402278E-02  0.15735283919E-01  0.22337701023E-01  0.00000000000E+00 0.  1.
     999901    1    3    3    0    0  0.10808929248E+00  0.85453438566E-01 -0.49943092400E-01  0.89212101073E+00  0.88000000000E+00 0.  1.
        -11    1    4    4    0    0 -0.77612166525E-01 -0.75044817217E-01  0.33691458580E-01  0.11309619130E+00  0.51100000000E-03 0. -1.
         11    1    4    4    0    0 -0.15359483849E-01 -0.56304811219E-02  0.51634990093E-03  0.16375096946E-01  0.51100000000E-03 0.  1.
</event>
<event>
 8    1  0.1082757E+005  0.1043930E+01  0.7957747E-01            NaN
         13   -1    0    0    0    0  0.00000000000E+00  0.00000000000E+00  0.74505805969E-08  0.10566000000E+00  0.10566000000E+00 0. -1.
     999900   -1    0    0    0    0 -0.00000000000E+00 -0.00000000000E+00 -0.74505805969E-08  0.93827000000E+00  0.93827000000E+00 0.  1.
     999902    2    1    2    0    0  0.21804226457E-01 -0.64224259782E-02  0.50153274270E-02  0.10206528576E+01  0.10203873924E+01 0.  0.
     999903    2    3    3    0    0 -0.43152554182E-01  0.58302382298E-01  0.10623086613E+00  0.13011747405E+00  0.19602281013E-01 0.  0.
         14    1    1    2    0    0 -0.21804226457E-01  0.64224259782E-02 -0.50153274270E-02  0.23277142351E-01  0.00000000000E+00 0. -1.
     999901    1    3    3    0    0  0.64956780640E-01 -0.64724808277E-01 -0.10121553871E+00  0.89053538359E+00  0.88000000000E+00 0.  1.
        -11    1    4    4    0    0 -0.31655552366E-01  0.51461208918E-01  0.95274257742E-01  0.11281744248E+00  0.51100000000E-03 0. -1.
         11    1    4    4    0    0 -0.11497001816E-01  0.68411733803E-02  0.10956608391E-01  0.17300031573E-01  0.51100000000E-03 0.  1.
</event>
<event>
 8    1  0.1082757E+005  0.1043930E+01  0.7957747E-01            NaN
         13   -1    0    0    0    0  0.00000000000E+00  0.00000000000E+00  0.74505805969E-08  0.10566000000E+00  0.10566000000E+00 0. -1.
     999900   -1    0    0    0    0 -0.00000000000E+00 -0.00000000000E+00 -0.74505805969E-08  0.93827000000E+00  0.93827000000E+00 0. -1.
     999902    2    1    2    0    0 -0.53016281909E-02  0.21203312626E-01 -0.10541983254E-01  0.10196643630E+01  0.10193755893E+01 0.  0.
     999903    2    3    3    0    0  0.10502933262E+00 -0.67970078245E-01  0.15341678836E-01  0.12792741832E+00  0.21885269044E-01 0.  0.
         14    1    1    2    0    0  0.53016281909E-02 -0.21203312626E-01  0.10541983254E-01  0.24265636994E-01  0.00000000000E+00 0. -1.
     999901    1    3    3    0    0 -0.11033096081E+00  0.89173390871E-01 -0.25883662090E-01  0.89173694469E+00  0.88000000000E+00 0.  1.
        -11    1    4    4    0    0  0.79228296751E-01 -0.52271407051E-01  0.20898380701E-02  0.94942359067E-01  0.51100000000E-03 0. -1.
         11    1    4    4    0    0  0.25801035871E-01 -0.15698671194E-01  0.13251840766E-01  0.32985059253E-01  0.51100000000E-03 0.  1.
</event>
<event>
 8    1  0.1082757E+005  0.1043930E+01  0.7957747E-01            NaN
         13   -1    0    0    0    0  0.00000000000E+00  0.00000000000E+00  0.74505805969E-08  0.10566000000E+00  0.10566000000E+00 0. -1.
     999900   -1    0    0    0    0 -0.00000000000E+00 -0.00000000000E+00 -0.74505805969E-08  0.93827000000E+00  0.93827000000E+00 0. -1.
     999902    2    1    2    0    0 -0.19037459179E-01  0.54256488242E-02  0.13691024607E-01  0.10198612096E+01  0.10195771575E+01 0.  0.
     999903    2    3    3    0    0  0.77857953312E-01 -0.98255231804E-01  0.18311571803E-01  0.12848037323E+00  0.21352779026E-01 0.  0.
         14    1    1    2    0    0  0.19037459179E-01 -0.54256488242E-02 -0.13691024607E-01  0.24068790414E-01  0.00000000000E+00 0.  1.
     999901    1    3    3    0    0 -0.96895412492E-01  0.10368088063E+00 -0.46205471954E-02  0.89138083636E+00  0.88000000000E+00 0. -1.
        -11    1    4    4    0    0  0.75242648466E-01 -0.88152745694E-01  0.20773582309E-01  0.11774619130E+00  0.51100000000E-03 0.  1.
         11    1    4    4    0    0  0.26153048464E-02 -0.10102486110E-01 -0.24620105063E-02  0.10734181933E-01  0.51100000000E-03 0. -1.
</event>
<event>
 8    1  0.1082757E+005  0.1043930E+01  0.7957747E-01            NaN
         13   -1    0    0    0    0  0.00000000000E+00  0.00000000000E+00  0.74505805969E-08  0.10566000000E+00  0.10566000000E+00 0. -1.
     999900   -1    0    0    0    0 -0.00000000000E+00 -0.00000000000E+00 -0.74505805969E-08  0.93827000000E+00  0.93827000000E+00 0.  1.
     999902    2    1    2    0    0  0.27163806857E-02  0.20605043985E-01  0.10767910329E-01  0.10205228546E+01  0.10202543812E+01 0.  0.
     999903    2    3    3    0    0  0.12151103597E+00 -0.40453790095E-01 -0.11706057088E-01  0.13016032703E+00  0.20080785953E-01 0.  0.
         14    1    1    2    0    0 -0.27163806857E-02 -0.20605043985E-01 -0.10767910329E-01  0.23407145373E-01  0.00000000000E+00 0.  1.
     999901    1    3    3    0    0 -0.11879465528E+00  0.61058834080E-01  0.22473967417E-01  0.89036252760E+00  0.88000000000E+00 0. -1.
        -11    1    4    4    0    0  0.62449707488E-01 -0.10927164963E-01 -0.93434163768E-02  0.64085329444E-01  0.51100000000E-03 0. -1.
         11    1    4    4    0    0  0.59061328479E-01 -0.29526625132E-01 -0.23626407110E-02  0.66074997583E-01  0.51100000000E-03 0.  1.
</event>
<event>
 8    1  0.1082757E+005  0.1043930E+01  0.7957747E-01            NaN
         13   -1    0    0    0    0  0.00000000000E+00  0.00000000000E+00  0.74505805969E-08  0.10566000000E+00  0.10566000000E+00 0. -1.
     999900   -1    0    0    0    0 -0.00000000000E+00 -0.00000000000E+00 -0.74505805969E-08  0.93827000000E+00  0.93827000000E+00 0.  1.
     999902    2    1    2    0    0  0.47713202119E-02  0.13471056151E-01 -0.22696877188E-01  0.10171086823E+01  0.10167549796E+01 0.  0.
     999903    2    3    3    0    0 -0.56664748416E-01 -0.55961618210E-01 -0.99484190092E-01  0.12891299538E+00  0.19464323104E-01 0.  0.
         14    1    1    2    0    0 -0.47713202119E-02 -0.13471056151E-01  0.22696877188E-01  0.26821317724E-01  0.00000000000E+00 0. -1.
     999901    1    3    3    0    0  0.61436068628E-01  0.69432674361E-01  0.76787312904E-01  0.88819568690E+00  0.88000000000E+00 0. -1.
        -11    1    4    4    0    0 -0.45344965746E-01 -0.39953619033E-01 -0.85997261579E-01  0.10511064510E+00  0.51100000000E-03 0. -1.
         11    1    4    4    0    0 -0.11319782670E-01 -0.16007999178E-01 -0.13486928513E-01  0.23802350285E-01  0.51100000000E-03 0.  1.
</event>
<event>
 8    1  0.1082757E+005  0.1043930E+01  0.7957747E-01            NaN
         13   -1    0    0    0    0  0.00000000000E+00  0.00000000000E+00  0.74505805969E-08  0.10566000000E+00  0.10566000000E+00 0. -1.
     999900   -1    0    0    0    0 -0.00000000000E+00 -0.00000000000E+00 -0.74505805969E-08  0.93827000000E+00  0.93827000000E+00 0. -1.
     999902    2    1    2    0    0 -0.16559788026E-01 -0.40978229662E-03 -0.66603414933E-02  0.10260762987E+01  0.10259209600E+01 0.  0.
     999903    2    3    3    0    0 -0.28680666635E-01 -0.68036117136E-01 -0.11365722221E+00  0.13693706926E+00  0.19552567660E-01 0.  0.
         14    1    1    2    0    0  0.16559788026E-01  0.40978229662E-03  0.66603414933E-02  0.17853701291E-01  0.00000000000E+00 0. -1.
     999901    1    3    3    0    0  0.12120878609E-01  0.67626334839E-01  0.10699688072E+00  0.88913922945E+00  0.88000000000E+00 0.  1.
        -11    1    4    4    0    0 -0.16262482369E-01 -0.39268070397E-01 -0.47553465560E-01  0.63781211131E-01  0.51100000000E-03 0.  1.
         11    1    4    4    0    0 -0.12418184266E-01 -0.28768046739E-01 -0.66103756655E-01  0.73155858128E-01  0.51100000000E-03 0. -1.
</event>
<event>
 8    1  0.1082757E+005  0.1043930E+01  0.7957747E-01            NaN
         13   -1    0    0    0    0  0.00000000000E+00  0.00000000000E+00  0.74505805969E-08  0.10566000000E+00  0.10566000000E+00 0.  1.
     999900   -1    0    0    0    0 -0.00000000000E+00 -0.00000000000E+00 -0.74505805969E-08  0.93827000000E+00  0.93827000000E+00 0. -1.
     999902    2    1    2    0    0 -0.26396425093E-01 -0.14334884194E-01  0.50317626642E-02  0.10134738217E+01  0.10130160949E+01 0.  0.
     999903    2    3    3    0    0 -0.12226078709E+00  0.16006281184E-01 -0.24592565000E-01  0.12725253836E+00  0.19609007289E-01 0.  0.
         14    1    1    2    0    0  0.26396425093E-01  0.14334884194E-01 -0.50317626642E-02  0.30456178323E-01  0.00000000000E+00 0.  1.
     999901    1    3    3    0    0  0.95864362001E-01 -0.30341165378E-01  0.29624327665E-01  0.88622128332E+00  0.88000000000E+00 0.  1.
        -11    1    4    4    0    0 -0.95361890602E-01  0.19037423544E-01 -0.24042739636E-01  0.10017299099E+00  0.51100000000E-03 0.  1.
         11    1    4    4    0    0 -0.26898896492E-01 -0.30311423595E-02 -0.54982536439E-03  0.27079547364E-01  0.51100000000E-03 0. -1.
</event>
<event>
 8    1  0.1082757E+005  0.1043930E+01  0.7957747E-01            NaN
         13   -1    0    0    0    0  0.00000000000E+00  0.00000000000E+00  0.74505805969E-08  0.10566000000E+00  0.10566000000E+00 0. -1.
     999900   -1    0    0    0    0 -0.00000000000E+00 -0.00000000000E+00 -0.74505805969E-08  0.93827000000E+00  0.93827000000E+00 0. -1.
     999902    2    1    2    0    0 -0.10489060011E-01  0.86565594550E-02  0.16371382426E-01  0.10226467069E+01  0.10224252093E+01 0.  0.
     999903    2    3    3    0    0  0.28526160921E-01 -0.11001733199E+00 -0.60974771971E-01  0.13046505077E+00  0.19638010651E-01 0.  0.
         14    1    1    2    0    0  0.10489060011E-01 -0.86565594550E-02 -0.16371382426E-01  0.21283293073E-01  0.00000000000E+00 0.  1.
     999901    1    3    3    0    0 -0.39015220932E-01  0.11867389144E+00  0.77346154397E-01  0.89218165615E+00  0.88000000000E+00 0.  1.
        -11    1    4    4    0    0  0.13063108007E-01 -0.83632880509E-01 -0.47222766318E-01  0.96929635678E-01  0.51100000000E-03 0. -1.
         11    1    4    4    0    0  0.15463052913E-01 -0.26384451478E-01 -0.13752005653E-01  0.33535415096E-01  0.51100000000E-03 0.  1.
</event>
<event>
 8    1  0.1082757E+005  0.1043930E+01  0.7957747E-01            NaN
         13   -1    0    0    0    0  0.00000000000E+00  0.00000000000E+00  0.74505805969E-08  0.10566000000E+00  0.10566000000E+00 0. -1.
     999900   -1    0    0    0    0 -0.00000000000E+00 -0.00000000000E+00 -0.74505805969E-08  0.93827000000E+00  0.93827000000E+00 0. -1.
     999902    2    1    2    0    0  0.13848314384E-01  0.47567457175E-02 -0.18401014711E-01  0.10204140526E+01  0.10201430483E+01 0.  0.
     999903    2    3    3    0    0 -0.77587903377E-01 -0.52048742328E-01 -0.89493650093E-01  0.13100885347E+00  0.20621637932E-01 0.  0.
         14    1    1    2    0    0 -0.13848314384E-01 -0.47567457175E-02  0.18401014711E-01  0.23515947429E-01  0.00000000000E+00 0. -1.
     999901    1    3    3    0    0  0.91436217760E-01  0.56805488045E-01  0.71092635381E-01  0.88940519911E+00  0.88000000000E+00 0.  1.
        -11    1    4    4    0    0 -0.22977111588E-01 -0.23112047011E-01 -0.21106751046E-01  0.38831307404E-01  0.51100000000E-03 0. -1.
         11    1    4    4    0    0 -0.54610791789E-01 -0.28936695317E-01 -0.68386899047E-01  0.92177546061E-01  0.51100000000E-03 0.  1.
</event>
<event>
 8    1  0.1082757E+005  0.1043930E+01  0.7957747E-01            NaN
         13   -1    0    0    0    0  0.00000000000E+00  0.00000000000E+00  0.74505805969E-08  0.10566000000E+00  0.10566000000E+00 0.  1.
     999900   -1    0    0    0    0 -0.00000000000E+00 -0.00000000000E+00 -0.74505805969E-08  0.93827000000E+00  0.93827000000E+00 0. -1.
     999902    2    1    2    0    0 -0.19442011999E-01 -0.14328342567E-02  0.13255425446E-01  0.10203556252E+01  0.10200832567E+01 0.  0.
     999903    2    3    3    0    0  0.41169994433E-01  0.64695275517E-01  0.10441664532E+00  0.13111037766E+00  0.20165519893E-01 0.  0.
         14    1    1    2    0    0  0.19442011999E-01  0.14328342567E-02 -0.13255425446E-01  0.23574374824E-01  0.00000000000E+00 0. -1.
     999901    1    3    3    0    0 -0.60612006433E-01 -0.66128109773E-01 -0.91161219878E-01  0.88924524752E+00  0.88000000000E+00 0.  1.
        -11    1    4    4    0    0  0.29178046525E-01  0.33219764004E-01  0.46919285114E-01  0.64471633732E-01  0.51100000000E-03 0. -1.
         11    1    4    4    0    0  0.11991947908E-01  0.31475511513E-01  0.57497360211E-01  0.66638743924E-01  0.51100000000E-03 0.  1.
</event>
<event>
 8    1  0.1082757E+005  0.1043930E+01  0.7957747E-01            NaN
         13   -1    0    0    0    0  0.00000000000E+00  0.00000000000E+00  0.74505805969E-08  0.10566000000E+00  0.10566000000E+00 0.  1.
     999900   -1    0    0    0    0 -0.00000000000E+00 -0.00000000000E+00 -0.74505805969E-08  0.93827000000E+00  0.93827000000E+00 0.  1.
     999902    2    1    2    0    0 -0.23118624291E-01 -0.26183758913E-02  0.73438904534E-02  0.10195320614E+01  0.10192400918E+01 0.  0.
     999903    2    3    3    0    0 -0.87788106545E-02 -0.11955040156E+00 -0.46313810934E-01  0.13006150100E+00  0.20041430356E-01 0.  0.
         14    1    1    2    0    0  0.23118624291E-01  0.26183758913E-02 -0.73438904534E-02  0.24397938610E-01  0.00000000000E+00 0. -1.
     999901    1    3    3    0    0 -0.14339813636E-01  0.11693202566E+00  0.53657701387E-01  0.88947056039E+00  0.88000000000E+00 0. -1.
        -11    1    4    4    0    0 -0.99840583711E-02 -0.24511116046E-01 -0.10973277305E-01  0.28655717879E-01  0.51100000000E-03 0.  1.
         11    1    4    4    0    0  0.12052477166E-02 -0.95039285510E-01 -0.35340533629E-01  0.10140578312E+00  0.51100000000E-03 0. -1.
</event>
<event>
 8    1  0.1082757E+005  0.1043930E+01  0.7957747E-01            NaN
         13   -1    0    0    0    0  0.00000000000E+00  0.00000000000E+00  0.74505805969E-08  0.10566000000E+00  0.10566000000E+00 0.  1.
     999900   -1    0    0    0    0 -0.00000000000E+00 -0.00000000000E+00 -0.74505805969E-08  0.93827000000E+00  0.93827000000E+00 0. -1.
     999902    2    1    2    0    0  0.30320403144E-02 -0.16228833145E-01 -0.16957083959E-01  0.10202633359E+01  0.10199888056E+01 0.  0.
     999903    2    3    3    0    0 -0.11741866647E+00  0.15953024472E-01 -0.51412170395E-01  0.13080777337E+00  0.20635408481E-01 0.  0.
         14    1    1    2    0    0 -0.30320403144E-02  0.16228833145E-01  0.16957083959E-01  0.23666664110E-01  0.00000000000E+00 0.  1.
     999901    1    3    3    0    0  0.12045070678E+00 -0.32181857616E-01  0.34455086436E-01  0.88945556252E+00  0.88000000000E+00 0.  1.
        -11    1    4    4    0    0 -0.76523958461E-01  0.26348322668E-02 -0.39593028648E-01  0.86201668187E-01  0.51100000000E-03 0. -1.
         11    1    4    4    0    0 -0.40894708008E-01  0.13318192205E-01 -0.11819141746E-01  0.44606105179E-01  0.51100000000E-03 0.  1.
</event>
<event>
 8    1  0.1082757E+005  0.1043930E+01  0.7957747E-01            NaN
         13   -1    0    0    0    0  0.00000000000E+00  0.00000000000E+00  0.74505805969E-08  0.10566000000E+00  0.10566000000E+00 0. -1.
     999900   -1    0    0    0    0 -0.00000000000E+00 -0.00000000000E+00 -0.74505805969E-08  0.93827000000E+00  0.93827000000E+00 0. -1.
     999902    2    1    2    0    0 -0.23326660944E-01  0.46869258450E-02  0.10725198787E-02  0.10201129749E+01  0.10198349038E+01 0.  0.
     999903    2    3    3    0    0  0.69025347032E-01 -0.48124471634E-01 -0.94837253785E-01  0.12853200733E+00  0.21116555139E-01 0.  0.
         14    1    1    2    0    0  0.23326660944E-01 -0.46869258450E-02 -0.10725198787E-02  0.23817025078E-01  0.00000000000E+00 0. -1.
     999901    1    3    3    0    0 -0.92352007976E-01  0.52811397479E-01  0.95909773664E-01  0.89158096759E+00  0.88000000000E+00 0. -1.
        -11    1    4    4    0    0  0.37341542634E-01 -0.26339406057E-01 -0.66825186817E-01  0.80956913428E-01  0.51100000000E-03 0. -1.
         11    1    4    4    0    0  0.31683804398E-01 -0.21785065578E-01 -0.28012066968E-01  0.47575093906E-01  0.51100000000E-03 0.  1.
</event>
<event>
 8    1  0.1082757E+005  0.1043930E+01  0.7957747E-01            NaN
         13   -1    0    0    0    0  0.00000000000E+00  0.00000000000E+00  0.74505805969E-08  0.10566000000E+00  0.10566000000E+00 0.  1.
     999900   -1    0    0    0    0 -0.00000000000E+00 -0.00000000000E+00 -0.74505805969E-08  0.93827000000E+00  0.93827000000E+00 0. -1.
     999902    2    1    2    0    0  0.17014423440E-01 -0.17106578242E-03 -0.16802902424E-01  0.10200164599E+01  0.10197361037E+01 0.  0.
     999903    2    3    3    0    0 -0.38137673633E-01 -0.16336897757E-01 -0.12343689372E+00  0.13171814516E+00  0.19789559257E-01 0.  0.
         14    1    1    2    0    0 -0.17014423440E-01  0.17106578242E-03  0.16802902424E-01  0.23913540063E-01  0.00000000000E+00 0.  1.
     999901    1    3    3    0    0  0.55152097072E-01  0.16165831974E-01  0.10663399129E+00  0.88829831478E+00  0.88000000000E+00 0.  1.
        -11    1    4    4    0    0 -0.33741960096E-01 -0.13751515402E-01 -0.79148763046E-01  0.87134447033E-01  0.51100000000E-03 0. -1.
         11    1    4    4    0    0 -0.43957135363E-02 -0.25853823551E-02 -0.44288130671E-01  0.44583698128E-01  0.51100000000E-03 0.  1.
</event>
<event>
 8    1  0.1082757E+005  0.1043930E+01  0.7957747E-01            NaN
         13   -1    0    0    0    0  0.00000000000E+00  0.00000000000E+00  0.74505805969E-08  0.10566000000E+00  0.10566000000E+00 0.  1.
     999900   -1    0    0    0    0 -0.00000000000E+00 -0.00000000000E+00 -0.74505805969E-08  0.93827000000E+00  0.93827000000E+00 0.  1.
     999902    2    1    2    0    0 -0.20474249515E-01  0.62163562680E-02 -0.10382295375E-01  0.10201470221E+01  0.10198697548E+01 0.  0.
     999903    2    3    3    0    0 -0.22422660607E-01 -0.12493288701E+00 -0.21816744020E-01  0.13035228911E+00  0.20118324755E-01 0.  0.
         14    1    1    2    0    0  0.20474249515E-01 -0.62163562680E-02  0.10382295375E-01  0.23782977856E-01  0.00000000000E+00 0.  1.
     999901    1    3    3    0    0  0.19484110924E-02  0.13114924328E+00  0.11434448645E-01  0.88979473303E+00  0.88000000000E+00 0.  1.
        -11    1    4    4    0    0 -0.15804357137E-01 -0.99456494495E-01 -0.25194752451E-01  0.10380948258E+00  0.51100000000E-03 0. -1.
         11    1    4    4    0    0 -0.66183034706E-02 -0.25476392516E-01  0.33780084305E-02  0.26542806529E-01  0.51100000000E-03 0.  1.
</event>
<event>
 8    1  0.1082757E+005  0.1043930E+01  0.7957747E-01            NaN
         13   -1    0    0    0    0  0.00000000000E+00  0.00000000000E+00  0.74505805969E-08  0.10566000000E+00  0.10566000000E+00 0. -1.
     999900   -1    0    0    0    0 -0.00000000000E+00 -0.00000000000E+00 -0.74505805969E-08  0.93827000000E+00  0.93827000000E+00 0.  1.
     999902    2    1    2    0    0  0.97503376519E-02 -0.85823462662E-02  0.19609039845E-01  0.10204089414E+01  0.10201378179E+01 0.  0.
     999903    2    3    3    0    0 -0.91012802869E-01  0.96187069583E-02  0.92208937836E-01  0.13150217805E+00  0.20358899905E-01 0.  0.
         14    1    1    2    0    0 -0.97503376519E-02  0.85823462662E-02 -0.19609039845E-01  0.23521058552E-01  0.00000000000E+00 0.  1.
     999901    1    3    3    0    0  0.10076314052E+00 -0.18201053224E-01 -0.72599897991E-01  0.88890676340E+00  0.88000000000E+00 0. -1.
        -11    1    4    4    0    0 -0.50279731215E-01 -0.78304607667E-03  0.38721384481E-01  0.63468663680E-01  0.51100000000E-03 0.  1.
         11    1    4    4    0    0 -0.40733071655E-01  0.10401753035E-01  0.53487553355E-01  0.68033514370E-01  0.51100000000E-03 0. -1.
</event>
<event>
 8    1  0.1082757E+005  0.1043930E+01  0.7957747E-01            NaN
         13   -1    0    0    0    0  0.00000000000E+00  0.00000000000E+00  0.74505805969E-08  0.10566000000E+00  0.10566000000E+00 0. -1.
     999900   -1    0    0    0    0 -0.00000000000E+00 -0.00000000000E+00 -0.74505805969E-08  0.93827000000E+00  0.93827000000E+00 0. -1.
     999902    2    1    2    0    0  0.35820052270E-02  0.96739783078E-02 -0.20321403620E-01  0.10211401763E+01  0.10208858328E+01 0.  0.
     999903    2    3    3    0    0 -0.13781821281E-01 -0.10570459629E+00  0.69647787118E-01  0.12889123504E+00  0.19968373624E-01 0.  0.
         14    1    1    2    0    0 -0.35820052270E-02 -0.96739783078E-02  0.20321403620E-01  0.22789823669E-01  0.00000000000E+00 0. -1.
     999901    1    3    3    0    0  0.17363826508E-01  0.11537857460E+00 -0.89969190738E-01  0.89224894129E+00  0.88000000000E+00 0. -1.
        -11    1    4    4    0    0 -0.10845896557E-02 -0.44862651050E-01  0.39610596907E-01  0.59858953401E-01  0.51100000000E-03 0. -1.
         11    1    4    4    0    0 -0.12697231625E-01 -0.60841945244E-01  0.30037190211E-01  0.69032281643E-01  0.51100000000E-03 0.  1.
</event>
<event>
 8    1  0.1082757E+005  0.1043930E+01  0.7957747E-01            NaN
         13   -1    0    0    0    0  0.00000000000E+00  0.00000000000E+00  0.74505805969E-08  0.10566000000E+00  0.10566000000E+00 0.  1.
     999900   -1    0    0    0    0 -0.00000000000E+00 -0.00000000000E+00 -0.74505805969E-08  0.93827000000E+00  0.93827000000E+00 0.  1.
     999902    2    1    2    0    0 -0.20021750851E-01  0.11466920534E-01  0.68360638950E-02  0.10198656583E+01  0.10195817124E+01 0.  0.
     999903    2    3    3    0    0 -0.66160548594E-01 -0.35495016470E-01  0.10650155532E+00  0.13179616641E+00  0.19761928310E-01 0.  0.
         14    1    1    2    0    0  0.20021750851E-01 -0.11466920534E-01 -0.68360638950E-02  0.24064341737E-01  0.00000000000E+00 0. -1.
     999901    1    3    3    0    0  0.46138797743E-01  0.46961937004E-01 -0.99665491421E-01  0.88806949186E+00  0.88000000000E+00 0.  1.
        -11    1    4    4    0    0 -0.30999591397E-01 -0.66003100344E-02  0.37043059866E-01  0.48754365595E-01  0.51100000000E-03 0. -1.
         11    1    4    4    0    0 -0.35160957197E-01 -0.28894706436E-01  0.69458495450E-01  0.83041800813E-01  0.51100000000E-03 0.  1.
</event>
<event>
 8    1  0.1082757E+005  0.1043930E+01  0.7957747E-01            NaN
         13   -1    0    0    0    0  0.00000000000E+00  0.00000000000E+00  0.74505805969E-08  0.10566000000E+00  0.10566000000E+00 0. -1.
     999900   -1    0    0    0    0 -0.00000000000E+00 -0.00000000000E+00 -0.74505805969E-08  0.93827000000E+00  0.93827000000E+00 0.  1.
     999902    2    1    2    0    0 -0.10292505321E-01  0.68035748804E-02 -0.20041439852E-01  0.10203952680E+01  0.10201238255E+01 0.  0.
     999903    2    3    3    0    0 -0.12491702085E+00 -0.26781454682E-01 -0.26984610847E-01  0.13229902247E+00  0.21292104467E-01 0.  0.
         14    1    1    2    0    0  0.10292505321E-01 -0.68035748804E-02  0.20041439852E-01  0.23534731957E-01  0.00000000000E+00 0. -1.
     999901    1    3    3    0    0  0.11462451553E+00  0.33585029562E-01  0.69431709949E-02  0.88809624557E+00  0.88000000000E+00 0. -1.
        -11    1    4    4    0    0 -0.10245858351E+00 -0.30129120031E-01 -0.22796746266E-01  0.10920383680E+00  0.51100000000E-03 0.  1.
         11    1    4    4    0    0 -0.22458437334E-01  0.33476653494E-02 -0.41878645813E-02  0.23095185678E-01  0.51100000000E-03 0. -1.
</event>
<event>
 8    1  0.1082757E+005  0.1043930E+01  0.7957747E-01            NaN
         13   -1    0    0    0    0  0.00000000000E+00  0.00000000000E+00  0.74505805969E-08  0.10566000000E+00  0.10566000000E+00 0. -1.
     999900   -1    0    0    0    0 -0.00000000000E+00 -0.00000000000E+00 -0.74505805969E-08  0.93827000000E+00  0.93827000000E+00 0.  1.
     999902    2    1    2    0    0 -0.48675561992E-04  0.12647468327E-02 -0.20570176881E-01  0.10233209212E+01  0.10231133728E+01 0.  0.
     999903    2    3    3    0    0  0.65414353147E-01  0.10577109840E+00  0.42454096070E-01  0.13249038473E+00  0.16875690191E-01 0.  0.
         14    1    1    2    0    0  0.48675561992E-04 -0.12647468327E-02  0.20570176881E-01  0.20609078844E-01  0.00000000000E+00 0. -1.
     999901    1    3    3    0    0 -0.65463028709E-01 -0.10450635157E+00 -0.63024272951E-01  0.89083053642E+00  0.88000000000E+00 0.  1.
        -11    1    4    4    0    0  0.46410115402E-01  0.66095483060E-01  0.20515464457E-01  0.83328609106E-01  0.51100000000E-03 0. -1.
         11    1    4    4    0    0  0.19004237744E-01  0.39675615338E-01  0.21938631613E-01  0.49161775626E-01  0.51100000000E-03 0.  1.
</event>
<event>
 8    1  0.1082757E+005  0.1043930E+01  0.7957747E-01            NaN
         13   -1    0    0    0    0  0.00000000000E+00  0.00000000000E+00  0.74505805969E-08  0.10566000000E+00  0.10566000000E+00 0.  1.
     999900   -1    0    0    0    0 -0.00000000000E+00 -0.00000000000E+00 -0.74505805969E-08  0.93827000000E+00  0.93827000000E+00 0.  1.
     999902    2    1    2    0    0  0.19662418111E-01 -0.38113197023E-02  0.11851204556E-01  0.10206579590E+01  0.10203926114E+01 0.  0.
     999903    2    3    3    0    0 -0.33390753927E-01  0.11700850257E+00 -0.39141882442E-01  0.12935982511E+00  0.19898373545E-01 0.  0.
         14    1    1    2    0    0 -0.19662418111E-01  0.38113197023E-02 -0.11851204556E-01  0.23272041020E-01  0.00000000000E+00 0.  1.
     999901    1    3    3    0    0  0.53053172038E-01 -0.12081982227E+00  0.50993086998E-01  0.89129813387E+00  0.88000000000E+00 0. -1.
        -11    1    4    4    0    0 -0.94536335571E-02  0.52848270139E-01 -0.85923763305E-02  0.54372795552E-01  0.51100000000E-03 0. -1.
         11    1    4    4    0    0 -0.23937120370E-01  0.64160232432E-01 -0.30549506112E-01  0.74987029559E-01  0.51100000000E-03 0.  1.
</event>
<event>
 8    1  0.1082757E+005  0.1043930E+01  0.7957747E-01            NaN
         13   -1    0    0    0    0  0.00000000000E+00  0.00000000000E+00  0.74505805969E-08  0.10566000000E+00  0.10566000000E+00 0.  1.
     999900   -1    0    0    0    0 -0.00000000000E+00 -0.00000000000E+00 -0.74505805969E-08  0.93827000000E+00  0.93827000000E+00 0.  1.
     999902    2    1    2    0    0 -0.97987773878E-02 -0.21481497780E-01 -0.34485705006E-02  0.10200686626E+01  0.10197895435E+01 0.  0.
     999903    2    3    3    0    0  0.83024835757E-01  0.60288365799E-01  0.73989146257E-01  0.12804896900E+00  0.19857852235E-01 0.  0.
         14    1    1    2    0    0  0.97987773878E-02  0.21481497780E-01  0.34485705006E-02  0.23861337424E-01  0.00000000000E+00 0. -1.
     999901    1    3    3    0    0 -0.92823613145E-01 -0.81769863579E-01 -0.77437716758E-01  0.89201969357E+00  0.88000000000E+00 0. -1.
        -11    1    4    4    0    0  0.29807692183E-01  0.12024642030E-01  0.28901983415E-01  0.43228188668E-01  0.51100000000E-03 0. -1.
         11    1    4    4    0    0  0.53217143574E-01  0.48263723770E-01  0.45087162843E-01  0.84820780334E-01  0.51100000000E-03 0.  1.
</event>
<event>
 8    1  0.1082757E+005  0.1043930E+01  0.7957747E-01            NaN
         13   -1    0    0    0    0  0.00000000000E+00  0.00000000000E+00  0.74505805969E-08  0.10566000000E+00  0.10566000000E+00 0. -1.
     999900   -1    0    0    0    0 -0.00000000000E+00 -0.00000000000E+00 -0.74505805969E-08  0.93827000000E+00  0.93827000000E+00 0.  1.
     999902    2    1    2    0    0  0.21259128051E-01  0.74094616769E-02 -0.53856818053E-02  0.10207814317E+01  0.10205189244E+01 0.  0.
     999903    2    3    3    0    0  0.90115587494E-01 -0.85585688038E-01 -0.42903882931E-01  0.13241386961E+00  0.15714979758E-01 0.  0.
         14    1    1    2    0    0 -0.21259128051E-01 -0.74094616769E-02  0.53856818053E-02  0.23148568343E-01  0.00000000000E+00 0.  1.
     999901    1    3    3    0    0 -0.68856459443E-01  0.92995149715E-01  0.37518201126E-01  0.88836756204E+00  0.88000000000E+00 0. -1.
        -11    1    4    4    0    0  0.60747079147E-01 -0.47568608169E-01 -0.24269440979E-01  0.80884157871E-01  0.51100000000E-03 0. -1.
         11    1    4    4    0    0  0.29368508347E-01 -0.38017079869E-01 -0.18634441952E-01  0.51529711741E-01  0.51100000000E-03 0.  1.
</event>
<event>
 8    1  0.1082757E+005  0.1043930E+01  0.7957747E-01            NaN
         13   -1    0    0    0    0  0.00000000000E+00  0.00000000000E+00  0.74505805969E-08  0.10566000000E+00  0.10566000000E+00 0.  1.
     999900   -1    0    0    0    0 -0.00000000000E+00 -0.00000000000E+00 -0.74505805969E-08  0.93827000000E+00  0.93827000000E+00 0.  1.
     999902    2    1    2    0    0 -0.18540102571E-01 -0.10136370512E-01 -0.12445484802E-01  0.10194071229E+01  0.10191121188E+01 0.  0.
     999903    2    3    3    0    0  0.87978951463E-01  0.50039027288E-01 -0.76908726883E-01  0.12860810124E+00  0.19516436161E-01 0.  0.
         14    1    1    2    0    0  0.18540102571E-01  0.10136370512E-01  0.12445484802E-01  0.24522877125E-01  0.00000000000E+00 0.  1.
     999901    1    3    3    0    0 -0.10651905403E+00 -0.60175397799E-01  0.64463242081E-01  0.89079902164E+00  0.88000000000E+00 0. -1.
        -11    1    4    4    0    0  0.45955561259E-01  0.15078819078E-01 -0.34261090710E-01  0.59273669137E-01  0.51100000000E-03 0.  1.
         11    1    4    4    0    0  0.42023390205E-01  0.34960208209E-01 -0.42647636174E-01  0.69334432099E-01  0.51100000000E-03 0. -1.
</event>
<event>
 8    1  0.1082757E+005  0.1043930E+01  0.7957747E-01            NaN
         13   -1    0    0    0    0  0.00000000000E+00  0.00000000000E+00  0.74505805969E-08  0.10566000000E+00  0.10566000000E+00 0.  1.
     999900   -1    0    0    0    0 -0.00000000000E+00 -0.00000000000E+00 -0.74505805969E-08  0.93827000000E+00  0.93827000000E+00 0.  1.
     999902    2    1    2    0    0 -0.29189765133E-03 -0.12265346025E-01 -0.27248974858E-02  0.10313622244E+01  0.10312856486E+01 0.  0.
     999903    2    3    3    0    0  0.88446735071E-01 -0.10880310388E+00  0.30322055990E-02  0.14162786636E+00  0.19705783436E-01 0.  0.
         14    1    1    2    0    0  0.29189765133E-03  0.12265346025E-01  0.27248974858E-02  0.12567775605E-01  0.00000000000E+00 0.  1.
     999901    1    3    3    0    0 -0.88738632723E-01  0.96537757854E-01 -0.57571030848E-02  0.88973435803E+00  0.88000000000E+00 0.  1.
        -11    1    4    4    0    0  0.18779528272E-01 -0.13821778721E-01  0.48431026131E-02  0.23820768523E-01  0.51100000000E-03 0. -1.
         11    1    4    4    0    0  0.69667206799E-01 -0.94981325158E-01 -0.18108970141E-02  0.11780709784E+00  0.51100000000E-03 0.  1.
</event>
<event>
 8    1  0.1082757E+005  0.1043930E+01  0.7957747E-01            NaN
         13   -1    0    0    0    0  0.00000000000E+00  0.00000000000E+00  0.74505805969E-08  0.10566000000E+00  0.10566000000E+00 0. -1.
     999900   -1    0    0    0    0 -0.00000000000E+00 -0.00000000000E+00 -0.74505805969E-08  0.93827000000E+00  0.93827000000E+00 0.  1.
     999902    2    1    2    0    0  0.22955834111E-01  0.15310828729E-02 -0.10668542520E-02  0.10208984409E+01  0.10206386109E+01 0.  0.
     999903    2    3    3    0    0  0.93414001090E-01 -0.38211925933E-01 -0.84709157438E-01  0.13323865537E+00  0.19762870443E-01 0.  0.
         14    1    1    2    0    0 -0.22955834111E-01 -0.15310828729E-02  0.10668542520E-02  0.23031559055E-01  0.00000000000E+00 0. -1.
     999901    1    3    3    0    0 -0.70458166979E-01  0.39743008806E-01  0.83642303186E-01  0.88765978557E+00  0.88000000000E+00 0. -1.
        -11    1    4    4    0    0  0.49128171480E-01 -0.24895643109E-01 -0.57300558853E-01  0.79479465554E-01  0.51100000000E-03 0. -1.
         11    1    4    4    0    0  0.44285829610E-01 -0.13316282824E-01 -0.27408598585E-01  0.53759189818E-01  0.51100000000E-03 0.  1.
</event>
<event>
 8    1  0.1082757E+005  0.1043930E+01  0.7957747E-01            NaN
         13   -1    0    0    0    0  0.00000000000E+00  0.00000000000E+00  0.74505805969E-08  0.10566000000E+00  0.10566000000E+00 0. -1.
     999900   -1    0    0    0    0 -0.00000000000E+00 -0.00000000000E+00 -0.74505805969E-08  0.93827000000E+00  0.93827000000E+00 0. -1.
     999902    2    1    2    0    0 -0.18738582261E-01  0.18686311537E-02 -0.15707708605E-01  0.10194073909E+01  0.10191123933E+01 0.  0.
     999903    2    3    3    0    0 -0.11451250347E+00 -0.51900387488E-01  0.31788510949E-01  0.13130849876E+00  0.20607007185E-01 0.  0.
         14    1    1    2    0    0  0.18738582261E-01 -0.18686311537E-02  0.15707708605E-01  0.24522609102E-01  0.00000000000E+00 0. -1.
     999901    1    3    3    0    0  0.95773921209E-01  0.53769018642E-01 -0.47496219554E-01  0.88809889214E+00  0.88000000000E+00 0. -1.
        -11    1    4    4    0    0 -0.64712897215E-01 -0.18078747944E-01  0.17537066498E-01  0.69443574329E-01  0.51100000000E-03 0. -1.
         11    1    4    4    0    0 -0.49799606255E-01 -0.33821639544E-01  0.14251444450E-01  0.61864924429E-01  0.51100000000E-03 0.  1.
</event>
<event>
 8    1  0.1082757E+005  0.1043930E+01  0.7957747E-01            NaN
         13   -1    0    0    0    0  0.00000000000E+00  0.00000000000E+00  0.74505805969E-08  0.10566000000E+00  0.10566000000E+00 0. -1.
     999900   -1    0    0    0    0 -0.00000000000E+00 -0.00000000000E+00 -0.74505805969E-08  0.93827000000E+00  0.93827000000E+00 0. -1.
     999902    2    1    2    0    0  0.16160689760E-01 -0.16473098923E-01 -0.16314608475E-03  0.10208527927E+01  0.10205919198E+01 0.  0.
     999903    2    3    3    0    0 -0.56936340903E-01  0.11325746562E+00 -0.33444574105E-02  0.12833762976E+00  0.19757565210E-01 0.  0.
         14    1    1    2    0    0 -0.16160689760E-01  0.16473098923E-01  0.16314608475E-03  0.23077207334E-01  0.00000000000E+00 0. -1.
     999901    1    3    3    0    0  0.73097030664E-01 -0.12973056455E+00  0.31813113257E-02  0.89251516290E+00  0.88000000000E+00 0.  1.
        -11    1    4    4    0    0 -0.47482327916E-01  0.79094888494E-01  0.31005268882E-02  0.92306268683E-01  0.51100000000E-03 0.  1.
         11    1    4    4    0    0 -0.94540129872E-02  0.34162577130E-01 -0.64449842987E-02  0.36031361081E-01  0.51100000000E-03 0. -1.
</event>
<event>
 8    1  0.1082757E+005  0.1043930E+01  0.7957747E-01            NaN
         13   -1    0    0    0    0  0.00000000000E+00  0.00000000000E+00  0.74505805969E-08  0.10566000000E+00  0.10566000000E+00 0.  1.
     999900   -1    0    0    0    0 -0.00000000000E+00 -0.00000000000E+00 -0.74505805969E-08  0.93827000000E+00  0.93827000000E+00 0. -1.
     999902    2    1    2    0    0  0.65351860431E-02  0.19197636086E-01 -0.11674611856E-01  0.10205301186E+01  0.10202618137E+01 0.  0.
     999903    2    3    3    0    0  0.12179075673E+00  0.47031936330E-01  0.97518474496E-02  0.13231973360E+00  0.19194319809E-01 0.  0.
         14    1    1    2    0    0 -0.65351860431E-02 -0.19197636086E-01  0.11674611856E-01  0.23399881408E-01  0.00000000000E+00 0.  1.
     999901    1    3    3    0    0 -0.11525557068E+00 -0.27834300244E-01 -0.21426459305E-01  0.88821038499E+00  0.88000000000E+00 0. -1.
        -11    1    4    4    0    0  0.75744246104E-01  0.38486509122E-01  0.31489005312E-02  0.85021049733E-01  0.51100000000E-03 0.  1.
         11    1    4    4    0    0  0.46046510624E-01  0.85454272079E-02  0.66029469184E-02  0.47298683870E-01  0.51100000000E-03 0. -1.
</event>
<event>
 8    1  0.1082757E+005  0.1043930E+01  0.7957747E-01            NaN
         13   -1    0    0    0    0  0.00000000000E+00  0.00000000000E+00  0.74505805969E-08  0.10566000000E+00  0.10566000000E+00 0. -1.
     999900   -1    0    0    0    0 -0.00000000000E+00 -0.00000000000E+00 -0.74505805969E-08  0.93827000000E+00  0.93827000000E+00 0. -1.
     999902    2    1    2    0    0  0.17672172332E-01  0.14022170034E-01 -0.69957294263E-02  0.10203107884E+01  0.10200373707E+01 0.  0.
     999903    2    3    3    0    0  0.16943748109E-01 -0.67531782059E-01  0.10686681883E+00  0.12923488948E+00  0.20820843028E-01 0.  0.
         14    1    1    2    0    0 -0.17672172332E-01 -0.14022170034E-01  0.69957294263E-02  0.23619211622E-01  0.00000000000E+00 0. -1.
     999901    1    3    3    0    0  0.72842422370E-03  0.81553952094E-01 -0.11386254825E+00  0.89107589890E+00  0.88000000000E+00 0. -1.
        -11    1    4    4    0    0  0.86826022439E-02 -0.35478359739E-01  0.74312373026E-01  0.82805141732E-01  0.51100000000E-03 0.  1.
         11    1    4    4    0    0  0.82611458649E-02 -0.32053422320E-01  0.32554445801E-01  0.46429747747E-01  0.51100000000E-03 0. -1.
</event>
<event>
 8    1  0.1082757E+005  0.1043930E+01  0.7957747E-01            NaN
         13   -1    0    0    0    0  0.00000000000E+00  0.00000000000E+00  0.74505805969E-08  0.10566000000E+00  0.10566000000E+00 0. -1.
     999900   -1    0    0    0    0 -0.00000000000E+00 -0.00000000000E+00 -0.74505805969E-08  0.93827000000E+00  0.93827000000E+00 0. -1.
     999902    2    1    2    0    0  0.10173060402E-02 -0.66110507160E-02  0.19863185081E-01  0.10229708248E+01  0.10227560909E+01 0.  0.
     999903    2    3    3    0    0  0.12455780557E+00  0.40397133412E-01  0.12715950720E-01  0.13307020825E+00  0.19985234615E-01 0.  0.
         14    1    1    2    0    0 -0.10173060402E-02  0.66110507160E-02 -0.19863185081E-01  0.20959175192E-01  0.00000000000E+00 0.  1.
     999901    1    3    3    0    0 -0.12354049953E+00 -0.47008184128E-01  0.71472343609E-02  0.88990061656E+00  0.88000000000E+00 0.  1.
        -11    1    4    4    0    0  0.37096304606E-01  0.21672195205E-01  0.58441758998E-02  0.43361680934E-01  0.51100000000E-03 0. -1.
         11    1    4    4    0    0  0.87461500967E-01  0.18724938207E-01  0.68717748202E-02  0.89708527312E-01  0.51100000000E-03 0.  1.
</event>
<event>
 8    1  0.1082757E+005  0.1043930E+01  0.7957747E-01            NaN
         13   -1    0    0    0    0  0.00000000000E+00  0.00000000000E+00  0.74505805969E-08  0.10566000000E+00  0.10566000000E+00 0. -1.
     999900   -1    0    0    0    0 -0.00000000000E+00 -0.00000000000E+00 -0.74505805969E-08  0.93827000000E+00  0.93827000000E+00 0.  1.
     999902    2    1    2    0    0 -0.65419849863E-02  0.58455708947E-02  0.20709020847E-01  0.10214392950E+01  0.10211916576E+01 0.  0.
     999903    2    3    3    0    0  0.29135536382E-01 -0.63489256123E-01  0.11178887977E+00  0.13330881784E+00  0.19867615618E-01 0.  0.
         14    1    1    2    0    0  0.65419849863E-02 -0.58455708947E-02 -0.20709020847E-01  0.22490704993E-01  0.00000000000E+00 0.  1.
     999901    1    3    3    0    0 -0.35677521368E-01  0.69334827018E-01 -0.91079858924E-01  0.88813047717E+00  0.88000000000E+00 0.  1.
        -11    1    4    4    0    0  0.26888806770E-01 -0.35754430658E-01  0.71432359658E-01  0.84286596612E-01  0.51100000000E-03 0.  1.
         11    1    4    4    0    0  0.22467296116E-02 -0.27734825466E-01  0.40356520113E-01  0.49022221229E-01  0.51100000000E-03 0. -1.
</event>
<event>
 8    1  0.1082757E+005  0.1043930E+01  0.7957747E-01            NaN
         13   -1    0    0    0    0  0.00000000000E+00  0.00000000000E+00  0.74505805969E-08  0.10566000000E+00  0.10566000000E+00 0.  1.
     999900   -1    0    0    0    0 -0.00000000000E+00 -0.00000000000E+00 -0.74505805969E-08  0.93827000000E+00  0.93827000000E+00 0.  1.
     999902    2    1    2    0    0 -0.20320219088E-01  0.96089658331E-02  0.43442214484E-02  0.10210364247E+01  0.10207797338E+01 0.  0.
     999903    2    3    3    0    0  0.48673111655E-01 -0.78694830420E-01  0.88864503273E-01  0.12991279799E+00  0.20456954947E-01 0.  0.
         14    1    1    2    0    0  0.20320219088E-01 -0.96089658331E-02 -0.43442214484E-02  0.22893575260E-01  0.00000000000E+00 0. -1.
     999901    1    3    3    0    0 -0.68993330744E-01  0.88303796253E-01 -0.84520281824E-01  0.89112362675E+00  0.88000000000E+00 0.  1.
        -11    1    4    4    0    0  0.48711104548E-01 -0.69012499055E-01  0.74804925425E-01  0.11283410265E+00  0.51100000000E-03 0. -1.
         11    1    4    4    0    0 -0.37992892524E-04 -0.96823313647E-02  0.14059577848E-01  0.17078695336E-01  0.51100000000E-03 0.  1.
</event>
<event>
 8    1  0.1082757E+005  0.1043930E+01  0.7957747E-01            NaN
         13   -1    0    0    0    0  0.00000000000E+00  0.00000000000E+00  0.74505805969E-08  0.10566000000E+00  0.10566000000E+00 0. -1.
     999900   -1    0    0    0    0 -0.00000000000E+00 -0.00000000000E+00 -0.74505805969E-08  0.93827000000E+00  0.93827000000E+00 0. -1.
     999902    2    1    2    0    0  0.35034433582E-02 -0.19542682494E-01 -0.13338356311E-01  0.10200113398E+01  0.10197308621E+01 0.  0.
     999903    2    3    3    0    0 -0.26690365283E-01 -0.63869940279E-01  0.10821611289E+00  0.13003827236E+00  0.20186141769E-01 0.  0.
         14    1    1    2    0    0 -0.35034433582E-02  0.19542682494E-01  0.13338356311E-01  0.23918660152E-01  0.00000000000E+00 0. -1.
     999901    1    3    3    0    0  0.30193808641E-01  0.44327257786E-01 -0.12155446920E+00  0.88997306748E+00  0.88000000000E+00 0. -1.
        -11    1    4    4    0    0  0.24537597045E-02 -0.14567418390E-01  0.20295376019E-01  0.25107648715E-01  0.51100000000E-03 0. -1.
         11    1    4    4    0    0 -0.29144124987E-01 -0.49302521889E-01  0.87920736874E-01  0.10493062365E+00  0.51100000000E-03 0.  1.
</event>
<event>
 8    1  0.1082757E+005  0.1043930E+01  0.7957747E-01            NaN
         13   -1    0    0    0    0  0.00000000000E+00  0.00000000000E+00  0.74505805969E-08  0.10566000000E+00  0.10566000000E+00 0.  1.
     999900   -1    0    0    0    0 -0.00000000000E+00 -0.00000000000E+00 -0.74505805969E-08  0.93827000000E+00  0.93827000000E+00 0.  1.
     999902    2    1    2    0    0 -0.68805119741E-02 -0.18683384094E-01  0.12921883271E-01  0.10201942600E+01  0.10199181059E+01 0.  0.
     999903    2    3    3    0    0  0.11304049137E+00 -0.17553284720E-01 -0.56824807626E-01  0.12932562487E+00  0.20243220866E-01 0.  0.
         14    1    1    2    0    0  0.68805119741E-02  0.18683384094E-01 -0.12921883271E-01  0.23735740003E-01  0.00000000000E+00 0. -1.
     999901    1    3    3    0    0 -0.11992100335E+00 -0.11300993741E-02  0.69746690897E-01  0.89086863513E+00  0.88000000000E+00 0. -1.
        -11    1    4    4    0    0  0.29143135503E-01 -0.50968120276E-02 -0.52339757194E-02  0.30049217338E-01  0.51100000000E-03 0.  1.
         11    1    4    4    0    0  0.83897355869E-01 -0.12456472693E-01 -0.51590831906E-01  0.99276407528E-01  0.51100000000E-03 0. -1.
</event>
<event>
 8    1  0.1082757E+005  0.1043930E+01  0.7957747E-01            NaN
         13   -1    0    0    0    0  0.00000000000E+00  0.00000000000E+00  0.74505805969E-08  0.10566000000E+00  0.10566000000E+00 0. -1.
     999900   -1    0    0    0    0 -0.00000000000E+00 -0.00000000000E+00 -0.74505805969E-08  0.93827000000E+00  0.93827000000E+00 0. -1.
     999902    2    1    2    0    0  0.10253536954E-02  0.21426793873E-01  0.81536310234E-02  0.10209813498E+01  0.10207234083E+01 0.  0.
     999903    2    3    3    0    0  0.12311992014E+00  0.16366385638E-01  0.39623501522E-01  0.13198020043E+00  0.20551839790E-01 0.  0.
         14    1    1    2    0    0 -0.10253536954E-02 -0.21426793873E-01 -0.81536310234E-02  0.22948650173E-01  0.00000000000E+00 0. -1.
     999901    1    3    3    0    0 -0.12209456644E+00  0.50604082354E-02 -0.31469870499E-01  0.88900114940E+00  0.88000000000E+00 0.  1.
        -11    1    4    4    0    0  0.46683520674E-02  0.16147458351E-02 -0.22888655504E-02  0.54681753488E-02  0.51100000000E-03 0. -1.
         11    1    4    4    0    0  0.11845156807E+00  0.14751639803E-01  0.41912367073E-01  0.12651202508E+00  0.51100000000E-03 0.  1.
</event>
<event>
 8    1  0.1082757E+005  0.1043930E+01  0.7957747E-01            NaN
         13   -1    0    0    0    0  0.00000000000E+00  0.00000000000E+00  0.74505805969E-08  0.10566000000E+00  0.10566000000E+00 0. -1.
     999900   -1    0    0    0    0 -0.00000000000E+00 -0.00000000000E+00 -0.74505805969E-08  0.93827000000E+00  0.93827000000E+00 0. -1.
     999902    2    1    2    0    0 -0.15442626334E-01  0.15071816941E-02 -0.18997872646E-01  0.10194011299E+01  0.10191059798E+01 0.  0.
     999903    2    3    3    0    0  0.63873174712E-01 -0.69016079123E-01 -0.89340252847E-01  0.13023715339E+00  0.11706140279E-01 0.  0.
         14    1    1    2    0    0  0.15442626334E-01 -0.15071816941E-02  0.18997872646E-01  0.24528870129E-01  0.00000000000E+00 0. -1.
     999901    1    3    3    0    0 -0.79315801046E-01  0.70523260817E-01  0.70342380201E-01  0.88916397648E+00  0.88000000000E+00 0.  1.
        -11    1    4    4    0    0  0.44310535252E-01 -0.54703502207E-01 -0.69241043729E-01  0.98744518560E-01  0.51100000000E-03 0. -1.
         11    1    4    4    0    0  0.19562639460E-01 -0.14312576916E-01 -0.20099209118E-01  0.31492634834E-01  0.51100000000E-03 0.  1.
</event>
<event>
 8    1  0.1082757E+005  0.1043930E+01  0.7957747E-01            NaN
         13   -1    0    0    0    0  0.00000000000E+00  0.00000000000E+00  0.74505805969E-08  0.10566000000E+00  0.10566000000E+00 0. -1.
     999900   -1    0    0    0    0 -0.00000000000E+00 -0.00000000000E+00 -0.74505805969E-08  0.93827000000E+00  0.93827000000E+00 0. -1.
     999902    2    1    2    0    0  0.14157076949E-01  0.17904673698E-01  0.15415674668E-02  0.10210525745E+01  0.10207962496E+01 0.  0.
     999903    2    3    3    0    0  0.31750459961E-01 -0.12008827543E+00 -0.30925517365E-01  0.12953381824E+00  0.19832721456E-01 0.  0.
         14    1    1    2    0    0 -0.14157076949E-01 -0.17904673698E-01 -0.15415674668E-02  0.22877425516E-01  0.00000000000E+00 0. -1.
     999901    1    3    3    0    0 -0.17593383013E-01  0.13799294913E+00  0.32467084832E-01  0.89151875624E+00  0.88000000000E+00 0. -1.
        -11    1    4    4    0    0  0.30740627465E-01 -0.95448945931E-01 -0.30682312440E-01  0.10486731080E+00  0.51100000000E-03 0.  1.
         11    1    4    4    0    0  0.10098324961E-02 -0.24639329500E-01 -0.24320492556E-03  0.24666507444E-01  0.51100000000E-03 0. -1.
</event>
<event>
 8    1  0.1082757E+005  0.1043930E+01  0.7957747E-01            NaN
         13   -1    0    0    0    0  0.00000000000E+00  0.00000000000E+00  0.74505805969E-08  0.10566000000E+00  0.10566000000E+00 0. -1.
     999900   -1    0    0    0    0 -0.00000000000E+00 -0.00000000000E+00 -0.74505805969E-08  0.93827000000E+00  0.93827000000E+00 0.  1.
     999902    2    1    2    0    0  0.21674932742E-01 -0.52502561653E-02 -0.63355740626E-02  0.10207457942E+01  0.10204824687E+01 0.  0.
     999903    2    3    3    0    0 -0.30910191393E-01  0.12390780756E+00 -0.11687156111E-01  0.12974880200E+00  0.19737712549E-01 0.  0.
         14    1    1    2    0    0 -0.21674932742E-01  0.52502561653E-02  0.63355740626E-02  0.23184205785E-01  0.00000000000E+00 0.  1.
     999901    1    3    3    0    0  0.52585124135E-01 -0.12915806372E+00  0.53515820489E-02  0.89099699221E+00  0.88000000000E+00 0.  1.
        -11    1    4    4    0    0 -0.14395178553E-01  0.24280131161E-01 -0.28149487232E-02  0.28371305787E-01  0.51100000000E-03 0. -1.
         11    1    4    4    0    0 -0.16515012840E-01  0.99627676398E-01 -0.88722073883E-02  0.10137749621E+00  0.51100000000E-03 0.  1.
</event>
<event>
 8    1  0.1082757E+005  0.1043930E+01  0.7957747E-01            NaN
         13   -1    0    0    0    0  0.00000000000E+00  0.00000000000E+00  0.74505805969E-08  0.10566000000E+00  0.10566000000E+00 0. -1.
     999900   -1    0    0    0    0 -0.00000000000E+00 -0.00000000000E+00 -0.74505805969E-08  0.93827000000E+00  0.93827000000E+00 0. -1.
     999902    2    1    2    0    0  0.23622126311E-01 -0.22124888996E-02  0.62933635814E-02  0.10193839945E+01  0.10190884270E+01 0.  0.
     999903    2    3    3    0    0 -0.17716042081E-01 -0.12609469491E+00  0.12514257505E-01  0.12972431542E+00  0.21402362936E-01 0.  0.
         14    1    1    2    0    0 -0.23622126311E-01  0.22124888996E-02 -0.62933635814E-02  0.24546005455E-01  0.00000000000E+00 0. -1.
     999901    1    3    3    0    0  0.41338168392E-01  0.12388220601E+00 -0.62208939240E-02  0.88965967912E+00  0.88000000000E+00 0. -1.
        -11    1    4    4    0    0 -0.55392251520E-02 -0.87258072850E-01  0.15940203918E-01  0.88876349581E-01  0.51100000000E-03 0. -1.
         11    1    4    4    0    0 -0.12176816929E-01 -0.38836622062E-01 -0.34259464128E-02  0.40847965844E-01  0.51100000000E-03 0.  1.
</event>
<event>
 8    1  0.1082757E+005  0.1043930E+01  0.7957747E-01            NaN
         13   -1    0    0    0    0  0.00000000000E+00  0.00000000000E+00  0.74505805969E-08  0.10566000000E+00  0.10566000000E+00 0.  1.
     999900   -1    0    0    0    0 -0.00000000000E+00 -0.00000000000E+00 -0.74505805969E-08  0.93827000000E+00  0.93827000000E+00 0. -1.
     999902    2    1    2    0    0 -0.88262818919E-02  0.35669667729E-02 -0.21265314694E-01  0.10206310706E+01  0.10203651023E+01 0.  0.
     999903    2    3    3    0    0 -0.52217018906E-01  0.15835124376E-01  0.11511037321E+00  0.12898562982E+00  0.20236759918E-01 0.  0.
         14    1    1    2    0    0  0.88262818919E-02 -0.35669667729E-02  0.21265314694E-01  0.23298929440E-01  0.00000000000E+00 0.  1.
     999901    1    3    3    0    0  0.43390737014E-01 -0.12268157603E-01 -0.13637568790E+00  0.89164544074E+00  0.88000000000E+00 0. -1.
        -11    1    4    4    0    0 -0.72165863353E-02  0.62436320684E-02  0.38058577961E-01  0.39240011942E-01  0.51100000000E-03 0. -1.
         11    1    4    4    0    0 -0.45000432571E-01  0.95914923080E-02  0.77051795244E-01  0.89745617874E-01  0.51100000000E-03 0.  1.
</event>
<event>
 8    1  0.1082757E+005  0.1043930E+01  0.7957747E-01            NaN
         13   -1    0    0    0    0  0.00000000000E+00  0.00000000000E+00  0.74505805969E-08  0.10566000000E+00  0.10566000000E+00 0.  1.
     999900   -1    0    0    0    0 -0.00000000000E+00 -0.00000000000E+00 -0.74505805969E-08  0.93827000000E+00  0.93827000000E+00 0. -1.
     999902    2    1    2    0    0 -0.33415246061E-02  0.31603988881E-02 -0.22613286876E-01  0.10208537210E+01  0.10205928694E+01 0.  0.
     999903    2    3    3    0    0 -0.40937547584E-01 -0.96907211206E-01 -0.78311725630E-01  0.13263679729E+00  0.19821786970E-01 0.  0.
         14    1    1    2    0    0  0.33415246061E-02 -0.31603988881E-02  0.22613286876E-01  0.23076278971E-01  0.00000000000E+00 0.  1.
     999901    1    3    3    0    0  0.37596022978E-01  0.10006761009E+00  0.55698438754E-01  0.88821692374E+00  0.88000000000E+00 0.  1.
        -11    1    4    4    0    0 -0.34330182626E-01 -0.77558429119E-01 -0.52684362670E-01  0.99848758418E-01  0.51100000000E-03 0.  1.
         11    1    4    4    0    0 -0.66073649577E-02 -0.19348782087E-01 -0.25627362959E-01  0.32788038874E-01  0.51100000000E-03 0. -1.
</event>
<event>
 8    1  0.1082757E+005  0.1043930E+01  0.7957747E-01            NaN
         13   -1    0    0    0    0  0.00000000000E+00  0.00000000000E+00  0.74505805969E-08  0.10566000000E+00  0.10566000000E+00 0. -1.
     999900   -1    0    0    0    0 -0.00000000000E+00 -0.00000000000E+00 -0.74505805969E-08  0.93827000000E+00  0.93827000000E+00 0. -1.
     999902    2    1    2    0    0 -0.18261796023E-01 -0.30458077808E-03  0.15440940146E-01  0.10200132988E+01  0.10197328675E+01 0.  0.
     999903    2    3    3    0    0  0.17782916823E-01 -0.81456249908E-01  0.10045772870E+00  0.13146804444E+00  0.15515755634E-01 0.  0.
         14    1    1    2    0    0  0.18261796023E-01  0.30458077808E-03 -0.15440940146E-01  0.23916701195E-01  0.00000000000E+00 0.  1.
     999901    1    3    3    0    0 -0.36044712846E-01  0.81151669129E-01 -0.85016788552E-01  0.88854525437E+00  0.88000000000E+00 0. -1.
        -11    1    4    4    0    0  0.18558301390E-01 -0.50165688409E-01  0.62344038133E-01  0.82146497526E-01  0.51100000000E-03 0.  1.
         11    1    4    4    0    0 -0.77538456683E-03 -0.31290561498E-01  0.38113690565E-01  0.49321546910E-01  0.51100000000E-03 0. -1.
</event>
<event>
 8    1  0.1082757E+005  0.1043930E+01  0.7957747E-01            NaN
         13   -1    0    0    0    0  0.00000000000E+00  0.00000000000E+00  0.74505805969E-08  0.10566000000E+00  0.10566000000E+00 0. -1.
     999900   -1    0    0    0    0 -0.00000000000E+00 -0.00000000000E+00 -0.74505805969E-08  0.93827000000E+00  0.93827000000E+00 0. -1.
     999902    2    1    2    0    0 -0.14139015827E-01 -0.18332121043E-01 -0.26786210908E-02  0.10206243474E+01  0.10203582239E+01 0.  0.
     999903    2    3    3    0    0 -0.12776122120E+00 -0.23438446081E-01 -0.21158016895E-01  0.13311233728E+00  0.19973538980E-01 0.  0.
         14    1    1    2    0    0  0.14139015827E-01  0.18332121043E-01  0.26786210908E-02  0.23305652564E-01  0.00000000000E+00 0.  1.
     999901    1    3    3    0    0  0.11362220537E+00  0.51063250379E-02  0.18479395804E-01  0.88751201016E+00  0.88000000000E+00 0.  1.
        -11    1    4    4    0    0 -0.10919287672E+00 -0.15917348863E-01 -0.23838351270E-01  0.11289364213E+00  0.51100000000E-03 0.  1.
         11    1    4    4    0    0 -0.18568344478E-01 -0.75210972176E-02  0.26803343752E-02  0.20218695145E-01  0.51100000000E-03 0. -1.
</event>
<event>
 8    1  0.1082757E+005  0.1043930E+01  0.7957747E-01            NaN
         13   -1    0    0    0    0  0.00000000000E+00  0.00000000000E+00  0.74505805969E-08  0.10566000000E+00  0.10566000000E+00 0. -1.
     999900   -1    0    0    0    0 -0.00000000000E+00 -0.00000000000E+00 -0.74505805969E-08  0.93827000000E+00  0.93827000000E+00 0.  1.
     999902    2    1    2    0    0  0.25135705151E-02  0.21313787003E-01  0.79789703941E-03  0.10224536830E+01  0.10222281065E+01 0.  0.
     999903    2    3    3    0    0 -0.47625922696E-02  0.34020746990E-01  0.12716379353E+00  0.13330647966E+00  0.20491306040E-01 0.  0.
         14    1    1    2    0    0 -0.25135705151E-02 -0.21313787003E-01 -0.79789703941E-03  0.21476317022E-01  0.00000000000E+00 0.  1.
     999901    1    3    3    0    0  0.72761627847E-02 -0.12706959987E-01 -0.12636589649E+00  0.88914720332E+00  0.88000000000E+00 0.  1.
        -11    1    4    4    0    0  0.18886156135E-02  0.24147989971E-01  0.54093268037E-01  0.59270861783E-01  0.51100000000E-03 0. -1.
         11    1    4    4    0    0 -0.66512078831E-02  0.98727570192E-02  0.73070525492E-01  0.74035617875E-01  0.51100000000E-03 0.  1.
</event>
<event>
 8    1  0.1082757E+005  0.1043930E+01  0.7957747E-01            NaN
         13   -1    0    0    0    0  0.00000000000E+00  0.00000000000E+00  0.74505805969E-08  0.10566000000E+00  0.10566000000E+00 0.  1.
     999900   -1    0    0    0    0 -0.00000000000E+00 -0.00000000000E+00 -0.74505805969E-08  0.93827000000E+00  0.93827000000E+00 0. -1.
     999902    2    1    2    0    0  0.16938718438E-01  0.28452521448E-01  0.17672170064E-01  0.10063963917E+01  0.10056962391E+01 0.  0.
     999903    2    3    3    0    0 -0.10877300020E+00 -0.32797897565E-01 -0.46529770658E-03  0.11517026001E+00  0.18886625687E-01 0.  0.
         14    1    1    2    0    0 -0.16938718438E-01 -0.28452521448E-01 -0.17672170064E-01  0.37533608324E-01  0.00000000000E+00 0.  1.
     999901    1    3    3    0    0  0.12571171864E+00  0.61250419013E-01  0.18137467770E-01  0.89122613167E+00  0.88000000000E+00 0. -1.
        -11    1    4    4    0    0 -0.42944731935E-01 -0.75871046814E-02  0.74147254606E-02  0.44238596645E-01  0.51100000000E-03 0.  1.
         11    1    4    4    0    0 -0.65828268269E-01 -0.25210792884E-01 -0.78800231672E-02  0.70931663362E-01  0.51100000000E-03 0. -1.
</event>
<event>
 8    1  0.1082757E+005  0.1043930E+01  0.7957747E-01            NaN
         13   -1    0    0    0    0  0.00000000000E+00  0.00000000000E+00  0.74505805969E-08  0.10566000000E+00  0.10566000000E+00 0.  1.
     999900   -1    0    0    0    0 -0.00000000000E+00 -0.00000000000E+00 -0.74505805969E-08  0.93827000000E+00  0.93827000000E+00 0.  1.
     999902    2    1    2    0    0 -0.60973028325E-02 -0.13092660676E-01 -0.19419925159E-01  0.10197281745E+01  0.10194409357E+01 0.  0.
     999903    2    3    3    0    0  0.43883985099E-01  0.65851117557E-01 -0.10215535452E+00  0.13092257113E+00  0.21043510726E-01 0.  0.
         14    1    1    2    0    0  0.60973028325E-02  0.13092660676E-01  0.19419925159E-01  0.24201825522E-01  0.00000000000E+00 0. -1.
     999901    1    3    3    0    0 -0.49981287932E-01 -0.78943778233E-01  0.82735429359E-01  0.88880560334E+00  0.88000000000E+00 0. -1.
        -11    1    4    4    0    0  0.27275433275E-01  0.35442187983E-01 -0.41219529296E-01  0.60822764372E-01  0.51100000000E-03 0. -1.
         11    1    4    4    0    0  0.16608551824E-01  0.30408929574E-01 -0.60935825223E-01  0.70099806762E-01  0.51100000000E-03 0.  1.
</event>
<event>
 8    1  0.1082757E+005  0.1043930E+01  0.7957747E-01            NaN
         13   -1    0    0    0    0  0.00000000000E+00  0.00000000000E+00  0.74505805969E-08  0.10566000000E+00  0.10566000000E+00 0. -1.
     999900   -1    0    0    0    0 -0.00000000000E+00 -0.00000000000E+00 -0.74505805969E-08  0.93827000000E+00  0.93827000000E+00 0.  1.
     999902    2    1    2    0    0  0.14866998840E-01 -0.11361605345E-01 -0.14194439364E-01  0.10204439224E+01  0.10201736141E+01 0.  0.
     999903    2    3    3    0    0  0.60727331634E-01 -0.15796056093E-01  0.11229888106E+00  0.13020609208E+00  0.20131158246E-01 0.  0.
         14    1    1    2    0    0 -0.14866998840E-01  0.11361605345E-01  0.14194439364E-01  0.23486077565E-01  0.00000000000E+00 0. -1.
     999901    1    3    3    0    0 -0.45860332795E-01  0.44344507481E-02 -0.12649332043E+00  0.89023783035E+00  0.88000000000E+00 0.  1.
        -11    1    4    4    0    0  0.38477649381E-01 -0.13586631111E-01  0.89000196050E-01  0.97910275583E-01  0.51100000000E-03 0. -1.
         11    1    4    4    0    0  0.22249682253E-01 -0.22094249822E-02  0.23298685012E-01  0.32295816500E-01  0.51100000000E-03 0.  1.
</event>
<event>
 8    1  0.1082757E+005  0.1043930E+01  0.7957747E-01            NaN
         13   -1    0    0    0    0  0.00000000000E+00  0.00000000000E+00  0.74505805969E-08  0.10566000000E+00  0.10566000000E+00 0.  1.
     999900   -1    0    0    0    0 -0.00000000000E+00 -0.00000000000E+00 -0.74505805969E-08  0.93827000000E+00  0.93827000000E+00 0. -1.
     999902    2    1    2    0    0 -0.10921216258E-03 -0.31051244435E-02 -0.22933467823E-01  0.10207870168E+01  0.10205246376E+01 0.  0.
     999903    2    3    3    0    0 -0.10607422186E+00  0.19365384887E-01 -0.74713936072E-01  0.13263459522E+00  0.19570511759E-01 0.  0.
         14    1    1    2    0    0  0.10921216258E-03  0.31051244435E-02  0.22933467823E-01  0.23142983202E-01  0.00000000000E+00 0.  1.
     999901    1    3    3    0    0  0.10596500969E+00 -0.22470509330E-01  0.51780468249E-01  0.88815242158E+00  0.88000000000E+00 0.  1.
        -11    1    4    4    0    0 -0.48558704527E-01  0.13653626371E-01 -0.45211220111E-01  0.67739832029E-01  0.51100000000E-03 0.  1.
         11    1    4    4    0    0 -0.57515517329E-01  0.57117585154E-02 -0.29502715962E-01  0.64894763187E-01  0.51100000000E-03 0. -1.
</event>
<event>
 8    1  0.1082757E+005  0.1043930E+01  0.7957747E-01            NaN
         13   -1    0    0    0    0  0.00000000000E+00  0.00000000000E+00  0.74505805969E-08  0.10566000000E+00  0.10566000000E+00 0. -1.
     999900   -1    0    0    0    0 -0.00000000000E+00 -0.00000000000E+00 -0.74505805969E-08  0.93827000000E+00  0.93827000000E+00 0. -1.
     999902    2    1    2    0    0  0.25023227804E-02  0.12900750852E-01  0.20115017987E-01  0.10199028291E+01  0.10196197703E+01 0.  0.
     999903    2    3    3    0    0 -0.80981856345E-01 -0.90928625909E-01 -0.34774594216E-01  0.12818369331E+00  0.19892480010E-01 0.  0.
         14    1    1    2    0    0 -0.25023227804E-02 -0.12900750852E-01 -0.20115017987E-01  0.24027170879E-01  0.00000000000E+00 0.  1.
     999901    1    3    3    0    0  0.83484179126E-01  0.10382937676E+00  0.54889612204E-01  0.89171913581E+00  0.88000000000E+00 0.  1.
        -11    1    4    4    0    0 -0.14035696412E-01 -0.97864774443E-02  0.79652607783E-03  0.17136845956E-01  0.51100000000E-03 0.  1.
         11    1    4    4    0    0 -0.66946159933E-01 -0.81142148464E-01 -0.35571120294E-01  0.11104684735E+00  0.51100000000E-03 0. -1.
</event>
<event>
 8    1  0.1082757E+005  0.1043930E+01  0.7957747E-01            NaN
         13   -1    0    0    0    0  0.00000000000E+00  0.00000000000E+00  0.74505805969E-08  0.10566000000E+00  0.10566000000E+00 0. -1.
     999900   -1    0    0    0    0 -0.00000000000E+00 -0.00000000000E+00 -0.74505805969E-08  0.93827000000E+00  0.93827000000E+00 0.  1.
     999902    2    1    2    0    0 -0.23197995508E-01  0.13601790024E-02  0.80661704471E-02  0.10193320288E+01  0.10190351931E+01 0.  0.
     999903    2    3    3    0    0 -0.56056185690E-01 -0.11617118604E+00 -0.52260857225E-02  0.13081080421E+00  0.21121413487E-01 0.  0.
         14    1    1    2    0    0  0.23197995508E-01 -0.13601790024E-02 -0.80661704471E-02  0.24597971221E-01  0.00000000000E+00 0. -1.
     999901    1    3    3    0    0  0.32858190182E-01  0.11753136504E+00  0.13292256170E-01  0.88852122457E+00  0.88000000000E+00 0.  1.
        -11    1    4    4    0    0 -0.21864884932E-01 -0.61995809664E-01 -0.10313047982E-01  0.66544524107E-01  0.51100000000E-03 0.  1.
         11    1    4    4    0    0 -0.34191300758E-01 -0.54175376373E-01  0.50869622595E-02  0.64266280106E-01  0.51100000000E-03 0. -1.
</event>
<event>
 8    1  0.1082757E+005  0.1043930E+01  0.7957747E-01            NaN
         13   -1    0    0    0    0  0.00000000000E+00  0.00000000000E+00  0.74505805969E-08  0.10566000000E+00  0.10566000000E+00 0. -1.
     999900   -1    0    0    0    0 -0.00000000000E+00 -0.00000000000E+00 -0.74505805969E-08  0.93827000000E+00  0.93827000000E+00 0.  1.
     999902    2    1    2    0    0 -0.20211422418E-01  0.18606796629E-01  0.92196125862E-02  0.10149521510E+01  0.10145383941E+01 0.  0.
     999903    2    3    3    0    0 -0.83528529496E-01 -0.44975066456E-01 -0.80448968066E-01  0.12585588864E+00  0.19180625676E-01 0.  0.
         14    1    1    2    0    0  0.20211422418E-01 -0.18606796629E-01 -0.92196125862E-02  0.28977849009E-01  0.00000000000E+00 0.  1.
     999901    1    3    3    0    0  0.63317107078E-01  0.63581863085E-01  0.89668580652E-01  0.88909626235E+00  0.88000000000E+00 0.  1.
        -11    1    4    4    0    0 -0.38770842848E-01 -0.28481674635E-01 -0.49294127754E-01  0.68880738942E-01  0.51100000000E-03 0. -1.
         11    1    4    4    0    0 -0.44757686648E-01 -0.16493391821E-01 -0.31154840312E-01  0.56975149703E-01  0.51100000000E-03 0.  1.
</event>
<event>
 8    1  0.1082757E+005  0.1043930E+01  0.7957747E-01            NaN
         13   -1    0    0    0    0  0.00000000000E+00  0.00000000000E+00  0.74505805969E-08  0.10566000000E+00  0.10566000000E+00 0.  1.
     999900   -1    0    0    0    0 -0.00000000000E+00 -0.00000000000E+00 -0.74505805969E-08  0.93827000000E+00  0.93827000000E+00 0.  1.
     999902    2    1    2    0    0 -0.95732093399E-02 -0.13220382818E-01  0.16040983825E-01  0.10210446767E+01  0.10207881729E+01 0.  0.
     999903    2    3    3    0    0 -0.12657832950E+00  0.29762914527E-01 -0.95676903589E-02  0.13189139063E+00  0.19897076255E-01 0.  0.
         14    1    1    2    0    0  0.95732093399E-02  0.13220382818E-01 -0.16040983825E-01  0.22885323266E-01  0.00000000000E+00 0. -1.
     999901    1    3    3    0    0  0.11700512016E+00 -0.42983297345E-01  0.25608674184E-01  0.88915328610E+00  0.88000000000E+00 0. -1.
        -11    1    4    4    0    0 -0.68849010247E-01  0.25350314346E-01 -0.11173836795E-02  0.73378023390E-01  0.51100000000E-03 0. -1.
         11    1    4    4    0    0 -0.57729319254E-01  0.44126001811E-02 -0.84503066794E-02  0.58513367241E-01  0.51100000000E-03 0.  1.
</event>
<event>
 8    1  0.1125172E+005  0.1043930E+01  0.7957747E-01            NaN
         13   -1    0    0    0    0  0.00000000000E+00  0.00000000000E+00  0.74505805969E-08  0.10566000000E+00  0.10566000000E+00 0. -1.
     999900   -1    0    0    0    0 -0.00000000000E+00 -0.00000000000E+00 -0.74505805969E-08  0.93827000000E+00  0.93827000000E+00 0.  1.
     999902    2    1    2    0    0  0.12784809939E-01  0.46137732559E-03 -0.21750271898E-01  0.10186963209E+01  0.10183837467E+01 0.  0.
     999903    2    3    3    0    0 -0.11084301513E+00  0.32728345261E-01 -0.53487420033E-01  0.12890294997E+00  0.19943616063E-01 0.  0.
         14    1    1    2    0    0 -0.12784809939E-01 -0.46137732559E-03  0.21750271898E-01  0.25233679119E-01  0.00000000000E+00 0. -1.
     999901    1    3    3    0    0  0.12362782507E+00 -0.32266967936E-01  0.31737148135E-01  0.88979337091E+00  0.88000000000E+00 0. -1.
        -11    1    4    4    0    0 -0.59549081592E-01  0.27886930490E-01 -0.30094269631E-01  0.72316666103E-01  0.51100000000E-03 0. -1.
         11    1    4    4    0    0 -0.51293933538E-01  0.48414147710E-02 -0.23393150402E-01  0.56586283864E-01  0.51100000000E-03 0.  1.
</event>
<event>
 7    1  0.1082757E+005  0.1043930E+01  0.7957747E-01            NaN
         13   -1    0    0    0    0  0.00000000000E+00  0.00000000000E+00  0.74505805969E-08  0.10566000000E+00  0.10566000000E+00 0. -1.
     999900   -1    0    0    0    0 -0.00000000000E+00 -0.00000000000E+00 -0.74505805969E-08  0.93827000000E+00  0.93827000000E+00 0.  1.
     999903    2    1    2    0    0 -0.59752378562E-01  0.56029667246E-01 -0.25980788110E-01  0.88191963129E-01  0.19828026987E-01 0.  0.
         14    1    1    2    0    0 -0.77009149964E-04 -0.71936674528E-01 -0.11079882358E-01  0.72784990662E-01  0.00000000000E+00 0. -1.
     999901    1    1    2    0    0  0.59829387712E-01  0.15907007282E-01  0.37060670469E-01  0.88295304621E+00  0.88000000000E+00 0. -1.
        -11    1    3    3    0    0 -0.92335042752E-02  0.11069141981E-01  0.27987765975E-02  0.14692779752E-01  0.51100000000E-03 0. -1.
         11    1    3    3    0    0 -0.50518874287E-01  0.44960525265E-01 -0.28779564708E-01  0.73499183377E-01  0.51100000000E-03 0.  1.
</event>
<event>
 8    1  0.1082757E+005  0.1043930E+01  0.7957747E-01            NaN
         13   -1    0    0    0    0  0.00000000000E+00  0.00000000000E+00  0.74505805969E-08  0.10566000000E+00  0.10566000000E+00 0.  1.
     999900   -1    0    0    0    0 -0.00000000000E+00 -0.00000000000E+00 -0.74505805969E-08  0.93827000000E+00  0.93827000000E+00 0.  1.
     999902    2    1    2    0    0  0.59864579741E-02  0.70842056205E-02 -0.21183731499E-01  0.10208048161E+01  0.10205428450E+01 0.  0.
     999903    2    3    3    0    0  0.10473584733E+00  0.74141473232E-01  0.22134474660E-01  0.13169032069E+00  0.19643060516E-01 0.  0.
         14    1    1    2    0    0 -0.59864579741E-02 -0.70842056205E-02  0.21183731499E-01  0.23125183861E-01  0.00000000000E+00 0.  1.
     999901    1    3    3    0    0 -0.98749389352E-01 -0.67057267611E-01 -0.43318206159E-01  0.88911449545E+00  0.88000000000E+00 0.  1.
        -11    1    4    4    0    0  0.39448177439E-01  0.16733113014E-01  0.61193517788E-02  0.43288143430E-01  0.51100000000E-03 0.  1.
         11    1    4    4    0    0  0.65287669886E-01  0.57408360217E-01  0.16015122881E-01  0.88402177258E-01  0.51100000000E-03 0. -1.
</event>
<event>
 8    1  0.1082757E+005  0.1043930E+01  0.7957747E-01            NaN
         13   -1    0    0    0    0  0.00000000000E+00  0.00000000000E+00  0.74505805969E-08  0.10566000000E+00  0.10566000000E+00 0.  1.
     999900   -1    0    0    0    0 -0.00000000000E+00 -0.00000000000E+00 -0.74505805969E-08  0.93827000000E+00  0.93827000000E+00 0.  1.
     999902    2    1    2    0    0  0.62506609538E-02 -0.20511635632E-01 -0.84790388666E-02  0.10208715512E+01  0.10206111072E+01 0.  0.
     999903    2    3    3    0    0 -0.11591956685E+00 -0.57756955129E-01  0.97207027867E-02  0.13146500249E+00  0.20379964983E-01 0.  0.
         14    1    1    2    0    0 -0.62506609538E-02  0.20511635632E-01  0.84790388666E-02  0.23058448750E-01  0.00000000000E+00 0.  1.
     999901    1    3    3    0    0  0.12217022780E+00  0.37245319497E-01 -0.18199741653E-01  0.88940654876E+00  0.88000000000E+00 0.  1.
        -11    1    4    4    0    0 -0.50892444644E-01 -0.18856416878E-01 -0.41322228269E-02  0.54432910686E-01  0.51100000000E-03 0.  1.
         11    1    4    4    0    0 -0.65027122202E-01 -0.38900538252E-01  0.13852925614E-01  0.77032091801E-01  0.51100000000E-03 0. -1.
</event>
<event>
 8    1  0.1082757E+005  0.1043930E+01  0.7957747E-01            NaN
         13   -1    0    0    0    0  0.00000000000E+00  0.00000000000E+00  0.74505805969E-08  0.10566000000E+00  0.10566000000E+00 0.  1.
     999900   -1    0    0    0    0 -0.00000000000E+00 -0.00000000000E+00 -0.74505805969E-08  0.93827000000E+00  0.93827000000E+00 0. -1.
     999902    2    1    2    0    0  0.21940672806E-01  0.16128322119E-01 -0.91506359415E-02  0.10152028345E+01  0.10147963073E+01 0.  0.
     999903    2    3    3    0    0  0.11176266900E+00  0.10271484672E-01  0.58973321026E-01  0.12799194244E+00  0.17541013543E-01 0.  0.
         14    1    1    2    0    0 -0.21940672806E-01 -0.16128322119E-01  0.91506359415E-02  0.28727165466E-01  0.00000000000E+00 0.  1.
     999901    1    3    3    0    0 -0.89821996194E-01  0.58568374465E-02 -0.68123956968E-01  0.88721089210E+00  0.88000000000E+00 0. -1.
        -11    1    4    4    0    0  0.84776698397E-01  0.76116563070E-02  0.35886944871E-01  0.92375103984E-01  0.51100000000E-03 0.  1.
         11    1    4    4    0    0  0.26985970604E-01  0.26598283650E-02  0.23086376155E-01  0.35616838452E-01  0.51100000000E-03 0. -1.
</event>
<event>
 8    1  0.1082757E+005  0.1043930E+01  0.7957747E-01            NaN
         13   -1    0    0    0    0  0.00000000000E+00  0.00000000000E+00  0.74505805969E-08  0.10566000000E+00  0.10566000000E+00 0.  1.
     999900   -1    0    0    0    0 -0.00000000000E+00 -0.00000000000E+00 -0.74505805969E-08  0.93827000000E+00  0.93827000000E+00 0.  1.
     999902    2    1    2    0    0 -0.18195994707E-01 -0.95993020483E-02 -0.12502163598E-01  0.10198562608E+01  0.10195720905E+01 0.  0.
     999903    2    3    3    0    0  0.96845685540E-01 -0.22894082952E-02 -0.83721428497E-01  0.12948543559E+00  0.19309900100E-01 0.  0.
         14    1    1    2    0    0  0.18195994707E-01  0.95993020483E-02  0.12502163598E-01  0.24073739174E-01  0.00000000000E+00 0.  1.
     999901    1    3    3    0    0 -0.11504168025E+00 -0.73098937531E-02  0.71219264899E-01  0.89037082524E+00  0.88000000000E+00 0. -1.
        -11    1    4    4    0    0  0.32847302697E-01  0.72734619686E-02 -0.23085644345E-01  0.40805105555E-01  0.51100000000E-03 0.  1.
         11    1    4    4    0    0  0.63998382843E-01 -0.95628702638E-02 -0.60635784152E-01  0.88680330034E-01  0.51100000000E-03 0. -1.
</event>
<event>
 8    1  0.1082757E+005  0.1043930E+01  0.7957747E-01            NaN
         13   -1    0    0    0    0  0.00000000000E+00  0.00000000000E+00  0.74505805969E-08  0.10566000000E+00  0.10566000000E+00 0.  1.
     999900   -1    0    0    0    0 -0.00000000000E+00 -0.00000000000E+00 -0.74505805969E-08  0.93827000000E+00  0.93827000000E+00 0.  1.
     999902    2    1    2    0    0 -0.15430732719E-01  0.92810776889E-03 -0.14795055119E-01  0.10225322769E+01  0.10223083658E+01 0.  0.
     999903    2    3    3    0    0  0.85954879390E-01 -0.95225590209E-01  0.16383506635E-01  0.13096249353E+00  0.20654323991E-01 0.  0.
         14    1    1    2    0    0  0.15430732719E-01 -0.92810776889E-03  0.14795055119E-01  0.21397723062E-01  0.00000000000E+00 0.  1.
     999901    1    3    3    0    0 -0.10138561211E+00  0.96153697978E-01 -0.31178561754E-01  0.89156978341E+00  0.88000000000E+00 0.  1.
        -11    1    4    4    0    0  0.67391784875E-01 -0.61339158386E-01  0.14505103911E-01  0.92275696587E-01  0.51100000000E-03 0. -1.
         11    1    4    4    0    0  0.18563094515E-01 -0.33886431824E-01  0.18784027238E-02  0.38686796940E-01  0.51100000000E-03 0.  1.
</event>
<event>
 8    1  0.1082757E+005  0.1043930E+01  0.7957747E-01            NaN
         13   -1    0    0    0    0  0.00000000000E+00  0.00000000000E+00  0.74505805969E-08  0.10566000000E+00  0.10566000000E+00 0. -1.
     999900   -1    0    0    0    0 -0.00000000000E+00 -0.00000000000E+00 -0.74505805969E-08  0.93827000000E+00  0.93827000000E+00 0. -1.
     999902    2    1    2    0    0 -0.34959265054E-01 -0.74789020171E-02 -0.16986917828E-02  0.10081393624E+01  0.10075038482E+01 0.  0.
     999903    2    3    3    0    0 -0.10684197290E+00 -0.25651816444E-01 -0.53736113770E-01  0.12348956058E+00  0.16996434626E-01 0.  0.
         14    1    1    2    0    0  0.34959265054E-01  0.74789020171E-02  0.16986917828E-02  0.35790637635E-01  0.00000000000E+00 0. -1.
     999901    1    3    3    0    0  0.71882707845E-01  0.18172914427E-01  0.52037421987E-01  0.88464980178E+00  0.88000000000E+00 0. -1.
        -11    1    4    4    0    0 -0.24036219220E-01 -0.13258508090E-01 -0.13358956654E-01  0.30532780991E-01  0.51100000000E-03 0.  1.
         11    1    4    4    0    0 -0.82805753680E-01 -0.12393308354E-01 -0.40377157116E-01  0.92956779593E-01  0.51100000000E-03 0. -1.
</event>
<event>
 8    1  0.1082757E+005  0.1043930E+01  0.7957747E-01            NaN
         13   -1    0    0    0    0  0.00000000000E+00  0.00000000000E+00  0.74505805969E-08  0.10566000000E+00  0.10566000000E+00 0.  1.
     999900   -1    0    0    0    0 -0.00000000000E+00 -0.00000000000E+00 -0.74505805969E-08  0.93827000000E+00  0.93827000000E+00 0. -1.
     999902    2    1    2    0    0  0.13694044956E-01 -0.18629308445E-01 -0.46907359856E-02  0.10203380309E+01  0.10200652510E+01 0.  0.
     999903    2    3    3    0    0  0.78520030499E-01  0.10126413220E+00 -0.53228832974E-02  0.12984533297E+00  0.20289350633E-01 0.  0.
         14    1    1    2    0    0 -0.13694044956E-01  0.18629308445E-01  0.46907359856E-02  0.23591969068E-01  0.00000000000E+00 0.  1.
     999901    1    3    3    0    0 -0.64825985543E-01 -0.11989344064E+00  0.63214731175E-03  0.89049269796E+00  0.88000000000E+00 0. -1.
        -11    1    4    4    0    0  0.53583922809E-01  0.77023793897E-01 -0.11460159388E-01  0.94527763033E-01  0.51100000000E-03 0. -1.
         11    1    4    4    0    0  0.24936107690E-01  0.24240338298E-01  0.61372760902E-02  0.35317569938E-01  0.51100000000E-03 0.  1.
</event>
<event>
 8    1  0.1082757E+005  0.1043930E+01  0.7957747E-01            NaN
         13   -1    0    0    0    0  0.00000000000E+00  0.00000000000E+00  0.74505805969E-08  0.10566000000E+00  0.10566000000E+00 0. -1.
     999900   -1    0    0    0    0 -0.00000000000E+00 -0.00000000000E+00 -0.74505805969E-08  0.93827000000E+00  0.93827000000E+00 0. -1.
     999902    2    1    2    0    0 -0.13751729018E-01  0.18456109049E-01 -0.92363750540E-04  0.10209137765E+01  0.10206542963E+01 0.  0.
     999903    2    3    3    0    0 -0.10074218804E+00 -0.67082970762E-01  0.46882594331E-01  0.13125602164E+00  0.19520557048E-01 0.  0.
         14    1    1    2    0    0  0.13751729018E-01 -0.18456109049E-01  0.92363750540E-04  0.23016223480E-01  0.00000000000E+00 0. -1.
     999901    1    3    3    0    0  0.86990459023E-01  0.85539079811E-01 -0.46974958081E-01  0.88965775488E+00  0.88000000000E+00 0. -1.
        -11    1    4    4    0    0 -0.49162544779E-01 -0.22371745528E-01  0.16025871739E-01  0.56343060736E-01  0.51100000000E-03 0. -1.
         11    1    4    4    0    0 -0.51579643262E-01 -0.44711225234E-01  0.30856722592E-01  0.74912960902E-01  0.51100000000E-03 0.  1.
</event>
<event>
 8    1  0.1082757E+005  0.1043930E+01  0.7957747E-01            NaN
         13   -1    0    0    0    0  0.00000000000E+00  0.00000000000E+00  0.74505805969E-08  0.10566000000E+00  0.10566000000E+00 0. -1.
     999900   -1    0    0    0    0 -0.00000000000E+00 -0.00000000000E+00 -0.74505805969E-08  0.93827000000E+00  0.93827000000E+00 0.  1.
     999902    2    1    2    0    0 -0.77152636746E-02 -0.21278575553E-01  0.76679422889E-02  0.10200322928E+01  0.10197523120E+01 0.  0.
     999903    2    3    3    0    0  0.17405896353E-01 -0.12993944629E+00  0.11094936415E-01  0.13298663342E+00  0.19368069742E-01 0.  0.
         14    1    1    2    0    0  0.77152636746E-02  0.21278575553E-01 -0.76679422889E-02  0.23897707214E-01  0.00000000000E+00 0.  1.
     999901    1    3    3    0    0 -0.25121160028E-01  0.10866087073E+00 -0.34269941261E-02  0.88704565937E+00  0.88000000000E+00 0. -1.
        -11    1    4    4    0    0  0.10345076830E-01 -0.78710899803E-01  0.16181269021E-01  0.81021731347E-01  0.51100000000E-03 0.  1.
         11    1    4    4    0    0  0.70608195237E-02 -0.51228546483E-01 -0.50863326058E-02  0.51964902074E-01  0.51100000000E-03 0. -1.
</event>
<event>
 8    1  0.1082757E+005  0.1043930E+01  0.7957747E-01            NaN
         13   -1    0    0    0    0  0.00000000000E+00  0.00000000000E+00  0.74505805969E-08  0.10566000000E+00  0.10566000000E+00 0.  1.
     999900   -1    0    0    0    0 -0.00000000000E+00 -0.00000000000E+00 -0.74505805969E-08  0.93827000000E+00  0.93827000000E+00 0.  1.
     999902    2    1    2    0    0  0.15569407779E-01 -0.17856326660E-01 -0.14195692365E-02  0.10201966893E+01  0.10199205924E+01 0.  0.
     999903    2    3    3    0    0  0.10106370132E+00 -0.56415097866E-01 -0.62689183494E-01  0.13309465531E+00  0.19690570179E-01 0.  0.
         14    1    1    2    0    0 -0.15569407779E-01  0.17856326660E-01  0.14195692365E-02  0.23733310708E-01  0.00000000000E+00 0.  1.
     999901    1    3    3    0    0 -0.85494293537E-01  0.38558771206E-01  0.61269614258E-01  0.88710203398E+00  0.88000000000E+00 0.  1.
        -11    1    4    4    0    0  0.63694898047E-01 -0.31213318381E-01 -0.28181532132E-01  0.76326739455E-01  0.51100000000E-03 0. -1.
         11    1    4    4    0    0  0.37368803269E-01 -0.25201779484E-01 -0.34507651362E-01  0.56767915854E-01  0.51100000000E-03 0.  1.
</event>
<event>
 8    1  0.1082757E+005  0.1043930E+01  0.7957747E-01            NaN
         13   -1    0    0    0    0  0.00000000000E+00  0.00000000000E+00  0.74505805969E-08  0.10566000000E+00  0.10566000000E+00 0. -1.
     999900   -1    0    0    0    0 -0.00000000000E+00 -0.00000000000E+00 -0.74505805969E-08  0.93827000000E+00  0.93827000000E+00 0. -1.
     999902    2    1    2    0    0  0.16907216447E-01  0.16503770365E-01 -0.19333555009E-02  0.10202241723E+01  0.10199487220E+01 0.  0.
     999903    2    3    3    0    0 -0.87995509269E-01  0.72799933903E-01  0.58920103057E-01  0.13012474901E+00  0.20440932782E-01 0.  0.
         14    1    1    2    0    0 -0.16907216447E-01 -0.16503770365E-01  0.19333555009E-02  0.23705827717E-01  0.00000000000E+00 0.  1.
     999901    1    3    3    0    0  0.10490272572E+00 -0.56296163539E-01 -0.60853458558E-01  0.89009942327E+00  0.88000000000E+00 0. -1.
        -11    1    4    4    0    0 -0.68678141678E-01  0.60434243670E-01  0.55300668725E-01  0.10689906470E+00  0.51100000000E-03 0.  1.
         11    1    4    4    0    0 -0.19317367591E-01  0.12365690234E-01  0.36194343317E-02  0.23225684306E-01  0.51100000000E-03 0. -1.
</event>
<event>
 8    1  0.1082757E+005  0.1043930E+01  0.7957747E-01            NaN
         13   -1    0    0    0    0  0.00000000000E+00  0.00000000000E+00  0.74505805969E-08  0.10566000000E+00  0.10566000000E+00 0. -1.
     999900   -1    0    0    0    0 -0.00000000000E+00 -0.00000000000E+00 -0.74505805969E-08  0.93827000000E+00  0.93827000000E+00 0. -1.
     999902    2    1    2    0    0  0.48488349789E-02  0.13950752243E-01  0.17351443694E-01  0.10211438795E+01  0.10208896196E+01 0.  0.
     999903    2    3    3    0    0  0.20874603713E-01  0.63007398782E-01 -0.11036413690E+00  0.13042807222E+00  0.20629055412E-01 0.  0.
         14    1    1    2    0    0 -0.48488349789E-02 -0.13950752243E-01 -0.17351443694E-01  0.22786120492E-01  0.00000000000E+00 0.  1.
     999901    1    3    3    0    0 -0.16025768734E-01 -0.49056646538E-01  0.12771558059E+00  0.89071580729E+00  0.88000000000E+00 0.  1.
        -11    1    4    4    0    0  0.74510524074E-03  0.80384068217E-03 -0.13554587906E-01  0.13608428123E-01  0.51100000000E-03 0.  1.
         11    1    4    4    0    0  0.20129498472E-01  0.62203558099E-01 -0.96809548993E-01  0.11681964409E+00  0.51100000000E-03 0. -1.
</event>
<event>
 8    1  0.1082757E+005  0.1043930E+01  0.7957747E-01            NaN
         13   -1    0    0    0    0  0.00000000000E+00  0.00000000000E+00  0.74505805969E-08  0.10566000000E+00  0.10566000000E+00 0.  1.
     999900   -1    0    0    0    0 -0.00000000000E+00 -0.00000000000E+00 -0.74505805969E-08  0.93827000000E+00  0.93827000000E+00 0.  1.
     999902    2    1    2    0    0  0.18398437933E-01  0.14586943037E-01 -0.43425878307E-02  0.10200524060E+01  0.10197729019E+01 0.  0.
     999903    2    3    3    0    0  0.85559308878E-02 -0.78120744340E-01  0.10028352276E+00  0.12896418745E+00  0.19973033249E-01 0.  0.
         14    1    1    2    0    0 -0.18398437933E-01 -0.14586943037E-01  0.43425878307E-02  0.23877593987E-01  0.00000000000E+00 0.  1.
     999901    1    3    3    0    0  0.98425070454E-02  0.92707687377E-01 -0.10462611059E+00  0.89108821856E+00  0.88000000000E+00 0. -1.
        -11    1    4    4    0    0  0.37875696087E-02 -0.67231843647E-01  0.93632288938E-01  0.11533313980E+00  0.51100000000E-03 0. -1.
         11    1    4    4    0    0  0.47683612791E-02 -0.10888900693E-01  0.66512338255E-02  0.13631047648E-01  0.51100000000E-03 0.  1.
</event>
<event>
 8    1  0.1082757E+005  0.1043930E+01  0.7957747E-01            NaN
         13   -1    0    0    0    0  0.00000000000E+00  0.00000000000E+00  0.74505805969E-08  0.10566000000E+00  0.10566000000E+00 0. -1.
     999900   -1    0    0    0    0 -0.00000000000E+00 -0.00000000000E+00 -0.74505805969E-08  0.93827000000E+00  0.93827000000E+00 0. -1.
     999902    2    1    2    0    0  0.93253960796E-03  0.23507985928E-01  0.20660549435E-02  0.10203129804E+01  0.10200396141E+01 0.  0.
     999903    2    3    3    0    0 -0.53872282939E-01  0.84836373412E-01 -0.83007428044E-01  0.13239280537E+00  0.23198893964E-01 0.  0.
         14    1    1    2    0    0 -0.93253960796E-03 -0.23507985928E-01 -0.20660549435E-02  0.23617019616E-01  0.00000000000E+00 0. -1.
     999901    1    3    3    0    0  0.54804822547E-01 -0.61328387484E-01  0.85073482987E-01  0.88792017501E+00  0.88000000000E+00 0.  1.
        -11    1    4    4    0    0 -0.34813051994E-01  0.54297270478E-01 -0.66968944087E-01  0.92979797610E-01  0.51100000000E-03 0. -1.
         11    1    4    4    0    0 -0.19059230945E-01  0.30539102934E-01 -0.16038483957E-01  0.39413007762E-01  0.51100000000E-03 0.  1.
</event>
<event>
 8    1  0.1082757E+005  0.1043930E+01  0.7957747E-01            NaN
         13   -1    0    0    0    0  0.00000000000E+00  0.00000000000E+00  0.74505805969E-08  0.10566000000E+00  0.10566000000E+00 0. -1.
     999900   -1    0    0    0    0 -0.00000000000E+00 -0.00000000000E+00 -0.74505805969E-08  0.93827000000E+00  0.93827000000E+00 0.  1.
     999902    2    1    2    0    0  0.47223243429E-02  0.17980686130E-01 -0.14916819025E-01  0.10200947968E+01  0.10198162960E+01 0.  0.
     999903    2    3    3    0    0 -0.94760206834E-01  0.86620252056E-01  0.18800258525E-01  0.13119378695E+00  0.19385436520E-01 0.  0.
         14    1    1    2    0    0 -0.47223243429E-02 -0.17980686130E-01  0.14916819025E-01  0.23835203182E-01  0.00000000000E+00 0. -1.
     999901    1    3    3    0    0  0.99482531177E-01 -0.68639565926E-01 -0.33717077549E-01  0.88890100986E+00  0.88000000000E+00 0.  1.
        -11    1    4    4    0    0 -0.57721093750E-01  0.47038796460E-01  0.21879921776E-02  0.74494439167E-01  0.51100000000E-03 0. -1.
         11    1    4    4    0    0 -0.37039113084E-01  0.39581455596E-01  0.16612266347E-01  0.56699347786E-01  0.51100000000E-03 0.  1.
</event>
<event>
 8    1  0.1082757E+005  0.1043930E+01  0.7957747E-01            NaN
         13   -1    0    0    0    0  0.00000000000E+00  0.00000000000E+00  0.74505805969E-08  0.10566000000E+00  0.10566000000E+00 0.  1.
     999900   -1    0    0    0    0 -0.00000000000E+00 -0.00000000000E+00 -0.74505805969E-08  0.93827000000E+00  0.93827000000E+00 0.  1.
     999902    2    1    2    0    0 -0.22495117355E-01  0.44670069021E-02  0.11443328221E-01  0.10182992720E+01  0.10179766565E+01 0.  0.
     999903    2    3    3    0    0  0.89627055893E-01  0.15881631440E-01  0.86258725610E-01  0.12796280806E+00  0.25469140890E-01 0.  0.
         14    1    1    2    0    0  0.22495117355E-01 -0.44670069021E-02 -0.11443328221E-01  0.25630727970E-01  0.00000000000E+00 0. -1.
     999901    1    3    3    0    0 -0.11212217325E+00 -0.11414624538E-01 -0.74815397389E-01  0.89033646397E+00  0.88000000000E+00 0. -1.
        -11    1    4    4    0    0  0.21610558897E-01 -0.25255456476E-02  0.33444227990E-01  0.39902031822E-01  0.51100000000E-03 0.  1.
         11    1    4    4    0    0  0.68016496996E-01  0.18407177088E-01  0.52814497620E-01  0.88060776239E-01  0.51100000000E-03 0. -1.
</event>
<event>
 8    1  0.1082757E+005  0.1043930E+01  0.7957747E-01            NaN
         13   -1    0    0    0    0  0.00000000000E+00  0.00000000000E+00  0.74505805969E-08  0.10566000000E+00  0.10566000000E+00 0.  1.
     999900   -1    0    0    0    0 -0.00000000000E+00 -0.00000000000E+00 -0.74505805969E-08  0.93827000000E+00  0.93827000000E+00 0.  1.
     999902    2    1    2    0    0  0.16064638320E-02  0.17929470081E-01 -0.14530587564E-01  0.10207959429E+01  0.10205337684E+01 0.  0.
     999903    2    3    3    0    0  0.41407828490E-01  0.72531994452E-01 -0.10262050006E+00  0.13382051089E+00  0.20036557152E-01 0.  0.
         14    1    1    2    0    0 -0.16064638320E-02 -0.17929470081E-01  0.14530587564E-01  0.23134057110E-01  0.00000000000E+00 0.  1.
     999901    1    3    3    0    0 -0.39801364658E-01 -0.54602524371E-01  0.88089912492E-01  0.88697543200E+00  0.88000000000E+00 0. -1.
        -11    1    4    4    0    0  0.32927699697E-01  0.40517685269E-01 -0.70039509329E-01  0.87359660113E-01  0.51100000000E-03 0.  1.
         11    1    4    4    0    0  0.84801287922E-02  0.32014309183E-01 -0.32580990727E-01  0.46460850773E-01  0.51100000000E-03 0. -1.
</event>
<event>
 8    1  0.1082757E+005  0.1043930E+01  0.7957747E-01            NaN
         13   -1    0    0    0    0  0.00000000000E+00  0.00000000000E+00  0.74505805969E-08  0.10566000000E+00  0.10566000000E+00 0. -1.
     999900   -1    0    0    0    0 -0.00000000000E+00 -0.00000000000E+00 -0.74505805969E-08  0.93827000000E+00  0.93827000000E+00 0.  1.
     999902    2    1    2    0    0  0.10344803070E-01 -0.68875051066E-02 -0.19405363110E-01  0.10208861116E+01  0.10206260000E+01 0.  0.
     999903    2    3    3    0    0 -0.59543772689E-01 -0.11350794791E+00  0.18463909234E-01  0.13089374438E+00  0.19045767751E-01 0.  0.
         14    1    1    2    0    0 -0.10344803070E-01  0.68875051066E-02  0.19405363110E-01  0.23043888443E-01  0.00000000000E+00 0. -1.
     999901    1    3    3    0    0  0.69888575759E-01  0.10662044280E+00 -0.37869272344E-01  0.88999236718E+00  0.88000000000E+00 0. -1.
        -11    1    4    4    0    0 -0.49304761403E-01 -0.10479681522E+00  0.13710856886E-01  0.11662581487E+00  0.51100000000E-03 0. -1.
         11    1    4    4    0    0 -0.10239011286E-01 -0.87111326926E-02  0.47530523476E-02  0.14267929511E-01  0.51100000000E-03 0.  1.
</event>
<event>
 8    1  0.1327808E+005  0.1043930E+01  0.7957747E-01            NaN
         13   -1    0    0    0    0  0.00000000000E+00  0.00000000000E+00  0.74505805969E-08  0.10566000000E+00  0.10566000000E+00 0. -1.
     999900   -1    0    0    0    0 -0.00000000000E+00 -0.00000000000E+00 -0.74505805969E-08  0.93827000000E+00  0.93827000000E+00 0.  1.
     999902    2    1    2    0    0 -0.80403046803E-02  0.12558732528E-01 -0.17760556609E-01  0.10207393632E+01  0.10204758900E+01 0.  0.
     999903    2    3    3    0    0  0.39761109154E-03 -0.12191940689E+00 -0.41545806069E-01  0.13016578038E+00  0.18777020799E-01 0.  0.
         14    1    1    2    0    0  0.80403046803E-02 -0.12558732528E-01  0.17760556609E-01  0.23190636755E-01  0.00000000000E+00 0. -1.
     999901    1    3    3    0    0 -0.84379157719E-02  0.13447813941E+00  0.23785249460E-01  0.89057358286E+00  0.88000000000E+00 0. -1.
        -11    1    4    4    0    0  0.87947813861E-02 -0.38914993372E-01 -0.12143050635E-01  0.41706590468E-01  0.51100000000E-03 0.  1.
         11    1    4    4    0    0 -0.83971702946E-02 -0.83004413515E-01 -0.29402755434E-01  0.88459189913E-01  0.51100000000E-03 0. -1.
</event>
<event>
 8    1  0.1082757E+005  0.1043930E+01  0.7957747E-01            NaN
         13   -1    0    0    0    0  0.00000000000E+00  0.00000000000E+00  0.74505805969E-08  0.10566000000E+00  0.10566000000E+00 0.  1.
     999900   -1    0    0    0    0 -0.00000000000E+00 -0.00000000000E+00 -0.74505805969E-08  0.93827000000E+00  0.93827000000E+00 0. -1.
     999902    2    1    2    0    0 -0.12101583095E-01  0.13180226923E-01 -0.14790410873E-01  0.10207152859E+01  0.10204512590E+01 0.  0.
     999903    2    3    3    0    0  0.59667224811E-01 -0.81323854265E-01 -0.80100615426E-01  0.13035176132E+00  0.20043106026E-01 0.  0.
         14    1    1    2    0    0  0.12101583095E-01 -0.13180226923E-01  0.14790410873E-01  0.23214714061E-01  0.00000000000E+00 0.  1.
     999901    1    3    3    0    0 -0.71768807906E-01  0.94504081187E-01  0.65310204553E-01  0.89036352462E+00  0.88000000000E+00 0.  1.
        -11    1    4    4    0    0  0.20043201627E-01 -0.26268546911E-01 -0.14849717570E-01  0.36229017668E-01  0.51100000000E-03 0.  1.
         11    1    4    4    0    0  0.39624023185E-01 -0.55055307354E-01 -0.65250897855E-01  0.94122743655E-01  0.51100000000E-03 0. -1.
</event>
<event>
 8    1  0.1082757E+005  0.1043930E+01  0.7957747E-01            NaN
         13   -1    0    0    0    0  0.00000000000E+00  0.00000000000E+00  0.74505805969E-08  0.10566000000E+00  0.10566000000E+00 0. -1.
     999900   -1    0    0    0    0 -0.00000000000E+00 -0.00000000000E+00 -0.74505805969E-08  0.93827000000E+00  0.93827000000E+00 0.  1.
     999902    2    1    2    0    0  0.11787432097E-01  0.52762455981E-02 -0.20266971072E-01  0.10198980954E+01  0.10196149236E+01 0.  0.
     999903    2    3    3    0    0  0.41244190136E-01  0.12305343774E+00 -0.87203885109E-03  0.13135134311E+00  0.20228275406E-01 0.  0.
         14    1    1    2    0    0 -0.11787432097E-01 -0.52762455981E-02  0.20266971072E-01  0.24031904616E-01  0.00000000000E+00 0. -1.
     999901    1    3    3    0    0 -0.29456758039E-01 -0.11777719214E+00 -0.19394932220E-01  0.88854675227E+00  0.88000000000E+00 0. -1.
        -11    1    4    4    0    0  0.54614053098E-02  0.46702279465E-01  0.13637697033E-03  0.47023500240E-01  0.51100000000E-03 0. -1.
         11    1    4    4    0    0  0.35782784826E-01  0.76351158272E-01 -0.10084158214E-02  0.84327842869E-01  0.51100000000E-03 0.  1.
</event>
<event>
 8    1  0.1082757E+005  0.1043930E+01  0.7957747E-01            NaN
         13   -1    0    0    0    0  0.00000000000E+00  0.00000000000E+00  0.74505805969E-08  0.10566000000E+00  0.10566000000E+00 0.  1.
     999900   -1    0    0    0    0 -0.00000000000E+00 -0.00000000000E+00 -0.74505805969E-08  0.93827000000E+00  0.93827000000E+00 0.  1.
     999902    2    1    2    0    0  0.23412349994E-01 -0.21253137493E-02  0.94187432089E-02  0.10186047593E+01  0.10182898840E+01 0.  0.
     999903    2    3    3    0    0  0.10146827165E+00  0.75751958013E-01  0.29135568234E-01  0.13150479341E+00  0.20259813895E-01 0.  0.
         14    1    1    2    0    0 -0.23412349994E-01  0.21253137493E-02 -0.94187432089E-02  0.25325240659E-01  0.00000000000E+00 0.  1.
     999901    1    3    3    0    0 -0.78055921658E-01 -0.77877271763E-01 -0.19716825025E-01  0.88709996593E+00  0.88000000000E+00 0.  1.
        -11    1    4    4    0    0  0.28488460943E-01  0.33014353245E-01  0.81309126404E-02  0.44361163065E-01  0.51100000000E-03 0. -1.
         11    1    4    4    0    0  0.72979810709E-01  0.42737604768E-01  0.21004655593E-01  0.87143630347E-01  0.51100000000E-03 0.  1.
</event>
<event>
 8    1  0.1082757E+005  0.1043930E+01  0.7957747E-01            NaN
         13   -1    0    0    0    0  0.00000000000E+00  0.00000000000E+00  0.74505805969E-08  0.10566000000E+00  0.10566000000E+00 0. -1.
     999900   -1    0    0    0    0 -0.00000000000E+00 -0.00000000000E+00 -0.74505805969E-08  0.93827000000E+00  0.93827000000E+00 0. -1.
     999902    2    1    2    0    0  0.26820883535E-02  0.20873498267E-01 -0.11414361033E-01  0.10199887351E+01  0.10197077206E+01 0.  0.
     999903    2    3    3    0    0 -0.21888822489E-01  0.12385846591E-01 -0.12798642862E+00  0.13192071020E+00  0.19748876515E-01 0.  0.
         14    1    1    2    0    0 -0.26820883535E-02 -0.20873498267E-01  0.11414361033E-01  0.23941264913E-01  0.00000000000E+00 0.  1.
     999901    1    3    3    0    0  0.24570910843E-01  0.84876516759E-02  0.11657206758E+00  0.88806802489E+00  0.88000000000E+00 0. -1.
        -11    1    4    4    0    0 -0.10436202606E-02  0.35721262568E-02 -0.27517172910E-02  0.46564254845E-02  0.51100000000E-03 0.  1.
         11    1    4    4    0    0 -0.20845202229E-01  0.88137203346E-02 -0.12523471132E+00  0.12726428471E+00  0.51100000000E-03 0. -1.
</event>
<event>
 8    1  0.1082757E+005  0.1043930E+01  0.7957747E-01            NaN
         13   -1    0    0    0    0  0.00000000000E+00  0.00000000000E+00  0.74505805969E-08  0.10566000000E+00  0.10566000000E+00 0. -1.
     999900   -1    0    0    0    0 -0.00000000000E+00 -0.00000000000E+00 -0.74505805969E-08  0.93827000000E+00  0.93827000000E+00 0.  1.
     999902    2    1    2    0    0  0.38665572080E-02  0.21767458875E-01 -0.59701586132E-02  0.10210298837E+01  0.10207730444E+01 0.  0.
     999903    2    3    3    0    0 -0.11389273170E+00 -0.22387937028E-01  0.54877973420E-01  0.13000831034E+00  0.20440027684E-01 0.  0.
         14    1    1    2    0    0 -0.38665572080E-02 -0.21767458875E-01  0.59701586132E-02  0.22900116253E-01  0.00000000000E+00 0. -1.
     999901    1    3    3    0    0  0.11775928891E+00  0.44155395903E-01 -0.60848132033E-01  0.89102157341E+00  0.88000000000E+00 0.  1.
        -11    1    4    4    0    0 -0.61092803615E-01 -0.35242777923E-02  0.35121761237E-01  0.70558843676E-01  0.51100000000E-03 0. -1.
         11    1    4    4    0    0 -0.52799928084E-01 -0.18863659236E-01  0.19756212183E-01  0.59449466660E-01  0.51100000000E-03 0.  1.
</event>
<event>
 8    1  0.1082757E+005  0.1043930E+01  0.7957747E-01            NaN
         13   -1    0    0    0    0  0.00000000000E+00  0.00000000000E+00  0.74505805969E-08  0.10566000000E+00  0.10566000000E+00 0.  1.
     999900   -1    0    0    0    0 -0.00000000000E+00 -0.00000000000E+00 -0.74505805969E-08  0.93827000000E+00  0.93827000000E+00 0. -1.
     999902    2    1    2    0    0  0.73550543556E-02  0.46073403860E-02 -0.32102350455E-01  0.10106751460E+01  0.10101278956E+01 0.  0.
     999903    2    3    3    0    0 -0.76988428934E-01 -0.90858975288E-01  0.50820359203E-02  0.12072552990E+00  0.19137787240E-01 0.  0.
         14    1    1    2    0    0 -0.73550543556E-02 -0.46073403860E-02  0.32102350455E-01  0.33254854003E-01  0.00000000000E+00 0.  1.
     999901    1    3    3    0    0  0.84343483289E-01  0.95466315674E-01 -0.37184386376E-01  0.88994961610E+00  0.88000000000E+00 0. -1.
        -11    1    4    4    0    0 -0.43292690183E-02 -0.14702362213E-01  0.14586095853E-02  0.15404242526E-01  0.51100000000E-03 0.  1.
         11    1    4    4    0    0 -0.72659159916E-01 -0.76156613074E-01  0.36234263350E-02  0.10532128737E+00  0.51100000000E-03 0. -1.
</event>
<event>
 8    1  0.1082757E+005  0.1043930E+01  0.7957747E-01            NaN
         13   -1    0    0    0    0  0.00000000000E+00  0.00000000000E+00  0.74505805969E-08  0.10566000000E+00  0.10566000000E+00 0. -1.
     999900   -1    0    0    0    0 -0.00000000000E+00 -0.00000000000E+00 -0.74505805969E-08  0.93827000000E+00  0.93827000000E+00 0. -1.
     999902    2    1    2    0    0  0.58218776287E-02 -0.69336614750E-02 -0.20790175388E-01  0.10212539926E+01  0.10210022116E+01 0.  0.
     999903    2    3    3    0    0  0.11123909440E+00  0.60739535735E-01 -0.32467790736E-01  0.13230584002E+00  0.19678682440E-01 0.  0.
         14    1    1    2    0    0 -0.58218776287E-02  0.69336614750E-02  0.20790175388E-01  0.22676007436E-01  0.00000000000E+00 0. -1.
     999901    1    3    3    0    0 -0.10541721678E+00 -0.67673197210E-01  0.11677615348E-01  0.88894815255E+00  0.88000000000E+00 0.  1.
        -11    1    4    4    0    0  0.31717879589E-02 -0.93787216581E-03  0.92578546523E-03  0.34724692632E-02  0.51100000000E-03 0.  1.
         11    1    4    4    0    0  0.10806730644E+00  0.61677407901E-01 -0.33393576201E-01  0.12883337076E+00  0.51100000000E-03 0. -1.
</event>
<event>
 8    1  0.1082757E+005  0.1043930E+01  0.7957747E-01            NaN
         13   -1    0    0    0    0  0.00000000000E+00  0.00000000000E+00  0.74505805969E-08  0.10566000000E+00  0.10566000000E+00 0. -1.
     999900   -1    0    0    0    0 -0.00000000000E+00 -0.00000000000E+00 -0.74505805969E-08  0.93827000000E+00  0.93827000000E+00 0.  1.
     999902    2    1    2    0    0  0.82915437264E-02  0.10695500075E-01 -0.18998467103E-01  0.10206043666E+01  0.10203377813E+01 0.  0.
     999903    2    3    3    0    0  0.12792903697E+00 -0.66242129147E-02  0.21271702536E-01  0.13142790001E+00  0.20275326756E-01 0.  0.
         14    1    1    2    0    0 -0.82915437264E-02 -0.10695500075E-01  0.18998467103E-01  0.23325633356E-01  0.00000000000E+00 0. -1.
     999901    1    3    3    0    0 -0.11963749325E+00  0.17319712989E-01 -0.40270169639E-01  0.88917646663E+00  0.88000000000E+00 0.  1.
        -11    1    4    4    0    0  0.33306944761E-01  0.17022960992E-02  0.13959683755E-01  0.36157769191E-01  0.51100000000E-03 0. -1.
         11    1    4    4    0    0  0.94622092212E-01 -0.83265090139E-02  0.73120187815E-02  0.95270130821E-01  0.51100000000E-03 0.  1.
</event>
<event>
 8    1  0.1082757E+005  0.1043930E+01  0.7957747E-01            NaN
         13   -1    0    0    0    0  0.00000000000E+00  0.00000000000E+00  0.74505805969E-08  0.10566000000E+00  0.10566000000E+00 0.  1.
     999900   -1    0    0    0    0 -0.00000000000E+00 -0.00000000000E+00 -0.74505805969E-08  0.93827000000E+00  0.93827000000E+00 0.  1.
     999902    2    1    2    0    0 -0.74465401948E-02 -0.22442182118E-01 -0.11800567863E-02  0.10202552237E+01  0.10199805030E+01 0.  0.
     999903    2    3    3    0    0  0.81692344903E-01 -0.10151915449E+00  0.79548572625E-02  0.13217732449E+00  0.20683022299E-01 0.  0.
         14    1    1    2    0    0  0.74465401948E-02  0.22442182118E-01  0.11800567863E-02  0.23674776305E-01  0.00000000000E+00 0.  1.
     999901    1    3    3    0    0 -0.89138885098E-01  0.79076972375E-01 -0.91349140488E-02  0.88807789920E+00  0.88000000000E+00 0.  1.
        -11    1    4    4    0    0  0.63469334119E-01 -0.66677040964E-01  0.11125164833E-01  0.92726558109E-01  0.51100000000E-03 0. -1.
         11    1    4    4    0    0  0.18223010784E-01 -0.34842113528E-01 -0.31703075706E-02  0.39450766384E-01  0.51100000000E-03 0.  1.
</event>
<event>
 8    1  0.1082757E+005  0.1043930E+01  0.7957747E-01            NaN
         13   -1    0    0    0    0  0.00000000000E+00  0.00000000000E+00  0.74505805969E-08  0.10566000000E+00  0.10566000000E+00 0.  1.
     999900   -1    0    0    0    0 -0.00000000000E+00 -0.00000000000E+00 -0.74505805969E-08  0.93827000000E+00  0.93827000000E+00 0.  1.
     999902    2    1    2    0    0  0.11484237964E-01 -0.21581867215E-01 -0.10835299038E-01  0.10171892367E+01  0.10168376837E+01 0.  0.
     999903    2    3    3    0    0  0.95141131893E-01 -0.72898558071E-01  0.45940488797E-01  0.12991511408E+00  0.20034310823E-01 0.  0.
         14    1    1    2    0    0 -0.11484237964E-01  0.21581867215E-01  0.10835299038E-01  0.26740763253E-01  0.00000000000E+00 0.  1.
     999901    1    3    3    0    0 -0.83656893928E-01  0.51316690855E-01 -0.56775787835E-01  0.88727412266E+00  0.88000000000E+00 0. -1.
        -11    1    4    4    0    0  0.91378295851E-02 -0.13486799658E-01  0.16274889769E-02  0.16379973623E-01  0.51100000000E-03 0.  1.
         11    1    4    4    0    0  0.86003302307E-01 -0.59411758413E-01  0.44312999820E-01  0.11353514046E+00  0.51100000000E-03 0. -1.
</event>
<event>
 8    1  0.1082757E+005  0.1043930E+01  0.7957747E-01            NaN
         13   -1    0    0    0    0  0.00000000000E+00  0.00000000000E+00  0.74505805969E-08  0.10566000000E+00  0.10566000000E+00 0. -1.
     999900   -1    0    0    0    0 -0.00000000000E+00 -0.00000000000E+00 -0.74505805969E-08  0.93827000000E+00  0.93827000000E+00 0.  1.
     999902    2    1    2    0    0  0.10110179419E-01 -0.61797659739E-02 -0.19575560364E-01  0.10210475220E+01  0.10207910826E+01 0.  0.
     999903    2    3    3    0    0  0.10707728715E-01  0.52731621849E-01 -0.12008161388E+00  0.13336944102E+00  0.21737856556E-01 0.  0.
         14    1    1    2    0    0 -0.10110179419E-01  0.61797659739E-02  0.19575560364E-01  0.22882477990E-01  0.00000000000E+00 0. -1.
     999901    1    3    3    0    0 -0.59754929552E-03 -0.58911387823E-01  0.10050605352E+00  0.88767808099E+00  0.88000000000E+00 0. -1.
        -11    1    4    4    0    0 -0.45425283185E-02  0.15302758503E-01 -0.21176170484E-01  0.26523580051E-01  0.51100000000E-03 0.  1.
         11    1    4    4    0    0  0.15250257033E-01  0.37428863346E-01 -0.98905443399E-01  0.10684586097E+00  0.51100000000E-03 0. -1.
</event>
<event>
 8    1  0.1082757E+005  0.1043930E+01  0.7957747E-01            NaN
         13   -1    0    0    0    0  0.00000000000E+00  0.00000000000E+00  0.74505805969E-08  0.10566000000E+00  0.10566000000E+00 0.  1.
     999900   -1    0    0    0    0 -0.00000000000E+00 -0.00000000000E+00 -0.74505805969E-08  0.93827000000E+00  0.93827000000E+00 0. -1.
     999902    2    1    2    0    0 -0.31298068918E-02  0.21144264899E-01  0.11196703580E-01  0.10198003129E+01  0.10195148044E+01 0.  0.
     999903    2    3    3    0    0 -0.82883499393E-01 -0.80949460932E-01 -0.50933677359E-01  0.12814793412E+00  0.20128681845E-01 0.  0.
         14    1    1    2    0    0  0.31298068918E-02 -0.21144264899E-01 -0.11196703580E-01  0.24129687117E-01  0.00000000000E+00 0. -1.
     999901    1    3    3    0    0  0.79753692501E-01  0.10209372583E+00  0.62130380939E-01  0.89165237876E+00  0.88000000000E+00 0. -1.
        -11    1    4    4    0    0 -0.60439436389E-01 -0.59383531389E-01 -0.46647062680E-01  0.96724034495E-01  0.51100000000E-03 0. -1.
         11    1    4    4    0    0 -0.22444063004E-01 -0.21565929543E-01 -0.42866146788E-02  0.31423899624E-01  0.51100000000E-03 0.  1.
</event>
<event>
 8    1  0.1082757E+005  0.1043930E+01  0.7957747E-01            NaN
         13   -1    0    0    0    0  0.00000000000E+00  0.00000000000E+00  0.74505805969E-08  0.10566000000E+00  0.10566000000E+00 0. -1.
     999900   -1    0    0    0    0 -0.00000000000E+00 -0.00000000000E+00 -0.74505805969E-08  0.93827000000E+00  0.93827000000E+00 0. -1.
     999902    2    1    2    0    0  0.47905333908E-02  0.20527652712E-01 -0.11556114708E-01  0.10198909168E+01  0.10196075738E+01 0.  0.
     999903    2    3    3    0    0 -0.91177231602E-01 -0.49138740227E-01  0.72447180538E-01  0.12797176581E+00  0.20006886857E-01 0.  0.
         14    1    1    2    0    0 -0.47905333908E-02 -0.20527652712E-01  0.11556114708E-01  0.24039083243E-01  0.00000000000E+00 0. -1.
     999901    1    3    3    0    0  0.95967764993E-01  0.69666392939E-01 -0.84003295245E-01  0.89191915095E+00  0.88000000000E+00 0. -1.
        -11    1    4    4    0    0 -0.77081755700E-01 -0.41341530596E-01  0.69196208320E-01  0.11153069345E+00  0.51100000000E-03 0.  1.
         11    1    4    4    0    0 -0.14095475902E-01 -0.77972096315E-02  0.32509722177E-02  0.16441072359E-01  0.51100000000E-03 0. -1.
</event>
<event>
 8    1  0.1082757E+005  0.1043930E+01  0.7957747E-01            NaN
         13   -1    0    0    0    0  0.00000000000E+00  0.00000000000E+00  0.74505805969E-08  0.10566000000E+00  0.10566000000E+00 0.  1.
     999900   -1    0    0    0    0 -0.00000000000E+00 -0.00000000000E+00 -0.74505805969E-08  0.93827000000E+00  0.93827000000E+00 0. -1.
     999902    2    1    2    0    0 -0.18295449373E-01  0.12960458574E-01  0.96436651206E-02  0.10195230905E+01  0.10192309036E+01 0.  0.
     999903    2    3    3    0    0 -0.11753321175E+00  0.29915223844E-01  0.49673384742E-01  0.13287886873E+00  0.21917393135E-01 0.  0.
         14    1    1    2    0    0  0.18295449373E-01 -0.12960458574E-01 -0.96436651206E-02  0.24406909496E-01  0.00000000000E+00 0. -1.
     999901    1    3    3    0    0  0.99237762378E-01 -0.16954765270E-01 -0.40029719622E-01  0.88664422177E+00  0.88000000000E+00 0.  1.
        -11    1    4    4    0    0 -0.74092987938E-01  0.29205588983E-01  0.28956818107E-01  0.84743706110E-01  0.51100000000E-03 0.  1.
         11    1    4    4    0    0 -0.43440223812E-01  0.70963486143E-03  0.20716566636E-01  0.48135162622E-01  0.51100000000E-03 0. -1.
</event>
<event>
 8    1  0.1082757E+005  0.1043930E+01  0.7957747E-01            NaN
         13   -1    0    0    0    0  0.00000000000E+00  0.00000000000E+00  0.74505805969E-08  0.10566000000E+00  0.10566000000E+00 0.  1.
     999900   -1    0    0    0    0 -0.00000000000E+00 -0.00000000000E+00 -0.74505805969E-08  0.93827000000E+00  0.93827000000E+00 0.  1.
     999902    2    1    2    0    0 -0.16463822826E-01  0.16581047501E-01  0.19841252540E-02  0.10204795128E+01  0.10202100326E+01 0.  0.
     999903    2    3    3    0    0 -0.43127222603E-01  0.10228631753E+00 -0.70474547316E-01  0.13295115298E+00  0.19669752810E-01 0.  0.
         14    1    1    2    0    0  0.16463822826E-01 -0.16581047501E-01 -0.19841252540E-02  0.23450487229E-01  0.00000000000E+00 0. -1.
     999901    1    3    3    0    0  0.26663399777E-01 -0.85705270034E-01  0.72458672570E-01  0.88752835979E+00  0.88000000000E+00 0. -1.
        -11    1    4    4    0    0 -0.44655709141E-01  0.96181286463E-01 -0.63768382703E-01  0.12374021165E+00  0.51100000000E-03 0. -1.
         11    1    4    4    0    0  0.15284865380E-02  0.61050310714E-02 -0.67061646134E-02  0.92109413363E-02  0.51100000000E-03 0.  1.
</event>
<event>
 8    1  0.1082757E+005  0.1043930E+01  0.7957747E-01            NaN
         13   -1    0    0    0    0  0.00000000000E+00  0.00000000000E+00  0.74505805969E-08  0.10566000000E+00  0.10566000000E+00 0. -1.
     999900   -1    0    0    0    0 -0.00000000000E+00 -0.00000000000E+00 -0.74505805969E-08  0.93827000000E+00  0.93827000000E+00 0.  1.
     999902    2    1    2    0    0  0.79888121771E-02 -0.11439007876E-02 -0.23314649974E-01  0.10192581024E+01  0.10189594578E+01 0.  0.
     999903    2    3    3    0    0 -0.80119244486E-01 -0.76812607337E-01  0.59853359938E-01  0.12773934168E+00  0.20387367016E-01 0.  0.
         14    1    1    2    0    0 -0.79888121771E-02  0.11439007876E-02  0.23314649974E-01  0.24671897625E-01  0.00000000000E+00 0. -1.
     999901    1    3    3    0    0  0.88108056663E-01  0.75668706549E-01 -0.83168009912E-01  0.89151876070E+00  0.88000000000E+00 0.  1.
        -11    1    4    4    0    0 -0.59170612437E-01 -0.62368202071E-01  0.37230768291E-01  0.93687487074E-01  0.51100000000E-03 0.  1.
         11    1    4    4    0    0 -0.20948632050E-01 -0.14444405266E-01  0.22622591647E-01  0.34051854605E-01  0.51100000000E-03 0. -1.
</event>
<event>
 8    1  0.1082757E+005  0.1043930E+01  0.7957747E-01            NaN
         13   -1    0    0    0    0  0.00000000000E+00  0.00000000000E+00  0.74505805969E-08  0.10566000000E+00  0.10566000000E+00 0.  1.
     999900   -1    0    0    0    0 -0.00000000000E+00 -0.00000000000E+00 -0.74505805969E-08  0.93827000000E+00  0.93827000000E+00 0. -1.
     999902    2    1    2    0    0 -0.16125326740E-01  0.17263414371E-01 -0.12154927823E-02  0.10202756334E+01  0.10200013917E+01 0.  0.
     999903    2    3    3    0    0  0.45447048860E-01  0.72425722581E-01 -0.97497859090E-01  0.13117252813E+00  0.19735249334E-01 0.  0.
         14    1    1    2    0    0  0.16125326740E-01 -0.17263414371E-01  0.12154927823E-02  0.23654366635E-01  0.00000000000E+00 0. -1.
     999901    1    3    3    0    0 -0.61572375599E-01 -0.55162308209E-01  0.96282366308E-01  0.88910310524E+00  0.88000000000E+00 0.  1.
        -11    1    4    4    0    0  0.17551310137E-01  0.12398062040E-01 -0.21805876106E-01  0.30618912188E-01  0.51100000000E-03 0. -1.
         11    1    4    4    0    0  0.27895738723E-01  0.60027660541E-01 -0.75691982984E-01  0.10055361594E+00  0.51100000000E-03 0.  1.
</event>
<event>
 8    1  0.1082757E+005  0.1043930E+01  0.7957747E-01            NaN
         13   -1    0    0    0    0  0.00000000000E+00  0.00000000000E+00  0.74505805969E-08  0.10566000000E+00  0.10566000000E+00 0.  1.
     999900   -1    0    0    0    0 -0.00000000000E+00 -0.00000000000E+00 -0.74505805969E-08  0.93827000000E+00  0.93827000000E+00 0. -1.
     999902    2    1    2    0    0  0.86186479081E-02  0.25797887455E-01  0.52969182394E-02  0.10162195429E+01  0.10158416658E+01 0.  0.
     999903    2    3    3    0    0 -0.55658396086E-01 -0.65347277551E-01  0.88824590771E-01  0.12525610283E+00  0.20764383763E-01 0.  0.
         14    1    1    2    0    0 -0.86186479081E-02 -0.25797887455E-01 -0.52969182394E-02  0.27710457083E-01  0.00000000000E+00 0. -1.
     999901    1    3    3    0    0  0.64277043995E-01  0.91145165005E-01 -0.83527672532E-01  0.89096344008E+00  0.88000000000E+00 0. -1.
        -11    1    4    4    0    0 -0.43777679603E-01 -0.50690391290E-01  0.55620920264E-01  0.87062901930E-01  0.51100000000E-03 0. -1.
         11    1    4    4    0    0 -0.11880716483E-01 -0.14656886261E-01  0.33203670508E-01  0.38193200903E-01  0.51100000000E-03 0.  1.
</event>
<event>
 8    1  0.1082757E+005  0.1043930E+01  0.7957747E-01            NaN
         13   -1    0    0    0    0  0.00000000000E+00  0.00000000000E+00  0.74505805969E-08  0.10566000000E+00  0.10566000000E+00 0.  1.
     999900   -1    0    0    0    0 -0.00000000000E+00 -0.00000000000E+00 -0.74505805969E-08  0.93827000000E+00  0.93827000000E+00 0.  1.
     999902    2    1    2    0    0 -0.13022472798E-02  0.65659761600E-02  0.21480596930E-01  0.10214305792E+01  0.10211827477E+01 0.  0.
     999903    2    3    3    0    0  0.23981449322E-01 -0.63972424708E-01 -0.10738221313E+00  0.12889455467E+00  0.20378554691E-01 0.  0.
         14    1    1    2    0    0  0.13022472798E-02 -0.65659761600E-02 -0.21480596930E-01  0.22499420779E-01  0.00000000000E+00 0. -1.
     999901    1    3    3    0    0 -0.25283696602E-01  0.70538400868E-01  0.12886281006E+00  0.89253602455E+00  0.88000000000E+00 0. -1.
        -11    1    4    4    0    0  0.22965107403E-01 -0.40600538648E-01 -0.82235746589E-01  0.94545116397E-01  0.51100000000E-03 0.  1.
         11    1    4    4    0    0  0.10163419196E-02 -0.23371886060E-01 -0.25146466542E-01  0.34349438270E-01  0.51100000000E-03 0. -1.
</event>
<event>
 8    1  0.1082757E+005  0.1043930E+01  0.7957747E-01            NaN
         13   -1    0    0    0    0  0.00000000000E+00  0.00000000000E+00  0.74505805969E-08  0.10566000000E+00  0.10566000000E+00 0. -1.
     999900   -1    0    0    0    0 -0.00000000000E+00 -0.00000000000E+00 -0.74505805969E-08  0.93827000000E+00  0.93827000000E+00 0. -1.
     999902    2    1    2    0    0  0.52862567375E-02 -0.37387990887E-02  0.22858111984E-01  0.10201725504E+01  0.10198958849E+01 0.  0.
     999903    2    3    3    0    0 -0.20669417347E-01  0.12662084103E+00  0.71208313829E-02  0.13005177499E+00  0.20067280379E-01 0.  0.
         14    1    1    2    0    0 -0.52862567375E-02  0.37387990887E-02 -0.22858111984E-01  0.23757449619E-01  0.00000000000E+00 0.  1.
     999901    1    3    3    0    0  0.25955674085E-01 -0.13035964011E+00  0.15737280602E-01  0.89012077539E+00  0.88000000000E+00 0.  1.
        -11    1    4    4    0    0  0.12007654060E-03  0.61366080441E-01  0.33073177468E-02  0.61457381320E-01  0.51100000000E-03 0.  1.
         11    1    4    4    0    0 -0.20789493888E-01  0.65254760585E-01  0.38135136361E-02  0.68594393666E-01  0.51100000000E-03 0. -1.
</event>
<event>
 8    1  0.1082757E+005  0.1043930E+01  0.7957747E-01            NaN
         13   -1    0    0    0    0  0.00000000000E+00  0.00000000000E+00  0.74505805969E-08  0.10566000000E+00  0.10566000000E+00 0.  1.
     999900   -1    0    0    0    0 -0.00000000000E+00 -0.00000000000E+00 -0.74505805969E-08  0.93827000000E+00  0.93827000000E+00 0.  1.
     999902    2    1    2    0    0  0.17149955992E-01 -0.11282081352E-01 -0.12061800049E-01  0.10201204773E+01  0.10198425834E+01 0.  0.
     999903    2    3    3    0    0  0.38179926601E-02 -0.11658100325E+00 -0.59964229498E-01  0.13244922795E+00  0.18476519681E-01 0.  0.
         14    1    1    2    0    0 -0.17149955992E-01  0.11282081352E-01  0.12061800049E-01  0.23809522687E-01  0.00000000000E+00 0.  1.
     999901    1    3    3    0    0  0.13331963332E-01  0.10529892189E+00  0.47902429449E-01  0.88767124936E+00  0.88000000000E+00 0. -1.
        -11    1    4    4    0    0  0.99296858855E-03 -0.59349927332E-01 -0.40786518622E-01  0.72022226314E-01  0.51100000000E-03 0. -1.
         11    1    4    4    0    0  0.28250240716E-02 -0.57231075914E-01 -0.19177710875E-01  0.60427001636E-01  0.51100000000E-03 0.  1.
</event>
<event>
 8    1  0.1082757E+005  0.1043930E+01  0.7957747E-01            NaN
         13   -1    0    0    0    0  0.00000000000E+00  0.00000000000E+00  0.74505805969E-08  0.10566000000E+00  0.10566000000E+00 0.  1.
     999900   -1    0    0    0    0 -0.00000000000E+00 -0.00000000000E+00 -0.74505805969E-08  0.93827000000E+00  0.93827000000E+00 0.  1.
     999902    2    1    2    0    0  0.15233276136E-01  0.10642756214E-01 -0.13270955226E-01  0.10210949564E+01  0.10208395911E+01 0.  0.
     999903    2    3    3    0    0  0.10506192878E+00  0.80077629488E-01  0.43150981641E-02  0.13362683998E+00  0.19674264121E-01 0.  0.
         14    1    1    2    0    0 -0.15233276136E-01 -0.10642756214E-01  0.13270955226E-01  0.22835043558E-01  0.00000000000E+00 0.  1.
     999901    1    3    3    0    0 -0.89828652639E-01 -0.69434873274E-01 -0.17586053390E-01  0.88746811646E+00  0.88000000000E+00 0. -1.
        -11    1    4    4    0    0  0.10465827255E+00  0.78252243060E-01  0.21168573427E-02  0.13069624999E+00  0.51100000000E-03 0.  1.
         11    1    4    4    0    0  0.40365622809E-03  0.18253864288E-02  0.21982408215E-02  0.29305899874E-02  0.51100000000E-03 0. -1.
</event>
<event>
 8    1  0.1082757E+005  0.1043930E+01  0.7957747E-01            NaN
         13   -1    0    0    0    0  0.00000000000E+00  0.00000000000E+00  0.74505805969E-08  0.10566000000E+00  0.10566000000E+00 0. -1.
     999900   -1    0    0    0    0 -0.00000000000E+00 -0.00000000000E+00 -0.74505805969E-08  0.93827000000E+00  0.93827000000E+00 0.  1.
     999902    2    1    2    0    0  0.79961710193E-02 -0.21033150084E-01  0.21300223564E-03  0.10214271663E+01  0.10211792588E+01 0.  0.
     999903    2    3    3    0    0 -0.95942532055E-01  0.73697030767E-01 -0.41481432315E-01  0.12928620940E+00  0.18920700616E-01 0.  0.
         14    1    1    2    0    0 -0.79961710193E-02  0.21033150084E-01 -0.21300223564E-03  0.22502833674E-01  0.00000000000E+00 0. -1.
     999901    1    3    3    0    0  0.10393870307E+00 -0.94730180851E-01  0.41694434551E-01  0.89214095693E+00  0.88000000000E+00 0. -1.
        -11    1    4    4    0    0 -0.21748085015E-01  0.17004613120E-01 -0.13302194821E-02  0.27643564785E-01  0.51100000000E-03 0.  1.
         11    1    4    4    0    0 -0.74194447040E-01  0.56692417647E-01 -0.40151212833E-01  0.10164264461E+00  0.51100000000E-03 0. -1.
</event>
<event>
 8    1  0.1082757E+005  0.1043930E+01  0.7957747E-01            NaN
         13   -1    0    0    0    0  0.00000000000E+00  0.00000000000E+00  0.74505805969E-08  0.10566000000E+00  0.10566000000E+00 0. -1.
     999900   -1    0    0    0    0 -0.00000000000E+00 -0.00000000000E+00 -0.74505805969E-08  0.93827000000E+00  0.93827000000E+00 0.  1.
     999902    2    1    2    0    0 -0.70581428595E-02  0.17126776542E-01 -0.13308120253E-01  0.10211210123E+01  0.10208662360E+01 0.  0.
     999903    2    3    3    0    0 -0.53834438819E-01  0.11506106786E+00 -0.38187102854E-01  0.13410460261E+00  0.19712774454E-01 0.  0.
         14    1    1    2    0    0  0.70581428595E-02 -0.17126776542E-01  0.13308120253E-01  0.22808987702E-01  0.00000000000E+00 0.  1.
     999901    1    3    3    0    0  0.46776295960E-01 -0.97934291319E-01  0.24878982601E-01  0.88701640969E+00  0.88000000000E+00 0. -1.
        -11    1    4    4    0    0 -0.20744299740E-01  0.34390703464E-01 -0.36951036214E-02  0.40335609183E-01  0.51100000000E-03 0. -1.
         11    1    4    4    0    0 -0.33090139079E-01  0.80670364397E-01 -0.34491999232E-01  0.93768993427E-01  0.51100000000E-03 0.  1.
</event>
<event>
 8    1  0.1082757E+005  0.1043930E+01  0.7957747E-01            NaN
         13   -1    0    0    0    0  0.00000000000E+00  0.00000000000E+00  0.74505805969E-08  0.10566000000E+00  0.10566000000E+00 0. -1.
     999900   -1    0    0    0    0 -0.00000000000E+00 -0.00000000000E+00 -0.74505805969E-08  0.93827000000E+00  0.93827000000E+00 0. -1.
     999902    2    1    2    0    0  0.14121930296E-01  0.90084288173E-02 -0.16600817361E-01  0.10203467890E+01  0.10200742139E+01 0.  0.
     999903    2    3    3    0    0 -0.79525425813E-01  0.69974439652E-01 -0.75522882372E-01  0.13132570288E+00  0.17944885608E-01 0.  0.
         14    1    1    2    0    0 -0.14121930296E-01 -0.90084288173E-02  0.16600817361E-01  0.23583211022E-01  0.00000000000E+00 0.  1.
     999901    1    3    3    0    0  0.93647356109E-01 -0.60966010835E-01  0.58922065011E-01  0.88902108610E+00  0.88000000000E+00 0.  1.
        -11    1    4    4    0    0 -0.37404547720E-01  0.25424667633E-01 -0.40520268485E-01  0.60726165641E-01  0.51100000000E-03 0.  1.
         11    1    4    4    0    0 -0.42120878093E-01  0.44549772019E-01 -0.35002613888E-01  0.70599537238E-01  0.51100000000E-03 0. -1.
</event>
<event>
 8    1  0.1082757E+005  0.1043930E+01  0.7957747E-01            NaN
         13   -1    0    0    0    0  0.00000000000E+00  0.00000000000E+00  0.74505805969E-08  0.10566000000E+00  0.10566000000E+00 0.  1.
     999900   -1    0    0    0    0 -0.00000000000E+00 -0.00000000000E+00 -0.74505805969E-08  0.93827000000E+00  0.93827000000E+00 0.  1.
     999902    2    1    2    0    0 -0.27668962565E-02 -0.20935136988E-01  0.85839702037E-02  0.10211348202E+01  0.10208803558E+01 0.  0.
     999903    2    3    3    0    0 -0.44188003936E-02 -0.31920874402E-02 -0.12874482772E+00  0.13030557548E+00  0.19354511508E-01 0.  0.
         14    1    1    2    0    0  0.27668962565E-02  0.20935136988E-01 -0.85839702037E-02  0.22795179755E-01  0.00000000000E+00 0.  1.
     999901    1    3    3    0    0  0.16519041372E-02 -0.17743049548E-01  0.13732879793E+00  0.89082924477E+00  0.88000000000E+00 0. -1.
        -11    1    4    4    0    0 -0.11182839749E-01 -0.33465909439E-02 -0.53794192771E-01  0.55048450230E-01  0.51100000000E-03 0. -1.
         11    1    4    4    0    0  0.67640393554E-02  0.15450350364E-03 -0.74950634952E-01  0.75257125247E-01  0.51100000000E-03 0.  1.
</event>
<event>
 8    1  0.1082757E+005  0.1043930E+01  0.7957747E-01            NaN
         13   -1    0    0    0    0  0.00000000000E+00  0.00000000000E+00  0.74505805969E-08  0.10566000000E+00  0.10566000000E+00 0.  1.
     999900   -1    0    0    0    0 -0.00000000000E+00 -0.00000000000E+00 -0.74505805969E-08  0.93827000000E+00  0.93827000000E+00 0.  1.
     999902    2    1    2    0    0 -0.47778596240E-02 -0.23538018691E-01  0.62455679048E-05  0.10199119588E+01  0.10196291175E+01 0.  0.
     999903    2    3    3    0    0  0.32022680564E-02 -0.82417426724E-01 -0.10140238791E+00  0.13209768872E+00  0.19091054017E-01 0.  0.
         14    1    1    2    0    0  0.47778596240E-02  0.23538018691E-01 -0.62455679048E-05  0.24018041250E-01  0.00000000000E+00 0.  1.
     999901    1    3    3    0    0 -0.79801276804E-02  0.58879408034E-01  0.10140863347E+00  0.88781427003E+00  0.88000000000E+00 0. -1.
        -11    1    4    4    0    0  0.10480032003E-01 -0.51907861779E-01 -0.69236118134E-01  0.87167415704E-01  0.51100000000E-03 0.  1.
         11    1    4    4    0    0 -0.72777639467E-02 -0.30509564945E-01 -0.32166269772E-01  0.44930273015E-01  0.51100000000E-03 0. -1.
</event>
<event>
 7    1  0.1082757E+005  0.1043930E+01  0.7957747E-01            NaN
         13   -1    0    0    0    0  0.00000000000E+00  0.00000000000E+00  0.74505805969E-08  0.10566000000E+00  0.10566000000E+00 0.  1.
     999900   -1    0    0    0    0 -0.00000000000E+00 -0.00000000000E+00 -0.74505805969E-08  0.93827000000E+00  0.93827000000E+00 0. -1.
     999903    2    1    2    0    0  0.38248736507E-01  0.84066076046E-01  0.67520045472E-01  0.11620573413E+00  0.20365291977E-01 0.  0.
         14    1    1    2    0    0 -0.35251561067E-01 -0.10674725221E-01  0.17120669500E-01  0.40616987091E-01  0.00000000000E+00 0.  1.
     999901    1    1    2    0    0 -0.29971754394E-02 -0.73391350826E-01 -0.84640714972E-01  0.88710727878E+00  0.88000000000E+00 0. -1.
        -11    1    3    3    0    0  0.31530239206E-01  0.65326586766E-01  0.41950489296E-01  0.83796322092E-01  0.51100000000E-03 0. -1.
         11    1    3    3    0    0  0.67184973008E-02  0.18739489280E-01  0.25569556175E-01  0.32409412035E-01  0.51100000000E-03 0.  1.
</event>
<event>
 8    1  0.1082757E+005  0.1043930E+01  0.7957747E-01            NaN
         13   -1    0    0    0    0  0.00000000000E+00  0.00000000000E+00  0.74505805969E-08  0.10566000000E+00  0.10566000000E+00 0. -1.
     999900   -1    0    0    0    0 -0.00000000000E+00 -0.00000000000E+00 -0.74505805969E-08  0.93827000000E+00  0.93827000000E+00 0. -1.
     999902    2    1    2    0    0 -0.35869811165E-02  0.22954062625E-01  0.85179137157E-02  0.10191850959E+01  0.10188846595E+01 0.  0.
     999903    2    3    3    0    0  0.69677436922E-01 -0.82431907650E-01  0.65871910323E-01  0.12802665960E+00  0.20043761689E-01 0.  0.
         14    1    1    2    0    0  0.35869811165E-02 -0.22954062625E-01 -0.85179137157E-02  0.24744904093E-01  0.00000000000E+00 0.  1.
     999901    1    3    3    0    0 -0.73264418039E-01  0.10538597028E+00 -0.57353996607E-01  0.89115843631E+00  0.88000000000E+00 0. -1.
        -11    1    4    4    0    0  0.10828851439E-01 -0.24297384243E-01  0.11184694881E-01  0.28861486884E-01  0.51100000000E-03 0. -1.
         11    1    4    4    0    0  0.58848585483E-01 -0.58134523407E-01  0.54687215442E-01  0.99165172712E-01  0.51100000000E-03 0.  1.
</event>
<event>
 8    1  0.1082757E+005  0.1043930E+01  0.7957747E-01            NaN
         13   -1    0    0    0    0  0.00000000000E+00  0.00000000000E+00  0.74505805969E-08  0.10566000000E+00  0.10566000000E+00 0. -1.
     999900   -1    0    0    0    0 -0.00000000000E+00 -0.00000000000E+00 -0.74505805969E-08  0.93827000000E+00  0.93827000000E+00 0. -1.
     999902    2    1    2    0    0 -0.43030715591E-02 -0.14155222976E-02 -0.19298889413E-01  0.10241065982E+01  0.10239147216E+01 0.  0.
     999903    2    3    3    0    0  0.27656496932E-01 -0.71339884487E-01 -0.11063026804E+00  0.13604564801E+00  0.20374032398E-01 0.  0.
         14    1    1    2    0    0  0.43030715591E-02  0.14155222976E-02  0.19298889413E-01  0.19823401847E-01  0.00000000000E+00 0. -1.
     999901    1    3    3    0    0 -0.31959568491E-01  0.69924362189E-01  0.91331378623E-01  0.88806095014E+00  0.88000000000E+00 0.  1.
        -11    1    4    4    0    0  0.20237795377E-01 -0.27119476776E-01 -0.55205793863E-01  0.64753186635E-01  0.51100000000E-03 0.  1.
         11    1    4    4    0    0  0.74187015548E-02 -0.44220407710E-01 -0.55424474172E-01  0.71292461376E-01  0.51100000000E-03 0. -1.
</event>
<event>
 8    1  0.1082757E+005  0.1043930E+01  0.7957747E-01            NaN
         13   -1    0    0    0    0  0.00000000000E+00  0.00000000000E+00  0.74505805969E-08  0.10566000000E+00  0.10566000000E+00 0. -1.
     999900   -1    0    0    0    0 -0.00000000000E+00 -0.00000000000E+00 -0.74505805969E-08  0.93827000000E+00  0.93827000000E+00 0. -1.
     999902    2    1    2    0    0 -0.21454927290E-01  0.98295498849E-02  0.27298895552E-02  0.10201731851E+01  0.10198965347E+01 0.  0.
     999903    2    3    3    0    0  0.12453380060E+00  0.20623085345E-01  0.70904507152E-02  0.12806992677E+00  0.20436548367E-01 0.  0.
         14    1    1    2    0    0  0.21454927290E-01 -0.98295498849E-02 -0.27298895552E-02  0.23756814874E-01  0.00000000000E+00 0.  1.
     999901    1    3    3    0    0 -0.14598872789E+00 -0.10793535460E-01 -0.43605611600E-02  0.89210325836E+00  0.88000000000E+00 0.  1.
        -11    1    4    4    0    0  0.14521509613E-01  0.89248076522E-03  0.73339336910E-02  0.16300873221E-01  0.51100000000E-03 0. -1.
         11    1    4    4    0    0  0.11001229099E+00  0.19730604580E-01 -0.24348297580E-03  0.11176905355E+00  0.51100000000E-03 0.  1.
</event>
<event>
 8    1  0.1082757E+005  0.1043930E+01  0.7957747E-01            NaN
         13   -1    0    0    0    0  0.00000000000E+00  0.00000000000E+00  0.74505805969E-08  0.10566000000E+00  0.10566000000E+00 0.  1.
     999900   -1    0    0    0    0 -0.00000000000E+00 -0.00000000000E+00 -0.74505805969E-08  0.93827000000E+00  0.93827000000E+00 0.  1.
     999902    2    1    2    0    0  0.13126011836E-01  0.32107863320E-02  0.19302660099E-01  0.10203674445E+01  0.10200953523E+01 0.  0.
     999903    2    3    3    0    0 -0.40389691175E-02 -0.28665992411E-01 -0.12303533702E+00  0.12819544816E+00  0.21408558602E-01 0.  0.
         14    1    1    2    0    0 -0.13126011836E-01 -0.32107863320E-02 -0.19302660099E-01  0.23562555517E-01  0.00000000000E+00 0. -1.
     999901    1    3    3    0    0  0.17164980953E-01  0.31876778743E-01  0.14233799712E+00  0.89217199632E+00  0.88000000000E+00 0. -1.
        -11    1    4    4    0    0  0.16958259889E-02  0.30937742783E-02 -0.90067263520E-02  0.96865631495E-02  0.51100000000E-03 0.  1.
         11    1    4    4    0    0 -0.57347951064E-02 -0.31759766689E-01 -0.11402861067E+00  0.11850888501E+00  0.51100000000E-03 0. -1.
</event>
<event>
 8    1  0.1082757E+005  0.1043930E+01  0.7957747E-01            NaN
         13   -1    0    0    0    0  0.00000000000E+00  0.00000000000E+00  0.74505805969E-08  0.10566000000E+00  0.10566000000E+00 0. -1.
     999900   -1    0    0    0    0 -0.00000000000E+00 -0.00000000000E+00 -0.74505805969E-08  0.93827000000E+00  0.93827000000E+00 0. -1.
     999902    2    1    2    0    0 -0.11031648716E-01  0.13972530768E-02  0.21482528373E-01  0.10197401547E+01  0.10194532037E+01 0.  0.
     999903    2    3    3    0    0  0.77441791984E-01  0.52466136047E-01  0.89879525566E-01  0.13119430348E+00  0.19587995636E-01 0.  0.
         14    1    1    2    0    0  0.11031648716E-01 -0.13972530768E-02 -0.21482528373E-01  0.24189845284E-01  0.00000000000E+00 0. -1.
     999901    1    3    3    0    0 -0.88473440701E-01 -0.51068882970E-01 -0.68396997193E-01  0.88854585123E+00  0.88000000000E+00 0. -1.
        -11    1    4    4    0    0  0.58344708721E-01  0.31164079537E-01  0.70269688969E-01  0.96505933486E-01  0.51100000000E-03 0.  1.
         11    1    4    4    0    0  0.19097083263E-01  0.21302056510E-01  0.19609836597E-01  0.34688369998E-01  0.51100000000E-03 0. -1.
</event>
<event>
 8    1  0.1082757E+005  0.1043930E+01  0.7957747E-01            NaN
         13   -1    0    0    0    0  0.00000000000E+00  0.00000000000E+00  0.74505805969E-08  0.10566000000E+00  0.10566000000E+00 0.  1.
     999900   -1    0    0    0    0 -0.00000000000E+00 -0.00000000000E+00 -0.74505805969E-08  0.93827000000E+00  0.93827000000E+00 0. -1.
     999902    2    1    2    0    0  0.17172515222E-01 -0.77297649514E-02 -0.13409184356E-01  0.10208118087E+01  0.10205499978E+01 0.  0.
     999903    2    3    3    0    0  0.25777943455E-01  0.64406183301E-02  0.12574981642E+00  0.12972254229E+00  0.17576624130E-01 0.  0.
         14    1    1    2    0    0 -0.17172515222E-01  0.77297649514E-02  0.13409184356E-01  0.23118191330E-01  0.00000000000E+00 0.  1.
     999901    1    3    3    0    0 -0.86054282330E-02 -0.14170383281E-01 -0.13915900078E+00  0.89108926638E+00  0.88000000000E+00 0. -1.
        -11    1    4    4    0    0  0.39387172945E-02  0.23053732403E-03  0.60550181998E-01  0.60680740786E-01  0.51100000000E-03 0.  1.
         11    1    4    4    0    0  0.21839226161E-01  0.62100810060E-02  0.65199634422E-01  0.69041801506E-01  0.51100000000E-03 0. -1.
</event>
<event>
 8    1  0.1082757E+005  0.1043930E+01  0.7957747E-01            NaN
         13   -1    0    0    0    0  0.00000000000E+00  0.00000000000E+00  0.74505805969E-08  0.10566000000E+00  0.10566000000E+00 0. -1.
     999900   -1    0    0    0    0 -0.00000000000E+00 -0.00000000000E+00 -0.74505805969E-08  0.93827000000E+00  0.93827000000E+00 0. -1.
     999902    2    1    2    0    0  0.68266829175E-02  0.17704573905E-01 -0.14508552360E-01  0.10200437356E+01  0.10197640261E+01 0.  0.
     999903    2    3    3    0    0 -0.10675784771E+00  0.49257876647E-01  0.50975270413E-01  0.12977120002E+00  0.20457509664E-01 0.  0.
         14    1    1    2    0    0 -0.68266829175E-02 -0.17704573905E-01  0.14508552360E-01  0.23886264430E-01  0.00000000000E+00 0. -1.
     999901    1    3    3    0    0  0.11358453063E+00 -0.31553302742E-01 -0.65483822773E-01  0.89027253555E+00  0.88000000000E+00 0. -1.
        -11    1    4    4    0    0 -0.32898484968E-01  0.19428751957E-01  0.72158434452E-02  0.38885938763E-01  0.51100000000E-03 0.  1.
         11    1    4    4    0    0 -0.73859362740E-01  0.29829124690E-01  0.43759426968E-01  0.90885261257E-01  0.51100000000E-03 0. -1.
</event>
<event>
 8    1  0.1082757E+005  0.1043930E+01  0.7957747E-01            NaN
         13   -1    0    0    0    0  0.00000000000E+00  0.00000000000E+00  0.74505805969E-08  0.10566000000E+00  0.10566000000E+00 0.  1.
     999900   -1    0    0    0    0 -0.00000000000E+00 -0.00000000000E+00 -0.74505805969E-08  0.93827000000E+00  0.93827000000E+00 0.  1.
     999902    2    1    2    0    0 -0.37943960532E-02 -0.13493031488E-01  0.18801691796E-01  0.10204787110E+01  0.10202092122E+01 0.  0.
     999903    2    3    3    0    0 -0.80089106705E-01 -0.35741964454E-01  0.98377710722E-01  0.13332131762E+00  0.20115832785E-01 0.  0.
         14    1    1    2    0    0  0.37943960532E-02  0.13493031488E-01 -0.18801691796E-01  0.23451288974E-01  0.00000000000E+00 0. -1.
     999901    1    3    3    0    0  0.76294710652E-01  0.22248932965E-01 -0.79576018926E-01  0.88715739341E+00  0.88000000000E+00 0.  1.
        -11    1    4    4    0    0 -0.39792116816E-01 -0.20478415069E-01  0.35657115977E-01  0.57222976899E-01  0.51100000000E-03 0.  1.
         11    1    4    4    0    0 -0.40296989889E-01 -0.15263549384E-01  0.62720594745E-01  0.76098340718E-01  0.51100000000E-03 0. -1.
</event>
<event>
 8    1  0.1082757E+005  0.1043930E+01  0.7957747E-01            NaN
         13   -1    0    0    0    0  0.00000000000E+00  0.00000000000E+00  0.74505805969E-08  0.10566000000E+00  0.10566000000E+00 0.  1.
     999900   -1    0    0    0    0 -0.00000000000E+00 -0.00000000000E+00 -0.74505805969E-08  0.93827000000E+00  0.93827000000E+00 0.  1.
     999902    2    1    2    0    0 -0.24813134628E-02 -0.20909406243E-01 -0.67942251629E-02  0.10218048631E+01  0.10215652973E+01 0.  0.
     999903    2    3    3    0    0  0.47292340444E-01 -0.10786089757E+00  0.59859791940E-01  0.13361527950E+00  0.19982730977E-01 0.  0.
         14    1    1    2    0    0  0.24813134628E-02  0.20909406243E-01  0.67942251629E-02  0.22125136870E-01  0.00000000000E+00 0. -1.
     999901    1    3    3    0    0 -0.49773653907E-01  0.86951491323E-01 -0.66654017103E-01  0.88818958363E+00  0.88000000000E+00 0.  1.
        -11    1    4    4    0    0  0.25014488246E-01 -0.33457283129E-01  0.21756541904E-01  0.47103318919E-01  0.51100000000E-03 0.  1.
         11    1    4    4    0    0  0.22277852198E-01 -0.74403614437E-01  0.38103250036E-01  0.86511960585E-01  0.51100000000E-03 0. -1.
</event>
<event>
 8    1  0.1082757E+005  0.1043930E+01  0.7957747E-01            NaN
         13   -1    0    0    0    0  0.00000000000E+00  0.00000000000E+00  0.74505805969E-08  0.10566000000E+00  0.10566000000E+00 0. -1.
     999900   -1    0    0    0    0 -0.00000000000E+00 -0.00000000000E+00 -0.74505805969E-08  0.93827000000E+00  0.93827000000E+00 0.  1.
     999902    2    1    2    0    0  0.62955620079E-02  0.95155107059E-02 -0.20519286021E-01  0.10204519221E+01  0.10201818000E+01 0.  0.
     999903    2    3    3    0    0 -0.10076585690E+00 -0.39057597298E-01 -0.71906186819E-01  0.13114763903E+00  0.18706942452E-01 0.  0.
         14    1    1    2    0    0 -0.62955620079E-02 -0.95155107059E-02  0.20519286021E-01  0.23478077941E-01  0.00000000000E+00 0. -1.
     999901    1    3    3    0    0  0.10706141891E+00  0.48573108004E-01  0.51386900798E-01  0.88930428303E+00  0.88000000000E+00 0.  1.
        -11    1    4    4    0    0 -0.78971760495E-01 -0.34467318474E-01 -0.48693522027E-01  0.98974012785E-01  0.51100000000E-03 0.  1.
         11    1    4    4    0    0 -0.21794096410E-01 -0.45902788242E-02 -0.23212664791E-01  0.32173626244E-01  0.51100000000E-03 0. -1.
</event>
<event>
 8    1  0.1082757E+005  0.1043930E+01  0.7957747E-01            NaN
         13   -1    0    0    0    0  0.00000000000E+00  0.00000000000E+00  0.74505805969E-08  0.10566000000E+00  0.10566000000E+00 0.  1.
     999900   -1    0    0    0    0 -0.00000000000E+00 -0.00000000000E+00 -0.74505805969E-08  0.93827000000E+00  0.93827000000E+00 0.  1.
     999902    2    1    2    0    0  0.82363000853E-02 -0.21845735711E-01 -0.41461201658E-02  0.10202179119E+01  0.10199423144E+01 0.  0.
     999903    2    3    3    0    0 -0.45671585901E-01 -0.12134954483E+00 -0.21708183905E-01  0.13279721448E+00  0.18768301325E-01 0.  0.
         14    1    1    2    0    0 -0.82363000853E-02  0.21845735711E-01  0.41461201658E-02  0.23712088062E-01  0.00000000000E+00 0. -1.
     999901    1    3    3    0    0  0.53907885986E-01  0.99503809121E-01  0.17562063739E-01  0.88742069746E+00  0.88000000000E+00 0. -1.
        -11    1    4    4    0    0 -0.19240968925E-01 -0.48385954676E-01 -0.18024248949E-01  0.55104901472E-01  0.51100000000E-03 0. -1.
         11    1    4    4    0    0 -0.26430616975E-01 -0.72963590156E-01 -0.36839349555E-02  0.77692313004E-01  0.51100000000E-03 0.  1.
</event>
<event>
 8    1  0.1082757E+005  0.1043930E+01  0.7957747E-01            NaN
         13   -1    0    0    0    0  0.00000000000E+00  0.00000000000E+00  0.74505805969E-08  0.10566000000E+00  0.10566000000E+00 0.  1.
     999900   -1    0    0    0    0 -0.00000000000E+00 -0.00000000000E+00 -0.74505805969E-08  0.93827000000E+00  0.93827000000E+00 0.  1.
     999902    2    1    2    0    0 -0.12545389780E-01 -0.18123317732E-01  0.40156974704E-02  0.10215253738E+01  0.10212796493E+01 0.  0.
     999903    2    3    3    0    0 -0.77249503499E-01  0.91372849767E-01  0.49681556176E-01  0.13121003431E+00  0.20768548659E-01 0.  0.
         14    1    1    2    0    0  0.12545389780E-01  0.18123317732E-01 -0.40156974704E-02  0.22404626231E-01  0.00000000000E+00 0.  1.
     999901    1    3    3    0    0  0.64704113719E-01 -0.10949616750E+00 -0.45665858706E-01  0.89031533946E+00  0.88000000000E+00 0.  1.
        -11    1    4    4    0    0 -0.35402205753E-01  0.26446900393E-01  0.18472580179E-01  0.47898351245E-01  0.51100000000E-03 0.  1.
         11    1    4    4    0    0 -0.41847297747E-01  0.64925949374E-01  0.31208975997E-01  0.83311683062E-01  0.51100000000E-03 0. -1.
</event>
<event>
 8    1  0.1082757E+005  0.1043930E+01  0.7957747E-01            NaN
         13   -1    0    0    0    0  0.00000000000E+00  0.00000000000E+00  0.74505805969E-08  0.10566000000E+00  0.10566000000E+00 0. -1.
     999900   -1    0    0    0    0 -0.00000000000E+00 -0.00000000000E+00 -0.74505805969E-08  0.93827000000E+00  0.93827000000E+00 0.  1.
     999902    2    1    2    0    0  0.12792480689E-01 -0.16174580172E-02  0.21269638067E-01  0.10190570984E+01  0.10187535072E+01 0.  0.
     999903    2    3    3    0    0  0.11409595234E+00 -0.21583444344E-01  0.57576710727E-01  0.13227683386E+00  0.26426345684E-01 0.  0.
         14    1    1    2    0    0 -0.12792480689E-01  0.16174580172E-02 -0.21269638067E-01  0.24872901643E-01  0.00000000000E+00 0.  1.
     999901    1    3    3    0    0 -0.10130347166E+00  0.19965986327E-01 -0.36307072660E-01  0.88678026450E+00  0.88000000000E+00 0.  1.
        -11    1    4    4    0    0  0.56468729271E-01 -0.15179204023E-01  0.42724171208E-01  0.72420587865E-01  0.51100000000E-03 0. -1.
         11    1    4    4    0    0  0.57627223074E-01 -0.64042403210E-02  0.14852539519E-01  0.59856245994E-01  0.51100000000E-03 0.  1.
</event>
<event>
 8    1  0.1082757E+005  0.1043930E+01  0.7957747E-01            NaN
         13   -1    0    0    0    0  0.00000000000E+00  0.00000000000E+00  0.74505805969E-08  0.10566000000E+00  0.10566000000E+00 0.  1.
     999900   -1    0    0    0    0 -0.00000000000E+00 -0.00000000000E+00 -0.74505805969E-08  0.93827000000E+00  0.93827000000E+00 0. -1.
     999902    2    1    2    0    0 -0.22698411485E-01 -0.85398562538E-02  0.28410078666E-02  0.10195124171E+01  0.10192199715E+01 0.  0.
     999903    2    3    3    0    0  0.16271856256E-01 -0.12215332829E+00 -0.37207161840E-01  0.13045080018E+00  0.21138340917E-01 0.  0.
         14    1    1    2    0    0  0.22698411485E-01  0.85398562538E-02 -0.28410078666E-02  0.24417582896E-01  0.00000000000E+00 0.  1.
     999901    1    3    3    0    0 -0.38970267741E-01  0.11361347203E+00  0.40048169706E-01  0.88906161693E+00  0.88000000000E+00 0.  1.
        -11    1    4    4    0    0 -0.10269141097E-02 -0.62808863720E-01 -0.23941599569E-01  0.67226997741E-01  0.51100000000E-03 0. -1.
         11    1    4    4    0    0  0.17298770366E-01 -0.59344464569E-01 -0.13265562271E-01  0.63223802436E-01  0.51100000000E-03 0.  1.
</event>
<event>
 8    1  0.1082757E+005  0.1043930E+01  0.7957747E-01            NaN
         13   -1    0    0    0    0  0.00000000000E+00  0.00000000000E+00  0.74505805969E-08  0.10566000000E+00  0.10566000000E+00 0.  1.
     999900   -1    0    0    0    0 -0.00000000000E+00 -0.00000000000E+00 -0.74505805969E-08  0.93827000000E+00  0.93827000000E+00 0.  1.
     999902    2    1    2    0    0 -0.22978719727E-01  0.99724509007E-02 -0.12599693737E-01  0.10158903206E+01  0.10155032841E+01 0.  0.
     999903    2    3    3    0    0 -0.49191889427E-01 -0.57628655698E-01 -0.10196204861E+00  0.12839797117E+00  0.18678214580E-01 0.  0.
         14    1    1    2    0    0  0.22978719727E-01 -0.99724509007E-02  0.12599693737E-01  0.28039679376E-01  0.00000000000E+00 0.  1.
     999901    1    3    3    0    0  0.26213169701E-01  0.67601106599E-01  0.89362354872E-01  0.88749234946E+00  0.88000000000E+00 0. -1.
        -11    1    4    4    0    0 -0.25701651384E-02 -0.39441187345E-02 -0.88664538980E-03  0.48175805626E-02  0.51100000000E-03 0. -1.
         11    1    4    4    0    0 -0.46621724289E-01 -0.53684536963E-01 -0.10107540322E+00  0.12358039060E+00  0.51100000000E-03 0.  1.
</event>
<event>
 8    1  0.1082757E+005  0.1043930E+01  0.7957747E-01            NaN
         13   -1    0    0    0    0  0.00000000000E+00  0.00000000000E+00  0.74505805969E-08  0.10566000000E+00  0.10566000000E+00 0. -1.
     999900   -1    0    0    0    0 -0.00000000000E+00 -0.00000000000E+00 -0.74505805969E-08  0.93827000000E+00  0.93827000000E+00 0.  1.
     999902    2    1    2    0    0  0.76768031819E-02 -0.13805009607E-01 -0.19722134785E-01  0.10186619530E+01  0.10183485162E+01 0.  0.
     999903    2    3    3    0    0  0.16287267454E-02 -0.12806845969E+00 -0.21250673899E-01  0.13125277363E+00  0.19274758779E-01 0.  0.
         14    1    1    2    0    0 -0.76768031819E-02  0.13805009607E-01  0.19722134785E-01  0.25268046973E-01  0.00000000000E+00 0. -1.
     999901    1    3    3    0    0  0.60480764364E-02  0.11426345008E+00  0.15285391137E-02  0.88740917940E+00  0.88000000000E+00 0. -1.
        -11    1    4    4    0    0  0.61238369912E-02 -0.75084726643E-01 -0.43749748348E-02  0.75462699928E-01  0.51100000000E-03 0. -1.
         11    1    4    4    0    0 -0.44951102458E-02 -0.52983733044E-01 -0.16875699064E-01  0.55790073699E-01  0.51100000000E-03 0.  1.
</event>
<event>
 8    1  0.1082757E+005  0.1043930E+01  0.7957747E-01            NaN
         13   -1    0    0    0    0  0.00000000000E+00  0.00000000000E+00  0.74505805969E-08  0.10566000000E+00  0.10566000000E+00 0.  1.
     999900   -1    0    0    0    0 -0.00000000000E+00 -0.00000000000E+00 -0.74505805969E-08  0.93827000000E+00  0.93827000000E+00 0. -1.
     999902    2    1    2    0    0  0.12327915572E-01  0.78873641775E-02  0.17229797074E-01  0.10213234982E+01  0.10210732756E+01 0.  0.
     999903    2    3    3    0    0  0.34391696964E-01  0.45239946099E-01 -0.11546563715E+00  0.13031838931E+00  0.20521395816E-01 0.  0.
         14    1    1    2    0    0 -0.12327915572E-01 -0.78873641775E-02 -0.17229797074E-01  0.22606501791E-01  0.00000000000E+00 0.  1.
     999901    1    3    3    0    0 -0.22063781392E-01 -0.37352581921E-01  0.13269543422E+00  0.89100510890E+00  0.88000000000E+00 0.  1.
        -11    1    4    4    0    0  0.17169201534E-01  0.80880759533E-02 -0.29263490395E-01  0.34882824499E-01  0.51100000000E-03 0. -1.
         11    1    4    4    0    0  0.17222495429E-01  0.37151870146E-01 -0.86202146755E-01  0.95435564808E-01  0.51100000000E-03 0.  1.
</event>
<event>
 8    1  0.1082757E+005  0.1043930E+01  0.7957747E-01            NaN
         13   -1    0    0    0    0  0.00000000000E+00  0.00000000000E+00  0.74505805969E-08  0.10566000000E+00  0.10566000000E+00 0. -1.
     999900   -1    0    0    0    0 -0.00000000000E+00 -0.00000000000E+00 -0.74505805969E-08  0.93827000000E+00  0.93827000000E+00 0. -1.
     999902    2    1    2    0    0  0.13791901382E-01  0.15205964291E-01  0.12247249459E-01  0.10200253349E+01  0.10197451892E+01 0.  0.
     999903    2    3    3    0    0 -0.49596472052E-01  0.11931649324E+00  0.14166635250E-01  0.13162183865E+00  0.20673153043E-01 0.  0.
         14    1    1    2    0    0 -0.13791901382E-01 -0.15205964291E-01 -0.12247249459E-01  0.23904665090E-01  0.00000000000E+00 0.  1.
     999901    1    3    3    0    0  0.63388373434E-01 -0.10411052895E+00 -0.19193857905E-02  0.88840349626E+00  0.88000000000E+00 0.  1.
        -11    1    4    4    0    0 -0.23203308139E-01  0.34645098897E-01  0.97254647222E-02  0.42819647024E-01  0.51100000000E-03 0.  1.
         11    1    4    4    0    0 -0.26393163912E-01  0.84671394341E-01  0.44411705277E-02  0.88802191626E-01  0.51100000000E-03 0. -1.
</event>
<event>
 8    1  0.1082757E+005  0.1043930E+01  0.7957747E-01            NaN
         13   -1    0    0    0    0  0.00000000000E+00  0.00000000000E+00  0.74505805969E-08  0.10566000000E+00  0.10566000000E+00 0. -1.
     999900   -1    0    0    0    0 -0.00000000000E+00 -0.00000000000E+00 -0.74505805969E-08  0.93827000000E+00  0.93827000000E+00 0. -1.
     999902    2    1    2    0    0 -0.12837639626E-01  0.80221697255E-02  0.19639792985E-01  0.10191331924E+01  0.10188314788E+01 0.  0.
     999903    2    3    3    0    0  0.11452645630E+00  0.75596869922E-02  0.55557047323E-01  0.12923888634E+00  0.21039158112E-01 0.  0.
         14    1    1    2    0    0  0.12837639626E-01 -0.80221697255E-02 -0.19639792985E-01  0.24796807592E-01  0.00000000000E+00 0.  1.
     999901    1    3    3    0    0 -0.12736409593E+00  0.46248273330E-03 -0.35917254339E-01  0.88989430607E+00  0.88000000000E+00 0. -1.
        -11    1    4    4    0    0  0.48033913229E-01 -0.36801332675E-02  0.14612849556E-01  0.50344778221E-01  0.51100000000E-03 0. -1.
         11    1    4    4    0    0  0.66492543071E-01  0.11239820260E-01  0.40944197767E-01  0.78894108115E-01  0.51100000000E-03 0.  1.
</event>
<event>
 8    1  0.1082757E+005  0.1043930E+01  0.7957747E-01            NaN
         13   -1    0    0    0    0  0.00000000000E+00  0.00000000000E+00  0.74505805969E-08  0.10566000000E+00  0.10566000000E+00 0.  1.
     999900   -1    0    0    0    0 -0.00000000000E+00 -0.00000000000E+00 -0.74505805969E-08  0.93827000000E+00  0.93827000000E+00 0.  1.
     999902    2    1    2    0    0 -0.17134144449E-01  0.12257185965E-01 -0.12886759831E-01  0.10192341280E+01  0.10189348957E+01 0.  0.
     999903    2    3    3    0    0  0.19849515743E-01 -0.12227958085E+00  0.15687385935E-01  0.12778339211E+00  0.27133043589E-01 0.  0.
         14    1    1    2    0    0  0.17134144449E-01 -0.12257185965E-01  0.12886759831E-01  0.24695871977E-01  0.00000000000E+00 0.  1.
     999901    1    3    3    0    0 -0.36983660192E-01  0.13453676682E+00 -0.28574145766E-01  0.89145073591E+00  0.88000000000E+00 0. -1.
        -11    1    4    4    0    0  0.22066267167E-01 -0.79771741849E-01  0.19529042826E-01  0.85041728457E-01  0.51100000000E-03 0.  1.
         11    1    4    4    0    0 -0.22167514235E-02 -0.42507839002E-01 -0.38416568910E-02  0.42741663657E-01  0.51100000000E-03 0. -1.
</event>
<event>
 7    1  0.1082757E+005  0.1043930E+01  0.7957747E-01            NaN
         13   -1    0    0    0    0  0.00000000000E+00  0.00000000000E+00  0.74505805969E-08  0.10566000000E+00  0.10566000000E+00 0.  1.
     999900   -1    0    0    0    0 -0.00000000000E+00 -0.00000000000E+00 -0.74505805969E-08  0.93827000000E+00  0.93827000000E+00 0.  1.
     999903    2    1    2    0    0 -0.11859657886E+00 -0.88385645868E-02  0.24654053956E-02  0.12063884931E+00  0.20109326155E-01 0.  0.
         14    1    1    2    0    0  0.31185900496E-01  0.12007728747E-01 -0.19689991745E-01  0.38787133361E-01  0.00000000000E+00 0. -1.
     999901    1    1    2    0    0  0.87410678364E-01 -0.31691641605E-02  0.17224586349E-01  0.88450401733E+00  0.88000000000E+00 0. -1.
        -11    1    3    3    0    0 -0.95619550019E-01 -0.30688158051E-02 -0.49831814495E-02  0.95799839220E-01  0.51100000000E-03 0. -1.
         11    1    3    3    0    0 -0.22977028841E-01 -0.57697487816E-02  0.74485868451E-02  0.24839010092E-01  0.51100000000E-03 0.  1.
</event>
<event>
 8    1  0.1082757E+005  0.1043930E+01  0.7957747E-01            NaN
         13   -1    0    0    0    0  0.00000000000E+00  0.00000000000E+00  0.74505805969E-08  0.10566000000E+00  0.10566000000E+00 0. -1.
     999900   -1    0    0    0    0 -0.00000000000E+00 -0.00000000000E+00 -0.74505805969E-08  0.93827000000E+00  0.93827000000E+00 0.  1.
     999902    2    1    2    0    0 -0.19257341332E-02 -0.21798098653E-01  0.80903709221E-02  0.10205993408E+01  0.10203326393E+01 0.  0.
     999903    2    3    3    0    0  0.12525258562E+00 -0.30836219322E-01 -0.12751953359E-01  0.13116670416E+00  0.20075092523E-01 0.  0.
         14    1    1    2    0    0  0.19257341332E-02  0.21798098653E-01 -0.80903709221E-02  0.23330659195E-01  0.00000000000E+00 0.  1.
     999901    1    3    3    0    0 -0.12717831975E+00  0.90381206691E-02  0.20842324281E-01  0.88943263664E+00  0.88000000000E+00 0. -1.
        -11    1    4    4    0    0  0.31142781000E-01 -0.16806562856E-01 -0.37934121867E-02  0.35594725178E-01  0.51100000000E-03 0.  1.
         11    1    4    4    0    0  0.94109804621E-01 -0.14029656466E-01 -0.89585411725E-02  0.95571978986E-01  0.51100000000E-03 0. -1.
</event>
<event>
 8    1  0.1082757E+005  0.1043930E+01  0.7957747E-01            NaN
         13   -1    0    0    0    0  0.00000000000E+00  0.00000000000E+00  0.74505805969E-08  0.10566000000E+00  0.10566000000E+00 0. -1.
     999900   -1    0    0    0    0 -0.00000000000E+00 -0.00000000000E+00 -0.74505805969E-08  0.93827000000E+00  0.93827000000E+00 0.  1.
     999902    2    1    2    0    0  0.13955956810E-01  0.17896456135E-01  0.80426538895E-02  0.10198522893E+01  0.10195680241E+01 0.  0.
     999903    2    3    3    0    0 -0.79085466208E-02  0.12913276697E+00  0.20600819179E-01  0.13249143771E+00  0.19793198362E-01 0.  0.
         14    1    1    2    0    0 -0.13955956810E-01 -0.17896456135E-01 -0.80426538895E-02  0.24077710736E-01  0.00000000000E+00 0. -1.
     999901    1    3    3    0    0  0.21864503431E-01 -0.11123631083E+00 -0.12558165289E-01  0.88736085156E+00  0.88000000000E+00 0.  1.
        -11    1    4    4    0    0  0.13007806807E-02  0.95592945741E-01  0.20150022312E-01  0.97703571204E-01  0.51100000000E-03 0.  1.
         11    1    4    4    0    0 -0.92093273015E-02  0.33539821225E-01  0.45079686619E-03  0.34787866505E-01  0.51100000000E-03 0. -1.
</event>
<event>
 8    1  0.1082757E+005  0.1043930E+01  0.7957747E-01            NaN
         13   -1    0    0    0    0  0.00000000000E+00  0.00000000000E+00  0.74505805969E-08  0.10566000000E+00  0.10566000000E+00 0. -1.
     999900   -1    0    0    0    0 -0.00000000000E+00 -0.00000000000E+00 -0.74505805969E-08  0.93827000000E+00  0.93827000000E+00 0. -1.
     999902    2    1    2    0    0 -0.71763565125E-03 -0.17527963914E-02  0.24820980654E-01  0.10190368608E+01  0.10187327694E+01 0.  0.
     999903    2    3    3    0    0  0.23653491445E-01  0.54104807242E-01 -0.11018167219E+00  0.12665816321E+00  0.20383120409E-01 0.  0.
         14    1    1    2    0    0  0.71763565125E-03  0.17527963914E-02 -0.24820980654E-01  0.24893139150E-01  0.00000000000E+00 0.  1.
     999901    1    3    3    0    0 -0.24371127096E-01 -0.55857603633E-01  0.13500265285E+00  0.89237869764E+00  0.88000000000E+00 0.  1.
        -11    1    4    4    0    0  0.23999225284E-01  0.34082397501E-01 -0.64788283247E-01  0.77041257783E-01  0.51100000000E-03 0. -1.
         11    1    4    4    0    0 -0.34573383897E-03  0.20022409741E-01 -0.45393388944E-01  0.49616905431E-01  0.51100000000E-03 0.  1.
</event>
<event>
 8    1  0.1082757E+005  0.1043930E+01  0.7957747E-01            NaN
         13   -1    0    0    0    0  0.00000000000E+00  0.00000000000E+00  0.74505805969E-08  0.10566000000E+00  0.10566000000E+00 0.  1.
     999900   -1    0    0    0    0 -0.00000000000E+00 -0.00000000000E+00 -0.74505805969E-08  0.93827000000E+00  0.93827000000E+00 0.  1.
     999902    2    1    2    0    0  0.66022049761E-02 -0.80029611723E-02 -0.21749661074E-01  0.10198326090E+01  0.10195478733E+01 0.  0.
     999903    2    3    3    0    0  0.63037263802E-01  0.17755361393E-01 -0.11399577912E+00  0.13283894870E+00  0.19031530424E-01 0.  0.
         14    1    1    2    0    0 -0.66022049761E-02  0.80029611723E-02  0.21749661074E-01  0.24097391039E-01  0.00000000000E+00 0.  1.
     999901    1    3    3    0    0 -0.56435058826E-01 -0.25758322565E-01  0.92246118042E-01  0.88699366026E+00  0.88000000000E+00 0. -1.
        -11    1    4    4    0    0  0.21081016367E-01 -0.47784311927E-03 -0.24508783911E-01  0.32335417036E-01  0.51100000000E-03 0. -1.
         11    1    4    4    0    0  0.41956247436E-01  0.18233204512E-01 -0.89486995204E-01  0.10050353167E+00  0.51100000000E-03 0.  1.
</event>
<event>
 8    1  0.1082757E+005  0.1043930E+01  0.7957747E-01            NaN
         13   -1    0    0    0    0  0.00000000000E+00  0.00000000000E+00  0.74505805969E-08  0.10566000000E+00  0.10566000000E+00 0. -1.
     999900   -1    0    0    0    0 -0.00000000000E+00 -0.00000000000E+00 -0.74505805969E-08  0.93827000000E+00  0.93827000000E+00 0.  1.
     999902    2    1    2    0    0  0.58315861539E-02 -0.19581986889E-01  0.12687423253E-01  0.10198793801E+01  0.10195957619E+01 0.  0.
     999903    2    3    3    0    0  0.25886957438E-02 -0.13546049337E-01 -0.12635838979E+00  0.12893567427E+00  0.21627959473E-01 0.  0.
         14    1    1    2    0    0 -0.58315861539E-02  0.19581986889E-01 -0.12687423253E-01  0.24050619876E-01  0.00000000000E+00 0.  1.
     999901    1    3    3    0    0  0.32428904101E-02 -0.60359375525E-02  0.13904581304E+00  0.89094370586E+00  0.88000000000E+00 0. -1.
        -11    1    4    4    0    0 -0.82976360112E-02 -0.83351588861E-02 -0.38761411788E-01  0.40509675410E-01  0.51100000000E-03 0. -1.
         11    1    4    4    0    0  0.10886331755E-01 -0.52108904505E-02 -0.87596978000E-01  0.88425998858E-01  0.51100000000E-03 0.  1.
</event>
<event>
 8    1  0.1082757E+005  0.1043930E+01  0.7957747E-01            NaN
         13   -1    0    0    0    0  0.00000000000E+00  0.00000000000E+00  0.74505805969E-08  0.10566000000E+00  0.10566000000E+00 0.  1.
     999900   -1    0    0    0    0 -0.00000000000E+00 -0.00000000000E+00 -0.74505805969E-08  0.93827000000E+00  0.93827000000E+00 0.  1.
     999902    2    1    2    0    0 -0.19479811796E-01 -0.13068384545E-01  0.73110195889E-02  0.10193597589E+01  0.10190636002E+01 0.  0.
     999903    2    3    3    0    0 -0.68740717850E-01 -0.12212435374E-01  0.11021023153E+00  0.13199533692E+00  0.20051034044E-01 0.  0.
         14    1    1    2    0    0  0.19479811796E-01  0.13068384545E-01 -0.73110195889E-02  0.24570241140E-01  0.00000000000E+00 0. -1.
     999901    1    3    3    0    0  0.49260906054E-01 -0.85594917155E-03 -0.10289921194E+00  0.88736442194E+00  0.88000000000E+00 0.  1.
        -11    1    4    4    0    0 -0.16137446166E-01 -0.27026882613E-02  0.12425319837E-01  0.20551676006E-01  0.51100000000E-03 0. -1.
         11    1    4    4    0    0 -0.52603271684E-01 -0.95097471126E-02  0.97784911689E-01  0.11144366091E+00  0.51100000000E-03 0.  1.
</event>
<event>
 8    1  0.1082757E+005  0.1043930E+01  0.7957747E-01            NaN
         13   -1    0    0    0    0  0.00000000000E+00  0.00000000000E+00  0.74505805969E-08  0.10566000000E+00  0.10566000000E+00 0. -1.
     999900   -1    0    0    0    0 -0.00000000000E+00 -0.00000000000E+00 -0.74505805969E-08  0.93827000000E+00  0.93827000000E+00 0. -1.
     999902    2    1    2    0    0 -0.17657949689E-01  0.11616514207E-01  0.95179223257E-02  0.10207494600E+01  0.10204862187E+01 0.  0.
     999903    2    3    3    0    0  0.17582257088E-01 -0.12532177247E+00  0.18825326619E-01  0.12941305083E+00  0.19459249256E-01 0.  0.
         14    1    1    2    0    0  0.17657949689E-01 -0.11616514207E-01 -0.95179223257E-02  0.23180540005E-01  0.00000000000E+00 0. -1.
     999901    1    3    3    0    0 -0.35240206777E-01  0.13693828668E+00 -0.93074042934E-02  0.89133640917E+00  0.88000000000E+00 0. -1.
        -11    1    4    4    0    0  0.48070258968E-02 -0.80252361425E-01  0.18793703309E-01  0.82565207063E-01  0.51100000000E-03 0. -1.
         11    1    4    4    0    0  0.12775231191E-01 -0.45069411050E-01  0.31623310336E-04  0.46847843764E-01  0.51100000000E-03 0.  1.
</event>
<event>
 8    1  0.1082757E+005  0.1043930E+01  0.7957747E-01            NaN
         13   -1    0    0    0    0  0.00000000000E+00  0.00000000000E+00  0.74505805969E-08  0.10566000000E+00  0.10566000000E+00 0. -1.
     999900   -1    0    0    0    0 -0.00000000000E+00 -0.00000000000E+00 -0.74505805969E-08  0.93827000000E+00  0.93827000000E+00 0. -1.
     999902    2    1    2    0    0  0.23568624736E-01  0.34993282638E-02 -0.37324982128E-02  0.10198124356E+01  0.10195272173E+01 0.  0.
     999903    2    3    3    0    0 -0.79662370475E-01 -0.52824806868E-01  0.82274735113E-01  0.12783357331E+00  0.20874312841E-01 0.  0.
         14    1    1    2    0    0 -0.23568624736E-01 -0.34993282638E-02  0.37324982128E-02  0.24117564411E-01  0.00000000000E+00 0.  1.
     999901    1    3    3    0    0  0.10323099521E+00  0.56324135131E-01 -0.86007233326E-01  0.89197886228E+00  0.88000000000E+00 0. -1.
        -11    1    4    4    0    0 -0.69618150375E-01 -0.46726055412E-01  0.79928989094E-01  0.11584004288E+00  0.51100000000E-03 0.  1.
         11    1    4    4    0    0 -0.10044220100E-01 -0.60987514558E-02  0.23457460190E-02  0.11993530428E-01  0.51100000000E-03 0. -1.
</event>
<event>
 8    1  0.1082757E+005  0.1043930E+01  0.7957747E-01            NaN
         13   -1    0    0    0    0  0.00000000000E+00  0.00000000000E+00  0.74505805969E-08  0.10566000000E+00  0.10566000000E+00 0.  1.
     999900   -1    0    0    0    0 -0.00000000000E+00 -0.00000000000E+00 -0.74505805969E-08  0.93827000000E+00  0.93827000000E+00 0.  1.
     999902    2    1    2    0    0  0.16148327070E-01  0.90721427263E-02  0.14198070272E-01  0.10205921029E+01  0.10203252340E+01 0.  0.
     999903    2    3    3    0    0  0.91336784443E-01 -0.10948157473E-02 -0.91679383729E-01  0.13100416098E+00  0.20331600531E-01 0.  0.
         14    1    1    2    0    0 -0.16148327070E-01 -0.90721427263E-02 -0.14198070272E-01  0.23337897083E-01  0.00000000000E+00 0. -1.
     999901    1    3    3    0    0 -0.75188457373E-01  0.10166958474E-01  0.10587745400E+00  0.88958794193E+00  0.88000000000E+00 0. -1.
        -11    1    4    4    0    0  0.38219927947E-01 -0.52918668918E-02 -0.51067317079E-01  0.64007021038E-01  0.51100000000E-03 0. -1.
         11    1    4    4    0    0  0.53116856496E-01  0.41970511445E-02 -0.40612066650E-01  0.66997139946E-01  0.51100000000E-03 0.  1.
</event>
<event>
 8    1  0.1082757E+005  0.1043930E+01  0.7957747E-01            NaN
         13   -1    0    0    0    0  0.00000000000E+00  0.00000000000E+00  0.74505805969E-08  0.10566000000E+00  0.10566000000E+00 0. -1.
     999900   -1    0    0    0    0 -0.00000000000E+00 -0.00000000000E+00 -0.74505805969E-08  0.93827000000E+00  0.93827000000E+00 0.  1.
     999902    2    1    2    0    0 -0.16322321488E-01  0.93156348595E-02 -0.12298526781E-01  0.10214699690E+01  0.10212230141E+01 0.  0.
     999903    2    3    3    0    0 -0.46491346735E-01 -0.11933191306E+00  0.19147997021E-01  0.13104914404E+00  0.20141538356E-01 0.  0.
         14    1    1    2    0    0  0.16322321488E-01 -0.93156348595E-02  0.12298526781E-01  0.22460031001E-01  0.00000000000E+00 0.  1.
     999901    1    3    3    0    0  0.30169025248E-01  0.12864754792E+00 -0.31446523802E-01  0.89042082496E+00  0.88000000000E+00 0. -1.
        -11    1    4    4    0    0 -0.11515492511E-01 -0.47632800674E-01  0.14628943193E-01  0.51144475437E-01  0.51100000000E-03 0. -1.
         11    1    4    4    0    0 -0.34975854225E-01 -0.71699112383E-01  0.45190538282E-02  0.79904668598E-01  0.51100000000E-03 0.  1.
</event>
<event>
 8    1  0.1082757E+005  0.1043930E+01  0.7957747E-01            NaN
         13   -1    0    0    0    0  0.00000000000E+00  0.00000000000E+00  0.74505805969E-08  0.10566000000E+00  0.10566000000E+00 0.  1.
     999900   -1    0    0    0    0 -0.00000000000E+00 -0.00000000000E+00 -0.74505805969E-08  0.93827000000E+00  0.93827000000E+00 0.  1.
     999902    2    1    2    0    0  0.87871139096E-02 -0.18280547292E-01 -0.12181842188E-01  0.10202701382E+01  0.10199957676E+01 0.  0.
     999903    2    3    3    0    0  0.12500220005E+00  0.33571631622E-01 -0.35167862382E-02  0.13107405305E+00  0.20382225838E-01 0.  0.
         14    1    1    2    0    0 -0.87871139096E-02  0.18280547292E-01  0.12181842188E-01  0.23659861775E-01  0.00000000000E+00 0. -1.
     999901    1    3    3    0    0 -0.11621508614E+00 -0.51852178913E-01 -0.86650559499E-02  0.88919608518E+00  0.88000000000E+00 0. -1.
        -11    1    4    4    0    0  0.60396471636E-01  0.18737595805E-01  0.81665316810E-02  0.63763505576E-01  0.51100000000E-03 0. -1.
         11    1    4    4    0    0  0.64605728410E-01  0.14834035817E-01 -0.11683317919E-01  0.67310547469E-01  0.51100000000E-03 0.  1.
</event>
<event>
 8    1  0.1082757E+005  0.1043930E+01  0.7957747E-01            NaN
         13   -1    0    0    0    0  0.00000000000E+00  0.00000000000E+00  0.74505805969E-08  0.10566000000E+00  0.10566000000E+00 0. -1.
     999900   -1    0    0    0    0 -0.00000000000E+00 -0.00000000000E+00 -0.74505805969E-08  0.93827000000E+00  0.93827000000E+00 0. -1.
     999902    2    1    2    0    0  0.17206767344E-01 -0.14860549597E-01 -0.42949873843E-02  0.10207922453E+01  0.10205299860E+01 0.  0.
     999903    2    3    3    0    0 -0.10646010041E+00  0.47545610433E-02 -0.70636776705E-01  0.12945646133E+00  0.20323934795E-01 0.  0.
         14    1    1    2    0    0 -0.17206767344E-01  0.14860549597E-01  0.42949873843E-02  0.23137754718E-01  0.00000000000E+00 0. -1.
     999901    1    3    3    0    0  0.12366686776E+00 -0.19615110640E-01  0.66341789321E-01  0.89133578395E+00  0.88000000000E+00 0. -1.
        -11    1    4    4    0    0 -0.45786807249E-01 -0.78944492692E-02 -0.28489854685E-01  0.54504008920E-01  0.51100000000E-03 0.  1.
         11    1    4    4    0    0 -0.60673293164E-01  0.12649010312E-01 -0.42146922020E-01  0.74952452408E-01  0.51100000000E-03 0. -1.
</event>
<event>
 8    1  0.1082757E+005  0.1043930E+01  0.7957747E-01            NaN
         13   -1    0    0    0    0  0.00000000000E+00  0.00000000000E+00  0.74505805969E-08  0.10566000000E+00  0.10566000000E+00 0.  1.
     999900   -1    0    0    0    0 -0.00000000000E+00 -0.00000000000E+00 -0.74505805969E-08  0.93827000000E+00  0.93827000000E+00 0. -1.
     999902    2    1    2    0    0  0.36607302619E-02  0.65806815838E-02 -0.22744386971E-01  0.10199714221E+01  0.10196899962E+01 0.  0.
     999903    2    3    3    0    0 -0.66262339410E-01  0.72479260036E-01 -0.86649941971E-01  0.13243788568E+00  0.19688584521E-01 0.  0.
         14    1    1    2    0    0 -0.36607302619E-02 -0.65806815838E-02  0.22744386971E-01  0.23958577897E-01  0.00000000000E+00 0.  1.
     999901    1    3    3    0    0  0.69923069671E-01 -0.65898578452E-01  0.63905555000E-01  0.88753353642E+00  0.88000000000E+00 0.  1.
        -11    1    4    4    0    0 -0.25709650467E-01  0.15492422907E-01 -0.22330691855E-01  0.37415534400E-01  0.51100000000E-03 0. -1.
         11    1    4    4    0    0 -0.40552688942E-01  0.56986837129E-01 -0.64319250116E-01  0.95022351281E-01  0.51100000000E-03 0.  1.
</event>
<event>
 8    1  0.1082757E+005  0.1043930E+01  0.7957747E-01            NaN
         13   -1    0    0    0    0  0.00000000000E+00  0.00000000000E+00  0.74505805969E-08  0.10566000000E+00  0.10566000000E+00 0.  1.
     999900   -1    0    0    0    0 -0.00000000000E+00 -0.00000000000E+00 -0.74505805969E-08  0.93827000000E+00  0.93827000000E+00 0.  1.
     999902    2    1    2    0    0 -0.18759541705E-03  0.21401770158E-01  0.50761999630E-02  0.10219336648E+01  0.10216969102E+01 0.  0.
     999903    2    3    3    0    0 -0.46805978356E-01  0.11711902173E+00  0.43235298475E-01  0.13469571321E+00  0.19130584454E-01 0.  0.
         14    1    1    2    0    0  0.18759541705E-03 -0.21401770158E-01 -0.50761999630E-02  0.21996335240E-01  0.00000000000E+00 0.  1.
     999901    1    3    3    0    0  0.46618382939E-01 -0.95717251572E-01 -0.38159098512E-01  0.88723795155E+00  0.88000000000E+00 0.  1.
        -11    1    4    4    0    0 -0.22978511568E-02  0.24228285686E-01  0.11432669827E-01  0.26893438003E-01  0.51100000000E-03 0.  1.
         11    1    4    4    0    0 -0.44508127199E-01  0.92890736043E-01  0.31802628648E-01  0.10780227520E+00  0.51100000000E-03 0. -1.
</event>
<event>
 8    1  0.1082757E+005  0.1043930E+01  0.7957747E-01            NaN
         13   -1    0    0    0    0  0.00000000000E+00  0.00000000000E+00  0.74505805969E-08  0.10566000000E+00  0.10566000000E+00 0. -1.
     999900   -1    0    0    0    0 -0.00000000000E+00 -0.00000000000E+00 -0.74505805969E-08  0.93827000000E+00  0.93827000000E+00 0. -1.
     999902    2    1    2    0    0  0.15483406096E-01 -0.30282307505E-02 -0.17862784841E-01  0.10200975614E+01  0.10198191260E+01 0.  0.
     999903    2    3    3    0    0 -0.49488026140E-01 -0.63321241881E-01  0.97639360217E-01  0.12813496148E+00  0.20651374906E-01 0.  0.
         14    1    1    2    0    0 -0.15483406096E-01  0.30282307505E-02  0.17862784841E-01  0.23832438568E-01  0.00000000000E+00 0. -1.
     999901    1    3    3    0    0  0.64971432236E-01  0.60293011131E-01 -0.11550214506E+00  0.89196259995E+00  0.88000000000E+00 0. -1.
        -11    1    4    4    0    0 -0.27879899051E-01 -0.49162619841E-01  0.73987843308E-01  0.93105929130E-01  0.51100000000E-03 0. -1.
         11    1    4    4    0    0 -0.21608127089E-01 -0.14158622041E-01  0.23651516909E-01  0.35029032351E-01  0.51100000000E-03 0.  1.
</event>
<event>
 8    1  0.1082757E+005  0.1043930E+01  0.7957747E-01            NaN
         13   -1    0    0    0    0  0.00000000000E+00  0.00000000000E+00  0.74505805969E-08  0.10566000000E+00  0.10566000000E+00 0. -1.
     999900   -1    0    0    0    0 -0.00000000000E+00 -0.00000000000E+00 -0.74505805969E-08  0.93827000000E+00  0.93827000000E+00 0. -1.
     999902    2    1    2    0    0 -0.10400096061E-02 -0.14113404468E-02  0.29303369422E-01  0.10145742346E+01  0.10141494548E+01 0.  0.
     999903    2    3    3    0    0  0.77503076726E-01 -0.95849333140E-01  0.23466512084E-01  0.12602394354E+00  0.11727556844E-01 0.  0.
         14    1    1    2    0    0  0.10400096061E-02  0.14113404468E-02 -0.29303369422E-01  0.29355765385E-01  0.00000000000E+00 0.  1.
     999901    1    3    3    0    0 -0.78543086332E-01  0.94437992693E-01  0.58368573388E-02  0.88855029108E+00  0.88000000000E+00 0. -1.
        -11    1    4    4    0    0  0.39182584246E-01 -0.39243399057E-01  0.10078837862E-01  0.56366331896E-01  0.51100000000E-03 0. -1.
         11    1    4    4    0    0  0.38320492480E-01 -0.56605934083E-01  0.13387674221E-01  0.69657611640E-01  0.51100000000E-03 0.  1.
</event>
<event>
 8    1  0.1082757E+005  0.1043930E+01  0.7957747E-01            NaN
         13   -1    0    0    0    0  0.00000000000E+00  0.00000000000E+00  0.74505805969E-08  0.10566000000E+00  0.10566000000E+00 0. -1.
     999900   -1    0    0    0    0 -0.00000000000E+00 -0.00000000000E+00 -0.74505805969E-08  0.93827000000E+00  0.93827000000E+00 0. -1.
     999902    2    1    2    0    0  0.11956028061E-01  0.76622118261E-02 -0.22237706651E-01  0.10175449343E+01  0.10172027927E+01 0.  0.
     999903    2    3    3    0    0 -0.86641012809E-01  0.89889514933E-01 -0.21824698757E-01  0.12822897442E+00  0.19482361510E-01 0.  0.
         14    1    1    2    0    0 -0.11956028061E-01 -0.76622118261E-02  0.22237706651E-01  0.26385065741E-01  0.00000000000E+00 0. -1.
     999901    1    3    3    0    0  0.98597040870E-01 -0.82227303107E-01 -0.41300789411E-03  0.88931595984E+00  0.88000000000E+00 0.  1.
        -11    1    4    4    0    0 -0.41321975457E-01  0.37422808716E-01 -0.71836748204E-03  0.55756160563E-01  0.51100000000E-03 0.  1.
         11    1    4    4    0    0 -0.45319037353E-01  0.52466706217E-01 -0.21106331275E-01  0.72472813859E-01  0.51100000000E-03 0. -1.
</event>
<event>
 8    1  0.1082757E+005  0.1043930E+01  0.7957747E-01            NaN
         13   -1    0    0    0    0  0.00000000000E+00  0.00000000000E+00  0.74505805969E-08  0.10566000000E+00  0.10566000000E+00 0.  1.
     999900   -1    0    0    0    0 -0.00000000000E+00 -0.00000000000E+00 -0.74505805969E-08  0.93827000000E+00  0.93827000000E+00 0. -1.
     999902    2    1    2    0    0  0.78506274852E-02 -0.97092929294E-02 -0.26664388637E-01  0.10144869644E+01  0.10140596179E+01 0.  0.
     999903    2    3    3    0    0 -0.11482877360E+00  0.41352726285E-01  0.81942754004E-02  0.12382839254E+00  0.19251738388E-01 0.  0.
         14    1    1    2    0    0 -0.78506274852E-02  0.97092929294E-02  0.26664388637E-01  0.29443035552E-01  0.00000000000E+00 0.  1.
     999901    1    3    3    0    0  0.12267940109E+00 -0.51062019215E-01 -0.34858664037E-01  0.89065857191E+00  0.88000000000E+00 0. -1.
        -11    1    4    4    0    0 -0.54763676501E-01  0.21332789795E-01 -0.55579446420E-02  0.59036429888E-01  0.51100000000E-03 0.  1.
         11    1    4    4    0    0 -0.60065097103E-01  0.20019936490E-01  0.13752220042E-01  0.64791962651E-01  0.51100000000E-03 0. -1.
</event>
<event>
 8    1  0.1082757E+005  0.1043930E+01  0.7957747E-01            NaN
         13   -1    0    0    0    0  0.00000000000E+00  0.00000000000E+00  0.74505805969E-08  0.10566000000E+00  0.10566000000E+00 0. -1.
     999900   -1    0    0    0    0 -0.00000000000E+00 -0.00000000000E+00 -0.74505805969E-08  0.93827000000E+00  0.93827000000E+00 0.  1.
     999902    2    1    2    0    0  0.58008688937E-02 -0.36336212692E-02  0.22186246189E-01  0.10207118432E+01  0.10204477371E+01 0.  0.
     999903    2    3    3    0    0 -0.11397715173E+00  0.17390103217E-01  0.60066153868E-01  0.13154163534E+00  0.20051238850E-01 0.  0.
         14    1    1    2    0    0 -0.58008688937E-02  0.36336212692E-02 -0.22186246189E-01  0.23218156761E-01  0.00000000000E+00 0.  1.
     999901    1    3    3    0    0  0.11977802063E+00 -0.21023724486E-01 -0.37879907680E-01  0.88917020790E+00  0.88000000000E+00 0. -1.
        -11    1    4    4    0    0 -0.44606807931E-01  0.16132127254E-01  0.28242861378E-01  0.55208089836E-01  0.51100000000E-03 0.  1.
         11    1    4    4    0    0 -0.69370343801E-01  0.12579759628E-02  0.31823292490E-01  0.76333545500E-01  0.51100000000E-03 0. -1.
</event>
<event>
 8    1  0.1082757E+005  0.1043930E+01  0.7957747E-01            NaN
         13   -1    0    0    0    0  0.00000000000E+00  0.00000000000E+00  0.74505805969E-08  0.10566000000E+00  0.10566000000E+00 0. -1.
     999900   -1    0    0    0    0 -0.00000000000E+00 -0.00000000000E+00 -0.74505805969E-08  0.93827000000E+00  0.93827000000E+00 0. -1.
     999902    2    1    2    0    0 -0.21930012238E-01  0.35443208906E-02 -0.10218599554E-01  0.10194778544E+01  0.10191845702E+01 0.  0.
     999903    2    3    3    0    0  0.64476830107E-01 -0.10496188012E+00  0.27561878084E-01  0.12781250095E+00  0.20052939331E-01 0.  0.
         14    1    1    2    0    0  0.21930012238E-01 -0.35443208906E-02  0.10218599554E-01  0.24452145594E-01  0.00000000000E+00 0.  1.
     999901    1    3    3    0    0 -0.86406842345E-01  0.10850620101E+00 -0.37780477638E-01  0.89166535346E+00  0.88000000000E+00 0. -1.
        -11    1    4    4    0    0  0.63391179187E-01 -0.96057757916E-01  0.29063341651E-01  0.11870329988E+00  0.51100000000E-03 0.  1.
         11    1    4    4    0    0  0.10856509203E-02 -0.89041222075E-02 -0.15014635668E-02  0.91092010654E-02  0.51100000000E-03 0. -1.
</event>
<event>
 8    1  0.1082757E+005  0.1043930E+01  0.7957747E-01            NaN
         13   -1    0    0    0    0  0.00000000000E+00  0.00000000000E+00  0.74505805969E-08  0.10566000000E+00  0.10566000000E+00 0.  1.
     999900   -1    0    0    0    0 -0.00000000000E+00 -0.00000000000E+00 -0.74505805969E-08  0.93827000000E+00  0.93827000000E+00 0. -1.
     999902    2    1    2    0    0 -0.52176782625E-02 -0.76919441817E-02 -0.22809337832E-01  0.10192996110E+01  0.10190019827E+01 0.  0.
     999903    2    3    3    0    0 -0.54501197430E-01  0.70217899423E-01  0.89248696427E-01  0.12741631589E+00  0.19200359897E-01 0.  0.
         14    1    1    2    0    0  0.52176782625E-02  0.76919441817E-02  0.22809337832E-01  0.24630389036E-01  0.00000000000E+00 0.  1.
     999901    1    3    3    0    0  0.49283519167E-01 -0.77909843604E-01 -0.11205803426E+00  0.89188329508E+00  0.88000000000E+00 0. -1.
        -11    1    4    4    0    0 -0.24129053294E-01  0.45683423384E-01  0.55223166653E-01  0.75624372004E-01  0.51100000000E-03 0.  1.
         11    1    4    4    0    0 -0.30372144136E-01  0.24534476039E-01  0.34025529774E-01  0.51791943885E-01  0.51100000000E-03 0. -1.
</event>
<event>
 8    1  0.1082757E+005  0.1043930E+01  0.7957747E-01            NaN
         13   -1    0    0    0    0  0.00000000000E+00  0.00000000000E+00  0.74505805969E-08  0.10566000000E+00  0.10566000000E+00 0. -1.
     999900   -1    0    0    0    0 -0.00000000000E+00 -0.00000000000E+00 -0.74505805969E-08  0.93827000000E+00  0.93827000000E+00 0.  1.
     999902    2    1    2    0    0  0.33031402171E-02 -0.11154591588E-01 -0.20616786499E-01  0.10202574941E+01  0.10199828267E+01 0.  0.
     999903    2    3    3    0    0 -0.92700794952E-01  0.35264115023E-01  0.78676845102E-01  0.12827617304E+00  0.20681765428E-01 0.  0.
         14    1    1    2    0    0 -0.33031402171E-02  0.11154591588E-01  0.20616786499E-01  0.23672505874E-01  0.00000000000E+00 0.  1.
     999901    1    3    3    0    0  0.96003935169E-01 -0.46418706612E-01 -0.99293631601E-01  0.89198132109E+00  0.88000000000E+00 0.  1.
        -11    1    4    4    0    0 -0.20394089729E-01  0.32913722450E-02  0.26265198211E-01  0.33419661656E-01  0.51100000000E-03 0.  1.
         11    1    4    4    0    0 -0.72306705223E-01  0.31972742778E-01  0.52411646891E-01  0.94856511383E-01  0.51100000000E-03 0. -1.
</event>
<event>
 8    1  0.1082757E+005  0.1043930E+01  0.7957747E-01            NaN
         13   -1    0    0    0    0  0.00000000000E+00  0.00000000000E+00  0.74505805969E-08  0.10566000000E+00  0.10566000000E+00 0. -1.
     999900   -1    0    0    0    0 -0.00000000000E+00 -0.00000000000E+00 -0.74505805969E-08  0.93827000000E+00  0.93827000000E+00 0.  1.
     999902    2    1    2    0    0  0.94135364984E-02  0.18968168883E-01  0.21501450070E-01  0.10137518878E+01  0.10133026061E+01 0.  0.
     999903    2    3    3    0    0 -0.54644399940E-01 -0.10567654284E+00  0.21892744483E-01  0.12266273599E+00  0.20330085773E-01 0.  0.
         14    1    1    2    0    0 -0.94135364984E-02 -0.18968168883E-01 -0.21501450070E-01  0.30178112189E-01  0.00000000000E+00 0.  1.
     999901    1    3    3    0    0  0.64057936439E-01  0.12464471173E+00 -0.39129441361E-03  0.89108915182E+00  0.88000000000E+00 0.  1.
        -11    1    4    4    0    0 -0.38161148048E-01 -0.88858549258E-01  0.13437175507E-01  0.97636744124E-01  0.51100000000E-03 0. -1.
         11    1    4    4    0    0 -0.16483251893E-01 -0.16817993585E-01  0.84555689759E-02  0.25025991866E-01  0.51100000000E-03 0.  1.
</event>
<event>
 8    1  0.1082757E+005  0.1043930E+01  0.7957747E-01            NaN
         13   -1    0    0    0    0  0.00000000000E+00  0.00000000000E+00  0.74505805969E-08  0.10566000000E+00  0.10566000000E+00 0. -1.
     999900   -1    0    0    0    0 -0.00000000000E+00 -0.00000000000E+00 -0.74505805969E-08  0.93827000000E+00  0.93827000000E+00 0. -1.
     999902    2    1    2    0    0 -0.11816376523E-01  0.13406894236E-01 -0.17200205739E-01  0.10191263986E+01  0.10188245176E+01 0.  0.
     999903    2    3    3    0    0  0.10208504002E+00 -0.69034397029E-01  0.24489301632E-01  0.12698957372E+00  0.18426138269E-01 0.  0.
         14    1    1    2    0    0  0.11816376523E-01 -0.13406894236E-01  0.17200205739E-01  0.24803601445E-01  0.00000000000E+00 0. -1.
     999901    1    3    3    0    0 -0.11390141654E+00  0.82441291265E-01 -0.41689507371E-01  0.89213682483E+00  0.88000000000E+00 0.  1.
        -11    1    4    4    0    0  0.72740917868E-01 -0.56775981068E-01  0.23244485623E-01  0.95159447200E-01  0.51100000000E-03 0.  1.
         11    1    4    4    0    0  0.29344122150E-01 -0.12258415961E-01  0.12448160089E-02  0.31830126524E-01  0.51100000000E-03 0. -1.
</event>
<event>
 8    1  0.1082757E+005  0.1043930E+01  0.7957747E-01            NaN
         13   -1    0    0    0    0  0.00000000000E+00  0.00000000000E+00  0.74505805969E-08  0.10566000000E+00  0.10566000000E+00 0. -1.
     999900   -1    0    0    0    0 -0.00000000000E+00 -0.00000000000E+00 -0.74505805969E-08  0.93827000000E+00  0.93827000000E+00 0. -1.
     999902    2    1    2    0    0  0.19541234966E-01 -0.13527652085E-01 -0.22493775544E-03  0.10201622102E+01  0.10198853010E+01 0.  0.
     999903    2    3    3    0    0 -0.11683244109E+00  0.46919708372E-01  0.22713821688E-02  0.12760526831E+00  0.20655919196E-01 0.  0.
         14    1    1    2    0    0 -0.19541234966E-01  0.13527652085E-01  0.22493775544E-03  0.23767789799E-01  0.00000000000E+00 0. -1.
     999901    1    3    3    0    0  0.13637367606E+00 -0.60447360457E-01 -0.24963199243E-02  0.89255694189E+00  0.88000000000E+00 0.  1.
        -11    1    4    4    0    0 -0.19223233982E-01  0.10907947320E-01 -0.69003402410E-02  0.23160135057E-01  0.51100000000E-03 0.  1.
         11    1    4    4    0    0 -0.97609207111E-01  0.36011761053E-01  0.91717224098E-02  0.10444513325E+00  0.51100000000E-03 0. -1.
</event>
<event>
 8    1  0.1082757E+005  0.1043930E+01  0.7957747E-01            NaN
         13   -1    0    0    0    0  0.00000000000E+00  0.00000000000E+00  0.74505805969E-08  0.10566000000E+00  0.10566000000E+00 0. -1.
     999900   -1    0    0    0    0 -0.00000000000E+00 -0.00000000000E+00 -0.74505805969E-08  0.93827000000E+00  0.93827000000E+00 0.  1.
     999902    2    1    2    0    0  0.25313974279E-02  0.24628182056E-01 -0.34008718723E-02  0.10189395768E+01  0.10186330742E+01 0.  0.
     999903    2    3    3    0    0  0.36117170198E-01  0.12423985137E+00  0.19129068825E-01  0.13239680451E+00  0.20567010488E-01 0.  0.
         14    1    1    2    0    0 -0.25313974279E-02 -0.24628182056E-01  0.34008718723E-02  0.24990423242E-01  0.00000000000E+00 0.  1.
     999901    1    3    3    0    0 -0.33585772770E-01 -0.99611669309E-01 -0.22529940698E-01  0.88654277225E+00  0.88000000000E+00 0.  1.
        -11    1    4    4    0    0  0.36094175954E-01  0.10378772749E+00  0.20921310783E-01  0.11185993153E+00  0.51100000000E-03 0.  1.
         11    1    4    4    0    0  0.22994243457E-04  0.20452123875E-01 -0.17922419581E-02  0.20536872984E-01  0.51100000000E-03 0. -1.
</event>
<event>
 8    1  0.1082757E+005  0.1043930E+01  0.7957747E-01            NaN
         13   -1    0    0    0    0  0.00000000000E+00  0.00000000000E+00  0.74505805969E-08  0.10566000000E+00  0.10566000000E+00 0. -1.
     999900   -1    0    0    0    0 -0.00000000000E+00 -0.00000000000E+00 -0.74505805969E-08  0.93827000000E+00  0.93827000000E+00 0.  1.
     999902    2    1    2    0    0  0.27670736435E-01  0.44104497450E-02 -0.86941602080E-02  0.10145921381E+01  0.10141678838E+01 0.  0.
     999903    2    3    3    0    0  0.75120745686E-01  0.10158534544E+00 -0.20258719176E-02  0.12794737841E+00  0.20092751059E-01 0.  0.
         14    1    1    2    0    0 -0.27670736435E-01 -0.44104497450E-02  0.86941602080E-02  0.29337861945E-01  0.00000000000E+00 0.  1.
     999901    1    3    3    0    0 -0.47450009251E-01 -0.97174895696E-01 -0.66682882904E-02  0.88664475964E+00  0.88000000000E+00 0.  1.
        -11    1    4    4    0    0  0.50238500636E-01  0.52197133629E-01  0.22031731689E-02  0.72481465205E-01  0.51100000000E-03 0. -1.
         11    1    4    4    0    0  0.24882245049E-01  0.49388211812E-01 -0.42290450865E-02  0.55465913208E-01  0.51100000000E-03 0.  1.
</event>
<event>
 8    1  0.1082757E+005  0.1043930E+01  0.7957747E-01            NaN
         13   -1    0    0    0    0  0.00000000000E+00  0.00000000000E+00  0.74505805969E-08  0.10566000000E+00  0.10566000000E+00 0.  1.
     999900   -1    0    0    0    0 -0.00000000000E+00 -0.00000000000E+00 -0.74505805969E-08  0.93827000000E+00  0.93827000000E+00 0. -1.
     999902    2    1    2    0    0  0.85346467082E-02  0.13933968961E-02  0.22504932791E-01  0.10198207953E+01  0.10195357771E+01 0.  0.
     999903    2    3    3    0    0  0.73086220057E-01 -0.98221932672E-01 -0.38887414904E-01  0.12973139541E+00  0.18134505734E-01 0.  0.
         14    1    1    2    0    0 -0.85346467082E-02 -0.13933968961E-02 -0.22504932791E-01  0.24109204659E-01  0.00000000000E+00 0. -1.
     999901    1    3    3    0    0 -0.64551573348E-01  0.99615329568E-01  0.61392347695E-01  0.89008939993E+00  0.88000000000E+00 0.  1.
        -11    1    4    4    0    0  0.37672529977E-01 -0.41189281079E-01 -0.25053243165E-01  0.61185803131E-01  0.51100000000E-03 0. -1.
         11    1    4    4    0    0  0.35413690080E-01 -0.57032651593E-01 -0.13834171739E-01  0.68545592283E-01  0.51100000000E-03 0.  1.
</event>
<event>
 8    1  0.1411436E+005  0.1043930E+01  0.7957747E-01            NaN
         13   -1    0    0    0    0  0.00000000000E+00  0.00000000000E+00  0.74505805969E-08  0.10566000000E+00  0.10566000000E+00 0. -1.
     999900   -1    0    0    0    0 -0.00000000000E+00 -0.00000000000E+00 -0.74505805969E-08  0.93827000000E+00  0.93827000000E+00 0. -1.
     999902    2    1    2    0    0 -0.30244388492E-02  0.30095501372E-02 -0.23901192559E-01  0.10196509632E+01  0.10193618666E+01 0.  0.
     999903    2    3    3    0    0  0.47569330948E-01 -0.11780750364E+00  0.12637564422E-01  0.12920637155E+00  0.19827487333E-01 0.  0.
         14    1    1    2    0    0  0.30244388492E-02 -0.30095501372E-02  0.23901192559E-01  0.24279036804E-01  0.00000000000E+00 0. -1.
     999901    1    3    3    0    0 -0.50593769797E-01  0.12081705378E+00 -0.36538756981E-01  0.89044459164E+00  0.88000000000E+00 0. -1.
        -11    1    4    4    0    0  0.83425240209E-02 -0.46042258089E-01  0.51043921244E-02  0.47072318585E-01  0.51100000000E-03 0. -1.
         11    1    4    4    0    0  0.39226806927E-01 -0.71765245552E-01  0.75331722977E-02  0.82134052967E-01  0.51100000000E-03 0.  1.
</event>
<event>
 8    1  0.1082757E+005  0.1043930E+01  0.7957747E-01            NaN
         13   -1    0    0    0    0  0.00000000000E+00  0.00000000000E+00  0.74505805969E-08  0.10566000000E+00  0.10566000000E+00 0. -1.
     999900   -1    0    0    0    0 -0.00000000000E+00 -0.00000000000E+00 -0.74505805969E-08  0.93827000000E+00  0.93827000000E+00 0. -1.
     999902    2    1    2    0    0 -0.36300621898E-02 -0.16031581179E-01 -0.18602603353E-01  0.10191057015E+01  0.10188033102E+01 0.  0.
     999903    2    3    3    0    0  0.63340298524E-01 -0.15030680733E-01 -0.11217933286E+00  0.13161337173E+00  0.22359832700E-01 0.  0.
         14    1    1    2    0    0  0.36300621898E-02  0.16031581179E-01  0.18602603353E-01  0.24824298542E-01  0.00000000000E+00 0. -1.
     999901    1    3    3    0    0 -0.66970360714E-01 -0.10009004464E-02  0.93576729503E-01  0.88749232972E+00  0.88000000000E+00 0.  1.
        -11    1    4    4    0    0  0.16390680631E-01 -0.36567053009E-02 -0.50776236520E-01  0.53483765961E-01  0.51100000000E-03 0.  1.
         11    1    4    4    0    0  0.46949617893E-01 -0.11373975432E-01 -0.61403096337E-01  0.78129605772E-01  0.51100000000E-03 0. -1.
</event>
<event>
 8    1  0.1082757E+005  0.1043930E+01  0.7957747E-01            NaN
         13   -1    0    0    0    0  0.00000000000E+00  0.00000000000E+00  0.74505805969E-08  0.10566000000E+00  0.10566000000E+00 0. -1.
     999900   -1    0    0    0    0 -0.00000000000E+00 -0.00000000000E+00 -0.74505805969E-08  0.93827000000E+00  0.93827000000E+00 0.  1.
     999902    2    1    2    0    0 -0.19453554168E-01  0.33362176703E-02 -0.13393320245E-01  0.10200772822E+01  0.10197983671E+01 0.  0.
     999903    2    3    3    0    0 -0.44586880660E-01 -0.80583682367E-01 -0.92716974194E-01  0.13217724517E+00  0.19815828186E-01 0.  0.
         14    1    1    2    0    0  0.19453554168E-01 -0.33362176703E-02  0.13393320245E-01  0.23852717776E-01  0.00000000000E+00 0. -1.
     999901    1    3    3    0    0  0.25133326492E-01  0.83919900037E-01  0.79323653949E-01  0.88790003705E+00  0.88000000000E+00 0. -1.
        -11    1    4    4    0    0 -0.13023805978E-01 -0.41483560283E-01 -0.49610191732E-01  0.65969216613E-01  0.51100000000E-03 0. -1.
         11    1    4    4    0    0 -0.31563074682E-01 -0.39100122084E-01 -0.43106782462E-01  0.66208028558E-01  0.51100000000E-03 0.  1.
</event>
<event>
 8    1  0.1082757E+005  0.1043930E+01  0.7957747E-01            NaN
         13   -1    0    0    0    0  0.00000000000E+00  0.00000000000E+00  0.74505805969E-08  0.10566000000E+00  0.10566000000E+00 0.  1.
     999900   -1    0    0    0    0 -0.00000000000E+00 -0.00000000000E+00 -0.74505805969E-08  0.93827000000E+00  0.93827000000E+00 0. -1.
     999902    2    1    2    0    0 -0.71674276891E-02 -0.68547466007E-02  0.21758350352E-01  0.10200179658E+01  0.10197376452E+01 0.  0.
     999903    2    3    3    0    0  0.29935488982E-01 -0.91242006070E-01  0.89308772987E-01  0.13262803143E+00  0.19821720809E-01 0.  0.
         14    1    1    2    0    0  0.71674276891E-02  0.68547466007E-02 -0.21758350352E-01  0.23912034222E-01  0.00000000000E+00 0. -1.
     999901    1    3    3    0    0 -0.37102916671E-01  0.84387259469E-01 -0.67550422636E-01  0.88738993435E+00  0.88000000000E+00 0. -1.
        -11    1    4    4    0    0  0.15613426676E-01 -0.55823784666E-01  0.40838087180E-01  0.70908987530E-01  0.51100000000E-03 0.  1.
         11    1    4    4    0    0  0.14322062306E-01 -0.35418221404E-01  0.48470685807E-01  0.61719043899E-01  0.51100000000E-03 0. -1.
</event>
<event>
 8    1  0.1082757E+005  0.1043930E+01  0.7957747E-01            NaN
         13   -1    0    0    0    0  0.00000000000E+00  0.00000000000E+00  0.74505805969E-08  0.10566000000E+00  0.10566000000E+00 0. -1.
     999900   -1    0    0    0    0 -0.00000000000E+00 -0.00000000000E+00 -0.74505805969E-08  0.93827000000E+00  0.93827000000E+00 0.  1.
     999902    2    1    2    0    0  0.70718367445E-02 -0.25034499692E-02  0.21356602990E-01  0.10212941296E+01  0.10210432491E+01 0.  0.
     999903    2    3    3    0    0 -0.82573013271E-01  0.52943175655E-01  0.86092150700E-01  0.13264278147E+00  0.23684735483E-01 0.  0.
         14    1    1    2    0    0 -0.70718367445E-02  0.25034499692E-02 -0.21356602990E-01  0.22635870383E-01  0.00000000000E+00 0.  1.
     999901    1    3    3    0    0  0.89644850015E-01 -0.55446625624E-01 -0.64735547709E-01  0.88865134815E+00  0.88000000000E+00 0.  1.
        -11    1    4    4    0    0 -0.25224008969E-01  0.12941325670E-01  0.12070933235E-01  0.30817155753E-01  0.51100000000E-03 0. -1.
         11    1    4    4    0    0 -0.57349004302E-01  0.40001849985E-01  0.74021217465E-01  0.10182562572E+00  0.51100000000E-03 0.  1.
</event>
<event>
 8    1  0.1082757E+005  0.1043930E+01  0.7957747E-01            NaN
         13   -1    0    0    0    0  0.00000000000E+00  0.00000000000E+00  0.74505805969E-08  0.10566000000E+00  0.10566000000E+00 0.  1.
     999900   -1    0    0    0    0 -0.00000000000E+00 -0.00000000000E+00 -0.74505805969E-08  0.93827000000E+00  0.93827000000E+00 0. -1.
     999902    2    1    2    0    0  0.14256436729E-01 -0.11572547036E-01 -0.11687189355E-01  0.10221639662E+01  0.10219321962E+01 0.  0.
     999903    2    3    3    0    0  0.94949071617E-01  0.69388317892E-01  0.56917176129E-01  0.13212322445E+00  0.19670196762E-01 0.  0.
         14    1    1    2    0    0 -0.14256436729E-01  0.11572547036E-01  0.11687189355E-01  0.21766033817E-01  0.00000000000E+00 0. -1.
     999901    1    3    3    0    0 -0.80692634889E-01 -0.80960864928E-01 -0.68604365483E-01  0.89004074173E+00  0.88000000000E+00 0.  1.
        -11    1    4    4    0    0  0.48549570123E-01  0.23373291001E-01  0.25814005034E-01  0.59749439062E-01  0.51100000000E-03 0.  1.
         11    1    4    4    0    0  0.46399501494E-01  0.46015026892E-01  0.31103171094E-01  0.72373785391E-01  0.51100000000E-03 0. -1.
</event>
<event>
 8    1  0.1082757E+005  0.1043930E+01  0.7957747E-01            NaN
         13   -1    0    0    0    0  0.00000000000E+00  0.00000000000E+00  0.74505805969E-08  0.10566000000E+00  0.10566000000E+00 0. -1.
     999900   -1    0    0    0    0 -0.00000000000E+00 -0.00000000000E+00 -0.74505805969E-08  0.93827000000E+00  0.93827000000E+00 0. -1.
     999902    2    1    2    0    0  0.22773721771E-02  0.22657275213E-01 -0.16833991855E-02  0.10210964200E+01  0.10208410878E+01 0.  0.
     999903    2    3    3    0    0 -0.32734451166E-01 -0.10889742802E+00  0.56883042994E-01  0.12870497231E+00  0.19977367017E-01 0.  0.
         14    1    1    2    0    0 -0.22773721771E-02 -0.22657275213E-01  0.16833991855E-02  0.22833580028E-01  0.00000000000E+00 0. -1.
     999901    1    3    3    0    0  0.35011823343E-01  0.13155470324E+00 -0.58566442180E-01  0.89239144767E+00  0.88000000000E+00 0.  1.
        -11    1    4    4    0    0 -0.14758363417E-01 -0.27851687779E-01  0.23078703506E-01  0.39069341937E-01  0.51100000000E-03 0.  1.
         11    1    4    4    0    0 -0.17976087749E-01 -0.81045740244E-01  0.33804339488E-01  0.89635630369E-01  0.51100000000E-03 0. -1.
</event>
<event>
 8    1  0.1082757E+005  0.1043930E+01  0.7957747E-01            NaN
         13   -1    0    0    0    0  0.00000000000E+00  0.00000000000E+00  0.74505805969E-08  0.10566000000E+00  0.10566000000E+00 0.  1.
     999900   -1    0    0    0    0 -0.00000000000E+00 -0.00000000000E+00 -0.74505805969E-08  0.93827000000E+00  0.93827000000E+00 0. -1.
     999902    2    1    2    0    0 -0.16261256759E-01 -0.17158822960E-01 -0.17112291115E-02  0.10202280595E+01  0.10199527006E+01 0.  0.
     999903    2    3    3    0    0  0.12469933822E+00  0.20773309536E-01 -0.73371794498E-02  0.12818524255E+00  0.19903940915E-01 0.  0.
         14    1    1    2    0    0  0.16261256759E-01  0.17158822960E-01  0.17112291115E-02  0.23701940466E-01  0.00000000000E+00 0. -1.
     999901    1    3    3    0    0 -0.14096059498E+00 -0.37932132496E-01  0.56259503383E-02  0.89204281698E+00  0.88000000000E+00 0.  1.
        -11    1    4    4    0    0  0.60778984680E-01  0.19177576376E-01  0.70844946929E-03  0.63738743602E-01  0.51100000000E-03 0. -1.
         11    1    4    4    0    0  0.63920353541E-01  0.15957331609E-02 -0.80456289191E-02  0.64446498949E-01  0.51100000000E-03 0.  1.
</event>
<event>
 8    1  0.1082757E+005  0.1043930E+01  0.7957747E-01            NaN
         13   -1    0    0    0    0  0.00000000000E+00  0.00000000000E+00  0.74505805969E-08  0.10566000000E+00  0.10566000000E+00 0. -1.
     999900   -1    0    0    0    0 -0.00000000000E+00 -0.00000000000E+00 -0.74505805969E-08  0.93827000000E+00  0.93827000000E+00 0. -1.
     999902    2    1    2    0    0 -0.94304947551E-02 -0.16996175711E-01  0.13176080965E-01  0.10204478082E+01  0.10201775904E+01 0.  0.
     999903    2    3    3    0    0 -0.12005947221E+00  0.43364925395E-01  0.23497407421E-01  0.13140969716E+00  0.20532577270E-01 0.  0.
         14    1    1    2    0    0  0.94304947551E-02  0.16996175711E-01 -0.13176080965E-01  0.23482191757E-01  0.00000000000E+00 0.  1.
     999901    1    3    3    0    0  0.11062897746E+00 -0.60361101106E-01 -0.10321326456E-01  0.88903811108E+00  0.88000000000E+00 0.  1.
        -11    1    4    4    0    0 -0.81289852230E-01  0.35540897087E-01  0.23784977484E-01  0.91854132820E-01  0.51100000000E-03 0. -1.
         11    1    4    4    0    0 -0.38769619983E-01  0.78240283083E-02 -0.28757006319E-03  0.39555564339E-01  0.51100000000E-03 0.  1.
</event>
<event>
 8    1  0.1082757E+005  0.1043930E+01  0.7957747E-01            NaN
         13   -1    0    0    0    0  0.00000000000E+00  0.00000000000E+00  0.74505805969E-08  0.10566000000E+00  0.10566000000E+00 0.  1.
     999900   -1    0    0    0    0 -0.00000000000E+00 -0.00000000000E+00 -0.74505805969E-08  0.93827000000E+00  0.93827000000E+00 0. -1.
     999902    2    1    2    0    0  0.26079142531E-02 -0.14901695180E-01  0.20059254188E-01  0.10188056012E+01  0.10184957622E+01 0.  0.
     999903    2    3    3    0    0  0.59008644155E-01  0.10524480778E+00  0.39919760872E-01  0.12863108785E+00  0.19846405347E-01 0.  0.
         14    1    1    2    0    0 -0.26079142531E-02  0.14901695180E-01 -0.20059254188E-01  0.25124398790E-01  0.00000000000E+00 0. -1.
     999901    1    3    3    0    0 -0.56400729902E-01 -0.12014650296E+00 -0.19860506684E-01  0.89017451336E+00  0.88000000000E+00 0. -1.
        -11    1    4    4    0    0  0.18570856808E-01  0.21311286488E-01  0.30625243898E-02  0.28437437139E-01  0.51100000000E-03 0.  1.
         11    1    4    4    0    0  0.40437787347E-01  0.83933521287E-01  0.36857236483E-01  0.10019365071E+00  0.51100000000E-03 0. -1.
</event>
<event>
 8    1  0.1082757E+005  0.1043930E+01  0.7957747E-01            NaN
         13   -1    0    0    0    0  0.00000000000E+00  0.00000000000E+00  0.74505805969E-08  0.10566000000E+00  0.10566000000E+00 0. -1.
     999900   -1    0    0    0    0 -0.00000000000E+00 -0.00000000000E+00 -0.74505805969E-08  0.93827000000E+00  0.93827000000E+00 0.  1.
     999902    2    1    2    0    0 -0.14277748241E-01 -0.72375375088E-02 -0.17346242610E-01  0.10203264372E+01  0.10200533860E+01 0.  0.
     999903    2    3    3    0    0 -0.76278689444E-01  0.91402040047E-01  0.48848234823E-01  0.13018285788E+00  0.19714336201E-01 0.  0.
         14    1    1    2    0    0  0.14277748241E-01  0.72375375088E-02  0.17346242610E-01  0.23603562797E-01  0.00000000000E+00 0. -1.
     999901    1    3    3    0    0  0.62000941203E-01 -0.98639577556E-01 -0.66194477433E-01  0.89014357932E+00  0.88000000000E+00 0. -1.
        -11    1    4    4    0    0 -0.30065589723E-01  0.39889032570E-01  0.30713601002E-01  0.58640097308E-01  0.51100000000E-03 0.  1.
         11    1    4    4    0    0 -0.46213099721E-01  0.51513007477E-01  0.18134633821E-01  0.71542760570E-01  0.51100000000E-03 0. -1.
</event>
<event>
 8    1  0.1082757E+005  0.1043930E+01  0.7957747E-01            NaN
         13   -1    0    0    0    0  0.00000000000E+00  0.00000000000E+00  0.74505805969E-08  0.10566000000E+00  0.10566000000E+00 0. -1.
     999900   -1    0    0    0    0 -0.00000000000E+00 -0.00000000000E+00 -0.74505805969E-08  0.93827000000E+00  0.93827000000E+00 0.  1.
     999902    2    1    2    0    0  0.13063518944E-02 -0.17074670836E-01 -0.15876449301E-01  0.10205780711E+01  0.10203108775E+01 0.  0.
     999903    2    3    3    0    0 -0.34903176783E-01 -0.86621314751E-01  0.89653217413E-01  0.13081159829E+00  0.18774741937E-01 0.  0.
         14    1    1    2    0    0 -0.13063518944E-02  0.17074670836E-01  0.15876449301E-01  0.23351928867E-01  0.00000000000E+00 0.  1.
     999901    1    3    3    0    0  0.36209528677E-01  0.69546643915E-01 -0.10552966671E+00  0.88976647285E+00  0.88000000000E+00 0. -1.
        -11    1    4    4    0    0 -0.78272440656E-02 -0.19275647948E-01  0.31734661872E-01  0.37949522245E-01  0.51100000000E-03 0.  1.
         11    1    4    4    0    0 -0.27075932717E-01 -0.67345666802E-01  0.57918555540E-01  0.92862076040E-01  0.51100000000E-03 0. -1.
</event>
<event>
 8    1  0.1082757E+005  0.1043930E+01  0.7957747E-01            NaN
         13   -1    0    0    0    0  0.00000000000E+00  0.00000000000E+00  0.74505805969E-08  0.10566000000E+00  0.10566000000E+00 0. -1.
     999900   -1    0    0    0    0 -0.00000000000E+00 -0.00000000000E+00 -0.74505805969E-08  0.93827000000E+00  0.93827000000E+00 0.  1.
     999902    2    1    2    0    0 -0.11750419258E-01  0.17854973697E-01  0.65795060141E-02  0.10215656905E+01  0.10213208593E+01 0.  0.
     999903    2    3    3    0    0 -0.54944299705E-01 -0.11504178304E+00  0.19042751346E-01  0.13045257104E+00  0.20043926670E-01 0.  0.
         14    1    1    2    0    0  0.11750419258E-01 -0.17854973697E-01 -0.65795060141E-02  0.22364309465E-01  0.00000000000E+00 0.  1.
     999901    1    3    3    0    0  0.43193880446E-01  0.13289675674E+00 -0.12463245332E-01  0.89111311950E+00  0.88000000000E+00 0. -1.
        -11    1    4    4    0    0 -0.41299045601E-01 -0.95678324679E-01  0.86220011320E-02  0.10456841304E+00  0.51100000000E-03 0. -1.
         11    1    4    4    0    0 -0.13645254104E-01 -0.19363458360E-01  0.10420750214E-01  0.25884157998E-01  0.51100000000E-03 0.  1.
</event>
<event>
 8    1  0.1082757E+005  0.1043930E+01  0.7957747E-01            NaN
         13   -1    0    0    0    0  0.00000000000E+00  0.00000000000E+00  0.74505805969E-08  0.10566000000E+00  0.10566000000E+00 0.  1.
     999900   -1    0    0    0    0 -0.00000000000E+00 -0.00000000000E+00 -0.74505805969E-08  0.93827000000E+00  0.93827000000E+00 0. -1.
     999902    2    1    2    0    0 -0.11220370662E-01 -0.88517310656E-02  0.19885950241E-01  0.10194412091E+01  0.10191470345E+01 0.  0.
     999903    2    3    3    0    0 -0.33708042336E-01  0.11838448775E+00 -0.31086377291E-01  0.12854675472E+00  0.20168942381E-01 0.  0.
         14    1    1    2    0    0  0.11220370662E-01  0.88517310656E-02 -0.19885950241E-01  0.24488790857E-01  0.00000000000E+00 0. -1.
     999901    1    3    3    0    0  0.22487671674E-01 -0.12723621882E+00  0.50972327532E-01  0.89089445443E+00  0.88000000000E+00 0. -1.
        -11    1    4    4    0    0 -0.20692008292E-01  0.80225204032E-01 -0.30296150111E-01  0.88217687578E-01  0.51100000000E-03 0. -1.
         11    1    4    4    0    0 -0.13016034044E-01  0.38159283719E-01 -0.79022717924E-03  0.40329067137E-01  0.51100000000E-03 0.  1.
</event>
<event>
 8    1  0.1082757E+005  0.1043930E+01  0.7957747E-01            NaN
         13   -1    0    0    0    0  0.00000000000E+00  0.00000000000E+00  0.74505805969E-08  0.10566000000E+00  0.10566000000E+00 0. -1.
     999900   -1    0    0    0    0 -0.00000000000E+00 -0.00000000000E+00 -0.74505805969E-08  0.93827000000E+00  0.93827000000E+00 0. -1.
     999902    2    1    2    0    0 -0.37606898623E-02 -0.23149362342E-01  0.69404239523E-03  0.10204668915E+01  0.10201971178E+01 0.  0.
     999903    2    3    3    0    0 -0.12845737863E+00 -0.17624522751E-02  0.18172494534E-01  0.13124691850E+00  0.19776493507E-01 0.  0.
         14    1    1    2    0    0  0.37606898623E-02  0.23149362342E-01 -0.69404239523E-03  0.23463108488E-01  0.00000000000E+00 0. -1.
     999901    1    3    3    0    0  0.12469668877E+00 -0.21386910067E-01 -0.17478452139E-01  0.88921997301E+00  0.88000000000E+00 0. -1.
        -11    1    4    4    0    0 -0.98297322540E-01 -0.94901126039E-02  0.11741419590E-01  0.99451233832E-01  0.51100000000E-03 0.  1.
         11    1    4    4    0    0 -0.30160056092E-01  0.77276603288E-02  0.64310749448E-02  0.31795684669E-01  0.51100000000E-03 0. -1.
</event>
<event>
 8    1  0.1082757E+005  0.1043930E+01  0.7957747E-01            NaN
         13   -1    0    0    0    0  0.00000000000E+00  0.00000000000E+00  0.74505805969E-08  0.10566000000E+00  0.10566000000E+00 0.  1.
     999900   -1    0    0    0    0 -0.00000000000E+00 -0.00000000000E+00 -0.74505805969E-08  0.93827000000E+00  0.93827000000E+00 0.  1.
     999902    2    1    2    0    0  0.51513129912E-02 -0.23045218755E-01 -0.13371918434E-02  0.10202782302E+01  0.10200040494E+01 0.  0.
     999903    2    3    3    0    0  0.96912776875E-01  0.10635461490E-02 -0.85872322658E-01  0.13115079999E+00  0.20814876578E-01 0.  0.
         14    1    1    2    0    0 -0.51513129912E-02  0.23045218755E-01  0.13371918434E-02  0.23651769808E-01  0.00000000000E+00 0.  1.
     999901    1    3    3    0    0 -0.91761463883E-01 -0.24108764904E-01  0.84535130814E-01  0.88912743020E+00  0.88000000000E+00 0. -1.
        -11    1    4    4    0    0  0.27396065252E-01 -0.69656692004E-02 -0.32919196573E-01  0.43393542869E-01  0.51100000000E-03 0.  1.
         11    1    4    4    0    0  0.69516711623E-01  0.80292153494E-02 -0.52953126085E-01  0.87757257119E-01  0.51100000000E-03 0. -1.
</event>
<event>
 8    1  0.1082757E+005  0.1043930E+01  0.7957747E-01            NaN
         13   -1    0    0    0    0  0.00000000000E+00  0.00000000000E+00  0.74505805969E-08  0.10566000000E+00  0.10566000000E+00 0.  1.
     999900   -1    0    0    0    0 -0.00000000000E+00 -0.00000000000E+00 -0.74505805969E-08  0.93827000000E+00  0.93827000000E+00 0.  1.
     999902    2    1    2    0    0 -0.16339477959E-01  0.16945294796E-01 -0.42481869371E-02  0.10200099530E+01  0.10197294423E+01 0.  0.
     999903    2    3    3    0    0  0.67053308035E-01 -0.80480483653E-01 -0.71099903660E-01  0.12820543907E+00  0.20203562515E-01 0.  0.
         14    1    1    2    0    0  0.16339477959E-01 -0.16945294796E-01  0.42481869371E-02  0.23920046989E-01  0.00000000000E+00 0.  1.
     999901    1    3    3    0    0 -0.83392785994E-01  0.97425778449E-01  0.66851716723E-01  0.89180451394E+00  0.88000000000E+00 0. -1.
        -11    1    4    4    0    0  0.30784833487E-01 -0.46678243771E-01 -0.47149228776E-01  0.73142841821E-01  0.51100000000E-03 0. -1.
         11    1    4    4    0    0  0.36268474548E-01 -0.33802239882E-01 -0.23950674884E-01  0.55062597246E-01  0.51100000000E-03 0.  1.
</event>
<event>
 8    1  0.1082757E+005  0.1043930E+01  0.7957747E-01            NaN
         13   -1    0    0    0    0  0.00000000000E+00  0.00000000000E+00  0.74505805969E-08  0.10566000000E+00  0.10566000000E+00 0.  1.
     999900   -1    0    0    0    0 -0.00000000000E+00 -0.00000000000E+00 -0.74505805969E-08  0.93827000000E+00  0.93827000000E+00 0.  1.
     999902    2    1    2    0    0  0.52905504808E-02 -0.21582304185E-01 -0.92929988879E-02  0.10198437880E+01  0.10195593197E+01 0.  0.
     999903    2    3    3    0    0  0.90979656915E-01 -0.72907233511E-01  0.57947943829E-01  0.13164436465E+00  0.19481064631E-01 0.  0.
         14    1    1    2    0    0 -0.52905504808E-02  0.21582304185E-01  0.92929988879E-02  0.24086211962E-01  0.00000000000E+00 0. -1.
     999901    1    3    3    0    0 -0.85689106435E-01  0.51324929325E-01 -0.67240942716E-01  0.88819942339E+00  0.88000000000E+00 0.  1.
        -11    1    4    4    0    0  0.59987711679E-01 -0.48724203019E-01  0.27913104222E-01  0.82170408424E-01  0.51100000000E-03 0.  1.
         11    1    4    4    0    0  0.30991945236E-01 -0.24183030492E-01  0.30034839606E-01  0.49473956224E-01  0.51100000000E-03 0. -1.
</event>
<event>
 8    1  0.1082757E+005  0.1043930E+01  0.7957747E-01            NaN
         13   -1    0    0    0    0  0.00000000000E+00  0.00000000000E+00  0.74505805969E-08  0.10566000000E+00  0.10566000000E+00 0.  1.
     999900   -1    0    0    0    0 -0.00000000000E+00 -0.00000000000E+00 -0.74505805969E-08  0.93827000000E+00  0.93827000000E+00 0. -1.
     999902    2    1    2    0    0  0.14517634939E-01  0.88479992054E-02 -0.16399073664E-01  0.10203084329E+01  0.10200349601E+01 0.  0.
     999903    2    3    3    0    0 -0.59799250689E-01 -0.78351526850E-01  0.78854713469E-01  0.12778390060E+00  0.19893397738E-01 0.  0.
         14    1    1    2    0    0 -0.14517634939E-01 -0.88479992054E-02  0.16399073664E-01  0.23621567078E-01  0.00000000000E+00 0. -1.
     999901    1    3    3    0    0  0.74316885628E-01  0.87199526055E-01 -0.95253787133E-01  0.89252453232E+00  0.88000000000E+00 0. -1.
        -11    1    4    4    0    0 -0.50216512269E-01 -0.53096180645E-01  0.52033773378E-01  0.89714420226E-01  0.51100000000E-03 0.  1.
         11    1    4    4    0    0 -0.95827384200E-02 -0.25255346205E-01  0.26820940092E-01  0.38069480374E-01  0.51100000000E-03 0. -1.
</event>
<event>
 8    1  0.1082757E+005  0.1043930E+01  0.7957747E-01            NaN
         13   -1    0    0    0    0  0.00000000000E+00  0.00000000000E+00  0.74505805969E-08  0.10566000000E+00  0.10566000000E+00 0. -1.
     999900   -1    0    0    0    0 -0.00000000000E+00 -0.00000000000E+00 -0.74505805969E-08  0.93827000000E+00  0.93827000000E+00 0.  1.
     999902    2    1    2    0    0 -0.21324993840E-01  0.23988727110E-02  0.87489243646E-02  0.10207555824E+01  0.10204924818E+01 0.  0.
     999903    2    3    3    0    0  0.10390628733E+00 -0.21069866122E-01  0.71423063032E-01  0.12937367597E+00  0.19895685370E-01 0.  0.
         14    1    1    2    0    0  0.21324993840E-01 -0.23988727110E-02 -0.87489243646E-02  0.23174417579E-01  0.00000000000E+00 0. -1.
     999901    1    3    3    0    0 -0.12523128117E+00  0.23468738833E-01 -0.62674138668E-01  0.89138190645E+00  0.88000000000E+00 0.  1.
        -11    1    4    4    0    0  0.67784421770E-01 -0.23182107339E-01  0.45704808635E-01  0.84978400719E-01  0.51100000000E-03 0.  1.
         11    1    4    4    0    0  0.36121865562E-01  0.21122412178E-02  0.25718254397E-01  0.44395275254E-01  0.51100000000E-03 0. -1.
</event>
<event>
 8    1  0.1168828E+005  0.1043930E+01  0.7957747E-01            NaN
         13   -1    0    0    0    0  0.00000000000E+00  0.00000000000E+00  0.74505805969E-08  0.10566000000E+00  0.10566000000E+00 0. -1.
     999900   -1    0    0    0    0 -0.00000000000E+00 -0.00000000000E+00 -0.74505805969E-08  0.93827000000E+00  0.93827000000E+00 0. -1.
     999902    2    1    2    0    0 -0.22228557344E-01  0.12158722658E-02  0.82899605268E-02  0.10201747784E+01  0.10198981655E+01 0.  0.
     999903    2    3    3    0    0 -0.77859001698E-01 -0.65755933117E-01 -0.80594847804E-01  0.13142257549E+00  0.19760996184E-01 0.  0.
         14    1    1    2    0    0  0.22228557344E-01 -0.12158722658E-02 -0.82899605268E-02  0.23755221584E-01  0.00000000000E+00 0.  1.
     999901    1    3    3    0    0  0.55630444354E-01  0.66971805383E-01  0.88884808331E-01  0.88875220293E+00  0.88000000000E+00 0.  1.
        -11    1    4    4    0    0 -0.44355776727E-01 -0.49814546490E-01 -0.51501859227E-01  0.84271149250E-01  0.51100000000E-03 0.  1.
         11    1    4    4    0    0 -0.33503224971E-01 -0.15941386627E-01 -0.29092988577E-01  0.47151426239E-01  0.51100000000E-03 0. -1.
</event>
<event>
 8    1  0.1082757E+005  0.1043930E+01  0.7957747E-01            NaN
         13   -1    0    0    0    0  0.00000000000E+00  0.00000000000E+00  0.74505805969E-08  0.10566000000E+00  0.10566000000E+00 0. -1.
     999900   -1    0    0    0    0 -0.00000000000E+00 -0.00000000000E+00 -0.74505805969E-08  0.93827000000E+00  0.93827000000E+00 0.  1.
     999902    2    1    2    0    0 -0.12223036321E-01  0.39698020504E-02 -0.20788169098E-01  0.10194900753E+01  0.10191970878E+01 0.  0.
     999903    2    3    3    0    0 -0.86337698207E-01 -0.87127242501E-01 -0.42717626282E-01  0.13141769326E+00  0.20011496441E-01 0.  0.
         14    1    1    2    0    0  0.12223036321E-01 -0.39698020504E-02  0.20788169098E-01  0.24439924707E-01  0.00000000000E+00 0. -1.
     999901    1    3    3    0    0  0.74114661886E-01  0.91097044552E-01  0.21929457184E-01  0.88807238203E+00  0.88000000000E+00 0. -1.
        -11    1    4    4    0    0 -0.33916422140E-01 -0.27472679085E-01 -0.64944913997E-02  0.44130616656E-01  0.51100000000E-03 0. -1.
         11    1    4    4    0    0 -0.52421276067E-01 -0.59654563416E-01 -0.36223134883E-01  0.87287076607E-01  0.51100000000E-03 0.  1.
</event>
<event>
 8    1  0.1082757E+005  0.1043930E+01  0.7957747E-01            NaN
         13   -1    0    0    0    0  0.00000000000E+00  0.00000000000E+00  0.74505805969E-08  0.10566000000E+00  0.10566000000E+00 0. -1.
     999900   -1    0    0    0    0 -0.00000000000E+00 -0.00000000000E+00 -0.74505805969E-08  0.93827000000E+00  0.93827000000E+00 0.  1.
     999902    2    1    2    0    0  0.18702477673E-01 -0.13003412505E-01 -0.77607444295E-02  0.10198654917E+01  0.10195815419E+01 0.  0.
     999903    2    3    3    0    0 -0.27786784526E-01 -0.12467616439E+00 -0.22561774192E-01  0.13146742463E+00  0.21410248033E-01 0.  0.
         14    1    1    2    0    0 -0.18702477673E-01  0.13003412505E-01  0.77607444295E-02  0.24064508347E-01  0.00000000000E+00 0.  1.
     999901    1    3    3    0    0  0.46489262198E-01  0.11167275189E+00  0.14801029762E-01  0.88839806703E+00  0.88000000000E+00 0.  1.
        -11    1    4    4    0    0 -0.31053744178E-01 -0.11855928149E+00 -0.21575795540E-01  0.12444442265E+00  0.51100000000E-03 0. -1.
         11    1    4    4    0    0  0.32669596528E-02 -0.61168829085E-02 -0.98597865204E-03  0.70230019786E-02  0.51100000000E-03 0.  1.
</event>
<event>
 8    1  0.1082757E+005  0.1043930E+01  0.7957747E-01            NaN
         13   -1    0    0    0    0  0.00000000000E+00  0.00000000000E+00  0.74505805969E-08  0.10566000000E+00  0.10566000000E+00 0. -1.
     999900   -1    0    0    0    0 -0.00000000000E+00 -0.00000000000E+00 -0.74505805969E-08  0.93827000000E+00  0.93827000000E+00 0.  1.
     999902    2    1    2    0    0  0.22912518342E-01 -0.10884560828E-02  0.56260875982E-02  0.10203117635E+01  0.10200383687E+01 0.  0.
     999903    2    3    3    0    0  0.75333325742E-01  0.45747457492E-01  0.96984886143E-01  0.13279389105E+00  0.21452494655E-01 0.  0.
         14    1    1    2    0    0 -0.22912518342E-01  0.10884560828E-02 -0.56260875982E-02  0.23618236494E-01  0.00000000000E+00 0.  1.
     999901    1    3    3    0    0 -0.52420807400E-01 -0.46835913574E-01 -0.91358798545E-01  0.88751787245E+00  0.88000000000E+00 0.  1.
        -11    1    4    4    0    0  0.41560760725E-01  0.35741892261E-01  0.66716818212E-01  0.86349143874E-01  0.51100000000E-03 0.  1.
         11    1    4    4    0    0  0.33772565017E-01  0.10005565231E-01  0.30268067932E-01  0.46444747181E-01  0.51100000000E-03 0. -1.
</event>
<event>
 8    1  0.1082757E+005  0.1043930E+01  0.7957747E-01            NaN
         13   -1    0    0    0    0  0.00000000000E+00  0.00000000000E+00  0.74505805969E-08  0.10566000000E+00  0.10566000000E+00 0. -1.
     999900   -1    0    0    0    0 -0.00000000000E+00 -0.00000000000E+00 -0.74505805969E-08  0.93827000000E+00  0.93827000000E+00 0. -1.
     999902    2    1    2    0    0 -0.68300838223E-02 -0.19991003502E-01 -0.14693502313E-01  0.10181969614E+01  0.10178717320E+01 0.  0.
     999903    2    3    3    0    0  0.60347060208E-01  0.53513871662E-01  0.94988975609E-01  0.12581476674E+00  0.17347850229E-01 0.  0.
         14    1    1    2    0    0  0.68300838223E-02  0.19991003502E-01  0.14693502313E-01  0.25733038613E-01  0.00000000000E+00 0.  1.
     999901    1    3    3    0    0 -0.67177144030E-01 -0.73504875164E-01 -0.10968247792E+00  0.89238219464E+00  0.88000000000E+00 0.  1.
        -11    1    4    4    0    0  0.25543740363E-01  0.11938911575E-01  0.35134461101E-01  0.45052322462E-01  0.51100000000E-03 0.  1.
         11    1    4    4    0    0  0.34803319845E-01  0.41574960087E-01  0.59854514507E-01  0.80762444282E-01  0.51100000000E-03 0. -1.
</event>
<event>
 8    1  0.1082757E+005  0.1043930E+01  0.7957747E-01            NaN
         13   -1    0    0    0    0  0.00000000000E+00  0.00000000000E+00  0.74505805969E-08  0.10566000000E+00  0.10566000000E+00 0.  1.
     999900   -1    0    0    0    0 -0.00000000000E+00 -0.00000000000E+00 -0.74505805969E-08  0.93827000000E+00  0.93827000000E+00 0.  1.
     999902    2    1    2    0    0  0.20889494593E-01 -0.99626392240E-02 -0.47323177467E-02  0.10203075531E+01  0.10200340597E+01 0.  0.
     999903    2    3    3    0    0  0.11200847919E+00 -0.65217976036E-01 -0.21710006388E-01  0.13371629246E+00  0.24686811921E-01 0.  0.
         14    1    1    2    0    0 -0.20889494593E-01  0.99626392240E-02  0.47323177467E-02  0.23622446865E-01  0.00000000000E+00 0.  1.
     999901    1    3    3    0    0 -0.91118984595E-01  0.55255336812E-01  0.16977688641E-01  0.88659126068E+00  0.88000000000E+00 0. -1.
        -11    1    4    4    0    0  0.41687810557E-01 -0.38243045794E-01 -0.11117122443E-01  0.57656358132E-01  0.51100000000E-03 0.  1.
         11    1    4    4    0    0  0.70320668630E-01 -0.26974930242E-01 -0.10592883945E-01  0.76059934325E-01  0.51100000000E-03 0. -1.
</event>
<event>
 8    1  0.1082757E+005  0.1043930E+01  0.7957747E-01            NaN
         13   -1    0    0    0    0  0.00000000000E+00  0.00000000000E+00  0.74505805969E-08  0.10566000000E+00  0.10566000000E+00 0.  1.
     999900   -1    0    0    0    0 -0.00000000000E+00 -0.00000000000E+00 -0.74505805969E-08  0.93827000000E+00  0.93827000000E+00 0.  1.
     999902    2    1    2    0    0  0.17849151733E-01 -0.45965028887E-02 -0.14483472393E-01  0.10204887750E+01  0.10202195102E+01 0.  0.
     999903    2    3    3    0    0 -0.87944698025E-01  0.65364615122E-01 -0.66753411233E-01  0.12986032095E+00  0.20022043477E-01 0.  0.
         14    1    1    2    0    0 -0.17849151733E-01  0.45965028887E-02  0.14483472393E-01  0.23441224988E-01  0.00000000000E+00 0.  1.
     999901    1    3    3    0    0  0.10579384976E+00 -0.69961118010E-01  0.52269938841E-01  0.89062845406E+00  0.88000000000E+00 0. -1.
        -11    1    4    4    0    0 -0.59489313089E-01  0.55181256396E-01 -0.47545739521E-01  0.94046838845E-01  0.51100000000E-03 0.  1.
         11    1    4    4    0    0 -0.28455384935E-01  0.10183358726E-01 -0.19207671713E-01  0.35813482104E-01  0.51100000000E-03 0. -1.
</event>
<event>
 8    1  0.1082757E+005  0.1043930E+01  0.7957747E-01            NaN
         13   -1    0    0    0    0  0.00000000000E+00  0.00000000000E+00  0.74505805969E-08  0.10566000000E+00  0.10566000000E+00 0. -1.
     999900   -1    0    0    0    0 -0.00000000000E+00 -0.00000000000E+00 -0.74505805969E-08  0.93827000000E+00  0.93827000000E+00 0. -1.
     999902    2    1    2    0    0  0.62317267890E-02  0.17989489881E-01 -0.14734207418E-01  0.10198560923E+01  0.10195719180E+01 0.  0.
     999903    2    3    3    0    0 -0.79257858602E-01  0.24682089580E-01  0.95993033980E-01  0.12878158243E+00  0.21886518795E-01 0.  0.
         14    1    1    2    0    0 -0.62317267890E-02 -0.17989489881E-01  0.14734207418E-01  0.24073907726E-01  0.00000000000E+00 0. -1.
     999901    1    3    3    0    0  0.85489585391E-01 -0.66925996990E-02 -0.11072724140E+00  0.89107450984E+00  0.88000000000E+00 0. -1.
        -11    1    4    4    0    0 -0.22690594005E-01  0.14248803583E-01  0.42413481258E-01  0.50170269815E-01  0.51100000000E-03 0. -1.
         11    1    4    4    0    0 -0.56567264597E-01  0.10433285998E-01  0.53579552722E-01  0.78611312619E-01  0.51100000000E-03 0.  1.
</event>
<event>
 8    1  0.1082757E+005  0.1043930E+01  0.7957747E-01            NaN
         13   -1    0    0    0    0  0.00000000000E+00  0.00000000000E+00  0.74505805969E-08  0.10566000000E+00  0.10566000000E+00 0. -1.
     999900   -1    0    0    0    0 -0.00000000000E+00 -0.00000000000E+00 -0.74505805969E-08  0.93827000000E+00  0.93827000000E+00 0.  1.
     999902    2    1    2    0    0  0.21072975277E-01 -0.26760698587E-02  0.86916001399E-02  0.10209784086E+01  0.10207204001E+01 0.  0.
     999903    2    3    3    0    0 -0.46864435155E-01 -0.11437754015E+00 -0.35778587297E-01  0.13020890539E+00  0.19893585878E-01 0.  0.
         14    1    1    2    0    0 -0.21072975277E-01  0.26760698587E-02 -0.86916001399E-02  0.22951591446E-01  0.00000000000E+00 0.  1.
     999901    1    3    3    0    0  0.67937410432E-01  0.11170147029E+00  0.44470187437E-01  0.89076950317E+00  0.88000000000E+00 0. -1.
        -11    1    4    4    0    0 -0.24689756871E-01 -0.80909855688E-01 -0.19051344736E-01  0.86713342105E-01  0.51100000000E-03 0. -1.
         11    1    4    4    0    0 -0.22174678284E-01 -0.33467684465E-01 -0.16727242562E-01  0.43495563282E-01  0.51100000000E-03 0.  1.
</event>
<event>
 8    1  0.1082757E+005  0.1043930E+01  0.7957747E-01            NaN
         13   -1    0    0    0    0  0.00000000000E+00  0.00000000000E+00  0.74505805969E-08  0.10566000000E+00  0.10566000000E+00 0. -1.
     999900   -1    0    0    0    0 -0.00000000000E+00 -0.00000000000E+00 -0.74505805969E-08  0.93827000000E+00  0.93827000000E+00 0.  1.
     999902    2    1    2    0    0  0.19134708406E-01  0.80090648476E-02 -0.99659101230E-02  0.10209169265E+01  0.10206575181E+01 0.  0.
     999903    2    3    3    0    0  0.11853060507E+00  0.58430548875E-01  0.10142431044E-02  0.13381916750E+00  0.21045368175E-01 0.  0.
         14    1    1    2    0    0 -0.19134708406E-01 -0.80090648476E-02  0.99659101230E-02  0.23013073461E-01  0.00000000000E+00 0. -1.
     999901    1    3    3    0    0 -0.99395896663E-01 -0.50421484028E-01 -0.10980153227E-01  0.88709775904E+00  0.88000000000E+00 0.  1.
        -11    1    4    4    0    0  0.77573504824E-01  0.46404318359E-01 -0.58381427690E-02  0.90583411533E-01  0.51100000000E-03 0. -1.
         11    1    4    4    0    0  0.40957100246E-01  0.12026230517E-01  0.68523858734E-02  0.43235755968E-01  0.51100000000E-03 0.  1.
</event>
<event>
 8    1  0.1082757E+005  0.1043930E+01  0.7957747E-01            NaN
         13   -1    0    0    0    0  0.00000000000E+00  0.00000000000E+00  0.74505805969E-08  0.10566000000E+00  0.10566000000E+00 0. -1.
     999900   -1    0    0    0    0 -0.00000000000E+00 -0.00000000000E+00 -0.74505805969E-08  0.93827000000E+00  0.93827000000E+00 0. -1.
     999902    2    1    2    0    0  0.89602767235E-02 -0.20771956588E-01 -0.24485078443E-02  0.10211757492E+01  0.10209222080E+01 0.  0.
     999903    2    3    3    0    0  0.12697599322E+00 -0.30585137650E-01 -0.16622114559E-01  0.13313019912E+00  0.19723126694E-01 0.  0.
         14    1    1    2    0    0 -0.89602767235E-02  0.20771956588E-01  0.24485078443E-02  0.22754250814E-01  0.00000000000E+00 0.  1.
     999901    1    3    3    0    0 -0.11801571650E+00  0.98131810619E-02  0.14173606714E-01  0.88804555006E+00  0.88000000000E+00 0. -1.
        -11    1    4    4    0    0  0.75894064861E-01 -0.27941854319E-01 -0.12129748987E-01  0.81780488110E-01  0.51100000000E-03 0.  1.
         11    1    4    4    0    0  0.51081928358E-01 -0.26432833303E-02 -0.44923655715E-02  0.51349711012E-01  0.51100000000E-03 0. -1.
</event>
<event>
 8    1  0.1082757E+005  0.1043930E+01  0.7957747E-01            NaN
         13   -1    0    0    0    0  0.00000000000E+00  0.00000000000E+00  0.74505805969E-08  0.10566000000E+00  0.10566000000E+00 0. -1.
     999900   -1    0    0    0    0 -0.00000000000E+00 -0.00000000000E+00 -0.74505805969E-08  0.93827000000E+00  0.93827000000E+00 0.  1.
     999902    2    1    2    0    0 -0.71239674402E-02 -0.15886162685E-01  0.13627597387E-01  0.10218204435E+01  0.10215812187E+01 0.  0.
     999903    2    3    3    0    0 -0.64229570844E-01  0.14945944070E-01  0.11459775935E+00  0.13367257163E+00  0.19669543540E-01 0.  0.
         14    1    1    2    0    0  0.71239674402E-02  0.15886162685E-01 -0.13627597387E-01  0.22109556474E-01  0.00000000000E+00 0.  1.
     999901    1    3    3    0    0  0.57105603404E-01 -0.30832106755E-01 -0.10097016196E+00  0.88814787190E+00  0.88000000000E+00 0.  1.
        -11    1    4    4    0    0 -0.22918645843E-01  0.85837888459E-02  0.60807892075E-01  0.65550031409E-01  0.51100000000E-03 0.  1.
         11    1    4    4    0    0 -0.41310925001E-01  0.63621552246E-02  0.53789867275E-01  0.68122540220E-01  0.51100000000E-03 0. -1.
</event>
<event>
 8    1  0.1082757E+005  0.1043930E+01  0.7957747E-01            NaN
         13   -1    0    0    0    0  0.00000000000E+00  0.00000000000E+00  0.74505805969E-08  0.10566000000E+00  0.10566000000E+00 0.  1.
     999900   -1    0    0    0    0 -0.00000000000E+00 -0.00000000000E+00 -0.74505805969E-08  0.93827000000E+00  0.93827000000E+00 0.  1.
     999902    2    1    2    0    0  0.97607808696E-03  0.13988000309E-01  0.20139772922E-01  0.10193896794E+01  0.10190942504E+01 0.  0.
     999903    2    3    3    0    0 -0.23664371908E-01 -0.92335847807E-01 -0.81332600141E-01  0.12686037740E+00  0.19815454098E-01 0.  0.
         14    1    1    2    0    0 -0.97607808696E-03 -0.13988000309E-01 -0.20139772922E-01  0.24540320585E-01  0.00000000000E+00 0. -1.
     999901    1    3    3    0    0  0.24640449995E-01  0.10632384812E+00  0.10147237306E+00  0.89252930201E+00  0.88000000000E+00 0. -1.
        -11    1    4    4    0    0 -0.47736562956E-02 -0.47781796103E-01 -0.31721427948E-01  0.57553435565E-01  0.51100000000E-03 0. -1.
         11    1    4    4    0    0 -0.18890715613E-01 -0.44554051703E-01 -0.49611172193E-01  0.69306941838E-01  0.51100000000E-03 0.  1.
</event>
<event>
 8    1  0.1082757E+005  0.1043930E+01  0.7957747E-01            NaN
         13   -1    0    0    0    0  0.00000000000E+00  0.00000000000E+00  0.74505805969E-08  0.10566000000E+00  0.10566000000E+00 0.  1.
     999900   -1    0    0    0    0 -0.00000000000E+00 -0.00000000000E+00 -0.74505805969E-08  0.93827000000E+00  0.93827000000E+00 0. -1.
     999902    2    1    2    0    0  0.11653999595E-01 -0.19609768773E-01 -0.32042098819E-02  0.10208946858E+01  0.10206347701E+01 0.  0.
     999903    2    3    3    0    0  0.68165884921E-02 -0.12599969660E+00  0.38729872745E-01  0.13348233265E+00  0.19878145420E-01 0.  0.
         14    1    1    2    0    0 -0.11653999595E-01  0.19609768773E-01  0.32042098819E-02  0.23035314169E-01  0.00000000000E+00 0.  1.
     999901    1    3    3    0    0  0.48374111033E-02  0.10638992783E+00 -0.41934082627E-01  0.88741235318E+00  0.88000000000E+00 0.  1.
        -11    1    4    4    0    0  0.10388143930E-01 -0.54797458230E-01  0.23804701461E-01  0.60643218050E-01  0.51100000000E-03 0.  1.
         11    1    4    4    0    0 -0.35715554376E-02 -0.71202238370E-01  0.14925171284E-01  0.72839114602E-01  0.51100000000E-03 0. -1.
</event>
<event>
 8    1  0.1082757E+005  0.1043930E+01  0.7957747E-01            NaN
         13   -1    0    0    0    0  0.00000000000E+00  0.00000000000E+00  0.74505805969E-08  0.10566000000E+00  0.10566000000E+00 0.  1.
     999900   -1    0    0    0    0 -0.00000000000E+00 -0.00000000000E+00 -0.74505805969E-08  0.93827000000E+00  0.93827000000E+00 0.  1.
     999902    2    1    2    0    0 -0.22852864447E-01  0.42412567222E-02 -0.20574789353E-02  0.10205960142E+01  0.10203292358E+01 0.  0.
     999903    2    3    3    0    0 -0.54366162931E-01  0.92910300044E-01  0.74118945976E-01  0.13230657102E+00  0.20576857276E-01 0.  0.
         14    1    1    2    0    0  0.22852864447E-01 -0.42412567222E-02  0.20574789353E-02  0.23333985763E-01  0.00000000000E+00 0.  1.
     999901    1    3    3    0    0  0.31513298484E-01 -0.88669043322E-01 -0.76176424911E-01  0.88828944322E+00  0.88000000000E+00 0.  1.
        -11    1    4    4    0    0 -0.21799058033E-02  0.18898201757E-01  0.13316907167E-01  0.23227035034E-01  0.51100000000E-03 0.  1.
         11    1    4    4    0    0 -0.52186257128E-01  0.74012098288E-01  0.60802038808E-01  0.10907953598E+00  0.51100000000E-03 0. -1.
</event>
<event>
 8    1  0.1082757E+005  0.1043930E+01  0.7957747E-01            NaN
         13   -1    0    0    0    0  0.00000000000E+00  0.00000000000E+00  0.74505805969E-08  0.10566000000E+00  0.10566000000E+00 0.  1.
     999900   -1    0    0    0    0 -0.00000000000E+00 -0.00000000000E+00 -0.74505805969E-08  0.93827000000E+00  0.93827000000E+00 0. -1.
     999902    2    1    2    0    0 -0.72190319744E-02  0.47357840331E-02 -0.22064022647E-01  0.10202368962E+01  0.10199617450E+01 0.  0.
     999903    2    3    3    0    0 -0.99986199316E-01  0.37138916622E-01  0.71371673245E-01  0.12985162025E+00  0.19773425542E-01 0.  0.
         14    1    1    2    0    0  0.72190319744E-02 -0.47357840331E-02  0.22064022647E-01  0.23693103815E-01  0.00000000000E+00 0.  1.
     999901    1    3    3    0    0  0.92767167342E-01 -0.32403132588E-01 -0.93435695891E-01  0.89038527594E+00  0.88000000000E+00 0. -1.
        -11    1    4    4    0    0 -0.72211606986E-01  0.17385578225E-01  0.51670107849E-01  0.90481134387E-01  0.51100000000E-03 0.  1.
         11    1    4    4    0    0 -0.27774592330E-01  0.19753338396E-01  0.19701565395E-01  0.39370485861E-01  0.51100000000E-03 0. -1.
</event>
<event>
 8    1  0.1082757E+005  0.1043930E+01  0.7957747E-01            NaN
         13   -1    0    0    0    0  0.00000000000E+00  0.00000000000E+00  0.74505805969E-08  0.10566000000E+00  0.10566000000E+00 0.  1.
     999900   -1    0    0    0    0 -0.00000000000E+00 -0.00000000000E+00 -0.74505805969E-08  0.93827000000E+00  0.93827000000E+00 0. -1.
     999902    2    1    2    0    0 -0.12470939281E-01 -0.65155419977E-02 -0.19848815680E-01  0.10195999343E+01  0.10193096065E+01 0.  0.
     999903    2    3    3    0    0  0.11661552926E+00 -0.38403051190E-01  0.31795201521E-01  0.12811396461E+00  0.18118418313E-01 0.  0.
         14    1    1    2    0    0  0.12470939281E-01  0.65155419977E-02  0.19848815680E-01  0.24330065721E-01  0.00000000000E+00 0.  1.
     999901    1    3    3    0    0 -0.12908646854E+00  0.31887509193E-01 -0.51644017201E-01  0.89148596967E+00  0.88000000000E+00 0.  1.
        -11    1    4    4    0    0  0.64523805936E-01 -0.11815291445E-01  0.17963817780E-01  0.68013840611E-01  0.51100000000E-03 0.  1.
         11    1    4    4    0    0  0.52091723327E-01 -0.26587759746E-01  0.13831383741E-01  0.60100123999E-01  0.51100000000E-03 0. -1.
</event>
<event>
 8    1  0.1082757E+005  0.1043930E+01  0.7957747E-01            NaN
         13   -1    0    0    0    0  0.00000000000E+00  0.00000000000E+00  0.74505805969E-08  0.10566000000E+00  0.10566000000E+00 0.  1.
     999900   -1    0    0    0    0 -0.00000000000E+00 -0.00000000000E+00 -0.74505805969E-08  0.93827000000E+00  0.93827000000E+00 0. -1.
     999902    2    1    2    0    0 -0.18399379220E-01  0.20238521885E-01 -0.10732560285E-02  0.10165568964E+01  0.10161882880E+01 0.  0.
     999903    2    3    3    0    0 -0.60234714730E-02 -0.64569905861E-01  0.10645926005E+00  0.12587801230E+00  0.17496999171E-01 0.  0.
         14    1    1    2    0    0  0.18399379220E-01 -0.20238521885E-01  0.10732560285E-02  0.27373103629E-01  0.00000000000E+00 0. -1.
     999901    1    3    3    0    0 -0.12375907747E-01  0.84808427746E-01 -0.10753251608E+00  0.89067888407E+00  0.88000000000E+00 0. -1.
        -11    1    4    4    0    0  0.15705338775E-02 -0.36718622468E-01  0.46022259049E-01  0.58898499655E-01  0.51100000000E-03 0.  1.
         11    1    4    4    0    0 -0.75940053505E-02 -0.27851283393E-01  0.60437000999E-01  0.66979512649E-01  0.51100000000E-03 0. -1.
</event>
<event>
 8    1  0.1082757E+005  0.1043930E+01  0.7957747E-01            NaN
         13   -1    0    0    0    0  0.00000000000E+00  0.00000000000E+00  0.74505805969E-08  0.10566000000E+00  0.10566000000E+00 0. -1.
     999900   -1    0    0    0    0 -0.00000000000E+00 -0.00000000000E+00 -0.74505805969E-08  0.93827000000E+00  0.93827000000E+00 0. -1.
     999902    2    1    2    0    0 -0.21735682309E-01 -0.80366693729E-02  0.22467408318E-02  0.10206474790E+01  0.10203818896E+01 0.  0.
     999903    2    3    3    0    0  0.94615733074E-01 -0.40177682194E-01 -0.75483124219E-01  0.12901267231E+00  0.19498320014E-01 0.  0.
         14    1    1    2    0    0  0.21735682309E-01  0.80366693729E-02 -0.22467408318E-02  0.23282521006E-01  0.00000000000E+00 0. -1.
     999901    1    3    3    0    0 -0.11635141538E+00  0.32141012821E-01  0.77729865051E-01  0.89163480668E+00  0.88000000000E+00 0.  1.
        -11    1    4    4    0    0  0.68932286784E-01 -0.33796190870E-01 -0.64815321866E-01  0.10047452288E+00  0.51100000000E-03 0.  1.
         11    1    4    4    0    0  0.25683446290E-01 -0.63814913244E-02 -0.10667802353E-01  0.28538149430E-01  0.51100000000E-03 0. -1.
</event>
<event>
 8    1  0.1478213E+005  0.1043930E+01  0.7957747E-01            NaN
         13   -1    0    0    0    0  0.00000000000E+00  0.00000000000E+00  0.74505805969E-08  0.10566000000E+00  0.10566000000E+00 0. -1.
     999900   -1    0    0    0    0 -0.00000000000E+00 -0.00000000000E+00 -0.74505805969E-08  0.93827000000E+00  0.93827000000E+00 0. -1.
     999902    2    1    2    0    0 -0.16379479672E-01 -0.14970023477E-01  0.71263929517E-02  0.10206238971E+01  0.10203577632E+01 0.  0.
     999903    2    3    3    0    0 -0.10404664689E-01  0.12661455524E+00 -0.12101620667E-01  0.12907939013E+00  0.19378779323E-01 0.  0.
         14    1    1    2    0    0  0.16379479672E-01  0.14970023477E-01 -0.71263929517E-02  0.23306102929E-01  0.00000000000E+00 0. -1.
     999901    1    3    3    0    0 -0.59748149833E-02 -0.14158457872E+00  0.19228013618E-01  0.89154450694E+00  0.88000000000E+00 0. -1.
        -11    1    4    4    0    0 -0.21260753828E-02  0.62792852495E-01  0.32515986433E-02  0.62914994522E-01  0.51100000000E-03 0.  1.
         11    1    4    4    0    0 -0.82785893062E-02  0.63821702746E-01 -0.15353219310E-01  0.66164395610E-01  0.51100000000E-03 0. -1.
</event>
<event>
 8    1  0.1082757E+005  0.1043930E+01  0.7957747E-01            NaN
         13   -1    0    0    0    0  0.00000000000E+00  0.00000000000E+00  0.74505805969E-08  0.10566000000E+00  0.10566000000E+00 0. -1.
     999900   -1    0    0    0    0 -0.00000000000E+00 -0.00000000000E+00 -0.74505805969E-08  0.93827000000E+00  0.93827000000E+00 0. -1.
     999902    2    1    2    0    0 -0.16648161126E-01  0.14423399703E-01  0.85414053462E-02  0.10203047734E+01  0.10200312148E+01 0.  0.
     999903    2    3    3    0    0  0.10244285478E+00 -0.74322237274E-01  0.52289361889E-02  0.12785341302E+00  0.17344163183E-01 0.  0.
         14    1    1    2    0    0  0.16648161126E-01 -0.14423399703E-01 -0.85414053462E-02  0.23625226627E-01  0.00000000000E+00 0.  1.
     999901    1    3    3    0    0 -0.11909101591E+00  0.88745636977E-01  0.33124691573E-02  0.89245136036E+00  0.88000000000E+00 0. -1.
        -11    1    4    4    0    0  0.39137722667E-01 -0.33869144942E-01 -0.51314667532E-02  0.52014165251E-01  0.51100000000E-03 0. -1.
         11    1    4    4    0    0  0.63305132116E-01 -0.40453092332E-01  0.10360402942E-01  0.75839247765E-01  0.51100000000E-03 0.  1.
</event>
<event>
 8    1  0.1082757E+005  0.1043930E+01  0.7957747E-01            NaN
         13   -1    0    0    0    0  0.00000000000E+00  0.00000000000E+00  0.74505805969E-08  0.10566000000E+00  0.10566000000E+00 0.  1.
     999900   -1    0    0    0    0 -0.00000000000E+00 -0.00000000000E+00 -0.74505805969E-08  0.93827000000E+00  0.93827000000E+00 0. -1.
     999902    2    1    2    0    0 -0.87473335517E-02  0.23758184960E-01  0.94154937335E-03  0.10185951680E+01  0.10182800512E+01 0.  0.
     999903    2    3    3    0    0 -0.14445529370E-02  0.12330435972E+00 -0.42316425567E-01  0.13189678416E+00  0.20000748521E-01 0.  0.
         14    1    1    2    0    0  0.87473335517E-02 -0.23758184960E-01 -0.94154937335E-03  0.25334831993E-01  0.00000000000E+00 0.  1.
     999901    1    3    3    0    0 -0.73027806147E-02 -0.99546174758E-01  0.43257974940E-01  0.88669838384E+00  0.88000000000E+00 0. -1.
        -11    1    4    4    0    0 -0.72653555086E-03  0.68933238908E-01 -0.34064930798E-01  0.76896033133E-01  0.51100000000E-03 0. -1.
         11    1    4    4    0    0 -0.71801738613E-03  0.54371120810E-01 -0.82514947687E-02  0.55000751031E-01  0.51100000000E-03 0.  1.
</event>
<event>
 8    1  0.1082757E+005  0.1043930E+01  0.7957747E-01            NaN
         13   -1    0    0    0    0  0.00000000000E+00  0.00000000000E+00  0.74505805969E-08  0.10566000000E+00  0.10566000000E+00 0. -1.
     999900   -1    0    0    0    0 -0.00000000000E+00 -0.00000000000E+00 -0.74505805969E-08  0.93827000000E+00  0.93827000000E+00 0.  1.
     999902    2    1    2    0    0  0.91344999481E-02 -0.56393997308E-02  0.21237241306E-01  0.10201337327E+01  0.10198561518E+01 0.  0.
     999903    2    3    3    0    0 -0.12437889459E+00  0.29668905242E-01  0.16680979417E-01  0.12935134489E+00  0.10156869311E-01 0.  0.
         14    1    1    2    0    0 -0.91344999481E-02  0.56393997308E-02 -0.21237241306E-01  0.23796267290E-01  0.00000000000E+00 0. -1.
     999901    1    3    3    0    0  0.13351339454E+00 -0.35308304973E-01  0.45562618892E-02  0.89078238782E+00  0.88000000000E+00 0. -1.
        -11    1    4    4    0    0 -0.13998480547E-01  0.66304581121E-02  0.14109588683E-02  0.15561888007E-01  0.51100000000E-03 0.  1.
         11    1    4    4    0    0 -0.11038041404E+00  0.23038447130E-01  0.15270020549E-01  0.11378945689E+00  0.51100000000E-03 0. -1.
</event>
<event>
 8    1  0.1082757E+005  0.1043930E+01  0.7957747E-01            NaN
         13   -1    0    0    0    0  0.00000000000E+00  0.00000000000E+00  0.74505805969E-08  0.10566000000E+00  0.10566000000E+00 0. -1.
     999900   -1    0    0    0    0 -0.00000000000E+00 -0.00000000000E+00 -0.74505805969E-08  0.93827000000E+00  0.93827000000E+00 0. -1.
     999902    2    1    2    0    0 -0.95694690691E-02 -0.16960509534E-01 -0.12831008959E-01  0.10206090135E+01  0.10203425356E+01 0.  0.
     999903    2    3    3    0    0 -0.79192318980E-01  0.25303993652E-01 -0.10116256185E+00  0.13244456209E+00  0.19899312201E-01 0.  0.
         14    1    1    2    0    0  0.95694690691E-02  0.16960509534E-01  0.12831008959E-01  0.23320986532E-01  0.00000000000E+00 0. -1.
     999901    1    3    3    0    0  0.69622849911E-01 -0.42264503187E-01  0.88331552893E-01  0.88816445138E+00  0.88000000000E+00 0. -1.
        -11    1    4    4    0    0 -0.26785526393E-01  0.94843563877E-02 -0.20847228283E-01  0.35246070537E-01  0.51100000000E-03 0.  1.
         11    1    4    4    0    0 -0.52406792587E-01  0.15819637265E-01 -0.80315333569E-01  0.97198491550E-01  0.51100000000E-03 0. -1.
</event>
<event>
 8    1  0.1082757E+005  0.1043930E+01  0.7957747E-01            NaN
         13   -1    0    0    0    0  0.00000000000E+00  0.00000000000E+00  0.74505805969E-08  0.10566000000E+00  0.10566000000E+00 0.  1.
     999900   -1    0    0    0    0 -0.00000000000E+00 -0.00000000000E+00 -0.74505805969E-08  0.93827000000E+00  0.93827000000E+00 0.  1.
     999902    2    1    2    0    0 -0.60528222327E-02  0.15382633829E-01 -0.11321201855E-01  0.10238942397E+01  0.10236981891E+01 0.  0.
     999903    2    3    3    0    0 -0.44496704939E-01 -0.97028126820E-01 -0.77609658077E-01  0.13344027081E+00  0.19713769385E-01 0.  0.
         14    1    1    2    0    0  0.60528222327E-02 -0.15382633829E-01  0.11321201855E-01  0.20035760329E-01  0.00000000000E+00 0.  1.
     999901    1    3    3    0    0  0.38443882706E-01  0.11241076065E+00  0.66288456221E-01  0.89045396886E+00  0.88000000000E+00 0. -1.
        -11    1    4    4    0    0 -0.18270707641E-01 -0.25505460398E-01 -0.31124501537E-01  0.44196639971E-01  0.51100000000E-03 0.  1.
         11    1    4    4    0    0 -0.26225997297E-01 -0.71522666422E-01 -0.46485156540E-01  0.89243630842E-01  0.51100000000E-03 0. -1.
</event>
<event>
 8    1  0.1082757E+005  0.1043930E+01  0.7957747E-01            NaN
         13   -1    0    0    0    0  0.00000000000E+00  0.00000000000E+00  0.74505805969E-08  0.10566000000E+00  0.10566000000E+00 0.  1.
     999900   -1    0    0    0    0 -0.00000000000E+00 -0.00000000000E+00 -0.74505805969E-08  0.93827000000E+00  0.93827000000E+00 0. -1.
     999902    2    1    2    0    0 -0.19884196207E-01 -0.30233260079E-02 -0.14057928215E-01  0.10193913141E+01  0.10190959249E+01 0.  0.
     999903    2    3    3    0    0 -0.16170752457E-01 -0.12675326216E+00 -0.19372454287E-01  0.13071188320E+00  0.19555605882E-01 0.  0.
         14    1    1    2    0    0  0.19884196207E-01  0.30233260079E-02  0.14057928215E-01  0.24538685878E-01  0.00000000000E+00 0.  1.
     999901    1    3    3    0    0 -0.37134437498E-02  0.12372993615E+00  0.53145260722E-02  0.88867943093E+00  0.88000000000E+00 0. -1.
        -11    1    4    4    0    0 -0.48846217149E-03 -0.44215477301E-01  0.11106465535E-02  0.44235073019E-01  0.51100000000E-03 0.  1.
         11    1    4    4    0    0 -0.15682290286E-01 -0.82537784854E-01 -0.20483100840E-01  0.86476810176E-01  0.51100000000E-03 0. -1.
</event>
<event>
 8    1  0.1082757E+005  0.1043930E+01  0.7957747E-01            NaN
         13   -1    0    0    0    0  0.00000000000E+00  0.00000000000E+00  0.74505805969E-08  0.10566000000E+00  0.10566000000E+00 0.  1.
     999900   -1    0    0    0    0 -0.00000000000E+00 -0.00000000000E+00 -0.74505805969E-08  0.93827000000E+00  0.93827000000E+00 0. -1.
     999902    2    1    2    0    0  0.42022496444E-02  0.95329930276E-02  0.23736221063E-01  0.10180080971E+01  0.10176780143E+01 0.  0.
     999903    2    3    3    0    0  0.10562173582E+00 -0.50259179276E-01 -0.46483590007E-01  0.12739491627E+00  0.19667342810E-01 0.  0.
         14    1    1    2    0    0 -0.42022496444E-02 -0.95329930276E-02 -0.23736221063E-01  0.25921902871E-01  0.00000000000E+00 0. -1.
     999901    1    3    3    0    0 -0.10141948618E+00  0.59792172304E-01  0.70219811069E-01  0.89061318085E+00  0.88000000000E+00 0.  1.
        -11    1    4    4    0    0  0.84494973476E-01 -0.31287228731E-01 -0.32988302038E-01  0.95951969322E-01  0.51100000000E-03 0.  1.
         11    1    4    4    0    0  0.21126762345E-01 -0.18971950546E-01 -0.13495287969E-01  0.31442946952E-01  0.51100000000E-03 0. -1.
</event>
<event>
 8    1  0.1082757E+005  0.1043930E+01  0.7957747E-01            NaN
         13   -1    0    0    0    0  0.00000000000E+00  0.00000000000E+00  0.74505805969E-08  0.10566000000E+00  0.10566000000E+00 0.  1.
     999900   -1    0    0    0    0 -0.00000000000E+00 -0.00000000000E+00 -0.74505805969E-08  0.93827000000E+00  0.93827000000E+00 0. -1.
     999902    2    1    2    0    0  0.17993634118E-01 -0.13877833576E-01  0.94230054028E-02  0.10193300373E+01  0.10190331529E+01 0.  0.
     999903    2    3    3    0    0  0.12429104898E+00  0.37853426658E-01  0.20976537249E-02  0.13139483446E+00  0.19469350390E-01 0.  0.
         14    1    1    2    0    0 -0.17993634118E-01  0.13877833576E-01 -0.94230054028E-02  0.24599962690E-01  0.00000000000E+00 0. -1.
     999901    1    3    3    0    0 -0.10629741486E+00 -0.51731260234E-01  0.73253516779E-02  0.88793520285E+00  0.88000000000E+00 0. -1.
        -11    1    4    4    0    0  0.86983848191E-01  0.32314256256E-01 -0.53468852988E-02  0.92947572894E-01  0.51100000000E-03 0.  1.
         11    1    4    4    0    0  0.37307200787E-01  0.55391704028E-02  0.74445390237E-02  0.38447261562E-01  0.51100000000E-03 0. -1.
</event>
<event>
 8    1  0.1082757E+005  0.1043930E+01  0.7957747E-01            NaN
         13   -1    0    0    0    0  0.00000000000E+00  0.00000000000E+00  0.74505805969E-08  0.10566000000E+00  0.10566000000E+00 0.  1.
     999900   -1    0    0    0    0 -0.00000000000E+00 -0.00000000000E+00 -0.74505805969E-08  0.93827000000E+00  0.93827000000E+00 0. -1.
     999902    2    1    2    0    0 -0.21216457618E-03 -0.63052606672E-02  0.24215297322E-01  0.10189063722E+01  0.10185990444E+01 0.  0.
     999903    2    3    3    0    0 -0.18811351174E-01  0.17637113166E-01 -0.12286969531E+00  0.12618404015E+00  0.12669462099E-01 0.  0.
         14    1    1    2    0    0  0.21216457618E-03  0.63052606672E-02 -0.24215297322E-01  0.25023627840E-01  0.00000000000E+00 0. -1.
     999901    1    3    3    0    0  0.18599186598E-01 -0.23942373833E-01  0.14708499263E+00  0.89272233201E+00  0.88000000000E+00 0.  1.
        -11    1    4    4    0    0 -0.11406662513E-01  0.14814632209E-01 -0.60898360649E-01  0.63706017988E-01  0.51100000000E-03 0.  1.
         11    1    4    4    0    0 -0.74046886610E-02  0.28224809564E-02 -0.61971334661E-01  0.62478022164E-01  0.51100000000E-03 0. -1.
</event>
<event>
 8    1  0.1082757E+005  0.1043930E+01  0.7957747E-01            NaN
         13   -1    0    0    0    0  0.00000000000E+00  0.00000000000E+00  0.74505805969E-08  0.10566000000E+00  0.10566000000E+00 0.  1.
     999900   -1    0    0    0    0 -0.00000000000E+00 -0.00000000000E+00 -0.74505805969E-08  0.93827000000E+00  0.93827000000E+00 0. -1.
     999902    2    1    2    0    0  0.17504184710E-01 -0.15738356647E-01  0.32646991681E-02  0.10201655178E+01  0.10198886866E+01 0.  0.
     999903    2    3    3    0    0 -0.71178083719E-01 -0.10778950311E+00  0.70546756656E-02  0.13092296249E+00  0.20153339047E-01 0.  0.
         14    1    1    2    0    0 -0.17504184710E-01  0.15738356647E-01 -0.32646991681E-02  0.23764482174E-01  0.00000000000E+00 0. -1.
     999901    1    3    3    0    0  0.88682268429E-01  0.92051146468E-01 -0.37899764974E-02  0.88924255534E+00  0.88000000000E+00 0.  1.
        -11    1    4    4    0    0 -0.34786096922E-01 -0.61062067328E-01 -0.50902617479E-02  0.70461482322E-01  0.51100000000E-03 0. -1.
         11    1    4    4    0    0 -0.36391986797E-01 -0.46727435787E-01  0.12144937413E-01  0.60461480168E-01  0.51100000000E-03 0.  1.
</event>
<event>
 7    1  0.1082757E+005  0.1043930E+01  0.7957747E-01            NaN
         13   -1    0    0    0    0  0.00000000000E+00  0.00000000000E+00  0.74505805969E-08  0.10566000000E+00  0.10566000000E+00 0. -1.
     999900   -1    0    0    0    0 -0.00000000000E+00 -0.00000000000E+00 -0.74505805969E-08  0.93827000000E+00  0.93827000000E+00 0.  1.
     999902    2    1    2    0    0  0.21275096102E-02  0.19373198141E-01 -0.12792556251E-01  0.10206169865E+01  0.10203506929E+01 0.  0.
         14    1    1    2    0    0 -0.21275096102E-02 -0.19373198141E-01  0.12792556251E-01  0.23313013507E-01  0.00000000000E+00 0. -1.
     999901    1    3    3    0    0 -0.11529394132E+00 -0.30600747046E-01 -0.10014437442E-01  0.88810437877E+00  0.88000000000E+00 0. -1.
        -11    1    3    3    0    0  0.11060467800E+00  0.38134323724E-01 -0.93020044393E-02  0.11736443179E+00  0.51100000000E-03 0.  1.
         11    1    3    3    0    0  0.68167729358E-02  0.11839621463E-01  0.65238856305E-02  0.15148175942E-01  0.51100000000E-03 0. -1.
</event>
<event>
 8    1  0.1082757E+005  0.1043930E+01  0.7957747E-01            NaN
         13   -1    0    0    0    0  0.00000000000E+00  0.00000000000E+00  0.74505805969E-08  0.10566000000E+00  0.10566000000E+00 0. -1.
     999900   -1    0    0    0    0 -0.00000000000E+00 -0.00000000000E+00 -0.74505805969E-08  0.93827000000E+00  0.93827000000E+00 0.  1.
     999902    2    1    2    0    0 -0.12091178034E-01  0.11250190042E-01  0.14745688451E-01  0.10217895689E+01  0.10215496681E+01 0.  0.
     999903    2    3    3    0    0  0.89279724184E-01 -0.90788365891E-01  0.11716452816E-01  0.13010739289E+00  0.24026274915E-01 0.  0.
         14    1    1    2    0    0  0.12091178034E-01 -0.11250190042E-01 -0.14745688451E-01  0.22140431119E-01  0.00000000000E+00 0.  1.
     999901    1    3    3    0    0 -0.10137090222E+00  0.10203855593E+00  0.30292356357E-02  0.89168217599E+00  0.88000000000E+00 0.  1.
        -11    1    4    4    0    0  0.30671322517E-01 -0.45995297923E-01  0.10817707419E-01  0.56334548643E-01  0.51100000000E-03 0.  1.
         11    1    4    4    0    0  0.58608401667E-01 -0.44793067968E-01  0.89874539709E-03  0.73772844246E-01  0.51100000000E-03 0. -1.
</event>
<event>
 8    1  0.1082757E+005  0.1043930E+01  0.7957747E-01            NaN
         13   -1    0    0    0    0  0.00000000000E+00  0.00000000000E+00  0.74505805969E-08  0.10566000000E+00  0.10566000000E+00 0. -1.
     999900   -1    0    0    0    0 -0.00000000000E+00 -0.00000000000E+00 -0.74505805969E-08  0.93827000000E+00  0.93827000000E+00 0.  1.
     999902    2    1    2    0    0  0.23324096027E-01  0.32164141388E-02 -0.14622587879E-02  0.10203398119E+01  0.10200670736E+01 0.  0.
     999903    2    3    3    0    0  0.35943000001E-01 -0.88846153486E-01 -0.87303995660E-01  0.13129338064E+00  0.20746708230E-01 0.  0.
         14    1    1    2    0    0 -0.23324096027E-01 -0.32164141388E-02  0.14622587879E-02  0.23590188133E-01  0.00000000000E+00 0. -1.
     999901    1    3    3    0    0 -0.12618903974E-01  0.92062567624E-01  0.85841736872E-01  0.88904643123E+00  0.88000000000E+00 0.  1.
        -11    1    4    4    0    0  0.87757558472E-02 -0.48704079975E-01 -0.47011627821E-01  0.68260204866E-01  0.51100000000E-03 0. -1.
         11    1    4    4    0    0  0.27167244154E-01 -0.40142073511E-01 -0.40292367838E-01  0.63033175770E-01  0.51100000000E-03 0.  1.
</event>
<event>
 8    1  0.1082757E+005  0.1043930E+01  0.7957747E-01            NaN
         13   -1    0    0    0    0  0.00000000000E+00  0.00000000000E+00  0.74505805969E-08  0.10566000000E+00  0.10566000000E+00 0.  1.
     999900   -1    0    0    0    0 -0.00000000000E+00 -0.00000000000E+00 -0.74505805969E-08  0.93827000000E+00  0.93827000000E+00 0. -1.
     999902    2    1    2    0    0  0.32907701026E-03  0.16566604940E-01 -0.17004181022E-01  0.10201875725E+01  0.10199112610E+01 0.  0.
     999903    2    3    3    0    0  0.37347960618E-01  0.44381724407E-01 -0.11825307942E+00  0.13317268084E+00  0.19661243774E-01 0.  0.
         14    1    1    2    0    0 -0.32907701026E-03 -0.16566604940E-01  0.17004181022E-01  0.23742427491E-01  0.00000000000E+00 0.  1.
     999901    1    3    3    0    0 -0.37018883608E-01 -0.27815119467E-01  0.10124889840E+00  0.88701489167E+00  0.88000000000E+00 0.  1.
        -11    1    4    4    0    0  0.28190630463E-02  0.13558521692E-01 -0.17720042727E-01  0.22495369794E-01  0.51100000000E-03 0.  1.
         11    1    4    4    0    0  0.34528897572E-01  0.30823202715E-01 -0.10053303669E+00  0.11067731105E+00  0.51100000000E-03 0. -1.
</event>
<event>
 8    1  0.1082757E+005  0.1043930E+01  0.7957747E-01            NaN
         13   -1    0    0    0    0  0.00000000000E+00  0.00000000000E+00  0.74505805969E-08  0.10566000000E+00  0.10566000000E+00 0.  1.
     999900   -1    0    0    0    0 -0.00000000000E+00 -0.00000000000E+00 -0.74505805969E-08  0.93827000000E+00  0.93827000000E+00 0.  1.
     999902    2    1    2    0    0  0.21110352075E-01 -0.68234491490E-02 -0.90932069310E-02  0.10199530770E+01  0.10196712149E+01 0.  0.
     999903    2    3    3    0    0  0.24599413586E-01 -0.12568482115E+00 -0.23197589067E-01  0.13184321169E+00  0.21040411453E-01 0.  0.
         14    1    1    2    0    0 -0.21110352075E-01  0.68234491490E-02  0.90932069310E-02  0.23976922974E-01  0.00000000000E+00 0.  1.
     999901    1    3    3    0    0 -0.34890615111E-02  0.11886137200E+00  0.14104382136E-01  0.88810986533E+00  0.88000000000E+00 0.  1.
        -11    1    4    4    0    0  0.12106814129E-01 -0.20631305485E-01 -0.59016215769E-02  0.24643781622E-01  0.51100000000E-03 0.  1.
         11    1    4    4    0    0  0.12492599458E-01 -0.10505351567E+00 -0.17295967490E-01  0.10719943007E+00  0.51100000000E-03 0. -1.
</event>
<event>
 8    1  0.1082757E+005  0.1043930E+01  0.7957747E-01            NaN
         13   -1    0    0    0    0  0.00000000000E+00  0.00000000000E+00  0.74505805969E-08  0.10566000000E+00  0.10566000000E+00 0. -1.
     999900   -1    0    0    0    0 -0.00000000000E+00 -0.00000000000E+00 -0.74505805969E-08  0.93827000000E+00  0.93827000000E+00 0.  1.
     999902    2    1    2    0    0  0.12381786395E-01 -0.12427481664E-01  0.14984709707E-01  0.10208585358E+01  0.10205977943E+01 0.  0.
     999903    2    3    3    0    0 -0.76657809203E-01  0.77629393461E-01 -0.64520427990E-01  0.12824475748E+00  0.19521520243E-01 0.  0.
         14    1    1    2    0    0 -0.12381786395E-01  0.12427481664E-01 -0.14984709707E-01  0.23071464190E-01  0.00000000000E+00 0.  1.
     999901    1    3    3    0    0  0.89039595599E-01 -0.90056875125E-01  0.79505137697E-01  0.89261377833E+00  0.88000000000E+00 0. -1.
        -11    1    4    4    0    0 -0.43022465493E-01  0.48185326737E-01 -0.27531025308E-01  0.70220913732E-01  0.51100000000E-03 0. -1.
         11    1    4    4    0    0 -0.33635343711E-01  0.29444066724E-01 -0.36989402681E-01  0.58023843750E-01  0.51100000000E-03 0.  1.
</event>
<event>
 8    1  0.1082757E+005  0.1043930E+01  0.7957747E-01            NaN
         13   -1    0    0    0    0  0.00000000000E+00  0.00000000000E+00  0.74505805969E-08  0.10566000000E+00  0.10566000000E+00 0.  1.
     999900   -1    0    0    0    0 -0.00000000000E+00 -0.00000000000E+00 -0.74505805969E-08  0.93827000000E+00  0.93827000000E+00 0. -1.
     999902    2    1    2    0    0  0.13392320169E-01 -0.17991821928E-01  0.85391261562E-02  0.10199304881E+01  0.10196480883E+01 0.  0.
     999903    2    3    3    0    0 -0.79353776973E-01 -0.95589539047E-01 -0.35305087497E-01  0.13057928677E+00  0.19238477993E-01 0.  0.
         14    1    1    2    0    0 -0.13392320169E-01  0.17991821928E-01 -0.85391261562E-02  0.23999511897E-01  0.00000000000E+00 0. -1.
     999901    1    3    3    0    0  0.92746097143E-01  0.77597717119E-01  0.43844213654E-01  0.88935120133E+00  0.88000000000E+00 0.  1.
        -11    1    4    4    0    0 -0.33997672009E-01 -0.26911904427E-01 -0.13906630453E-01  0.45538421069E-01  0.51100000000E-03 0.  1.
         11    1    4    4    0    0 -0.45356104964E-01 -0.68677634621E-01 -0.21398457045E-01  0.85040865703E-01  0.51100000000E-03 0. -1.
</event>
<event>
 8    1  0.1082757E+005  0.1043930E+01  0.7957747E-01            NaN
         13   -1    0    0    0    0  0.00000000000E+00  0.00000000000E+00  0.74505805969E-08  0.10566000000E+00  0.10566000000E+00 0.  1.
     999900   -1    0    0    0    0 -0.00000000000E+00 -0.00000000000E+00 -0.74505805969E-08  0.93827000000E+00  0.93827000000E+00 0. -1.
     999902    2    1    2    0    0  0.18491736891E-01  0.13059868998E-01  0.88765273259E-02  0.10196133956E+01  0.10193233929E+01 0.  0.
     999903    2    3    3    0    0  0.22797957222E-01  0.23503541742E-01  0.12609819608E+00  0.13176851420E+00  0.19748998761E-01 0.  0.
         14    1    1    2    0    0 -0.18491736891E-01 -0.13059868998E-01 -0.88765273259E-02  0.24316604386E-01  0.00000000000E+00 0.  1.
     999901    1    3    3    0    0 -0.43062203318E-02 -0.10443672743E-01 -0.11722166875E+00  0.88784488142E+00  0.88000000000E+00 0. -1.
        -11    1    4    4    0    0  0.23468491337E-01  0.13331020391E-01  0.76295178259E-01  0.80930226349E-01  0.51100000000E-03 0.  1.
         11    1    4    4    0    0 -0.67053411420E-03  0.10172521350E-01  0.49803017818E-01  0.50838287849E-01  0.51100000000E-03 0. -1.
</event>
<event>
 8    1  0.1082757E+005  0.1043930E+01  0.7957747E-01            NaN
         13   -1    0    0    0    0  0.00000000000E+00  0.00000000000E+00  0.74505805969E-08  0.10566000000E+00  0.10566000000E+00 0.  1.
     999900   -1    0    0    0    0 -0.00000000000E+00 -0.00000000000E+00 -0.74505805969E-08  0.93827000000E+00  0.93827000000E+00 0.  1.
     999902    2    1    2    0    0 -0.10146295928E-02  0.21712627094E-01  0.79451950861E-02  0.10207871010E+01  0.10205247238E+01 0.  0.
     999903    2    3    3    0    0 -0.11759822720E+00 -0.27457788943E-01  0.47441884759E-01  0.13086044474E+00  0.17042604096E-01 0.  0.
         14    1    1    2    0    0  0.10146295928E-02 -0.21712627094E-01 -0.79451950861E-02  0.23142898986E-01  0.00000000000E+00 0.  1.
     999901    1    3    3    0    0  0.11658359761E+00  0.49170416037E-01 -0.39496689672E-01  0.88992665627E+00  0.88000000000E+00 0.  1.
        -11    1    4    4    0    0 -0.81636686234E-01 -0.14530456357E-01  0.39399102620E-01  0.91805408933E-01  0.51100000000E-03 0.  1.
         11    1    4    4    0    0 -0.35961540969E-01 -0.12927332586E-01  0.80427821382E-02  0.39055035811E-01  0.51100000000E-03 0. -1.
</event>
<event>
 8    1  0.1082757E+005  0.1043930E+01  0.7957747E-01            NaN
         13   -1    0    0    0    0  0.00000000000E+00  0.00000000000E+00  0.74505805969E-08  0.10566000000E+00  0.10566000000E+00 0. -1.
     999900   -1    0    0    0    0 -0.00000000000E+00 -0.00000000000E+00 -0.74505805969E-08  0.93827000000E+00  0.93827000000E+00 0. -1.
     999902    2    1    2    0    0  0.59303760845E-02  0.22834499044E-01  0.59513262537E-02  0.10195989090E+01  0.10193085564E+01 0.  0.
     999903    2    3    3    0    0 -0.10943742091E+00  0.66513243065E-01  0.18261421726E-01  0.13090936828E+00  0.20080402890E-01 0.  0.
         14    1    1    2    0    0 -0.59303760845E-02 -0.22834499044E-01 -0.59513262537E-02  0.24331091042E-01  0.00000000000E+00 0.  1.
     999901    1    3    3    0    0  0.11536779700E+00 -0.43678744021E-01 -0.12310095472E-01  0.88868954068E+00  0.88000000000E+00 0. -1.
        -11    1    4    4    0    0 -0.56265949458E-01  0.35688306782E-01  0.19526430096E-01  0.69433816708E-01  0.51100000000E-03 0.  1.
         11    1    4    4    0    0 -0.53171471456E-01  0.30824936283E-01 -0.12650083706E-02  0.61475551570E-01  0.51100000000E-03 0. -1.
</event>
<event>
 8    1  0.1082757E+005  0.1043930E+01  0.7957747E-01            NaN
         13   -1    0    0    0    0  0.00000000000E+00  0.00000000000E+00  0.74505805969E-08  0.10566000000E+00  0.10566000000E+00 0.  1.
     999900   -1    0    0    0    0 -0.00000000000E+00 -0.00000000000E+00 -0.74505805969E-08  0.93827000000E+00  0.93827000000E+00 0.  1.
     999902    2    1    2    0    0  0.18827990926E-01  0.18041085392E-02 -0.13937899160E-01  0.10204350413E+01  0.10201645262E+01 0.  0.
     999903    2    3    3    0    0  0.11280063066E+00 -0.16900408677E-01  0.63147856978E-01  0.13188401309E+00  0.19903139890E-01 0.  0.
         14    1    1    2    0    0 -0.18827990926E-01 -0.18041085392E-02  0.13937899160E-01  0.23494958671E-01  0.00000000000E+00 0. -1.
     999901    1    3    3    0    0 -0.93972639734E-01  0.18704517216E-01 -0.77085756138E-01  0.88855102824E+00  0.88000000000E+00 0.  1.
        -11    1    4    4    0    0  0.10669106782E+00 -0.20250270627E-01  0.61091336327E-01  0.12460124361E+00  0.51100000000E-03 0.  1.
         11    1    4    4    0    0  0.61095628373E-02  0.33498619506E-02  0.20565206505E-02  0.72827694826E-02  0.51100000000E-03 0. -1.
</event>
<event>
 8    1  0.1082757E+005  0.1043930E+01  0.7957747E-01            NaN
         13   -1    0    0    0    0  0.00000000000E+00  0.00000000000E+00  0.74505805969E-08  0.10566000000E+00  0.10566000000E+00 0. -1.
     999900   -1    0    0    0    0 -0.00000000000E+00 -0.00000000000E+00 -0.74505805969E-08  0.93827000000E+00  0.93827000000E+00 0. -1.
     999902    2    1    2    0    0 -0.11886289505E-01 -0.11666770921E-01  0.17412580883E-01  0.10198344528E+01  0.10195497613E+01 0.  0.
     999903    2    3    3    0    0  0.46765369622E-01 -0.10733910943E+00  0.56974072113E-01  0.13182638692E+00  0.20578318374E-01 0.  0.
         14    1    1    2    0    0  0.11886289505E-01  0.11666770921E-01 -0.17412580883E-01  0.24095547201E-01  0.00000000000E+00 0.  1.
     999901    1    3    3    0    0 -0.58651659127E-01  0.95672338507E-01 -0.39561491230E-01  0.88800806588E+00  0.88000000000E+00 0. -1.
        -11    1    4    4    0    0  0.15331754294E-01 -0.16062324204E-01  0.83007260974E-02  0.23711265746E-01  0.51100000000E-03 0. -1.
         11    1    4    4    0    0  0.31433615329E-01 -0.91276785224E-01  0.48673346016E-01  0.10811512118E+00  0.51100000000E-03 0.  1.
</event>
<event>
 8    1  0.1082757E+005  0.1043930E+01  0.7957747E-01            NaN
         13   -1    0    0    0    0  0.00000000000E+00  0.00000000000E+00  0.74505805969E-08  0.10566000000E+00  0.10566000000E+00 0.  1.
     999900   -1    0    0    0    0 -0.00000000000E+00 -0.00000000000E+00 -0.74505805969E-08  0.93827000000E+00  0.93827000000E+00 0. -1.
     999902    2    1    2    0    0  0.14419791811E-01 -0.10584849705E-01 -0.83955781721E-02  0.10241700614E+01  0.10239794234E+01 0.  0.
     999903    2    3    3    0    0 -0.35952778337E-01  0.45360632901E-01 -0.11927172320E+00  0.13402354969E+00  0.19656516150E-01 0.  0.
         14    1    1    2    0    0 -0.14419791811E-01  0.10584849705E-01  0.83955781721E-02  0.19759938562E-01  0.00000000000E+00 0.  1.
     999901    1    3    3    0    0  0.50372570148E-01 -0.55945482606E-01  0.11087614503E+00  0.89014651175E+00  0.88000000000E+00 0.  1.
        -11    1    4    4    0    0 -0.39018485013E-03  0.58301201095E-02 -0.40633156460E-02  0.71354186806E-02  0.51100000000E-03 0.  1.
         11    1    4    4    0    0 -0.35562593487E-01  0.39530512791E-01 -0.11520840756E+00  0.12688813101E+00  0.51100000000E-03 0. -1.
</event>
<event>
 8    1  0.1082757E+005  0.1043930E+01  0.7957747E-01            NaN
         13   -1    0    0    0    0  0.00000000000E+00  0.00000000000E+00  0.74505805969E-08  0.10566000000E+00  0.10566000000E+00 0. -1.
     999900   -1    0    0    0    0 -0.00000000000E+00 -0.00000000000E+00 -0.74505805969E-08  0.93827000000E+00  0.93827000000E+00 0. -1.
     999902    2    1    2    0    0  0.75334778366E-02  0.11513741140E-02  0.22341585817E-01  0.10203243776E+01  0.10200512782E+01 0.  0.
     999903    2    3    3    0    0  0.50308488228E-01  0.47174622530E-01 -0.10697115711E+00  0.12865760894E+00  0.18803267920E-01 0.  0.
         14    1    1    2    0    0 -0.75334778366E-02 -0.11513741140E-02 -0.22341585817E-01  0.23605622370E-01  0.00000000000E+00 0.  1.
     999901    1    3    3    0    0 -0.42775010392E-01 -0.46023248416E-01  0.12931274293E+00  0.89166676869E+00  0.88000000000E+00 0.  1.
        -11    1    4    4    0    0  0.23953817727E-01  0.12832783640E-01 -0.52111639533E-01  0.58773717047E-01  0.51100000000E-03 0.  1.
         11    1    4    4    0    0  0.26354670501E-01  0.34341838889E-01 -0.54859517580E-01  0.69883891889E-01  0.51100000000E-03 0. -1.
</event>
<event>
 8    1  0.1082757E+005  0.1043930E+01  0.7957747E-01            NaN
         13   -1    0    0    0    0  0.00000000000E+00  0.00000000000E+00  0.74505805969E-08  0.10566000000E+00  0.10566000000E+00 0.  1.
     999900   -1    0    0    0    0 -0.00000000000E+00 -0.00000000000E+00 -0.74505805969E-08  0.93827000000E+00  0.93827000000E+00 0.  1.
     999902    2    1    2    0    0 -0.27763496821E-02  0.19577100679E-01  0.13475307053E-01  0.10200018808E+01  0.10197211785E+01 0.  0.
     999903    2    3    3    0    0 -0.88754261221E-01 -0.34052748573E-01  0.87904373334E-01  0.13106541067E+00  0.20348328026E-01 0.  0.
         14    1    1    2    0    0  0.27763496821E-02 -0.19577100679E-01 -0.13475307053E-01  0.23928119206E-01  0.00000000000E+00 0. -1.
     999901    1    3    3    0    0  0.85977911539E-01  0.53629849252E-01 -0.74429066281E-01  0.88893647012E+00  0.88000000000E+00 0.  1.
        -11    1    4    4    0    0 -0.41934796097E-01 -0.24885681699E-01  0.52491049297E-01  0.71647719117E-01  0.51100000000E-03 0. -1.
         11    1    4    4    0    0 -0.46819465124E-01 -0.91670668743E-02  0.35413324037E-01  0.59417691557E-01  0.51100000000E-03 0.  1.
</event>
<event>
 8    1  0.1082757E+005  0.1043930E+01  0.7957747E-01            NaN
         13   -1    0    0    0    0  0.00000000000E+00  0.00000000000E+00  0.74505805969E-08  0.10566000000E+00  0.10566000000E+00 0.  1.
     999900   -1    0    0    0    0 -0.00000000000E+00 -0.00000000000E+00 -0.74505805969E-08  0.93827000000E+00  0.93827000000E+00 0.  1.
     999902    2    1    2    0    0  0.11565820670E-01 -0.20952493641E-01 -0.68777601053E-02  0.10190286189E+01  0.10187243235E+01 0.  0.
     999903    2    3    3    0    0 -0.61651098571E-01 -0.10318578903E+00 -0.48870138532E-01  0.13117368029E+00  0.19237436137E-01 0.  0.
         14    1    1    2    0    0 -0.11565820670E-01  0.20952493641E-01  0.68777601053E-02  0.24901381118E-01  0.00000000000E+00 0. -1.
     999901    1    3    3    0    0  0.73216919241E-01  0.82233295385E-01  0.41992378427E-01  0.88785493859E+00  0.88000000000E+00 0.  1.
        -11    1    4    4    0    0 -0.47213175958E-01 -0.91602319511E-01 -0.38979599525E-01  0.11018048477E+00  0.51100000000E-03 0. -1.
         11    1    4    4    0    0 -0.14437922613E-01 -0.11583469515E-01 -0.98905390066E-02  0.20993195522E-01  0.51100000000E-03 0.  1.
</event>
<event>
 8    1  0.1082757E+005  0.1043930E+01  0.7957747E-01            NaN
         13   -1    0    0    0    0  0.00000000000E+00  0.00000000000E+00  0.74505805969E-08  0.10566000000E+00  0.10566000000E+00 0.  1.
     999900   -1    0    0    0    0 -0.00000000000E+00 -0.00000000000E+00 -0.74505805969E-08  0.93827000000E+00  0.93827000000E+00 0. -1.
     999902    2    1    2    0    0  0.12551396394E-01  0.19561394762E-01  0.43494866087E-02  0.10202846252E+01  0.10200105944E+01 0.  0.
     999903    2    3    3    0    0  0.16902401674E-01 -0.10310494425E+00 -0.71992288933E-01  0.12849203233E+00  0.20272937485E-01 0.  0.
         14    1    1    2    0    0 -0.12551396394E-01 -0.19561394762E-01 -0.43494866087E-02  0.23645374817E-01  0.00000000000E+00 0. -1.
     999901    1    3    3    0    0 -0.43510052803E-02  0.12266633902E+00  0.76341775542E-01  0.89179259285E+00  0.88000000000E+00 0.  1.
        -11    1    4    4    0    0  0.20590632212E-01 -0.67450829763E-01 -0.49693972224E-01  0.86274796824E-01  0.51100000000E-03 0.  1.
         11    1    4    4    0    0 -0.36882305380E-02 -0.35654114492E-01 -0.22298316709E-01  0.42217235506E-01  0.51100000000E-03 0. -1.
</event>
<event>
 8    1  0.1082757E+005  0.1043930E+01  0.7957747E-01            NaN
         13   -1    0    0    0    0  0.00000000000E+00  0.00000000000E+00  0.74505805969E-08  0.10566000000E+00  0.10566000000E+00 0.  1.
     999900   -1    0    0    0    0 -0.00000000000E+00 -0.00000000000E+00 -0.74505805969E-08  0.93827000000E+00  0.93827000000E+00 0.  1.
     999902    2    1    2    0    0 -0.12582865409E-01 -0.13544837405E-02  0.20532407236E-01  0.10198106535E+01  0.10195253926E+01 0.  0.
     999903    2    3    3    0    0  0.71700481484E-01 -0.11354001509E-01  0.10806544770E+00  0.13140438041E+00  0.17863308990E-01 0.  0.
         14    1    1    2    0    0  0.12582865409E-01  0.13544837405E-02 -0.20532407236E-01  0.24119346488E-01  0.00000000000E+00 0. -1.
     999901    1    3    3    0    0 -0.84283346894E-01  0.99995177680E-02 -0.87533040464E-01  0.88840627310E+00  0.88000000000E+00 0.  1.
        -11    1    4    4    0    0  0.32166793312E-01  0.45323894946E-03  0.35365809054E-01  0.47811186856E-01  0.51100000000E-03 0.  1.
         11    1    4    4    0    0  0.39533688172E-01 -0.11807240458E-01  0.72699638647E-01  0.83593193551E-01  0.51100000000E-03 0. -1.
</event>
<event>
 8    1  0.1082757E+005  0.1043930E+01  0.7957747E-01            NaN
         13   -1    0    0    0    0  0.00000000000E+00  0.00000000000E+00  0.74505805969E-08  0.10566000000E+00  0.10566000000E+00 0. -1.
     999900   -1    0    0    0    0 -0.00000000000E+00 -0.00000000000E+00 -0.74505805969E-08  0.93827000000E+00  0.93827000000E+00 0.  1.
     999902    2    1    2    0    0  0.51350411787E-02  0.17659576947E-01  0.16161347977E-01  0.10194469758E+01  0.10191529414E+01 0.  0.
     999903    2    3    3    0    0  0.22181676924E-01  0.95313162918E-02 -0.12431563204E+00  0.12810504459E+00  0.19330113760E-01 0.  0.
         14    1    1    2    0    0 -0.51350411787E-02 -0.17659576947E-01 -0.16161347977E-01  0.24483024206E-01  0.00000000000E+00 0. -1.
     999901    1    3    3    0    0 -0.17046635746E-01  0.81282606549E-02  0.14047698002E+00  0.89134193121E+00  0.88000000000E+00 0. -1.
        -11    1    4    4    0    0  0.34982143992E-02  0.44831178390E-02 -0.73578346485E-01  0.73799526028E-01  0.51100000000E-03 0.  1.
         11    1    4    4    0    0  0.18683462525E-01  0.50481984528E-02 -0.50737285555E-01  0.54305518559E-01  0.51100000000E-03 0. -1.
</event>
<event>
 8    1  0.1082757E+005  0.1043930E+01  0.7957747E-01            NaN
         13   -1    0    0    0    0  0.00000000000E+00  0.00000000000E+00  0.74505805969E-08  0.10566000000E+00  0.10566000000E+00 0.  1.
     999900   -1    0    0    0    0 -0.00000000000E+00 -0.00000000000E+00 -0.74505805969E-08  0.93827000000E+00  0.93827000000E+00 0.  1.
     999902    2    1    2    0    0  0.13717166006E-01 -0.52152009093E-02  0.17719487175E-01  0.10209226275E+01  0.10206633491E+01 0.  0.
     999903    2    3    3    0    0 -0.19705909410E-01  0.99734899359E-01  0.81157385889E-01  0.13179047055E+00  0.21138444329E-01 0.  0.
         14    1    1    2    0    0 -0.13717166006E-01  0.52152009093E-02 -0.17719487175E-01  0.23007372504E-01  0.00000000000E+00 0. -1.
     999901    1    3    3    0    0  0.33423075416E-01 -0.10495010027E+00 -0.63437898713E-01  0.88913215694E+00  0.88000000000E+00 0.  1.
        -11    1    4    4    0    0 -0.68907809603E-02  0.38541104155E-01  0.18613646647E-01  0.43354682956E-01  0.51100000000E-03 0.  1.
         11    1    4    4    0    0 -0.12815128449E-01  0.61193795204E-01  0.62543739242E-01  0.88435787597E-01  0.51100000000E-03 0. -1.
</event>
<event>
 8    1  0.1082757E+005  0.1043930E+01  0.7957747E-01            NaN
         13   -1    0    0    0    0  0.00000000000E+00  0.00000000000E+00  0.74505805969E-08  0.10566000000E+00  0.10566000000E+00 0.  1.
     999900   -1    0    0    0    0 -0.00000000000E+00 -0.00000000000E+00 -0.74505805969E-08  0.93827000000E+00  0.93827000000E+00 0. -1.
     999902    2    1    2    0    0 -0.13905174495E-01 -0.14570376310E-01 -0.12030383035E-01  0.10204698240E+01  0.10202001185E+01 0.  0.
     999903    2    3    3    0    0 -0.63755868594E-01  0.99259250503E-01 -0.52718235824E-01  0.13080821582E+00  0.20356015016E-01 0.  0.
         14    1    1    2    0    0  0.13905174495E-01  0.14570376310E-01  0.12030383035E-01  0.23460176034E-01  0.00000000000E+00 0.  1.
     999901    1    3    3    0    0  0.49850694098E-01 -0.11382962681E+00  0.40687852789E-01  0.88966160814E+00  0.88000000000E+00 0.  1.
        -11    1    4    4    0    0 -0.41810397348E-01  0.54035320157E-01 -0.21471738249E-01  0.71618585683E-01  0.51100000000E-03 0. -1.
         11    1    4    4    0    0 -0.21945471246E-01  0.45223930346E-01 -0.31246497575E-01  0.59189630138E-01  0.51100000000E-03 0.  1.
</event>
<event>
 8    1  0.1082757E+005  0.1043930E+01  0.7957747E-01            NaN
         13   -1    0    0    0    0  0.00000000000E+00  0.00000000000E+00  0.74505805969E-08  0.10566000000E+00  0.10566000000E+00 0. -1.
     999900   -1    0    0    0    0 -0.00000000000E+00 -0.00000000000E+00 -0.74505805969E-08  0.93827000000E+00  0.93827000000E+00 0.  1.
     999902    2    1    2    0    0  0.11588117747E-01 -0.51793148795E-02 -0.17162728349E-01  0.10225835947E+01  0.10223607676E+01 0.  0.
     999903    2    3    3    0    0  0.83754529847E-01  0.98156676630E-01  0.23974462644E-01  0.13265180704E+00  0.19291775830E-01 0.  0.
         14    1    1    2    0    0 -0.11588117747E-01  0.51793148795E-02  0.17162728349E-01  0.21346405317E-01  0.00000000000E+00 0. -1.
     999901    1    3    3    0    0 -0.72166412100E-01 -0.10333599151E+00 -0.41137190994E-01  0.88993178764E+00  0.88000000000E+00 0.  1.
        -11    1    4    4    0    0  0.42646800794E-01  0.40267473582E-01  0.18205445886E-01  0.61415946037E-01  0.51100000000E-03 0.  1.
         11    1    4    4    0    0  0.41107729053E-01  0.57889203048E-01  0.57690167588E-02  0.71235861002E-01  0.51100000000E-03 0. -1.
</event>
<event>
 8    1  0.1082757E+005  0.1043930E+01  0.7957747E-01            NaN
         13   -1    0    0    0    0  0.00000000000E+00  0.00000000000E+00  0.74505805969E-08  0.10566000000E+00  0.10566000000E+00 0. -1.
     999900   -1    0    0    0    0 -0.00000000000E+00 -0.00000000000E+00 -0.74505805969E-08  0.93827000000E+00  0.93827000000E+00 0. -1.
     999902    2    1    2    0    0  0.94842504030E-02 -0.13903244214E-01 -0.20856609004E-02  0.10269711915E+01  0.10268311579E+01 0.  0.
     999903    2    3    3    0    0 -0.10498565005E-01  0.45149148258E-01 -0.12635542669E+00  0.13605622771E+00  0.19923297647E-01 0.  0.
         14    1    1    2    0    0 -0.94842504030E-02  0.13903244214E-01  0.20856609004E-02  0.16958808530E-01  0.00000000000E+00 0.  1.
     999901    1    3    3    0    0  0.19982815408E-01 -0.59052392471E-01  0.12426976579E+00  0.89091496376E+00  0.88000000000E+00 0.  1.
        -11    1    4    4    0    0 -0.17408166797E-02  0.28099788233E-01 -0.50550678976E-01  0.57864158227E-01  0.51100000000E-03 0.  1.
         11    1    4    4    0    0 -0.87577483256E-02  0.17049360024E-01 -0.75804747711E-01  0.78192069480E-01  0.51100000000E-03 0. -1.
</event>
<event>
 8    1  0.1082757E+005  0.1043930E+01  0.7957747E-01            NaN
         13   -1    0    0    0    0  0.00000000000E+00  0.00000000000E+00  0.74505805969E-08  0.10566000000E+00  0.10566000000E+00 0.  1.
     999900   -1    0    0    0    0 -0.00000000000E+00 -0.00000000000E+00 -0.74505805969E-08  0.93827000000E+00  0.93827000000E+00 0. -1.
     999902    2    1    2    0    0 -0.22316214692E-01 -0.88523331791E-02 -0.40483783919E-03  0.10199187290E+01  0.10196360491E+01 0.  0.
     999903    2    3    3    0    0  0.91866958351E-01 -0.64340827991E-01  0.59917386343E-01  0.12876467903E+00  0.20272375209E-01 0.  0.
         14    1    1    2    0    0  0.22316214692E-01  0.88523331791E-02  0.40483783919E-03  0.24011270990E-01  0.00000000000E+00 0. -1.
     999901    1    3    3    0    0 -0.11418317304E+00  0.55488494812E-01 -0.60322224182E-01  0.89115404998E+00  0.88000000000E+00 0. -1.
        -11    1    4    4    0    0  0.53377267161E-01 -0.49187519929E-01  0.39319740198E-01  0.82552091776E-01  0.51100000000E-03 0. -1.
         11    1    4    4    0    0  0.38489691191E-01 -0.15153308063E-01  0.20597646145E-01  0.46212587256E-01  0.51100000000E-03 0.  1.
</event>
<event>
 8    1  0.1082757E+005  0.1043930E+01  0.7957747E-01            NaN
         13   -1    0    0    0    0  0.00000000000E+00  0.00000000000E+00  0.74505805969E-08  0.10566000000E+00  0.10566000000E+00 0. -1.
     999900   -1    0    0    0    0 -0.00000000000E+00 -0.00000000000E+00 -0.74505805969E-08  0.93827000000E+00  0.93827000000E+00 0.  1.
     999902    2    1    2    0    0 -0.11608408726E-01  0.16839088853E-01 -0.12375208476E-01  0.10200248572E+01  0.10197447002E+01 0.  0.
     999903    2    3    3    0    0  0.82621990279E-01  0.98664538500E-01 -0.16205804201E-01  0.13121135273E+00  0.19816825157E-01 0.  0.
         14    1    1    2    0    0  0.11608408726E-01 -0.16839088853E-01  0.12375208476E-01  0.23905142781E-01  0.00000000000E+00 0. -1.
     999901    1    3    3    0    0 -0.94230399005E-01 -0.81825449647E-01  0.38305957257E-02  0.88881350449E+00  0.88000000000E+00 0.  1.
        -11    1    4    4    0    0  0.40252410337E-02  0.12653038143E-01  0.14495704466E-02  0.13366537140E-01  0.51100000000E-03 0. -1.
         11    1    4    4    0    0  0.78596749245E-01  0.86011500356E-01 -0.17655374648E-01  0.11784481559E+00  0.51100000000E-03 0.  1.
</event>
<event>
 8    1  0.1082757E+005  0.1043930E+01  0.7957747E-01            NaN
         13   -1    0    0    0    0  0.00000000000E+00  0.00000000000E+00  0.74505805969E-08  0.10566000000E+00  0.10566000000E+00 0.  1.
     999900   -1    0    0    0    0 -0.00000000000E+00 -0.00000000000E+00 -0.74505805969E-08  0.93827000000E+00  0.93827000000E+00 0.  1.
     999902    2    1    2    0    0  0.15214749347E-02 -0.21905161032E-01 -0.90222183027E-02  0.10201907627E+01  0.10199145262E+01 0.  0.
     999903    2    3    3    0    0 -0.96046790872E-01 -0.73452321275E-01 -0.50240923539E-01  0.13234186906E+00  0.19235133780E-01 0.  0.
         14    1    1    2    0    0 -0.15214749347E-02  0.21905161032E-01  0.90222183027E-02  0.23739237328E-01  0.00000000000E+00 0.  1.
     999901    1    3    3    0    0  0.97568265807E-01  0.51547160243E-01  0.41218705236E-01  0.88784889361E+00  0.88000000000E+00 0. -1.
        -11    1    4    4    0    0 -0.53423343374E-01 -0.37276496247E-01 -0.17109575213E-01  0.67354209035E-01  0.51100000000E-03 0. -1.
         11    1    4    4    0    0 -0.42623447498E-01 -0.36175825028E-01 -0.33131348326E-01  0.64987660028E-01  0.51100000000E-03 0.  1.
</event>
<event>
 8    1  0.1082757E+005  0.1043930E+01  0.7957747E-01            NaN
         13   -1    0    0    0    0  0.00000000000E+00  0.00000000000E+00  0.74505805969E-08  0.10566000000E+00  0.10566000000E+00 0. -1.
     999900   -1    0    0    0    0 -0.00000000000E+00 -0.00000000000E+00 -0.74505805969E-08  0.93827000000E+00  0.93827000000E+00 0. -1.
     999902    2    1    2    0    0 -0.20899917876E-02 -0.49177678646E-02  0.23312286845E-01  0.10200131602E+01  0.10197327257E+01 0.  0.
     999903    2    3    3    0    0  0.27507489875E-01 -0.11910350047E+00  0.45004703682E-01  0.13187749864E+00  0.20589936144E-01 0.  0.
         14    1    1    2    0    0  0.20899917876E-02  0.49177678646E-02 -0.23312286845E-01  0.23916839766E-01  0.00000000000E+00 0.  1.
     999901    1    3    3    0    0 -0.29597481662E-01  0.11418573260E+00 -0.21692416837E-01  0.88813566160E+00  0.88000000000E+00 0. -1.
        -11    1    4    4    0    0  0.28621890670E-01 -0.10599295940E+00  0.34657995902E-01  0.11513104650E+00  0.51100000000E-03 0. -1.
         11    1    4    4    0    0 -0.11144007955E-02 -0.13110541074E-01  0.10346707780E-01  0.16746452140E-01  0.51100000000E-03 0.  1.
</event>
<event>
 8    1  0.1082757E+005  0.1043930E+01  0.7957747E-01            NaN
         13   -1    0    0    0    0  0.00000000000E+00  0.00000000000E+00  0.74505805969E-08  0.10566000000E+00  0.10566000000E+00 0.  1.
     999900   -1    0    0    0    0 -0.00000000000E+00 -0.00000000000E+00 -0.74505805969E-08  0.93827000000E+00  0.93827000000E+00 0.  1.
     999902    2    1    2    0    0  0.99469157763E-02 -0.18698248212E-01 -0.11533321901E-01  0.10198139652E+01  0.10195287836E+01 0.  0.
     999903    2    3    3    0    0  0.66662679791E-01  0.80483118680E-01 -0.75040542773E-01  0.13015853274E+00  0.19715864589E-01 0.  0.
         14    1    1    2    0    0 -0.99469157763E-02  0.18698248212E-01  0.11533321901E-01  0.24116034784E-01  0.00000000000E+00 0.  1.
     999901    1    3    3    0    0 -0.56715764015E-01 -0.99181366892E-01  0.63507220873E-01  0.88965543247E+00  0.88000000000E+00 0. -1.
        -11    1    4    4    0    0  0.56721811508E-01  0.66921574525E-01 -0.70996729331E-01  0.11285680190E+00  0.51100000000E-03 0.  1.
         11    1    4    4    0    0  0.99408682835E-02  0.13561544155E-01 -0.40438134421E-02  0.17301730846E-01  0.51100000000E-03 0. -1.
</event>
<event>
 8    1  0.1082757E+005  0.1043930E+01  0.7957747E-01            NaN
         13   -1    0    0    0    0  0.00000000000E+00  0.00000000000E+00  0.74505805969E-08  0.10566000000E+00  0.10566000000E+00 0.  1.
     999900   -1    0    0    0    0 -0.00000000000E+00 -0.00000000000E+00 -0.74505805969E-08  0.93827000000E+00  0.93827000000E+00 0.  1.
     999902    2    1    2    0    0  0.21005177526E-01  0.64525334463E-02  0.14261943848E-01  0.10177335172E+01  0.10173963123E+01 0.  0.
     999903    2    3    3    0    0 -0.73259138097E-01 -0.48206595131E-01 -0.87054416511E-01  0.12524352483E+00  0.20413033799E-01 0.  0.
         14    1    1    2    0    0 -0.21005177526E-01 -0.64525334463E-02 -0.14261943848E-01  0.26196482838E-01  0.00000000000E+00 0.  1.
     999901    1    3    3    0    0  0.94264315623E-01  0.54659128577E-01  0.10131636036E+00  0.89248999233E+00  0.88000000000E+00 0. -1.
        -11    1    4    4    0    0 -0.47374860250E-01 -0.35253665898E-01 -0.70236683315E-01  0.91764105984E-01  0.51100000000E-03 0. -1.
         11    1    4    4    0    0 -0.25884277848E-01 -0.12952929233E-01 -0.16817733195E-01  0.33479418846E-01  0.51100000000E-03 0.  1.
</event>
<event>
 8    1  0.1082757E+005  0.1043930E+01  0.7957747E-01            NaN
         13   -1    0    0    0    0  0.00000000000E+00  0.00000000000E+00  0.74505805969E-08  0.10566000000E+00  0.10566000000E+00 0.  1.
     999900   -1    0    0    0    0 -0.00000000000E+00 -0.00000000000E+00 -0.74505805969E-08  0.93827000000E+00  0.93827000000E+00 0.  1.
     999902    2    1    2    0    0 -0.13752431357E-01 -0.10280822401E-01  0.15310170884E-01  0.10209250873E+01  0.10206658649E+01 0.  0.
     999903    2    3    3    0    0  0.98374462345E-01  0.47293274340E-01  0.70141674332E-01  0.13025471576E+00  0.11499906964E-01 0.  0.
         14    1    1    2    0    0  0.13752431357E-01  0.10280822401E-01 -0.15310170884E-01  0.23004912735E-01  0.00000000000E+00 0. -1.
     999901    1    3    3    0    0 -0.11212689370E+00 -0.57574096740E-01 -0.54831503447E-01  0.89067037151E+00  0.88000000000E+00 0.  1.
        -11    1    4    4    0    0  0.14691931279E-01  0.11435870228E-01  0.13913968214E-01  0.23248475327E-01  0.51100000000E-03 0. -1.
         11    1    4    4    0    0  0.83682531066E-01  0.35857404111E-01  0.56227706118E-01  0.10700624043E+00  0.51100000000E-03 0.  1.
</event>
<event>
 8    1  0.1082757E+005  0.1043930E+01  0.7957747E-01            NaN
         13   -1    0    0    0    0  0.00000000000E+00  0.00000000000E+00  0.74505805969E-08  0.10566000000E+00  0.10566000000E+00 0. -1.
     999900   -1    0    0    0    0 -0.00000000000E+00 -0.00000000000E+00 -0.74505805969E-08  0.93827000000E+00  0.93827000000E+00 0. -1.
     999902    2    1    2    0    0  0.72156930766E-02 -0.93120886147E-02 -0.21225846711E-01  0.10196541315E+01  0.10193651113E+01 0.  0.
     999903    2    3    3    0    0 -0.94993160961E-01 -0.85677851975E-01 -0.15624042585E-01  0.13043550833E+00  0.20122529101E-01 0.  0.
         14    1    1    2    0    0 -0.72156930766E-02  0.93120886147E-02  0.21225846711E-01  0.24275868461E-01  0.00000000000E+00 0. -1.
     999901    1    3    3    0    0  0.10220885404E+00  0.76365763361E-01 -0.56018041268E-02  0.88921862321E+00  0.88000000000E+00 0.  1.
        -11    1    4    4    0    0 -0.39140620578E-01 -0.28357253914E-01 -0.14238486877E-01  0.50389658247E-01  0.51100000000E-03 0. -1.
         11    1    4    4    0    0 -0.55852540383E-01 -0.57320598061E-01 -0.13855557080E-02  0.80045850080E-01  0.51100000000E-03 0.  1.
</event>
<event>
 8    1  0.1082757E+005  0.1043930E+01  0.7957747E-01            NaN
         13   -1    0    0    0    0  0.00000000000E+00  0.00000000000E+00  0.74505805969E-08  0.10566000000E+00  0.10566000000E+00 0.  1.
     999900   -1    0    0    0    0 -0.00000000000E+00 -0.00000000000E+00 -0.74505805969E-08  0.93827000000E+00  0.93827000000E+00 0.  1.
     999902    2    1    2    0    0  0.17237362354E-01  0.10946495059E-01 -0.11794507474E-01  0.10203490157E+01  0.10200764927E+01 0.  0.
     999903    2    3    3    0    0 -0.75859237562E-01  0.82940344252E-01  0.60768063671E-01  0.12955419196E+00  0.21396412397E-01 0.  0.
         14    1    1    2    0    0 -0.17237362354E-01 -0.10946495059E-01  0.11794507474E-01  0.23580984321E-01  0.00000000000E+00 0.  1.
     999901    1    3    3    0    0  0.93096599916E-01 -0.71993849193E-01 -0.72562571145E-01  0.89079482372E+00  0.88000000000E+00 0.  1.
        -11    1    4    4    0    0 -0.33107660798E-01  0.34271207740E-01  0.14042673371E-01  0.49679882043E-01  0.51100000000E-03 0.  1.
         11    1    4    4    0    0 -0.42751576764E-01  0.48669136512E-01  0.46725390299E-01  0.79874309914E-01  0.51100000000E-03 0. -1.
</event>
<event>
 8    1  0.1082757E+005  0.1043930E+01  0.7957747E-01            NaN
         13   -1    0    0    0    0  0.00000000000E+00  0.00000000000E+00  0.74505805969E-08  0.10566000000E+00  0.10566000000E+00 0.  1.
     999900   -1    0    0    0    0 -0.00000000000E+00 -0.00000000000E+00 -0.74505805969E-08  0.93827000000E+00  0.93827000000E+00 0. -1.
     999902    2    1    2    0    0 -0.10761237422E-02 -0.18105504542E-01 -0.15869746982E-01  0.10198298712E+01  0.10195450701E+01 0.  0.
     999903    2    3    3    0    0 -0.75710024266E-01  0.89589510710E-01 -0.50861689541E-01  0.12944070269E+00  0.20240944823E-01 0.  0.
         14    1    1    2    0    0  0.10761237422E-02  0.18105504542E-01  0.15869746982E-01  0.24100128761E-01  0.00000000000E+00 0.  1.
     999901    1    3    3    0    0  0.74633900524E-01 -0.10769501525E+00  0.34991942559E-01  0.89038916854E+00  0.88000000000E+00 0.  1.
        -11    1    4    4    0    0 -0.34189952088E-01  0.48448122563E-01 -0.16156956120E-01  0.61461221561E-01  0.51100000000E-03 0.  1.
         11    1    4    4    0    0 -0.41520072178E-01  0.41141388147E-01 -0.34704733421E-01  0.67979481133E-01  0.51100000000E-03 0. -1.
</event>
<event>
 8    1  0.1082757E+005  0.1043930E+01  0.7957747E-01            NaN
         13   -1    0    0    0    0  0.00000000000E+00  0.00000000000E+00  0.74505805969E-08  0.10566000000E+00  0.10566000000E+00 0. -1.
     999900   -1    0    0    0    0 -0.00000000000E+00 -0.00000000000E+00 -0.74505805969E-08  0.93827000000E+00  0.93827000000E+00 0. -1.
     999902    2    1    2    0    0 -0.34692665259E-02  0.19289834260E-01  0.18373107671E-01  0.10170654397E+01  0.10167105802E+01 0.  0.
     999903    2    3    3    0    0  0.26302005717E-01 -0.90934776978E-01 -0.76650150321E-01  0.12461644218E+00  0.26326468579E-01 0.  0.
         14    1    1    2    0    0  0.34692665259E-02 -0.19289834260E-01 -0.18373107671E-01  0.26864560326E-01  0.00000000000E+00 0.  1.
     999901    1    3    3    0    0 -0.29771272243E-01  0.11022461124E+00  0.95023257992E-01  0.89244899750E+00  0.88000000000E+00 0.  1.
        -11    1    4    4    0    0  0.24960695410E-01 -0.42264379449E-01 -0.32353984924E-01  0.58790777738E-01  0.51100000000E-03 0.  1.
         11    1    4    4    0    0  0.13413103072E-02 -0.48670397529E-01 -0.44296165397E-01  0.65825664440E-01  0.51100000000E-03 0. -1.
</event>
<event>
 8    1  0.1082757E+005  0.1043930E+01  0.7957747E-01            NaN
         13   -1    0    0    0    0  0.00000000000E+00  0.00000000000E+00  0.74505805969E-08  0.10566000000E+00  0.10566000000E+00 0. -1.
     999900   -1    0    0    0    0 -0.00000000000E+00 -0.00000000000E+00 -0.74505805969E-08  0.93827000000E+00  0.93827000000E+00 0.  1.
     999902    2    1    2    0    0  0.17248526773E-01  0.16100189891E-01 -0.50683915693E-02  0.10197966956E+01  0.10195111004E+01 0.  0.
     999903    2    3    3    0    0  0.16022365255E-01  0.88867250368E-01 -0.95010938172E-01  0.13222348153E+00  0.17374300545E-01 0.  0.
         14    1    1    2    0    0 -0.17248526773E-01 -0.16100189891E-01  0.50683915693E-02  0.24133304446E-01  0.00000000000E+00 0.  1.
     999901    1    3    3    0    0  0.12261615182E-02 -0.72767060477E-01  0.89942546603E-01  0.88757321402E+00  0.88000000000E+00 0. -1.
        -11    1    4    4    0    0  0.11797573850E-01  0.31204503344E-01 -0.43222029524E-01  0.54601362024E-01  0.51100000000E-03 0. -1.
         11    1    4    4    0    0  0.42247914048E-02  0.57662747024E-01 -0.51788908648E-01  0.77622119506E-01  0.51100000000E-03 0.  1.
</event>
<event>
 8    1  0.1082757E+005  0.1043930E+01  0.7957747E-01            NaN
         13   -1    0    0    0    0  0.00000000000E+00  0.00000000000E+00  0.74505805969E-08  0.10566000000E+00  0.10566000000E+00 0. -1.
     999900   -1    0    0    0    0 -0.00000000000E+00 -0.00000000000E+00 -0.74505805969E-08  0.93827000000E+00  0.93827000000E+00 0.  1.
     999902    2    1    2    0    0 -0.22561461502E-01  0.10462208097E-01  0.19467292545E-02  0.10189847179E+01  0.10186793353E+01 0.  0.
     999903    2    3    3    0    0  0.62481389516E-01 -0.97156220495E-01  0.48189529980E-01  0.12715939348E+00  0.22450508567E-01 0.  0.
         14    1    1    2    0    0  0.22561461502E-01 -0.10462208097E-01 -0.19467292545E-02  0.24945282082E-01  0.00000000000E+00 0.  1.
     999901    1    3    3    0    0 -0.85042851017E-01  0.10761842859E+00 -0.46242800726E-01  0.89182532443E+00  0.88000000000E+00 0.  1.
        -11    1    4    4    0    0  0.36306116387E-01 -0.69701694083E-01  0.24031266842E-01  0.82184080892E-01  0.51100000000E-03 0. -1.
         11    1    4    4    0    0  0.26175273129E-01 -0.27454526412E-01  0.24158263138E-01  0.44975312592E-01  0.51100000000E-03 0.  1.
</event>
<event>
 7    1  0.1082757E+005  0.1043930E+01  0.7957747E-01            NaN
         13   -1    0    0    0    0  0.00000000000E+00  0.00000000000E+00  0.74505805969E-08  0.10566000000E+00  0.10566000000E+00 0.  1.
     999900   -1    0    0    0    0 -0.00000000000E+00 -0.00000000000E+00 -0.74505805969E-08  0.93827000000E+00  0.93827000000E+00 0. -1.
     999903    2    1    2    0    0 -0.47386330312E-01  0.77184804029E-01 -0.44462417621E-02  0.92835391281E-01  0.19891770533E-01 0.  0.
         14    1    1    2    0    0 -0.22578499569E-01  0.23890044371E-02  0.58842569676E-01  0.63070944111E-01  0.00000000000E+00 0.  1.
     999901    1    1    2    0    0  0.69964829881E-01 -0.79573808467E-01 -0.54396327914E-01  0.88802366461E+00  0.88000000000E+00 0. -1.
        -11    1    3    3    0    0 -0.29778118033E-01  0.30516424711E-01  0.10298140314E-02  0.42653371832E-01  0.51100000000E-03 0. -1.
         11    1    3    3    0    0 -0.17608212279E-01  0.46668379318E-01 -0.54760557935E-02  0.50182019448E-01  0.51100000000E-03 0.  1.
</event>
<event>
 8    1  0.1082757E+005  0.1043930E+01  0.7957747E-01            NaN
         13   -1    0    0    0    0  0.00000000000E+00  0.00000000000E+00  0.74505805969E-08  0.10566000000E+00  0.10566000000E+00 0. -1.
     999900   -1    0    0    0    0 -0.00000000000E+00 -0.00000000000E+00 -0.74505805969E-08  0.93827000000E+00  0.93827000000E+00 0.  1.
     999902    2    1    2    0    0 -0.19903553643E-01  0.90799324257E-02 -0.79742678841E-02  0.10206451215E+01  0.10203794776E+01 0.  0.
     999903    2    3    3    0    0 -0.48807323108E-01  0.74747173421E-01 -0.96817644241E-01  0.13326653261E+00  0.20421012533E-01 0.  0.
         14    1    1    2    0    0  0.19903553643E-01 -0.90799324257E-02  0.79742678841E-02  0.23284878543E-01  0.00000000000E+00 0.  1.
     999901    1    3    3    0    0  0.28903769465E-01 -0.65667240995E-01  0.88843376357E-01  0.88737858885E+00  0.88000000000E+00 0. -1.
        -11    1    4    4    0    0 -0.44928016592E-01  0.60667328017E-01 -0.71192924622E-01  0.10376774547E+00  0.51100000000E-03 0.  1.
         11    1    4    4    0    0 -0.38793065165E-02  0.14079845404E-01 -0.25624719619E-01  0.29498787131E-01  0.51100000000E-03 0. -1.
</event>
<event>
 8    1  0.1082757E+005  0.1043930E+01  0.7957747E-01            NaN
         13   -1    0    0    0    0  0.00000000000E+00  0.00000000000E+00  0.74505805969E-08  0.10566000000E+00  0.10566000000E+00 0.  1.
     999900   -1    0    0    0    0 -0.00000000000E+00 -0.00000000000E+00 -0.74505805969E-08  0.93827000000E+00  0.93827000000E+00 0. -1.
     999902    2    1    2    0    0  0.31650844800E-02  0.41342647043E-02 -0.22411890766E-01  0.10209212462E+01  0.10206619363E+01 0.  0.
     999903    2    3    3    0    0  0.97275758607E-01 -0.73204262788E-01 -0.44846152902E-01  0.13224731108E+00  0.25626871730E-01 0.  0.
         14    1    1    2    0    0 -0.31650844800E-02 -0.41342647043E-02  0.22411890766E-01  0.23008753815E-01  0.00000000000E+00 0.  1.
     999901    1    3    3    0    0 -0.94110674127E-01  0.77338527492E-01  0.22434262135E-01  0.88867393511E+00  0.88000000000E+00 0.  1.
        -11    1    4    4    0    0  0.44619273627E-01 -0.32227791160E-01 -0.33863456374E-01  0.64625884138E-01  0.51100000000E-03 0. -1.
         11    1    4    4    0    0  0.52656484980E-01 -0.40976471628E-01 -0.10982696528E-01  0.67621426941E-01  0.51100000000E-03 0.  1.
</event>
<event>
 8    1  0.1082757E+005  0.1043930E+01  0.7957747E-01            NaN
         13   -1    0    0    0    0  0.00000000000E+00  0.00000000000E+00  0.74505805969E-08  0.10566000000E+00  0.10566000000E+00 0.  1.
     999900   -1    0    0    0    0 -0.00000000000E+00 -0.00000000000E+00 -0.74505805969E-08  0.93827000000E+00  0.93827000000E+00 0.  1.
     999902    2    1    2    0    0 -0.67332334003E-02  0.22842085648E-01  0.64849607465E-03  0.10201073667E+01  0.10198291630E+01 0.  0.
     999903    2    3    3    0    0 -0.92389505587E-01  0.69254260811E-01  0.61944267476E-01  0.13261186896E+00  0.20416712102E-01 0.  0.
         14    1    1    2    0    0  0.67332334003E-02 -0.22842085648E-01 -0.64849607465E-03  0.23822633270E-01  0.00000000000E+00 0.  1.
     999901    1    3    3    0    0  0.85656272187E-01 -0.46412175164E-01 -0.61295771402E-01  0.88749549777E+00  0.88000000000E+00 0. -1.
        -11    1    4    4    0    0 -0.71037384004E-01  0.62508398496E-01  0.46726807956E-01  0.10553324363E+00  0.51100000000E-03 0.  1.
         11    1    4    4    0    0 -0.21352121583E-01  0.67458623150E-02  0.15217459520E-01  0.27078625330E-01  0.51100000000E-03 0. -1.
</event>
<event>
 8    1  0.1082757E+005  0.1043930E+01  0.7957747E-01            NaN
         13   -1    0    0    0    0  0.00000000000E+00  0.00000000000E+00  0.74505805969E-08  0.10566000000E+00  0.10566000000E+00 0. -1.
     999900   -1    0    0    0    0 -0.00000000000E+00 -0.00000000000E+00 -0.74505805969E-08  0.93827000000E+00  0.93827000000E+00 0.  1.
     999902    2    1    2    0    0  0.12309930620E-01  0.13724466666E-01 -0.27380177796E-01  0.10109213721E+01  0.10103823292E+01 0.  0.
     999903    2    3    3    0    0 -0.10594078890E+00 -0.46844844358E-01 -0.28624647744E-01  0.12094753948E+00  0.19774899579E-01 0.  0.
         14    1    1    2    0    0 -0.12309930620E-01 -0.13724466666E-01  0.27380177796E-01  0.33008627861E-01  0.00000000000E+00 0. -1.
     999901    1    3    3    0    0  0.11825071952E+00  0.60569311024E-01  0.12444699484E-02  0.88997383265E+00  0.88000000000E+00 0. -1.
        -11    1    4    4    0    0 -0.72490442158E-01 -0.35483714663E-01 -0.28565826859E-01  0.85616737825E-01  0.51100000000E-03 0.  1.
         11    1    4    4    0    0 -0.33450346741E-01 -0.11361129694E-01 -0.58820885387E-04  0.35330801660E-01  0.51100000000E-03 0. -1.
</event>
<event>
 8    1  0.1082757E+005  0.1043930E+01  0.7957747E-01            NaN
         13   -1    0    0    0    0  0.00000000000E+00  0.00000000000E+00  0.74505805969E-08  0.10566000000E+00  0.10566000000E+00 0. -1.
     999900   -1    0    0    0    0 -0.00000000000E+00 -0.00000000000E+00 -0.74505805969E-08  0.93827000000E+00  0.93827000000E+00 0. -1.
     999902    2    1    2    0    0 -0.63632889268E-02  0.67018664287E-02  0.20898925370E-01  0.10210789269E+01  0.10208231989E+01 0.  0.
     999903    2    3    3    0    0 -0.60688746236E-01 -0.70170053838E-01  0.93450696249E-01  0.13309001544E+00  0.19312151757E-01 0.  0.
         14    1    1    2    0    0  0.63632889268E-02 -0.67018664287E-02 -0.20898925370E-01  0.22851073087E-01  0.00000000000E+00 0.  1.
     999901    1    3    3    0    0  0.54325457310E-01  0.76871920267E-01 -0.72551770879E-01  0.88798891147E+00  0.88000000000E+00 0. -1.
        -11    1    4    4    0    0 -0.48650037535E-01 -0.46604032657E-01  0.75052439360E-01  0.10085579699E+00  0.51100000000E-03 0.  1.
         11    1    4    4    0    0 -0.12038708701E-01 -0.23566021181E-01  0.18398256889E-01  0.32234218450E-01  0.51100000000E-03 0. -1.
</event>
<event>
 8    1  0.1082757E+005  0.1043930E+01  0.7957747E-01            NaN
         13   -1    0    0    0    0  0.00000000000E+00  0.00000000000E+00  0.74505805969E-08  0.10566000000E+00  0.10566000000E+00 0.  1.
     999900   -1    0    0    0    0 -0.00000000000E+00 -0.00000000000E+00 -0.74505805969E-08  0.93827000000E+00  0.93827000000E+00 0.  1.
     999902    2    1    2    0    0  0.85055070012E-02  0.13882202885E-01 -0.18406865333E-01  0.10193561949E+01  0.10190599492E+01 0.  0.
     999903    2    3    3    0    0  0.45639197508E-01 -0.11465602761E+00 -0.32507825424E-01  0.12913160258E+00  0.19729953250E-01 0.  0.
         14    1    1    2    0    0 -0.85055070012E-02 -0.13882202885E-01  0.18406865333E-01  0.24573805111E-01  0.00000000000E+00 0.  1.
     999901    1    3    3    0    0 -0.37133690507E-01  0.12853823050E+00  0.14100960091E-01  0.89022459231E+00  0.88000000000E+00 0. -1.
        -11    1    4    4    0    0  0.19154931204E-01 -0.72792853895E-01 -0.16397468804E-01  0.77037971623E-01  0.51100000000E-03 0. -1.
         11    1    4    4    0    0  0.26484266303E-01 -0.41863173716E-01 -0.16110356620E-01  0.52093630960E-01  0.51100000000E-03 0.  1.
</event>
<event>
 8    1  0.1082757E+005  0.1043930E+01  0.7957747E-01            NaN
         13   -1    0    0    0    0  0.00000000000E+00  0.00000000000E+00  0.74505805969E-08  0.10566000000E+00  0.10566000000E+00 0. -1.
     999900   -1    0    0    0    0 -0.00000000000E+00 -0.00000000000E+00 -0.74505805969E-08  0.93827000000E+00  0.93827000000E+00 0. -1.
     999902    2    1    2    0    0  0.17773514022E-01 -0.14533999552E-01  0.39482495537E-02  0.10206335707E+01  0.10203676602E+01 0.  0.
     999903    2    3    3    0    0 -0.21207495811E-01  0.39340508766E-01 -0.11982648987E+00  0.12948702389E+00  0.20274816232E-01 0.  0.
         14    1    1    2    0    0 -0.17773514022E-01  0.14533999552E-01 -0.39482495537E-02  0.23296429302E-01  0.00000000000E+00 0. -1.
     999901    1    3    3    0    0  0.38981009834E-01 -0.53874508318E-01  0.12377473942E+00  0.89114654681E+00  0.88000000000E+00 0.  1.
        -11    1    4    4    0    0 -0.24687998925E-01  0.37973841949E-01 -0.11113991044E+00  0.12001604383E+00  0.51100000000E-03 0.  1.
         11    1    4    4    0    0  0.34805031138E-02  0.13666668176E-02 -0.86865794226E-02  0.94709800539E-02  0.51100000000E-03 0. -1.
</event>
<event>
 8    1  0.1082757E+005  0.1043930E+01  0.7957747E-01            NaN
         13   -1    0    0    0    0  0.00000000000E+00  0.00000000000E+00  0.74505805969E-08  0.10566000000E+00  0.10566000000E+00 0. -1.
     999900   -1    0    0    0    0 -0.00000000000E+00 -0.00000000000E+00 -0.74505805969E-08  0.93827000000E+00  0.93827000000E+00 0.  1.
     999902    2    1    2    0    0 -0.29359512091E-02  0.19690483799E-01  0.12437926898E-01  0.10204558230E+01  0.10201857917E+01 0.  0.
     999903    2    3    3    0    0  0.55783186073E-01  0.97393541102E-01 -0.65117673616E-01  0.13169231485E+00  0.22478627096E-01 0.  0.
         14    1    1    2    0    0  0.29359512091E-02 -0.19690483799E-01 -0.12437926898E-01  0.23474177030E-01  0.00000000000E+00 0.  1.
     999901    1    3    3    0    0 -0.58719137282E-01 -0.77703057303E-01  0.77555600514E-01  0.88876350812E+00  0.88000000000E+00 0.  1.
        -11    1    4    4    0    0  0.34783438751E-01  0.63937003568E-01 -0.29625633518E-01  0.78586050409E-01  0.51100000000E-03 0.  1.
         11    1    4    4    0    0  0.20999747322E-01  0.33456537534E-01 -0.35492040098E-01  0.53106264439E-01  0.51100000000E-03 0. -1.
</event>
<event>
 8    1  0.1082757E+005  0.1043930E+01  0.7957747E-01            NaN
         13   -1    0    0    0    0  0.00000000000E+00  0.00000000000E+00  0.74505805969E-08  0.10566000000E+00  0.10566000000E+00 0.  1.
     999900   -1    0    0    0    0 -0.00000000000E+00 -0.00000000000E+00 -0.74505805969E-08  0.93827000000E+00  0.93827000000E+00 0. -1.
     999902    2    1    2    0    0  0.68570879619E-02  0.20057573566E-01  0.95175481740E-02  0.10206940443E+01  0.10204295284E+01 0.  0.
     999903    2    3    3    0    0 -0.11672571631E+00 -0.19661642559E-01  0.50623897288E-01  0.13022222693E+00  0.19585105931E-01 0.  0.
         14    1    1    2    0    0 -0.68570879619E-02 -0.20057573566E-01 -0.95175481740E-02  0.23235955670E-01  0.00000000000E+00 0. -1.
     999901    1    3    3    0    0  0.12358280427E+00  0.39719216125E-01 -0.41106349114E-01  0.89047181740E+00  0.88000000000E+00 0. -1.
        -11    1    4    4    0    0 -0.47673251550E-01  0.14105122310E-02  0.22539797726E-01  0.52754450624E-01  0.51100000000E-03 0. -1.
         11    1    4    4    0    0 -0.69052464760E-01 -0.21072154790E-01  0.28084099562E-01  0.77467776308E-01  0.51100000000E-03 0.  1.
</event>
<event>
 8    1  0.1082757E+005  0.1043930E+01  0.7957747E-01            NaN
         13   -1    0    0    0    0  0.00000000000E+00  0.00000000000E+00  0.74505805969E-08  0.10566000000E+00  0.10566000000E+00 0.  1.
     999900   -1    0    0    0    0 -0.00000000000E+00 -0.00000000000E+00 -0.74505805969E-08  0.93827000000E+00  0.93827000000E+00 0. -1.
     999902    2    1    2    0    0  0.19296586872E-01 -0.23507860057E-02  0.10413081877E-01  0.10218774098E+01  0.10216394295E+01 0.  0.
     999903    2    3    3    0    0  0.68961877977E-01 -0.13404827673E-01 -0.11011642335E+00  0.13220545083E+00  0.20426074468E-01 0.  0.
         14    1    1    2    0    0 -0.19296586872E-01  0.23507860057E-02 -0.10413081877E-01  0.22052590186E-01  0.00000000000E+00 0. -1.
     999901    1    3    3    0    0 -0.49665291105E-01  0.11054041668E-01  0.12052950523E+00  0.88967195899E+00  0.88000000000E+00 0.  1.
        -11    1    4    4    0    0  0.51207284460E-01 -0.80342746808E-02 -0.95198763973E-01  0.10839650056E+00  0.51100000000E-03 0. -1.
         11    1    4    4    0    0  0.17754593516E-01 -0.53705529925E-02 -0.14917659375E-01  0.23808950263E-01  0.51100000000E-03 0.  1.
</event>
<event>
 8    1  0.1082757E+005  0.1043930E+01  0.7957747E-01            NaN
         13   -1    0    0    0    0  0.00000000000E+00  0.00000000000E+00  0.74505805969E-08  0.10566000000E+00  0.10566000000E+00 0.  1.
     999900   -1    0    0    0    0 -0.00000000000E+00 -0.00000000000E+00 -0.74505805969E-08  0.93827000000E+00  0.93827000000E+00 0. -1.
     999902    2    1    2    0    0  0.11164824238E-01  0.17327156090E-01 -0.12873706909E-01  0.10196274082E+01  0.10193377436E+01 0.  0.
     999903    2    3    3    0    0 -0.44725678470E-01 -0.11662972153E+00 -0.16804983730E-01  0.12772850794E+00  0.20719218193E-01 0.  0.
         14    1    1    2    0    0 -0.11164824238E-01 -0.17327156090E-01  0.12873706909E-01  0.24302591796E-01  0.00000000000E+00 0. -1.
     999901    1    3    3    0    0  0.55890502708E-01  0.13395687762E+00  0.39312768210E-02  0.89189890026E+00  0.88000000000E+00 0.  1.
        -11    1    4    4    0    0 -0.45669764546E-01 -0.99896002696E-01 -0.14080918049E-01  0.11074056223E+00  0.51100000000E-03 0. -1.
         11    1    4    4    0    0  0.94408607662E-03 -0.16733718838E-01 -0.27240656809E-02  0.16987945712E-01  0.51100000000E-03 0.  1.
</event>
<event>
 8    1  0.1082757E+005  0.1043930E+01  0.7957747E-01            NaN
         13   -1    0    0    0    0  0.00000000000E+00  0.00000000000E+00  0.74505805969E-08  0.10566000000E+00  0.10566000000E+00 0.  1.
     999900   -1    0    0    0    0 -0.00000000000E+00 -0.00000000000E+00 -0.74505805969E-08  0.93827000000E+00  0.93827000000E+00 0. -1.
     999902    2    1    2    0    0  0.10339682350E-02  0.25445279480E-01  0.46858673465E-02  0.10180362036E+01  0.10177068454E+01 0.  0.
     999903    2    3    3    0    0  0.23029211896E-01  0.10926200469E+00 -0.65689513931E-01  0.13098393433E+00  0.19317053163E-01 0.  0.
         14    1    1    2    0    0 -0.10339682350E-02 -0.25445279480E-01 -0.46858673465E-02  0.25893796379E-01  0.00000000000E+00 0. -1.
     999901    1    3    3    0    0 -0.21995243661E-01 -0.83816725207E-01  0.70375381278E-01  0.88705226929E+00  0.88000000000E+00 0.  1.
        -11    1    4    4    0    0  0.22119278586E-01  0.92046083180E-01 -0.47496214566E-01  0.10591456667E+00  0.51100000000E-03 0. -1.
         11    1    4    4    0    0  0.90993330916E-03  0.17215921507E-01 -0.18193299366E-01  0.25069367658E-01  0.51100000000E-03 0.  1.
</event>
<event>
 8    1  0.1082757E+005  0.1043930E+01  0.7957747E-01            NaN
         13   -1    0    0    0    0  0.00000000000E+00  0.00000000000E+00  0.74505805969E-08  0.10566000000E+00  0.10566000000E+00 0.  1.
     999900   -1    0    0    0    0 -0.00000000000E+00 -0.00000000000E+00 -0.74505805969E-08  0.93827000000E+00  0.93827000000E+00 0. -1.
     999902    2    1    2    0    0 -0.13286889349E-01  0.18573360025E-01  0.52160238716E-02  0.10205052687E+01  0.10202363870E+01 0.  0.
     999903    2    3    3    0    0  0.44782543103E-01 -0.92421671279E-01 -0.74239351877E-01  0.12808994348E+00  0.18663085623E-01 0.  0.
         14    1    1    2    0    0  0.13286889349E-01 -0.18573360025E-01 -0.52160238716E-02  0.23424731295E-01  0.00000000000E+00 0.  1.
     999901    1    3    3    0    0 -0.58069432452E-01  0.11099503130E+00  0.79455375749E-01  0.89241532522E+00  0.88000000000E+00 0. -1.
        -11    1    4    4    0    0  0.29244060241E-02 -0.11356572097E-01 -0.24364404585E-02  0.11988379519E-01  0.51100000000E-03 0.  1.
         11    1    4    4    0    0  0.41858137079E-01 -0.81065099183E-01 -0.71802911419E-01  0.11610156396E+00  0.51100000000E-03 0. -1.
</event>
<event>
 8    1  0.1082757E+005  0.1043930E+01  0.7957747E-01            NaN
         13   -1    0    0    0    0  0.00000000000E+00  0.00000000000E+00  0.74505805969E-08  0.10566000000E+00  0.10566000000E+00 0.  1.
     999900   -1    0    0    0    0 -0.00000000000E+00 -0.00000000000E+00 -0.74505805969E-08  0.93827000000E+00  0.93827000000E+00 0. -1.
     999902    2    1    2    0    0 -0.73494206499E-02 -0.18495938222E-01 -0.11956015380E-01  0.10207123339E+01  0.10204482391E+01 0.  0.
     999903    2    3    3    0    0 -0.12036354279E+00 -0.51338173209E-01  0.16227347659E-02  0.13277360480E+00  0.22432262567E-01 0.  0.
         14    1    1    2    0    0  0.73494206499E-02  0.18495938222E-01  0.11956015380E-01  0.23217666084E-01  0.00000000000E+00 0.  1.
     999901    1    3    3    0    0  0.11301412214E+00  0.32842234987E-01 -0.13578750146E-01  0.88793872911E+00  0.88000000000E+00 0. -1.
        -11    1    4    4    0    0 -0.84736108332E-01 -0.43134892710E-01  0.88755552251E-02  0.95497977078E-01  0.51100000000E-03 0. -1.
         11    1    4    4    0    0 -0.35627434455E-01 -0.82032804992E-02 -0.72528204591E-02  0.37275627727E-01  0.51100000000E-03 0.  1.
</event>
<event>
 8    1  0.1082757E+005  0.1043930E+01  0.7957747E-01            NaN
         13   -1    0    0    0    0  0.00000000000E+00  0.00000000000E+00  0.74505805969E-08  0.10566000000E+00  0.10566000000E+00 0.  1.
     999900   -1    0    0    0    0 -0.00000000000E+00 -0.00000000000E+00 -0.74505805969E-08  0.93827000000E+00  0.93827000000E+00 0.  1.
     999902    2    1    2    0    0 -0.20546933876E-01  0.38909015002E-02  0.11422295602E-01  0.10201017721E+01  0.10198234362E+01 0.  0.
     999903    2    3    3    0    0 -0.55906164901E-01 -0.77082142577E-01  0.89473904010E-01  0.13223975433E+00  0.20362149917E-01 0.  0.
         14    1    1    2    0    0  0.20546933876E-01 -0.38909015002E-02 -0.11422295602E-01  0.23828227862E-01  0.00000000000E+00 0. -1.
     999901    1    3    3    0    0  0.35359231025E-01  0.80973044077E-01 -0.78051608408E-01  0.88786201781E+00  0.88000000000E+00 0.  1.
        -11    1    4    4    0    0 -0.26281400946E-01 -0.38536586840E-01  0.57535604253E-01  0.74070152145E-01  0.51100000000E-03 0.  1.
         11    1    4    4    0    0 -0.29624763955E-01 -0.38545555736E-01  0.31938299757E-01  0.58169602189E-01  0.51100000000E-03 0. -1.
</event>
<event>
 8    1  0.1082757E+005  0.1043930E+01  0.7957747E-01            NaN
         13   -1    0    0    0    0  0.00000000000E+00  0.00000000000E+00  0.74505805969E-08  0.10566000000E+00  0.10566000000E+00 0.  1.
     999900   -1    0    0    0    0 -0.00000000000E+00 -0.00000000000E+00 -0.74505805969E-08  0.93827000000E+00  0.93827000000E+00 0.  1.
     999902    2    1    2    0    0  0.10579773386E-02 -0.12603481978E-01  0.20609679954E-01  0.10197488920E+01  0.10194621508E+01 0.  0.
     999903    2    3    3    0    0  0.40872386687E-01 -0.12341452932E+00  0.21230369623E-01  0.13190619164E+00  0.68422773437E-02 0.  0.
         14    1    1    2    0    0 -0.10579773386E-02  0.12603481978E-01 -0.20609679954E-01  0.24181107953E-01  0.00000000000E+00 0. -1.
     999901    1    3    3    0    0 -0.39814409348E-01  0.11081104734E+00 -0.62068966937E-03  0.88784270040E+00  0.88000000000E+00 0. -1.
        -11    1    4    4    0    0  0.29049083520E-01 -0.92480642255E-01  0.18373302062E-01  0.98662849112E-01  0.51100000000E-03 0. -1.
         11    1    4    4    0    0  0.11823303167E-01 -0.30933887063E-01  0.28570675614E-02  0.33243342531E-01  0.51100000000E-03 0.  1.
</event>
<event>
 8    1  0.1082757E+005  0.1043930E+01  0.7957747E-01            NaN
         13   -1    0    0    0    0  0.00000000000E+00  0.00000000000E+00  0.74505805969E-08  0.10566000000E+00  0.10566000000E+00 0.  1.
     999900   -1    0    0    0    0 -0.00000000000E+00 -0.00000000000E+00 -0.74505805969E-08  0.93827000000E+00  0.93827000000E+00 0. -1.
     999902    2    1    2    0    0 -0.69670904089E-02  0.22540615780E-01 -0.19147211219E-02  0.10202596416E+01  0.10199850246E+01 0.  0.
     999903    2    3    3    0    0 -0.17171121097E-01 -0.21451108243E-01 -0.12656182963E+00  0.13032914115E+00  0.14587352989E-01 0.  0.
         14    1    1    2    0    0  0.69670904089E-02 -0.22540615780E-01  0.19147211219E-02  0.23670358373E-01  0.00000000000E+00 0.  1.
     999901    1    3    3    0    0  0.10204030688E-01  0.43991724023E-01  0.12464710851E+00  0.88993050048E+00  0.88000000000E+00 0. -1.
        -11    1    4    4    0    0 -0.10716957081E-01 -0.38328079527E-02 -0.64223007534E-01  0.65225757210E-01  0.51100000000E-03 0. -1.
         11    1    4    4    0    0 -0.64541640159E-02 -0.17618300290E-01 -0.62338822100E-01  0.65103383937E-01  0.51100000000E-03 0.  1.
</event>
<event>
 8    1  0.1082757E+005  0.1043930E+01  0.7957747E-01            NaN
         13   -1    0    0    0    0  0.00000000000E+00  0.00000000000E+00  0.74505805969E-08  0.10566000000E+00  0.10566000000E+00 0. -1.
     999900   -1    0    0    0    0 -0.00000000000E+00 -0.00000000000E+00 -0.74505805969E-08  0.93827000000E+00  0.93827000000E+00 0. -1.
     999902    2    1    2    0    0  0.11800421512E-01  0.21612582651E-01  0.35545736833E-02  0.10190505171E+01  0.10187467633E+01 0.  0.
     999903    2    3    3    0    0  0.10568142205E+00 -0.50760468735E-01 -0.51094053993E-01  0.12942251991E+00  0.19859460040E-01 0.  0.
         14    1    1    2    0    0 -0.11800421512E-01 -0.21612582651E-01 -0.35545736833E-02  0.24879482928E-01  0.00000000000E+00 0. -1.
     999901    1    3    3    0    0 -0.93881000540E-01  0.72373051387E-01  0.54648627676E-01  0.88962799716E+00  0.88000000000E+00 0. -1.
        -11    1    4    4    0    0  0.36817749163E-01 -0.11354526727E-01 -0.24856838336E-01  0.45854067036E-01  0.51100000000E-03 0.  1.
         11    1    4    4    0    0  0.68863672888E-01 -0.39405942008E-01 -0.26237215656E-01  0.83568452873E-01  0.51100000000E-03 0. -1.
</event>
<event>
 8    1  0.1082757E+005  0.1043930E+01  0.7957747E-01            NaN
         13   -1    0    0    0    0  0.00000000000E+00  0.00000000000E+00  0.74505805969E-08  0.10566000000E+00  0.10566000000E+00 0. -1.
     999900   -1    0    0    0    0 -0.00000000000E+00 -0.00000000000E+00 -0.74505805969E-08  0.93827000000E+00  0.93827000000E+00 0.  1.
     999902    2    1    2    0    0 -0.17965018351E-01 -0.23000674257E-01  0.26206219062E-02  0.10146274308E+01  0.10142042116E+01 0.  0.
     999903    2    3    3    0    0  0.82330853706E-01 -0.41586747146E-01 -0.81438600305E-01  0.12475628460E+00  0.20592666599E-01 0.  0.
         14    1    1    2    0    0  0.17965018351E-01  0.23000674257E-01 -0.26206219062E-02  0.29302569167E-01  0.00000000000E+00 0.  1.
     999901    1    3    3    0    0 -0.10029587206E+00  0.18586072889E-01  0.84059222211E-01  0.88987114623E+00  0.88000000000E+00 0.  1.
        -11    1    4    4    0    0  0.24990697615E-01 -0.19253971513E-01 -0.17781083067E-01  0.36217101241E-01  0.51100000000E-03 0. -1.
         11    1    4    4    0    0  0.57340156091E-01 -0.22332775633E-01 -0.63657517238E-01  0.88539183359E-01  0.51100000000E-03 0.  1.
</event>
<event>
 8    1  0.1082757E+005  0.1043930E+01  0.7957747E-01            NaN
         13   -1    0    0    0    0  0.00000000000E+00  0.00000000000E+00  0.74505805969E-08  0.10566000000E+00  0.10566000000E+00 0. -1.
     999900   -1    0    0    0    0 -0.00000000000E+00 -0.00000000000E+00 -0.74505805969E-08  0.93827000000E+00  0.93827000000E+00 0. -1.
     999902    2    1    2    0    0 -0.12900181215E-01 -0.11520612852E-01  0.17311107334E-01  0.10194593312E+01  0.10191655971E+01 0.  0.
     999903    2    3    3    0    0  0.82781641707E-01 -0.63079354186E-01  0.76442743885E-01  0.13080311784E+00  0.20836444423E-01 0.  0.
         14    1    1    2    0    0  0.12900181215E-01  0.11520612852E-01 -0.17311107334E-01  0.24470668830E-01  0.00000000000E+00 0. -1.
     999901    1    3    3    0    0 -0.95681822922E-01  0.51558741335E-01 -0.59131636550E-01  0.88865621333E+00  0.88000000000E+00 0. -1.
        -11    1    4    4    0    0  0.73520702200E-01 -0.62604753702E-01  0.72307103794E-01  0.12063675733E+00  0.51100000000E-03 0. -1.
         11    1    4    4    0    0  0.92609395071E-02 -0.47460048430E-03  0.41356400907E-02  0.10166360516E-01  0.51100000000E-03 0.  1.
</event>
<event>
 8    1  0.1082757E+005  0.1043930E+01  0.7957747E-01            NaN
         13   -1    0    0    0    0  0.00000000000E+00  0.00000000000E+00  0.74505805969E-08  0.10566000000E+00  0.10566000000E+00 0. -1.
     999900   -1    0    0    0    0 -0.00000000000E+00 -0.00000000000E+00 -0.74505805969E-08  0.93827000000E+00  0.93827000000E+00 0. -1.
     999902    2    1    2    0    0  0.47250801935E-02 -0.22101063583E-01  0.81357043424E-02  0.10199097361E+01  0.10196268419E+01 0.  0.
     999903    2    3    3    0    0  0.29445650966E-02 -0.80849210954E-01  0.10349267858E+00  0.13280913997E+00  0.19551669113E-01 0.  0.
         14    1    1    2    0    0 -0.47250801935E-02  0.22101063583E-01 -0.81357043424E-02  0.24020263934E-01  0.00000000000E+00 0.  1.
     999901    1    3    3    0    0  0.17805150969E-02  0.58748147371E-01 -0.95356974237E-01  0.88710059609E+00  0.88000000000E+00 0. -1.
        -11    1    4    4    0    0 -0.28928312062E-02 -0.68234420505E-01  0.77280094251E-01  0.10313475991E+00  0.51100000000E-03 0. -1.
         11    1    4    4    0    0  0.58373963029E-02 -0.12614790449E-01  0.26212584329E-01  0.29674380058E-01  0.51100000000E-03 0.  1.
</event>
<event>
 8    1  0.1082757E+005  0.1043930E+01  0.7957747E-01            NaN
         13   -1    0    0    0    0  0.00000000000E+00  0.00000000000E+00  0.74505805969E-08  0.10566000000E+00  0.10566000000E+00 0.  1.
     999900   -1    0    0    0    0 -0.00000000000E+00 -0.00000000000E+00 -0.74505805969E-08  0.93827000000E+00  0.93827000000E+00 0. -1.
     999902    2    1    2    0    0 -0.21124486169E-01  0.13551843266E-01 -0.25504613343E-02  0.10187030060E+01  0.10183905996E+01 0.  0.
     999903    2    3    3    0    0  0.61639768013E-01 -0.10827963346E+00  0.10088447608E-01  0.12637314969E+00  0.18559530322E-01 0.  0.
         14    1    1    2    0    0  0.21124486169E-01 -0.13551843266E-01  0.25504613343E-02  0.25226993972E-01  0.00000000000E+00 0.  1.
     999901    1    3    3    0    0 -0.82764254182E-01  0.12183147672E+00 -0.12638908943E-01  0.89232985634E+00  0.88000000000E+00 0. -1.
        -11    1    4    4    0    0  0.11026235727E-01 -0.36479860362E-01  0.23590737822E-02  0.38186181224E-01  0.51100000000E-03 0.  1.
         11    1    4    4    0    0  0.50613532286E-01 -0.71799773094E-01  0.77293738260E-02  0.88186968468E-01  0.51100000000E-03 0. -1.
</event>
<event>
 8    1  0.1082757E+005  0.1043930E+01  0.7957747E-01            NaN
         13   -1    0    0    0    0  0.00000000000E+00  0.00000000000E+00  0.74505805969E-08  0.10566000000E+00  0.10566000000E+00 0.  1.
     999900   -1    0    0    0    0 -0.00000000000E+00 -0.00000000000E+00 -0.74505805969E-08  0.93827000000E+00  0.93827000000E+00 0.  1.
     999902    2    1    2    0    0 -0.81275147774E-02  0.22068017025E-01 -0.14821360757E-02  0.10203662439E+01  0.10200941237E+01 0.  0.
     999903    2    3    3    0    0 -0.92506025956E-01  0.91942830115E-01 -0.19746278816E-01  0.13338495803E+00  0.19768223365E-01 0.  0.
         14    1    1    2    0    0  0.81275147774E-02 -0.22068017025E-01  0.14821360757E-02  0.23563756050E-01  0.00000000000E+00 0.  1.
     999901    1    3    3    0    0  0.84378511179E-01 -0.69874813091E-01  0.18264142741E-01  0.88698128591E+00  0.88000000000E+00 0.  1.
        -11    1    4    4    0    0 -0.22908573736E-01  0.33382284901E-01 -0.92906005946E-03  0.40500666283E-01  0.51100000000E-03 0. -1.
         11    1    4    4    0    0 -0.69597452220E-01  0.58560545215E-01 -0.18817218757E-01  0.92884291751E-01  0.51100000000E-03 0.  1.
</event>
<event>
 8    1  0.1082757E+005  0.1043930E+01  0.7957747E-01            NaN
         13   -1    0    0    0    0  0.00000000000E+00  0.00000000000E+00  0.74505805969E-08  0.10566000000E+00  0.10566000000E+00 0.  1.
     999900   -1    0    0    0    0 -0.00000000000E+00 -0.00000000000E+00 -0.74505805969E-08  0.93827000000E+00  0.93827000000E+00 0. -1.
     999902    2    1    2    0    0 -0.87403695234E-02 -0.11855664863E-02 -0.22072320129E-01  0.10201605460E+01  0.10198835976E+01 0.  0.
     999903    2    3    3    0    0 -0.36649621656E-01  0.36727098821E-02 -0.12681803650E+00  0.13349590010E+00  0.19536053726E-01 0.  0.
         14    1    1    2    0    0  0.87403695234E-02  0.11855664863E-02  0.22072320129E-01  0.23769453995E-01  0.00000000000E+00 0.  1.
     999901    1    3    3    0    0  0.27909252132E-01 -0.48582763684E-02  0.10474571637E+00  0.88666464591E+00  0.88000000000E+00 0.  1.
        -11    1    4    4    0    0 -0.11983150048E-01  0.10561730976E-01 -0.44376580221E-01  0.47166598769E-01  0.51100000000E-03 0. -1.
         11    1    4    4    0    0 -0.24666471608E-01 -0.68890210937E-02 -0.82441456281E-01  0.86329301329E-01  0.51100000000E-03 0.  1.
</event>
<event>
 8    1  0.1082757E+005  0.1043930E+01  0.7957747E-01            NaN
         13   -1    0    0    0    0  0.00000000000E+00  0.00000000000E+00  0.74505805969E-08  0.10566000000E+00  0.10566000000E+00 0. -1.
     999900   -1    0    0    0    0 -0.00000000000E+00 -0.00000000000E+00 -0.74505805969E-08  0.93827000000E+00  0.93827000000E+00 0. -1.
     999902    2    1    2    0    0  0.16318028177E-02 -0.19039354640E-02  0.23742037453E-01  0.10200559117E+01  0.10197764906E+01 0.  0.
     999903    2    3    3    0    0 -0.10348553512E+00 -0.65050063107E-01 -0.37770788980E-01  0.12942640623E+00  0.19590697751E-01 0.  0.
         14    1    1    2    0    0 -0.16318028177E-02  0.19039354640E-02 -0.23742037453E-01  0.23874088320E-01  0.00000000000E+00 0.  1.
     999901    1    3    3    0    0  0.10511733794E+00  0.63146127643E-01  0.61512826432E-01  0.89062950546E+00  0.88000000000E+00 0.  1.
        -11    1    4    4    0    0 -0.21481257338E-01 -0.18302514569E-01 -0.16395918754E-01  0.32642207786E-01  0.51100000000E-03 0. -1.
         11    1    4    4    0    0 -0.82004277785E-01 -0.46747548538E-01 -0.21374870226E-01  0.96784198439E-01  0.51100000000E-03 0.  1.
</event>
<event>
 7    1  0.1082757E+005  0.1043930E+01  0.7957747E-01            NaN
         13   -1    0    0    0    0  0.00000000000E+00  0.00000000000E+00  0.74505805969E-08  0.10566000000E+00  0.10566000000E+00 0. -1.
     999900   -1    0    0    0    0 -0.00000000000E+00 -0.00000000000E+00 -0.74505805969E-08  0.93827000000E+00  0.93827000000E+00 0.  1.
     999903    2    1    2    0    0  0.15270789421E-01  0.72243614451E-01 -0.56062652783E-01  0.94624017592E-01  0.18930050966E-01 0.  0.
         14    1    1    2    0    0 -0.47747506400E-01  0.33119706541E-01  0.20816959940E-01  0.61725887194E-01  0.00000000000E+00 0. -1.
     999901    1    1    2    0    0  0.32476716978E-01 -0.10536332099E+00  0.35245692843E-01  0.88758009521E+00  0.88000000000E+00 0. -1.
        -11    1    3    3    0    0  0.19048358034E-01  0.62383569574E-01 -0.51506299009E-01  0.83112632344E-01  0.51100000000E-03 0. -1.
         11    1    3    3    0    0 -0.37775686121E-02  0.98600448771E-02 -0.45563537733E-02  0.11511385247E-01  0.51100000000E-03 0.  1.
</event>
<event>
 8    1  0.1235171E+005  0.1043930E+01  0.7957747E-01            NaN
         13   -1    0    0    0    0  0.00000000000E+00  0.00000000000E+00  0.74505805969E-08  0.10566000000E+00  0.10566000000E+00 0.  1.
     999900   -1    0    0    0    0 -0.00000000000E+00 -0.00000000000E+00 -0.74505805969E-08  0.93827000000E+00  0.93827000000E+00 0. -1.
     999902    2    1    2    0    0 -0.15555566673E-01 -0.17522969400E-01  0.24901827994E-02  0.10203666573E+01  0.10200945467E+01 0.  0.
     999903    2    3    3    0    0  0.91086918047E-01  0.70885278029E-01 -0.51337135936E-01  0.12790600378E+00  0.20072244396E-01 0.  0.
         14    1    1    2    0    0  0.15555566673E-01  0.17522969400E-01 -0.24901827994E-02  0.23563342749E-01  0.00000000000E+00 0.  1.
     999901    1    3    3    0    0 -0.10664248472E+00 -0.88408247428E-01  0.53827318736E-01  0.89246065348E+00  0.88000000000E+00 0.  1.
        -11    1    4    4    0    0  0.58259369733E-01  0.33375934867E-01 -0.26162693032E-01  0.72061465553E-01  0.51100000000E-03 0.  1.
         11    1    4    4    0    0  0.32827548314E-01  0.37509343162E-01 -0.25174442904E-01  0.55844538222E-01  0.51100000000E-03 0. -1.
</event>
<event>
 8    1  0.1082757E+005  0.1043930E+01  0.7957747E-01            NaN
         13   -1    0    0    0    0  0.00000000000E+00  0.00000000000E+00  0.74505805969E-08  0.10566000000E+00  0.10566000000E+00 0. -1.
     999900   -1    0    0    0    0 -0.00000000000E+00 -0.00000000000E+00 -0.74505805969E-08  0.93827000000E+00  0.93827000000E+00 0.  1.
     999902    2    1    2    0    0  0.16780846732E-01  0.43921498892E-02  0.15268862285E-01  0.10208209984E+01  0.10205593980E+01 0.  0.
     999903    2    3    3    0    0 -0.11961058326E+00 -0.21471674349E-01  0.39413336506E-01  0.12961141859E+00  0.21862852192E-01 0.  0.
         14    1    1    2    0    0 -0.16780846732E-01 -0.43921498892E-02 -0.15268862285E-01  0.23109001562E-01  0.00000000000E+00 0.  1.
     999901    1    3    3    0    0  0.13639143000E+00  0.25863824238E-01 -0.24144474221E-01  0.89120957985E+00  0.88000000000E+00 0.  1.
        -11    1    4    4    0    0 -0.39114183620E-01 -0.10525098078E-01  0.23490014436E-01  0.46826690562E-01  0.51100000000E-03 0. -1.
         11    1    4    4    0    0 -0.80496399644E-01 -0.10946576271E-01  0.15923322070E-01  0.82784728027E-01  0.51100000000E-03 0.  1.
</event>
<event>
 8    1  0.1082757E+005  0.1043930E+01  0.7957747E-01            NaN
         13   -1    0    0    0    0  0.00000000000E+00  0.00000000000E+00  0.74505805969E-08  0.10566000000E+00  0.10566000000E+00 0. -1.
     999900   -1    0    0    0    0 -0.00000000000E+00 -0.00000000000E+00 -0.74505805969E-08  0.93827000000E+00  0.93827000000E+00 0. -1.
     999902    2    1    2    0    0 -0.12739270171E-01  0.10047250955E-01 -0.16875424687E-01  0.10205202539E+01  0.10202517201E+01 0.  0.
     999903    2    3    3    0    0 -0.94782055258E-01  0.32475915685E-01 -0.86414889497E-01  0.13368892787E+00  0.19153934554E-01 0.  0.
         14    1    1    2    0    0  0.12739270171E-01 -0.10047250955E-01  0.16875424687E-01  0.23409746146E-01  0.00000000000E+00 0. -1.
     999901    1    3    3    0    0  0.82042785086E-01 -0.22428664730E-01  0.69539464810E-01  0.88683132599E+00  0.88000000000E+00 0.  1.
        -11    1    4    4    0    0 -0.80117487598E-01  0.30786139802E-01 -0.64960187568E-01  0.10764146651E+00  0.51100000000E-03 0.  1.
         11    1    4    4    0    0 -0.14664567660E-01  0.16897758832E-02 -0.21454701929E-01  0.26047461356E-01  0.51100000000E-03 0. -1.
</event>
<event>
 8    1  0.1082757E+005  0.1043930E+01  0.7957747E-01            NaN
         13   -1    0    0    0    0  0.00000000000E+00  0.00000000000E+00  0.74505805969E-08  0.10566000000E+00  0.10566000000E+00 0.  1.
     999900   -1    0    0    0    0 -0.00000000000E+00 -0.00000000000E+00 -0.74505805969E-08  0.93827000000E+00  0.93827000000E+00 0. -1.
     999902    2    1    2    0    0  0.18236030248E-01  0.85583843467E-02 -0.17636229056E-03  0.10237847811E+01  0.10235865611E+01 0.  0.
     999903    2    3    3    0    0 -0.18020214452E-01 -0.35631326689E-01  0.12524175402E+00  0.13305645564E+00  0.20596210016E-01 0.  0.
         14    1    1    2    0    0 -0.18236030248E-01 -0.85583843467E-02  0.17636229056E-03  0.20145218924E-01  0.00000000000E+00 0. -1.
     999901    1    3    3    0    0  0.36256244700E-01  0.44189711035E-01 -0.12541811631E+00  0.89072832544E+00  0.88000000000E+00 0. -1.
        -11    1    4    4    0    0 -0.11582636199E-01 -0.25723589241E-01  0.11107199353E+00  0.11459977911E+00  0.51100000000E-03 0. -1.
         11    1    4    4    0    0 -0.64375782530E-02 -0.99077374478E-02  0.14169760486E-01  0.18456676524E-01  0.51100000000E-03 0.  1.
</event>
<event>
 8    1  0.1082757E+005  0.1043930E+01  0.7957747E-01            NaN
         13   -1    0    0    0    0  0.00000000000E+00  0.00000000000E+00  0.74505805969E-08  0.10566000000E+00  0.10566000000E+00 0.  1.
     999900   -1    0    0    0    0 -0.00000000000E+00 -0.00000000000E+00 -0.74505805969E-08  0.93827000000E+00  0.93827000000E+00 0.  1.
     999902    2    1    2    0    0 -0.32639478358E-02 -0.11951911001E-01 -0.19571040470E-01  0.10207669441E+01  0.10205041044E+01 0.  0.
     999903    2    3    3    0    0  0.87931959530E-02  0.12524755059E+00  0.22311821474E-01  0.12907011163E+00  0.19925037380E-01 0.  0.
         14    1    1    2    0    0  0.32639478358E-02  0.11951911001E-01  0.19571040470E-01  0.23163055868E-01  0.00000000000E+00 0.  1.
     999901    1    3    3    0    0 -0.12057143789E-01 -0.13719946159E+00 -0.41882861944E-01  0.89169683251E+00  0.88000000000E+00 0. -1.
        -11    1    4    4    0    0  0.64476118273E-02  0.86317384474E-01  0.59199948888E-02  0.86761569955E-01  0.51100000000E-03 0.  1.
         11    1    4    4    0    0  0.23455841258E-02  0.38930166114E-01  0.16391826585E-01  0.42308541671E-01  0.51100000000E-03 0. -1.
</event>
<event>
 8    1  0.1082757E+005  0.1043930E+01  0.7957747E-01            NaN
         13   -1    0    0    0    0  0.00000000000E+00  0.00000000000E+00  0.74505805969E-08  0.10566000000E+00  0.10566000000E+00 0. -1.
     999900   -1    0    0    0    0 -0.00000000000E+00 -0.00000000000E+00 -0.74505805969E-08  0.93827000000E+00  0.93827000000E+00 0. -1.
     999902    2    1    2    0    0  0.12492058306E-01  0.18897756624E-01 -0.64518914707E-02  0.10203757301E+01  0.10201038315E+01 0.  0.
     999903    2    3    3    0    0 -0.17685362651E-02 -0.79876812615E-01 -0.10034382750E+00  0.12977173521E+00  0.19707527204E-01 0.  0.
         14    1    1    2    0    0 -0.12492058306E-01 -0.18897756624E-01  0.64518914707E-02  0.23554269882E-01  0.00000000000E+00 0.  1.
     999901    1    3    3    0    0  0.14260594571E-01  0.98774569239E-01  0.93891936032E-01  0.89060399490E+00  0.88000000000E+00 0. -1.
        -11    1    4    4    0    0 -0.30540272549E-02 -0.12767733666E-01 -0.72595631690E-02  0.15010146030E-01  0.51100000000E-03 0. -1.
         11    1    4    4    0    0  0.12854909898E-02 -0.67109078949E-01 -0.93084264334E-01  0.11476158918E+00  0.51100000000E-03 0.  1.
</event>
<event>
 8    1  0.1082757E+005  0.1043930E+01  0.7957747E-01            NaN
         13   -1    0    0    0    0  0.00000000000E+00  0.00000000000E+00  0.74505805969E-08  0.10566000000E+00  0.10566000000E+00 0.  1.
     999900   -1    0    0    0    0 -0.00000000000E+00 -0.00000000000E+00 -0.74505805969E-08  0.93827000000E+00  0.93827000000E+00 0. -1.
     999902    2    1    2    0    0 -0.14378754322E-01  0.15011480243E-01  0.72615081481E-02  0.10219113121E+01  0.10216740709E+01 0.  0.
     999903    2    3    3    0    0  0.16657042835E-01  0.97312331784E-01  0.87931411312E-01  0.13385484763E+00  0.20929408599E-01 0.  0.
         14    1    1    2    0    0  0.14378754322E-01 -0.15011480243E-01 -0.72615081481E-02  0.22018687871E-01  0.00000000000E+00 0. -1.
     999901    1    3    3    0    0 -0.31035797157E-01 -0.82300851541E-01 -0.80669903164E-01  0.88805646450E+00  0.88000000000E+00 0.  1.
        -11    1    4    4    0    0  0.56526182360E-02  0.79373455396E-01  0.65227198603E-01  0.10289288641E+00  0.51100000000E-03 0.  1.
         11    1    4    4    0    0  0.11004424599E-01  0.17938876388E-01  0.22704212709E-01  0.30961961219E-01  0.51100000000E-03 0. -1.
</event>
<event>
 8    1  0.1082757E+005  0.1043930E+01  0.7957747E-01            NaN
         13   -1    0    0    0    0  0.00000000000E+00  0.00000000000E+00  0.74505805969E-08  0.10566000000E+00  0.10566000000E+00 0.  1.
     999900   -1    0    0    0    0 -0.00000000000E+00 -0.00000000000E+00 -0.74505805969E-08  0.93827000000E+00  0.93827000000E+00 0.  1.
     999902    2    1    2    0    0  0.46082666385E-03  0.23679724955E-01  0.50756122993E-02  0.10197080353E+01  0.10194203125E+01 0.  0.
     999903    2    3    3    0    0 -0.78383670816E-01  0.94028086613E-01  0.46522108062E-01  0.13241825240E+00  0.19621572513E-01 0.  0.
         14    1    1    2    0    0 -0.46082666385E-03 -0.23679724955E-01 -0.50756122993E-02  0.24221964730E-01  0.00000000000E+00 0. -1.
     999901    1    3    3    0    0  0.78844497480E-01 -0.70348361658E-01 -0.41446495763E-01  0.88728978287E+00  0.88000000000E+00 0. -1.
        -11    1    4    4    0    0 -0.41985541342E-01  0.64666810540E-01  0.31614020567E-01  0.83332403569E-01  0.51100000000E-03 0. -1.
         11    1    4    4    0    0 -0.36398129474E-01  0.29361276073E-01  0.14908087495E-01  0.49085848833E-01  0.51100000000E-03 0.  1.
</event>
<event>
 8    1  0.1082757E+005  0.1043930E+01  0.7957747E-01            NaN
         13   -1    0    0    0    0  0.00000000000E+00  0.00000000000E+00  0.74505805969E-08  0.10566000000E+00  0.10566000000E+00 0. -1.
     999900   -1    0    0    0    0 -0.00000000000E+00 -0.00000000000E+00 -0.74505805969E-08  0.93827000000E+00  0.93827000000E+00 0.  1.
     999902    2    1    2    0    0  0.22158731356E-01  0.49572397623E-02 -0.13311502633E-02  0.10211845485E+01  0.10209312056E+01 0.  0.
     999903    2    3    3    0    0  0.79606590757E-01  0.45564365647E-02 -0.10486176287E+00  0.13325493142E+00  0.20072793316E-01 0.  0.
         14    1    1    2    0    0 -0.22158731356E-01 -0.49572397623E-02  0.13311502633E-02  0.22745451466E-01  0.00000000000E+00 0. -1.
     999901    1    3    3    0    0 -0.57447859401E-01  0.40080319753E-03  0.10353061260E+00  0.88792961711E+00  0.88000000000E+00 0. -1.
        -11    1    4    4    0    0  0.33148722414E-01 -0.76804346336E-02 -0.39562976695E-01  0.52185410986E-01  0.51100000000E-03 0.  1.
         11    1    4    4    0    0  0.46457868343E-01  0.12236871198E-01 -0.65298786171E-01  0.81069520439E-01  0.51100000000E-03 0. -1.
</event>
<event>
 8    1  0.1082757E+005  0.1043930E+01  0.7957747E-01            NaN
         13   -1    0    0    0    0  0.00000000000E+00  0.00000000000E+00  0.74505805969E-08  0.10566000000E+00  0.10566000000E+00 0. -1.
     999900   -1    0    0    0    0 -0.00000000000E+00 -0.00000000000E+00 -0.74505805969E-08  0.93827000000E+00  0.93827000000E+00 0. -1.
     999902    2    1    2    0    0 -0.13032387643E-01  0.10398468509E-01  0.18113844139E-01  0.10193112546E+01  0.10190139112E+01 0.  0.
     999903    2    3    3    0    0  0.81172588307E-01 -0.72754432153E-01 -0.60701970337E-01  0.12689828127E+00  0.23157031226E-01 0.  0.
         14    1    1    2    0    0  0.13032387643E-01 -0.10398468509E-01 -0.18113844139E-01  0.24618745388E-01  0.00000000000E+00 0.  1.
     999901    1    3    3    0    0 -0.94204975950E-01  0.83152900662E-01  0.78815814476E-01  0.89241297334E+00  0.88000000000E+00 0.  1.
        -11    1    4    4    0    0  0.29877065820E-03 -0.74463896285E-02 -0.46219711870E-02  0.87841744666E-02  0.51100000000E-03 0.  1.
         11    1    4    4    0    0  0.80873817649E-01 -0.65308042525E-01 -0.56079999150E-01  0.11811410680E+00  0.51100000000E-03 0. -1.
</event>
<event>
 8    1  0.1082757E+005  0.1043930E+01  0.7957747E-01            NaN
         13   -1    0    0    0    0  0.00000000000E+00  0.00000000000E+00  0.74505805969E-08  0.10566000000E+00  0.10566000000E+00 0.  1.
     999900   -1    0    0    0    0 -0.00000000000E+00 -0.00000000000E+00 -0.74505805969E-08  0.93827000000E+00  0.93827000000E+00 0.  1.
     999902    2    1    2    0    0 -0.81070699782E-02  0.19833736153E-01  0.10790610602E-01  0.10199396071E+01  0.10196574244E+01 0.  0.
     999903    2    3    3    0    0 -0.96218287202E-01 -0.65251088972E-01 -0.52578516392E-01  0.12919909478E+00  0.20303750929E-01 0.  0.
         14    1    1    2    0    0  0.81070699782E-02 -0.19833736153E-01 -0.10790610602E-01  0.23990392881E-01  0.00000000000E+00 0. -1.
     999901    1    3    3    0    0  0.88111217224E-01  0.85084825125E-01  0.63369126994E-01  0.89074051234E+00  0.88000000000E+00 0. -1.
        -11    1    4    4    0    0 -0.69575406326E-01 -0.55590451301E-01 -0.45385913659E-01  0.99955878871E-01  0.51100000000E-03 0. -1.
         11    1    4    4    0    0 -0.26642880876E-01 -0.96606376703E-02 -0.71926027334E-02  0.29243215908E-01  0.51100000000E-03 0.  1.
</event>
<event>
 7    1  0.1082757E+005  0.1043930E+01  0.7957747E-01            NaN
         13   -1    0    0    0    0  0.00000000000E+00  0.00000000000E+00  0.74505805969E-08  0.10566000000E+00  0.10566000000E+00 0. -1.
     999900   -1    0    0    0    0 -0.00000000000E+00 -0.00000000000E+00 -0.74505805969E-08  0.93827000000E+00  0.93827000000E+00 0.  1.
     999903    2    1    2    0    0 -0.49456836804E-01  0.82472448278E-01  0.38910916252E-01  0.10578571783E+00  0.20709303764E-01 0.  0.
         14    1    1    2    0    0  0.69835067049E-02  0.36705166364E-01 -0.31805139124E-01  0.49067356546E-01  0.00000000000E+00 0.  1.
     999901    1    1    2    0    0  0.42473330099E-01 -0.11917761464E+00 -0.71057771276E-02  0.88907692562E+00  0.88000000000E+00 0. -1.
        -11    1    3    3    0    0 -0.33679740884E-01  0.48160952937E-01  0.33452264212E-01  0.67624828545E-01  0.51100000000E-03 0.  1.
         11    1    3    3    0    0 -0.15777095920E-01  0.34311495341E-01  0.54586520399E-02  0.38160889289E-01  0.51100000000E-03 0. -1.
</event>
<event>
 8    1  0.1082757E+005  0.1043930E+01  0.7957747E-01            NaN
         13   -1    0    0    0    0  0.00000000000E+00  0.00000000000E+00  0.74505805969E-08  0.10566000000E+00  0.10566000000E+00 0. -1.
     999900   -1    0    0    0    0 -0.00000000000E+00 -0.00000000000E+00 -0.74505805969E-08  0.93827000000E+00  0.93827000000E+00 0.  1.
     999902    2    1    2    0    0 -0.77119877236E-02 -0.15452636320E-01 -0.16880336811E-01  0.10197803728E+01  0.10194943866E+01 0.  0.
     999903    2    3    3    0    0  0.89912241629E-01 -0.17061169007E-01 -0.91842555691E-01  0.13121275476E+00  0.20160290026E-01 0.  0.
         14    1    1    2    0    0  0.77119877236E-02  0.15452636320E-01  0.16880336811E-01  0.24149627218E-01  0.00000000000E+00 0. -1.
     999901    1    3    3    0    0 -0.97624229352E-01  0.16085326864E-02  0.74962218880E-01  0.88856761802E+00  0.88000000000E+00 0. -1.
        -11    1    4    4    0    0  0.12014631815E-01  0.82998269929E-03 -0.46246792799E-02  0.12910810524E-01  0.51100000000E-03 0.  1.
         11    1    4    4    0    0  0.77897609813E-01 -0.17891151706E-01 -0.87217876411E-01  0.11830194424E+00  0.51100000000E-03 0. -1.
</event>
<event>
 8    1  0.1082757E+005  0.1043930E+01  0.7957747E-01            NaN
         13   -1    0    0    0    0  0.00000000000E+00  0.00000000000E+00  0.74505805969E-08  0.10566000000E+00  0.10566000000E+00 0.  1.
     999900   -1    0    0    0    0 -0.00000000000E+00 -0.00000000000E+00 -0.74505805969E-08  0.93827000000E+00  0.93827000000E+00 0. -1.
     999902    2    1    2    0    0  0.90170771129E-02  0.11236086729E-02 -0.18539814241E-01  0.10232830901E+01  0.10230747713E+01 0.  0.
     999903    2    3    3    0    0  0.11536884637E+00  0.24007886821E-01 -0.62331942405E-01  0.13550375970E+00  0.24282679115E-01 0.  0.
         14    1    1    2    0    0 -0.90170771129E-02 -0.11236086729E-02  0.18539814241E-01  0.20646909895E-01  0.00000000000E+00 0.  1.
     999901    1    3    3    0    0 -0.10635176926E+00 -0.22884278148E-01  0.43792128164E-01  0.88777933041E+00  0.88000000000E+00 0. -1.
        -11    1    4    4    0    0  0.47143070959E-01  0.12251766798E-01 -0.39144020000E-01  0.62490722126E-01  0.51100000000E-03 0.  1.
         11    1    4    4    0    0  0.68225775414E-01  0.11756120023E-01 -0.23187922405E-01  0.73013037570E-01  0.51100000000E-03 0. -1.
</event>
<event>
 7    1  0.1082757E+005  0.1043930E+01  0.7957747E-01            NaN
         13   -1    0    0    0    0  0.00000000000E+00  0.00000000000E+00  0.74505805969E-08  0.10566000000E+00  0.10566000000E+00 0.  1.
     999900   -1    0    0    0    0 -0.00000000000E+00 -0.00000000000E+00 -0.74505805969E-08  0.93827000000E+00  0.93827000000E+00 0. -1.
     999903    2    1    2    0    0 -0.27771050870E-01  0.83565754250E-01  0.61939139128E-01  0.10953468282E+00  0.20172338376E-01 0.  0.
         14    1    1    2    0    0 -0.10241245407E-01 -0.39655404957E-01  0.25357440676E-01  0.48170883814E-01  0.00000000000E+00 0. -1.
     999901    1    1    2    0    0  0.38012296277E-01 -0.43910349292E-01 -0.87296579804E-01  0.88622443336E+00  0.88000000000E+00 0. -1.
        -11    1    3    3    0    0 -0.24162203406E-01  0.45684302908E-01  0.29374898055E-01  0.59447568178E-01  0.51100000000E-03 0.  1.
         11    1    3    3    0    0 -0.36088474643E-02  0.37881451342E-01  0.32564241073E-01  0.50087114645E-01  0.51100000000E-03 0. -1.
</event>
<event>
 8    1  0.1082757E+005  0.1043930E+01  0.7957747E-01            NaN
         13   -1    0    0    0    0  0.00000000000E+00  0.00000000000E+00  0.74505805969E-08  0.10566000000E+00  0.10566000000E+00 0. -1.
     999900   -1    0    0    0    0 -0.00000000000E+00 -0.00000000000E+00 -0.74505805969E-08  0.93827000000E+00  0.93827000000E+00 0. -1.
     999902    2    1    2    0    0  0.12127312489E-01 -0.22329163882E-02 -0.11693952364E-01  0.10269357026E+01  0.10267950774E+01 0.  0.
     999903    2    3    3    0    0 -0.78846253688E-01  0.97001745850E-01 -0.50413548003E-01  0.13585606805E+00  0.17008085914E-01 0.  0.
         14    1    1    2    0    0 -0.12127312489E-01  0.22329163882E-02  0.11693952364E-01  0.16994297447E-01  0.00000000000E+00 0. -1.
     999901    1    3    3    0    0  0.90973566177E-01 -0.99234662238E-01  0.38719595639E-01  0.89107963450E+00  0.88000000000E+00 0.  1.
        -11    1    4    4    0    0 -0.40557145542E-01  0.37080319121E-01 -0.24508383248E-01  0.60172702209E-01  0.51100000000E-03 0.  1.
         11    1    4    4    0    0 -0.38289108146E-01  0.59921426728E-01 -0.25905164755E-01  0.75683365846E-01  0.51100000000E-03 0. -1.
</event>
<event>
 8    1  0.1082757E+005  0.1043930E+01  0.7957747E-01            NaN
         13   -1    0    0    0    0  0.00000000000E+00  0.00000000000E+00  0.74505805969E-08  0.10566000000E+00  0.10566000000E+00 0. -1.
     999900   -1    0    0    0    0 -0.00000000000E+00 -0.00000000000E+00 -0.74505805969E-08  0.93827000000E+00  0.93827000000E+00 0. -1.
     999902    2    1    2    0    0 -0.12151232372E-01  0.18154025030E-01 -0.82733758215E-02  0.10205704234E+01  0.10203030526E+01 0.  0.
     999903    2    3    3    0    0  0.87432095762E-01  0.12892067383E-01  0.91575407616E-01  0.12932729885E+00  0.22998221187E-01 0.  0.
         14    1    1    2    0    0  0.12151232372E-01 -0.18154025030E-01  0.82733758215E-02  0.23359576633E-01  0.00000000000E+00 0. -1.
     999901    1    3    3    0    0 -0.99583328135E-01  0.52619576475E-02 -0.99848783437E-01  0.89124312451E+00  0.88000000000E+00 0. -1.
        -11    1    4    4    0    0  0.71252181956E-01  0.45479850793E-02  0.61831798214E-01  0.94450992547E-01  0.51100000000E-03 0.  1.
         11    1    4    4    0    0  0.16179913806E-01  0.83440823034E-02  0.29743609402E-01  0.34876306305E-01  0.51100000000E-03 0. -1.
</event>
<event>
 8    1  0.1082757E+005  0.1043930E+01  0.7957747E-01            NaN
         13   -1    0    0    0    0  0.00000000000E+00  0.00000000000E+00  0.74505805969E-08  0.10566000000E+00  0.10566000000E+00 0. -1.
     999900   -1    0    0    0    0 -0.00000000000E+00 -0.00000000000E+00 -0.74505805969E-08  0.93827000000E+00  0.93827000000E+00 0.  1.
     999902    2    1    2    0    0  0.22890363989E-02  0.68278490550E-03  0.23884162376E-01  0.10199266857E+01  0.10196441954E+01 0.  0.
     999903    2    3    3    0    0  0.33334174539E-01 -0.10789028521E+00  0.64990085329E-01  0.13175912888E+00  0.19628449233E-01 0.  0.
         14    1    1    2    0    0 -0.22890363989E-02 -0.68278490550E-03 -0.23884162376E-01  0.24003314256E-01  0.00000000000E+00 0.  1.
     999901    1    3    3    0    0 -0.31045138140E-01  0.10857307011E+00 -0.41105922953E-01  0.88816755686E+00  0.88000000000E+00 0. -1.
        -11    1    4    4    0    0  0.15120219082E-01 -0.22369861005E-01  0.12336351521E-01  0.29689701856E-01  0.51100000000E-03 0.  1.
         11    1    4    4    0    0  0.18213955457E-01 -0.85520424201E-01  0.52653733808E-01  0.10206942703E+00  0.51100000000E-03 0. -1.
</event>
<event>
 8    1  0.1082757E+005  0.1043930E+01  0.7957747E-01            NaN
         13   -1    0    0    0    0  0.00000000000E+00  0.00000000000E+00  0.74505805969E-08  0.10566000000E+00  0.10566000000E+00 0.  1.
     999900   -1    0    0    0    0 -0.00000000000E+00 -0.00000000000E+00 -0.74505805969E-08  0.93827000000E+00  0.93827000000E+00 0.  1.
     999902    2    1    2    0    0 -0.12673272052E-01  0.13900293468E-01  0.14628902432E-01  0.10201007161E+01  0.10198223553E+01 0.  0.
     999903    2    3    3    0    0  0.57337623495E-01 -0.32856618507E-01 -0.10741679508E+00  0.12769784378E+00  0.20030251912E-01 0.  0.
         14    1    1    2    0    0  0.12673272052E-01 -0.13900293468E-01 -0.14628902432E-01  0.23829283862E-01  0.00000000000E+00 0. -1.
     999901    1    3    3    0    0 -0.70010895547E-01  0.46756911975E-01  0.12204569752E+00  0.89240287236E+00  0.88000000000E+00 0. -1.
        -11    1    4    4    0    0  0.35711300761E-01 -0.29447510408E-01 -0.81863944467E-01  0.94044773359E-01  0.51100000000E-03 0. -1.
         11    1    4    4    0    0  0.21626322734E-01 -0.34091080984E-02 -0.25552850617E-01  0.33653070420E-01  0.51100000000E-03 0.  1.
</event>
<event>
 8    1  0.1082757E+005  0.1043930E+01  0.7957747E-01            NaN
         13   -1    0    0    0    0  0.00000000000E+00  0.00000000000E+00  0.74505805969E-08  0.10566000000E+00  0.10566000000E+00 0. -1.
     999900   -1    0    0    0    0 -0.00000000000E+00 -0.00000000000E+00 -0.74505805969E-08  0.93827000000E+00  0.93827000000E+00 0.  1.
     999902    2    1    2    0    0  0.17315300328E-01 -0.21543869312E-02  0.15502502543E-01  0.10205892932E+01  0.10203223593E+01 0.  0.
     999903    2    3    3    0    0 -0.16975847957E-01 -0.76590893091E-01 -0.10066405481E+00  0.12917954155E+00  0.19993941746E-01 0.  0.
         14    1    1    2    0    0 -0.17315300328E-01  0.21543869312E-02 -0.15502502543E-01  0.23340706793E-01  0.00000000000E+00 0.  1.
     999901    1    3    3    0    0  0.34291148284E-01  0.74436506160E-01  0.11616655735E+00  0.89140975166E+00  0.88000000000E+00 0. -1.
        -11    1    4    4    0    0 -0.53895800451E-02 -0.62362828395E-01 -0.78380071800E-01  0.10030885661E+00  0.51100000000E-03 0.  1.
         11    1    4    4    0    0 -0.11586267912E-01 -0.14228064695E-01 -0.22283983010E-01  0.28870684939E-01  0.51100000000E-03 0. -1.
</event>
<event>
 8    1  0.1082757E+005  0.1043930E+01  0.7957747E-01            NaN
         13   -1    0    0    0    0  0.00000000000E+00  0.00000000000E+00  0.74505805969E-08  0.10566000000E+00  0.10566000000E+00 0.  1.
     999900   -1    0    0    0    0 -0.00000000000E+00 -0.00000000000E+00 -0.74505805969E-08  0.93827000000E+00  0.93827000000E+00 0. -1.
     999902    2    1    2    0    0 -0.49665513978E-02  0.11122453677E-01 -0.20363839067E-01  0.10202010820E+01  0.10199250885E+01 0.  0.
     999903    2    3    3    0    0 -0.12908565159E+00  0.55031156445E-03  0.80925735734E-02  0.13097271501E+00  0.20614413380E-01 0.  0.
         14    1    1    2    0    0  0.49665513978E-02 -0.11122453677E-01  0.20363839067E-01  0.23728918014E-01  0.00000000000E+00 0.  1.
     999901    1    3    3    0    0  0.12411910019E+00  0.10572142112E-01 -0.28456412641E-01  0.88922836698E+00  0.88000000000E+00 0. -1.
        -11    1    4    4    0    0 -0.10371497660E-01 -0.23474279900E-02 -0.44963668209E-02  0.11556678479E-01  0.51100000000E-03 0.  1.
         11    1    4    4    0    0 -0.11871415393E+00  0.28977395544E-02  0.12588940394E-01  0.11941603653E+00  0.51100000000E-03 0. -1.
</event>
<event>
 8    1  0.1082757E+005  0.1043930E+01  0.7957747E-01            NaN
         13   -1    0    0    0    0  0.00000000000E+00  0.00000000000E+00  0.74505805969E-08  0.10566000000E+00  0.10566000000E+00 0. -1.
     999900   -1    0    0    0    0 -0.00000000000E+00 -0.00000000000E+00 -0.74505805969E-08  0.93827000000E+00  0.93827000000E+00 0.  1.
     999902    2    1    2    0    0 -0.20118990753E-01 -0.13399763820E-02  0.13020825312E-01  0.10199276831E+01  0.10196452165E+01 0.  0.
     999903    2    3    3    0    0  0.84597793605E-01 -0.46117356230E-01 -0.81000165457E-01  0.12762136495E+00  0.21037793593E-01 0.  0.
         14    1    1    2    0    0  0.20118990753E-01  0.13399763820E-02 -0.13020825312E-01  0.24002316918E-01  0.00000000000E+00 0.  1.
     999901    1    3    3    0    0 -0.10471678436E+00  0.44777379848E-01  0.94020990769E-01  0.89230631813E+00  0.88000000000E+00 0. -1.
        -11    1    4    4    0    0  0.56223077752E-01 -0.30052612509E-01 -0.40115711533E-01  0.75324135729E-01  0.51100000000E-03 0. -1.
         11    1    4    4    0    0  0.28374715853E-01 -0.16064743720E-01 -0.40884453924E-01  0.52297229222E-01  0.51100000000E-03 0.  1.
</event>
<event>
 8    1  0.1082757E+005  0.1043930E+01  0.7957747E-01            NaN
         13   -1    0    0    0    0  0.00000000000E+00  0.00000000000E+00  0.74505805969E-08  0.10566000000E+00  0.10566000000E+00 0. -1.
     999900   -1    0    0    0    0 -0.00000000000E+00 -0.00000000000E+00 -0.74505805969E-08  0.93827000000E+00  0.93827000000E+00 0. -1.
     999902    2    1    2    0    0  0.21774974547E-03  0.17690129887E-01 -0.15952219776E-01  0.10201085511E+01  0.10198303754E+01 0.  0.
     999903    2    3    3    0    0  0.12314420293E+00  0.31195246910E-01 -0.26437482975E-01  0.13139980142E+00  0.20720259700E-01 0.  0.
         14    1    1    2    0    0 -0.21774974547E-03 -0.17690129887E-01  0.15952219776E-01  0.23821448868E-01  0.00000000000E+00 0. -1.
     999901    1    3    3    0    0 -0.12292645318E+00 -0.13505117023E-01  0.10485263198E-01  0.88870874972E+00  0.88000000000E+00 0. -1.
        -11    1    4    4    0    0  0.39011567111E-01  0.34692031867E-02 -0.15572876466E-01  0.42151077586E-01  0.51100000000E-03 0.  1.
         11    1    4    4    0    0  0.84132635815E-01  0.27726043723E-01 -0.10864606509E-01  0.89248723831E-01  0.51100000000E-03 0. -1.
</event>
<event>
 8    1  0.1082757E+005  0.1043930E+01  0.7957747E-01            NaN
         13   -1    0    0    0    0  0.00000000000E+00  0.00000000000E+00  0.74505805969E-08  0.10566000000E+00  0.10566000000E+00 0. -1.
     999900   -1    0    0    0    0 -0.00000000000E+00 -0.00000000000E+00 -0.74505805969E-08  0.93827000000E+00  0.93827000000E+00 0. -1.
     999902    2    1    2    0    0 -0.97749703903E-02  0.16486073545E-01 -0.14890479074E-01  0.10196592968E+01  0.10193704010E+01 0.  0.
     999903    2    3    3    0    0 -0.65291557617E-01 -0.58440684578E-01  0.91083793753E-01  0.12840924376E+00  0.22679843197E-01 0.  0.
         14    1    1    2    0    0  0.97749703903E-02 -0.16486073545E-01  0.14890479074E-01  0.24270703206E-01  0.00000000000E+00 0. -1.
     999901    1    3    3    0    0  0.55516587226E-01  0.74926758123E-01 -0.10597427283E+00  0.89125005304E+00  0.88000000000E+00 0. -1.
        -11    1    4    4    0    0 -0.47599394926E-01 -0.54429601684E-01  0.74591103345E-01  0.10388636944E+00  0.51100000000E-03 0. -1.
         11    1    4    4    0    0 -0.17692162691E-01 -0.40110828945E-02  0.16492690408E-01  0.24522874313E-01  0.51100000000E-03 0.  1.
</event>
<event>
 8    1  0.1082757E+005  0.1043930E+01  0.7957747E-01            NaN
         13   -1    0    0    0    0  0.00000000000E+00  0.00000000000E+00  0.74505805969E-08  0.10566000000E+00  0.10566000000E+00 0. -1.
     999900   -1    0    0    0    0 -0.00000000000E+00 -0.00000000000E+00 -0.74505805969E-08  0.93827000000E+00  0.93827000000E+00 0. -1.
     999902    2    1    2    0    0 -0.16989682771E-01  0.85748856089E-02  0.61432175277E-02  0.10239320725E+01  0.10237367689E+01 0.  0.
     999903    2    3    3    0    0  0.48505574399E-01 -0.10296662107E+00  0.64981914655E-01  0.13253253876E+00  0.19680162493E-01 0.  0.
         14    1    1    2    0    0  0.16989682771E-01 -0.85748856089E-02 -0.61432175277E-02  0.19997927529E-01  0.00000000000E+00 0.  1.
     999901    1    3    3    0    0 -0.65495257170E-01  0.11154150668E+00 -0.58838697127E-01  0.89139953371E+00  0.88000000000E+00 0. -1.
        -11    1    4    4    0    0  0.68726550242E-02 -0.18166273910E-01  0.20055063855E-01  0.27923352271E-01  0.51100000000E-03 0. -1.
         11    1    4    4    0    0  0.41632919374E-01 -0.84800347157E-01  0.44926850800E-01  0.10460918649E+00  0.51100000000E-03 0.  1.
</event>
<event>
 8    1  0.1082757E+005  0.1043930E+01  0.7957747E-01            NaN
         13   -1    0    0    0    0  0.00000000000E+00  0.00000000000E+00  0.74505805969E-08  0.10566000000E+00  0.10566000000E+00 0. -1.
     999900   -1    0    0    0    0 -0.00000000000E+00 -0.00000000000E+00 -0.74505805969E-08  0.93827000000E+00  0.93827000000E+00 0.  1.
     999902    2    1    2    0    0  0.10632241018E-01 -0.31221351962E-02 -0.20941928773E-01  0.10202370336E+01  0.10199618856E+01 0.  0.
     999903    2    3    3    0    0 -0.42392769492E-01 -0.50653720941E-01  0.10787318504E+00  0.12801271373E+00  0.19689704790E-01 0.  0.
         14    1    1    2    0    0 -0.10632241018E-01  0.31221351962E-02  0.20941928773E-01  0.23692966424E-01  0.00000000000E+00 0. -1.
     999901    1    3    3    0    0  0.53025010509E-01  0.47531585745E-01 -0.12881511381E+00  0.89222431985E+00  0.88000000000E+00 0.  1.
        -11    1    4    4    0    0 -0.38434640631E-01 -0.51885930580E-01  0.98880743375E-01  0.11809756104E+00  0.51100000000E-03 0. -1.
         11    1    4    4    0    0 -0.39581288609E-02  0.12322096392E-02  0.89924416649E-02  0.99151526852E-02  0.51100000000E-03 0.  1.
</event>
<event>
 8    1  0.1082757E+005  0.1043930E+01  0.7957747E-01            NaN
         13   -1    0    0    0    0  0.00000000000E+00  0.00000000000E+00  0.74505805969E-08  0.10566000000E+00  0.10566000000E+00 0. -1.
     999900   -1    0    0    0    0 -0.00000000000E+00 -0.00000000000E+00 -0.74505805969E-08  0.93827000000E+00  0.93827000000E+00 0.  1.
     999902    2    1    2    0    0  0.34982233803E-02 -0.19797732877E-01 -0.12237131375E-01  0.10203941725E+01  0.10201227044E+01 0.  0.
     999903    2    3    3    0    0  0.53326581136E-01 -0.11263435524E+00 -0.46026378144E-01  0.13346507896E+00  0.12817081664E-01 0.  0.
         14    1    1    2    0    0 -0.34982233803E-02  0.19797732877E-01  0.12237131375E-01  0.23535827545E-01  0.00000000000E+00 0. -1.
     999901    1    3    3    0    0 -0.49828357756E-01  0.92836622358E-01  0.33789246768E-01  0.88692909349E+00  0.88000000000E+00 0. -1.
        -11    1    4    4    0    0  0.12637785149E-01 -0.36369035293E-01 -0.97586320103E-02  0.39722945023E-01  0.51100000000E-03 0. -1.
         11    1    4    4    0    0  0.40688795987E-01 -0.76265319943E-01 -0.36267746133E-01  0.93742133939E-01  0.51100000000E-03 0.  1.
</event>
<event>
 8    1  0.1082757E+005  0.1043930E+01  0.7957747E-01            NaN
         13   -1    0    0    0    0  0.00000000000E+00  0.00000000000E+00  0.74505805969E-08  0.10566000000E+00  0.10566000000E+00 0.  1.
     999900   -1    0    0    0    0 -0.00000000000E+00 -0.00000000000E+00 -0.74505805969E-08  0.93827000000E+00  0.93827000000E+00 0. -1.
     999902    2    1    2    0    0 -0.40149365716E-02  0.19579337785E-01 -0.13283778261E-01  0.10199314803E+01  0.10196491041E+01 0.  0.
     999903    2    3    3    0    0 -0.84582289606E-01  0.99993340194E-01  0.43155003416E-03  0.13249380901E+00  0.20039745328E-01 0.  0.
         14    1    1    2    0    0  0.40149365716E-02 -0.19579337785E-01  0.13283778261E-01  0.23998519719E-01  0.00000000000E+00 0.  1.
     999901    1    3    3    0    0  0.80567353034E-01 -0.80414002409E-01 -0.13715328296E-01  0.88743767127E+00  0.88000000000E+00 0.  1.
        -11    1    4    4    0    0 -0.64981982617E-01  0.62927373643E-01  0.27143863726E-02  0.90499400179E-01  0.51100000000E-03 0. -1.
         11    1    4    4    0    0 -0.19600306989E-01  0.37065966551E-01 -0.22828363385E-02  0.41994408832E-01  0.51100000000E-03 0.  1.
</event>
<event>
 8    1  0.1082757E+005  0.1043930E+01  0.7957747E-01            NaN
         13   -1    0    0    0    0  0.00000000000E+00  0.00000000000E+00  0.74505805969E-08  0.10566000000E+00  0.10566000000E+00 0. -1.
     999900   -1    0    0    0    0 -0.00000000000E+00 -0.00000000000E+00 -0.74505805969E-08  0.93827000000E+00  0.93827000000E+00 0. -1.
     999902    2    1    2    0    0 -0.19943328657E-01 -0.12152002723E-01 -0.68697299638E-02  0.10195866083E+01  0.10192959586E+01 0.  0.
     999903    2    3    3    0    0  0.18958895334E-01  0.57000875108E-01  0.11146361471E+00  0.12812809331E+00  0.19599270788E-01 0.  0.
         14    1    1    2    0    0  0.19943328657E-01  0.12152002723E-01  0.68697299638E-02  0.24343391668E-01  0.00000000000E+00 0.  1.
     999901    1    3    3    0    0 -0.38902223991E-01 -0.69152877832E-01 -0.11833334467E+00  0.89145851502E+00  0.88000000000E+00 0. -1.
        -11    1    4    4    0    0 -0.64741736066E-03  0.82211434962E-03  0.13206954770E-01  0.13258197333E-01  0.51100000000E-03 0. -1.
         11    1    4    4    0    0  0.19606312695E-01  0.56178760759E-01  0.98256659941E-01  0.11486989598E+00  0.51100000000E-03 0.  1.
</event>
<event>
 8    1  0.1082757E+005  0.1043930E+01  0.7957747E-01            NaN
         13   -1    0    0    0    0  0.00000000000E+00  0.00000000000E+00  0.74505805969E-08  0.10566000000E+00  0.10566000000E+00 0. -1.
     999900   -1    0    0    0    0 -0.00000000000E+00 -0.00000000000E+00 -0.74505805969E-08  0.93827000000E+00  0.93827000000E+00 0. -1.
     999902    2    1    2    0    0 -0.77895457379E-02 -0.21478948457E-01  0.43611491894E-02  0.10206696932E+01  0.10204046162E+01 0.  0.
     999903    2    3    3    0    0 -0.66060904326E-01  0.10917722901E+00  0.35791657519E-02  0.12911644217E+00  0.19352901484E-01 0.  0.
         14    1    1    2    0    0  0.77895457379E-02  0.21478948457E-01 -0.43611491894E-02  0.23260306788E-01  0.00000000000E+00 0.  1.
     999901    1    3    3    0    0  0.58271358588E-01 -0.13065617747E+00  0.78198343750E-03  0.89155325104E+00  0.88000000000E+00 0. -1.
        -11    1    4    4    0    0 -0.33507650055E-01  0.38324698990E-01 -0.19391354818E-02  0.50946702860E-01  0.51100000000E-03 0. -1.
         11    1    4    4    0    0 -0.32553254271E-01  0.70852530025E-01  0.55183012337E-02  0.78169739311E-01  0.51100000000E-03 0.  1.
</event>
<event>
 8    1  0.1082757E+005  0.1043930E+01  0.7957747E-01            NaN
         13   -1    0    0    0    0  0.00000000000E+00  0.00000000000E+00  0.74505805969E-08  0.10566000000E+00  0.10566000000E+00 0. -1.
     999900   -1    0    0    0    0 -0.00000000000E+00 -0.00000000000E+00 -0.74505805969E-08  0.93827000000E+00  0.93827000000E+00 0.  1.
     999902    2    1    2    0    0  0.24958457505E-01  0.26641633199E-02 -0.19285844318E-01  0.10122761510E+01  0.10117811224E+01 0.  0.
     999903    2    3    3    0    0 -0.80122399201E-01 -0.64657418846E-01  0.58503232182E-01  0.12007363904E+00  0.19871334921E-01 0.  0.
         14    1    1    2    0    0 -0.24958457505E-01 -0.26641633199E-02  0.19285844318E-01  0.31653849028E-01  0.00000000000E+00 0. -1.
     999901    1    3    3    0    0  0.10508085671E+00  0.67321582166E-01 -0.77789076500E-01  0.89220251193E+00  0.88000000000E+00 0.  1.
        -11    1    4    4    0    0 -0.50594275163E-01 -0.28176160857E-01  0.31604195862E-01  0.65975472995E-01  0.51100000000E-03 0. -1.
         11    1    4    4    0    0 -0.29528124038E-01 -0.36481257989E-01  0.26899036320E-01  0.54098166047E-01  0.51100000000E-03 0.  1.
</event>
<event>
 8    1  0.1082757E+005  0.1043930E+01  0.7957747E-01            NaN
         13   -1    0    0    0    0  0.00000000000E+00  0.00000000000E+00  0.74505805969E-08  0.10566000000E+00  0.10566000000E+00 0. -1.
     999900   -1    0    0    0    0 -0.00000000000E+00 -0.00000000000E+00 -0.74505805969E-08  0.93827000000E+00  0.93827000000E+00 0. -1.
     999902    2    1    2    0    0  0.17118965955E-01  0.10995668515E-02 -0.14722787005E-01  0.10213240605E+01  0.10210738505E+01 0.  0.
     999903    2    3    3    0    0  0.79790327565E-01  0.10420121880E+00  0.70121951630E-03  0.13295727243E+00  0.21278021804E-01 0.  0.
         14    1    1    2    0    0 -0.17118965955E-01 -0.10995668515E-02  0.14722787005E-01  0.22605939481E-01  0.00000000000E+00 0. -1.
     999901    1    3    3    0    0 -0.62671361609E-01 -0.10310165195E+00 -0.15424006521E-01  0.88836678809E+00  0.88000000000E+00 0. -1.
        -11    1    4    4    0    0  0.63218838079E-01  0.66518225891E-01  0.14791770180E-02  0.91780961802E-01  0.51100000000E-03 0. -1.
         11    1    4    4    0    0  0.16571489486E-01  0.37682992906E-01 -0.77795750171E-03  0.41176310629E-01  0.51100000000E-03 0.  1.
</event>
<event>
 8    1  0.1082757E+005  0.1043930E+01  0.7957747E-01            NaN
         13   -1    0    0    0    0  0.00000000000E+00  0.00000000000E+00  0.74505805969E-08  0.10566000000E+00  0.10566000000E+00 0.  1.
     999900   -1    0    0    0    0 -0.00000000000E+00 -0.00000000000E+00 -0.74505805969E-08  0.93827000000E+00  0.93827000000E+00 0.  1.
     999902    2    1    2    0    0  0.22320075521E-02 -0.19907189812E-01  0.16087996023E-01  0.10182375560E+01  0.10179133650E+01 0.  0.
     999903    2    3    3    0    0  0.57648499655E-01 -0.90373291319E-01  0.73805111823E-01  0.13180215251E+00  0.20831024435E-01 0.  0.
         14    1    1    2    0    0 -0.22320075521E-02  0.19907189812E-01 -0.16087996023E-01  0.25692444025E-01  0.00000000000E+00 0.  1.
     999901    1    3    3    0    0 -0.55416492103E-01  0.70466101507E-01 -0.57717115800E-01  0.88643540346E+00  0.88000000000E+00 0.  1.
        -11    1    4    4    0    0  0.31768275063E-01 -0.46224700302E-01  0.26206999998E-01  0.61911341355E-01  0.51100000000E-03 0. -1.
         11    1    4    4    0    0  0.25880224592E-01 -0.44148591016E-01  0.47598111825E-01  0.69890811156E-01  0.51100000000E-03 0.  1.
</event>
<event>
 8    1  0.1082757E+005  0.1043930E+01  0.7957747E-01            NaN
         13   -1    0    0    0    0  0.00000000000E+00  0.00000000000E+00  0.74505805969E-08  0.10566000000E+00  0.10566000000E+00 0. -1.
     999900   -1    0    0    0    0 -0.00000000000E+00 -0.00000000000E+00 -0.74505805969E-08  0.93827000000E+00  0.93827000000E+00 0. -1.
     999902    2    1    2    0    0  0.10962448388E-01  0.21026932960E-01  0.32620859069E-02  0.10199936597E+01  0.10197127622E+01 0.  0.
     999903    2    3    3    0    0 -0.87499277226E-01 -0.52009173987E-01 -0.75048674071E-01  0.12805108334E+00  0.20092256482E-01 0.  0.
         14    1    1    2    0    0 -0.10962448388E-01 -0.21026932960E-01 -0.32620859069E-02  0.23936340339E-01  0.00000000000E+00 0.  1.
     999901    1    3    3    0    0  0.98461725614E-01  0.73036106946E-01  0.78310759978E-01  0.89194257632E+00  0.88000000000E+00 0. -1.
        -11    1    4    4    0    0 -0.14764546934E-01 -0.11564452110E-01 -0.23826920256E-01  0.30326748072E-01  0.51100000000E-03 0.  1.
         11    1    4    4    0    0 -0.72734730292E-01 -0.40444721876E-01 -0.51221753816E-01  0.97724335266E-01  0.51100000000E-03 0. -1.
</event>
<event>
 8    1  0.1082757E+005  0.1043930E+01  0.7957747E-01            NaN
         13   -1    0    0    0    0  0.00000000000E+00  0.00000000000E+00  0.74505805969E-08  0.10566000000E+00  0.10566000000E+00 0.  1.
     999900   -1    0    0    0    0 -0.00000000000E+00 -0.00000000000E+00 -0.74505805969E-08  0.93827000000E+00  0.93827000000E+00 0. -1.
     999902    2    1    2    0    0 -0.14900032784E-01  0.34436028782E-02 -0.19321375754E-01  0.10192888771E+01  0.10189909862E+01 0.  0.
     999903    2    3    3    0    0  0.93674758061E-01 -0.37993503865E-01  0.69728174520E-01  0.12719283885E+00  0.33129040115E-01 0.  0.
         14    1    1    2    0    0  0.14900032784E-01 -0.34436028782E-02  0.19321375754E-01  0.24641122920E-01  0.00000000000E+00 0.  1.
     999901    1    3    3    0    0 -0.10857479084E+00  0.41437106743E-01 -0.89049550274E-01  0.89209603823E+00  0.88000000000E+00 0.  1.
        -11    1    4    4    0    0  0.77487765642E-01 -0.18422570035E-01  0.61027895711E-01  0.10034146743E+00  0.51100000000E-03 0. -1.
         11    1    4    4    0    0  0.16186992419E-01 -0.19570933830E-01  0.87002788092E-02  0.26851371415E-01  0.51100000000E-03 0.  1.
</event>
<event>
 8    1  0.1302489E+005  0.1043930E+01  0.7957747E-01            NaN
         13   -1    0    0    0    0  0.00000000000E+00  0.00000000000E+00  0.74505805969E-08  0.10566000000E+00  0.10566000000E+00 0. -1.
     999900   -1    0    0    0    0 -0.00000000000E+00 -0.00000000000E+00 -0.74505805969E-08  0.93827000000E+00  0.93827000000E+00 0. -1.
     999902    2    1    2    0    0  0.53115158040E-02 -0.23193390538E-01  0.25559507918E-02  0.10199992990E+01  0.10197185355E+01 0.  0.
     999903    2    3    3    0    0  0.88197019082E-01 -0.18719549681E-01  0.93435148668E-01  0.13143357241E+00  0.20384337971E-01 0.  0.
         14    1    1    2    0    0 -0.53115158040E-02  0.23193390538E-01 -0.25559507918E-02  0.23930700976E-01  0.00000000000E+00 0. -1.
     999901    1    3    3    0    0 -0.82885503278E-01 -0.44738408568E-02 -0.90879197877E-01  0.88856572661E+00  0.88000000000E+00 0. -1.
        -11    1    4    4    0    0  0.40076366116E-01  0.17898057706E-02  0.41314123987E-01  0.57588510031E-01  0.51100000000E-03 0.  1.
         11    1    4    4    0    0  0.48120652966E-01 -0.20509355451E-01  0.52121024682E-01  0.73845062379E-01  0.51100000000E-03 0. -1.
</event>
<event>
 8    1  0.1082757E+005  0.1043930E+01  0.7957747E-01            NaN
         13   -1    0    0    0    0  0.00000000000E+00  0.00000000000E+00  0.74505805969E-08  0.10566000000E+00  0.10566000000E+00 0. -1.
     999900   -1    0    0    0    0 -0.00000000000E+00 -0.00000000000E+00 -0.74505805969E-08  0.93827000000E+00  0.93827000000E+00 0.  1.
     999902    2    1    2    0    0 -0.17267798769E-01  0.15972454970E-01 -0.34749284041E-02  0.10201524619E+01  0.10198753228E+01 0.  0.
     999903    2    3    3    0    0  0.96939672303E-02  0.12861312608E+00  0.21181335504E-01  0.13222071395E+00  0.19958933409E-01 0.  0.
         14    1    1    2    0    0  0.17267798769E-01 -0.15972454970E-01  0.34749284041E-02  0.23777538130E-01  0.00000000000E+00 0. -1.
     999901    1    3    3    0    0 -0.26961765999E-01 -0.11264067111E+00 -0.24656263908E-01  0.88793174792E+00  0.88000000000E+00 0. -1.
        -11    1    4    4    0    0  0.12670469561E-01  0.42873724807E-01  0.80649208298E-02  0.45431279387E-01  0.51100000000E-03 0.  1.
         11    1    4    4    0    0 -0.29765023312E-02  0.85739401274E-01  0.13116414674E-01  0.86789434563E-01  0.51100000000E-03 0. -1.
</event>
<event>
 8    1  0.1082757E+005  0.1043930E+01  0.7957747E-01            NaN
         13   -1    0    0    0    0  0.00000000000E+00  0.00000000000E+00  0.74505805969E-08  0.10566000000E+00  0.10566000000E+00 0.  1.
     999900   -1    0    0    0    0 -0.00000000000E+00 -0.00000000000E+00 -0.74505805969E-08  0.93827000000E+00  0.93827000000E+00 0.  1.
     999902    2    1    2    0    0 -0.13141397337E-01 -0.43842131175E-02  0.20021294642E-01  0.10195831339E+01  0.10192924002E+01 0.  0.
     999903    2    3    3    0    0  0.52687808706E-01 -0.10123339919E+00  0.60942709989E-01  0.13088306560E+00  0.19802945771E-01 0.  0.
         14    1    1    2    0    0  0.13141397337E-01  0.43842131175E-02 -0.20021294642E-01  0.24346866077E-01  0.00000000000E+00 0. -1.
     999901    1    3    3    0    0 -0.65829206043E-01  0.96849186072E-01 -0.40921415346E-01  0.88870006833E+00  0.88000000000E+00 0.  1.
        -11    1    4    4    0    0  0.30007797227E-01 -0.66267015386E-01  0.28766608580E-01  0.78227642895E-01  0.51100000000E-03 0.  1.
         11    1    4    4    0    0  0.22680011479E-01 -0.34966383803E-01  0.32176101408E-01  0.52655422701E-01  0.51100000000E-03 0. -1.
</event>
<event>
 8    1  0.1500547E+005  0.1043930E+01  0.7957747E-01            NaN
         13   -1    0    0    0    0  0.00000000000E+00  0.00000000000E+00  0.74505805969E-08  0.10566000000E+00  0.10566000000E+00 0. -1.
     999900   -1    0    0    0    0 -0.00000000000E+00 -0.00000000000E+00 -0.74505805969E-08  0.93827000000E+00  0.93827000000E+00 0.  1.
     999902    2    1    2    0    0 -0.23331564560E-01  0.44536100054E-03  0.20249234803E-02  0.10205064954E+01  0.10202376422E+01 0.  0.
     999903    2    3    3    0    0 -0.48633486203E-01 -0.10876287193E+00 -0.51306425212E-01  0.13179346068E+00  0.23293533859E-01 0.  0.
         14    1    1    2    0    0  0.23331564560E-01 -0.44536100054E-03 -0.20249234803E-02  0.23423504570E-01  0.00000000000E+00 0.  1.
     999901    1    3    3    0    0  0.25301921642E-01  0.10920823293E+00  0.53331348692E-01  0.88871303475E+00  0.88000000000E+00 0.  1.
        -11    1    4    4    0    0 -0.36449592599E-01 -0.53078696664E-01 -0.26831150579E-01  0.69757383857E-01  0.51100000000E-03 0. -1.
         11    1    4    4    0    0 -0.12183893604E-01 -0.55684175266E-01 -0.24475274633E-01  0.62036076824E-01  0.51100000000E-03 0.  1.
</event>
<event>
 8    1  0.1082757E+005  0.1043930E+01  0.7957747E-01            NaN
         13   -1    0    0    0    0  0.00000000000E+00  0.00000000000E+00  0.74505805969E-08  0.10566000000E+00  0.10566000000E+00 0. -1.
     999900   -1    0    0    0    0 -0.00000000000E+00 -0.00000000000E+00 -0.74505805969E-08  0.93827000000E+00  0.93827000000E+00 0.  1.
     999902    2    1    2    0    0  0.12952612773E-01 -0.20131950799E-01  0.74214684518E-04  0.10199910959E+01  0.10197101376E+01 0.  0.
     999903    2    3    3    0    0  0.61926645532E-01 -0.72527424921E-01 -0.89781260057E-01  0.13251278749E+00  0.20095457176E-01 0.  0.
         14    1    1    2    0    0 -0.12952612773E-01  0.20131950799E-01 -0.74214684518E-04  0.23938904078E-01  0.00000000000E+00 0. -1.
     999901    1    3    3    0    0 -0.48974032759E-01  0.52395474122E-01  0.89855474741E-01  0.88747830843E+00  0.88000000000E+00 0. -1.
        -11    1    4    4    0    0  0.29760401911E-01 -0.27500036976E-01 -0.26362702851E-01  0.48344459643E-01  0.51100000000E-03 0. -1.
         11    1    4    4    0    0  0.32166243621E-01 -0.45027387944E-01 -0.63418557206E-01  0.84168327849E-01  0.51100000000E-03 0.  1.
</event>
<event>
 8    1  0.1142017E+005  0.1043930E+01  0.7957747E-01            NaN
         13   -1    0    0    0    0  0.00000000000E+00  0.00000000000E+00  0.74505805969E-08  0.10566000000E+00  0.10566000000E+00 0. -1.
     999900   -1    0    0    0    0 -0.00000000000E+00 -0.00000000000E+00 -0.74505805969E-08  0.93827000000E+00  0.93827000000E+00 0.  1.
     999902    2    1    2    0    0  0.15803321146E-01 -0.48600592835E-02  0.17287497885E-01  0.10200088228E+01  0.10197282853E+01 0.  0.
     999903    2    3    3    0    0 -0.74093239564E-02 -0.12579632280E+00  0.31678227487E-01  0.13131793176E+00  0.19007266849E-01 0.  0.
         14    1    1    2    0    0 -0.15803321146E-01  0.48600592835E-02 -0.17287497885E-01  0.23921177199E-01  0.00000000000E+00 0.  1.
     999901    1    3    3    0    0  0.23212645102E-01  0.12093626352E+00 -0.14390729602E-01  0.88869089104E+00  0.88000000000E+00 0.  1.
        -11    1    4    4    0    0  0.35573566206E-02 -0.42279596743E-01  0.17493925809E-01  0.45896815228E-01  0.51100000000E-03 0. -1.
         11    1    4    4    0    0 -0.10966680577E-01 -0.83516726056E-01  0.14184301678E-01  0.85421116529E-01  0.51100000000E-03 0.  1.
</event>
<event>
 8    1  0.1082757E+005  0.1043930E+01  0.7957747E-01            NaN
         13   -1    0    0    0    0  0.00000000000E+00  0.00000000000E+00  0.74505805969E-08  0.10566000000E+00  0.10566000000E+00 0.  1.
     999900   -1    0    0    0    0 -0.00000000000E+00 -0.00000000000E+00 -0.74505805969E-08  0.93827000000E+00  0.93827000000E+00 0.  1.
     999902    2    1    2    0    0  0.68031660881E-02 -0.16443135149E-01 -0.14657571971E-01  0.10208756256E+01  0.10206152746E+01 0.  0.
     999903    2    3    3    0    0 -0.10766378910E+00  0.62173923496E-01  0.21889726384E-01  0.12923722875E+00  0.27676938558E-01 0.  0.
         14    1    1    2    0    0 -0.68031660881E-02  0.16443135149E-01  0.14657571971E-01  0.23054374389E-01  0.00000000000E+00 0.  1.
     999901    1    3    3    0    0  0.11446695519E+00 -0.78617058645E-01 -0.36547298355E-01  0.89163839686E+00  0.88000000000E+00 0.  1.
        -11    1    4    4    0    0 -0.81576652268E-01  0.59279144966E-01  0.13893380677E-01  0.10179417651E+00  0.51100000000E-03 0.  1.
         11    1    4    4    0    0 -0.26087136831E-01  0.28947785304E-02  0.79963457067E-02  0.27443052243E-01  0.51100000000E-03 0. -1.
</event>
<event>
 8    1  0.1082757E+005  0.1043930E+01  0.7957747E-01            NaN
         13   -1    0    0    0    0  0.00000000000E+00  0.00000000000E+00  0.74505805969E-08  0.10566000000E+00  0.10566000000E+00 0.  1.
     999900   -1    0    0    0    0 -0.00000000000E+00 -0.00000000000E+00 -0.74505805969E-08  0.93827000000E+00  0.93827000000E+00 0. -1.
     999902    2    1    2    0    0 -0.22873895637E-01  0.49105441669E-02  0.96867581754E-02  0.10186088265E+01  0.10182940536E+01 0.  0.
     999903    2    3    3    0    0 -0.31390932702E-01 -0.30715596601E-01  0.12104960582E+00  0.13083439246E+00  0.23147195278E-01 0.  0.
         14    1    1    2    0    0  0.22873895637E-01 -0.49105441669E-02 -0.96867581754E-02  0.25321173543E-01  0.00000000000E+00 0. -1.
     999901    1    3    3    0    0  0.85170370652E-02  0.35626140768E-01 -0.11136284765E+00  0.88777443400E+00  0.88000000000E+00 0. -1.
        -11    1    4    4    0    0 -0.41662763145E-02 -0.14622797124E-01  0.62089428278E-01  0.63926068852E-01  0.51100000000E-03 0. -1.
         11    1    4    4    0    0 -0.27224656388E-01 -0.16092799477E-01  0.58960177546E-01  0.66908323606E-01  0.51100000000E-03 0.  1.
</event>
<event>
 8    1  0.1082757E+005  0.1043930E+01  0.7957747E-01            NaN
         13   -1    0    0    0    0  0.00000000000E+00  0.00000000000E+00  0.74505805969E-08  0.10566000000E+00  0.10566000000E+00 0. -1.
     999900   -1    0    0    0    0 -0.00000000000E+00 -0.00000000000E+00 -0.74505805969E-08  0.93827000000E+00  0.93827000000E+00 0.  1.
     999902    2    1    2    0    0 -0.14764316777E-01  0.14419840387E-01 -0.88460657008E-02  0.10214762759E+01  0.10212294613E+01 0.  0.
     999903    2    3    3    0    0  0.18256045702E-01 -0.92947333919E-01 -0.87172163498E-01  0.13088488137E+00  0.23651130928E-01 0.  0.
         14    1    1    2    0    0  0.14764316777E-01 -0.14419840387E-01  0.88460657008E-02  0.22453724080E-01  0.00000000000E+00 0.  1.
     999901    1    3    3    0    0 -0.33020362480E-01  0.10736717431E+00  0.78326097797E-01  0.89059139455E+00  0.88000000000E+00 0. -1.
        -11    1    4    4    0    0  0.14960310352E-01 -0.27088781374E-01 -0.20580302802E-01  0.37167498525E-01  0.51100000000E-03 0.  1.
         11    1    4    4    0    0  0.32957353501E-02 -0.65858552545E-01 -0.66591860696E-01  0.93717382842E-01  0.51100000000E-03 0. -1.
</event>
<event>
 8    1  0.1082757E+005  0.1043930E+01  0.7957747E-01            NaN
         13   -1    0    0    0    0  0.00000000000E+00  0.00000000000E+00  0.74505805969E-08  0.10566000000E+00  0.10566000000E+00 0. -1.
     999900   -1    0    0    0    0 -0.00000000000E+00 -0.00000000000E+00 -0.74505805969E-08  0.93827000000E+00  0.93827000000E+00 0. -1.
     999902    2    1    2    0    0  0.65260247712E-02  0.29830996584E-02 -0.22212889012E-01  0.10205868999E+01  0.10203199106E+01 0.  0.
     999903    2    3    3    0    0 -0.10431484448E+00  0.26155464855E-01 -0.73848111943E-01  0.13182998544E+00  0.18971196656E-01 0.  0.
         14    1    1    2    0    0 -0.65260247712E-02 -0.29830996584E-02  0.22212889012E-01  0.23343100075E-01  0.00000000000E+00 0. -1.
     999901    1    3    3    0    0  0.11084086925E+00 -0.23172365197E-01  0.51635222932E-01  0.88875691449E+00  0.88000000000E+00 0. -1.
        -11    1    4    4    0    0 -0.96343401751E-01  0.29101703676E-01 -0.67028682166E-01  0.12092173325E+00  0.51100000000E-03 0. -1.
         11    1    4    4    0    0 -0.79714427250E-02 -0.29462388205E-02 -0.68194297768E-02  0.10908252187E-01  0.51100000000E-03 0.  1.
</event>
<event>
 8    1  0.1082757E+005  0.1043930E+01  0.7957747E-01            NaN
         13   -1    0    0    0    0  0.00000000000E+00  0.00000000000E+00  0.74505805969E-08  0.10566000000E+00  0.10566000000E+00 0.  1.
     999900   -1    0    0    0    0 -0.00000000000E+00 -0.00000000000E+00 -0.74505805969E-08  0.93827000000E+00  0.93827000000E+00 0.  1.
     999902    2    1    2    0    0 -0.23609990406E-02 -0.92747077818E-02 -0.19793987660E-01  0.10219437209E+01  0.10217071852E+01 0.  0.
     999903    2    3    3    0    0 -0.11276751244E+00 -0.67253691100E-01 -0.87376113363E-02  0.13308298706E+00  0.19878751588E-01 0.  0.
         14    1    1    2    0    0  0.23609990406E-02  0.92747077818E-02  0.19793987660E-01  0.21986279094E-01  0.00000000000E+00 0.  1.
     999901    1    3    3    0    0  0.11040651340E+00  0.57978983318E-01 -0.11056376324E-01  0.88886073384E+00  0.88000000000E+00 0. -1.
        -11    1    4    4    0    0 -0.94436546898E-01 -0.60148556804E-01 -0.10597468607E-02  0.11197095364E+00  0.51100000000E-03 0. -1.
         11    1    4    4    0    0 -0.18330965546E-01 -0.71051342958E-02 -0.76778644756E-02  0.21112033420E-01  0.51100000000E-03 0.  1.
</event>
<event>
 8    1  0.1082757E+005  0.1043930E+01  0.7957747E-01            NaN
         13   -1    0    0    0    0  0.00000000000E+00  0.00000000000E+00  0.74505805969E-08  0.10566000000E+00  0.10566000000E+00 0.  1.
     999900   -1    0    0    0    0 -0.00000000000E+00 -0.00000000000E+00 -0.74505805969E-08  0.93827000000E+00  0.93827000000E+00 0.  1.
     999902    2    1    2    0    0  0.41815387911E-02  0.20889135059E-01 -0.30028269161E-02  0.10224158605E+01  0.10221894803E+01 0.  0.
     999903    2    3    3    0    0  0.11195265285E+00 -0.57006371398E-01  0.34014531614E-01  0.13165629258E+00  0.19830989787E-01 0.  0.
         14    1    1    2    0    0 -0.41815387911E-02 -0.20889135059E-01  0.30028269161E-02  0.21514139528E-01  0.00000000000E+00 0.  1.
     999901    1    3    3    0    0 -0.10777111406E+00  0.77895506457E-01 -0.37017358530E-01  0.89075956789E+00  0.88000000000E+00 0.  1.
        -11    1    4    4    0    0  0.48684816703E-01 -0.27648556283E-01  0.25031268381E-01  0.61330902159E-01  0.51100000000E-03 0. -1.
         11    1    4    4    0    0  0.63267836147E-01 -0.29357815115E-01  0.89832632328E-02  0.70325390424E-01  0.51100000000E-03 0.  1.
</event>
<event>
 8    1  0.1082757E+005  0.1043930E+01  0.7957747E-01            NaN
         13   -1    0    0    0    0  0.00000000000E+00  0.00000000000E+00  0.74505805969E-08  0.10566000000E+00  0.10566000000E+00 0. -1.
     999900   -1    0    0    0    0 -0.00000000000E+00 -0.00000000000E+00 -0.74505805969E-08  0.93827000000E+00  0.93827000000E+00 0. -1.
     999902    2    1    2    0    0  0.25628504972E-01  0.14801877375E-01 -0.16710347054E-01  0.10099424796E+01  0.10093704279E+01 0.  0.
     999903    2    3    3    0    0 -0.49326750309E-03  0.10088135559E+00 -0.68948504450E-01  0.12381559897E+00  0.19977864389E-01 0.  0.
         14    1    1    2    0    0 -0.25628504972E-01 -0.14801877375E-01  0.16710347054E-01  0.33987520351E-01  0.00000000000E+00 0. -1.
     999901    1    3    3    0    0  0.26121772475E-01 -0.86079478212E-01  0.52238157396E-01  0.88612688067E+00  0.88000000000E+00 0.  1.
        -11    1    4    4    0    0 -0.94263482358E-02  0.34236419652E-01 -0.26236101606E-01  0.44154078182E-01  0.51100000000E-03 0. -1.
         11    1    4    4    0    0  0.89330807328E-02  0.66644935935E-01 -0.42712402844E-01  0.79661520792E-01  0.51100000000E-03 0.  1.
</event>
<event>
 8    1  0.1082757E+005  0.1043930E+01  0.7957747E-01            NaN
         13   -1    0    0    0    0  0.00000000000E+00  0.00000000000E+00  0.74505805969E-08  0.10566000000E+00  0.10566000000E+00 0. -1.
     999900   -1    0    0    0    0 -0.00000000000E+00 -0.00000000000E+00 -0.74505805969E-08  0.93827000000E+00  0.93827000000E+00 0.  1.
     999902    2    1    2    0    0  0.83098829972E-02  0.14407871330E-01 -0.19991968599E-01  0.10179238523E+01  0.10175915926E+01 0.  0.
     999903    2    3    3    0    0 -0.65859773516E-01 -0.22642359348E-01 -0.10754922237E+00  0.12970083397E+00  0.20131688851E-01 0.  0.
         14    1    1    2    0    0 -0.83098829972E-02 -0.14407871330E-01  0.19991968599E-01  0.26006147737E-01  0.00000000000E+00 0. -1.
     999901    1    3    3    0    0  0.74169656513E-01  0.37050230678E-01  0.87557253767E-01  0.88822301829E+00  0.88000000000E+00 0. -1.
        -11    1    4    4    0    0 -0.26171955552E-01 -0.11331845451E-01 -0.27413963544E-01  0.39562210466E-01  0.51100000000E-03 0. -1.
         11    1    4    4    0    0 -0.39687817964E-01 -0.11310513897E-01 -0.80135258823E-01  0.90138623503E-01  0.51100000000E-03 0.  1.
</event>
<event>
 8    1  0.1082757E+005  0.1043930E+01  0.7957747E-01            NaN
         13   -1    0    0    0    0  0.00000000000E+00  0.00000000000E+00  0.74505805969E-08  0.10566000000E+00  0.10566000000E+00 0.  1.
     999900   -1    0    0    0    0 -0.00000000000E+00 -0.00000000000E+00 -0.74505805969E-08  0.93827000000E+00  0.93827000000E+00 0. -1.
     999902    2    1    2    0    0 -0.90683420237E-02 -0.14028209128E-01  0.17411736040E-01  0.10198013028E+01  0.10195158180E+01 0.  0.
     999903    2    3    3    0    0  0.55695757281E-02  0.15695811075E-01  0.12947023524E+00  0.13207674342E+00  0.20108348571E-01 0.  0.
         14    1    1    2    0    0  0.90683420237E-02  0.14028209128E-01 -0.17411736040E-01  0.24128697237E-01  0.00000000000E+00 0.  1.
     999901    1    3    3    0    0 -0.14637917752E-01 -0.29724020203E-01 -0.11205849920E+00  0.88772455934E+00  0.88000000000E+00 0. -1.
        -11    1    4    4    0    0 -0.70884438842E-02  0.33676293504E-02  0.28233905062E-01  0.29308727031E-01  0.51100000000E-03 0.  1.
         11    1    4    4    0    0  0.12658019612E-01  0.12328181724E-01  0.10123633017E+00  0.10276801639E+00  0.51100000000E-03 0. -1.
</event>
<event>
 8    1  0.1082757E+005  0.1043930E+01  0.7957747E-01            NaN
         13   -1    0    0    0    0  0.00000000000E+00  0.00000000000E+00  0.74505805969E-08  0.10566000000E+00  0.10566000000E+00 0. -1.
     999900   -1    0    0    0    0 -0.00000000000E+00 -0.00000000000E+00 -0.74505805969E-08  0.93827000000E+00  0.93827000000E+00 0.  1.
     999902    2    1    2    0    0  0.14389061049E-01 -0.10481738664E-01 -0.16139992261E-01  0.10199006165E+01  0.10196175048E+01 0.  0.
     999903    2    3    3    0    0  0.58631721102E-01  0.99462862274E-01 -0.58413118390E-01  0.13095053606E+00  0.20134815699E-01 0.  0.
         14    1    1    2    0    0 -0.14389061049E-01  0.10481738664E-01  0.16139992261E-01  0.24029383543E-01  0.00000000000E+00 0. -1.
     999901    1    3    3    0    0 -0.44242660053E-01 -0.10994460094E+00  0.42273126129E-01  0.88895008040E+00  0.88000000000E+00 0.  1.
        -11    1    4    4    0    0  0.48481337479E-01  0.89313374678E-01 -0.44456269970E-01  0.11092312672E+00  0.51100000000E-03 0.  1.
         11    1    4    4    0    0  0.10150383623E-01  0.10149487597E-01 -0.13956848421E-01  0.20027409343E-01  0.51100000000E-03 0. -1.
</event>
<event>
 8    1  0.1082757E+005  0.1043930E+01  0.7957747E-01            NaN
         13   -1    0    0    0    0  0.00000000000E+00  0.00000000000E+00  0.74505805969E-08  0.10566000000E+00  0.10566000000E+00 0. -1.
     999900   -1    0    0    0    0 -0.00000000000E+00 -0.00000000000E+00 -0.74505805969E-08  0.93827000000E+00  0.93827000000E+00 0.  1.
     999902    2    1    2    0    0 -0.23398729969E-01 -0.55580488775E-02 -0.65669550652E-02  0.10189997499E+01  0.10186947398E+01 0.  0.
     999903    2    3    3    0    0  0.12461076534E-01  0.43359710570E-01  0.11818151336E+00  0.12813441030E+00  0.20401325303E-01 0.  0.
         14    1    1    2    0    0  0.23398729969E-01  0.55580488775E-02  0.65669550652E-02  0.24930250105E-01  0.00000000000E+00 0.  1.
     999901    1    3    3    0    0 -0.35859806503E-01 -0.48917759448E-01 -0.12474846843E+00  0.89086533959E+00  0.88000000000E+00 0.  1.
        -11    1    4    4    0    0 -0.40929099599E-02  0.16026661533E-01  0.28867632098E-01  0.33274721573E-01  0.51100000000E-03 0. -1.
         11    1    4    4    0    0  0.16553986494E-01  0.27333049037E-01  0.89313881263E-01  0.94859688729E-01  0.51100000000E-03 0.  1.
</event>
<event>
 7    1  0.1082757E+005  0.1043930E+01  0.7957747E-01            NaN
         13   -1    0    0    0    0  0.00000000000E+00  0.00000000000E+00  0.74505805969E-08  0.10566000000E+00  0.10566000000E+00 0. -1.
     999900   -1    0    0    0    0 -0.00000000000E+00 -0.00000000000E+00 -0.74505805969E-08  0.93827000000E+00  0.93827000000E+00 0. -1.
     999903    2    1    2    0    0 -0.85928313104E-01 -0.31679594223E-01  0.56660372079E-01  0.10944369518E+00  0.19500076088E-01 0.  0.
         14    1    1    2    0    0 -0.48819161105E-02  0.46420402611E-01 -0.13711350715E-01  0.48648617883E-01  0.00000000000E+00 0. -1.
     999901    1    1    2    0    0  0.90810229215E-01 -0.14740808388E-01 -0.42949021364E-01  0.88583768694E+00  0.88000000000E+00 0. -1.
        -11    1    3    3    0    0 -0.29333970211E-01 -0.17320463835E-02  0.21308312359E-01  0.36301337298E-01  0.51100000000E-03 0.  1.
         11    1    3    3    0    0 -0.56594342893E-01 -0.29947547839E-01  0.35352059720E-01  0.73142357882E-01  0.51100000000E-03 0. -1.
</event>
<event>
 8    1  0.1082757E+005  0.1043930E+01  0.7957747E-01            NaN
         13   -1    0    0    0    0  0.00000000000E+00  0.00000000000E+00  0.74505805969E-08  0.10566000000E+00  0.10566000000E+00 0. -1.
     999900   -1    0    0    0    0 -0.00000000000E+00 -0.00000000000E+00 -0.74505805969E-08  0.93827000000E+00  0.93827000000E+00 0. -1.
     999902    2    1    2    0    0 -0.20169517286E-02 -0.14517179398E-01 -0.18776483301E-01  0.10201104090E+01  0.10198322772E+01 0.  0.
     999903    2    3    3    0    0 -0.65001380148E-01 -0.11259870897E+00  0.11556611408E-01  0.13190597231E+00  0.19025813520E-01 0.  0.
         14    1    1    2    0    0  0.20169517286E-02  0.14517179398E-01  0.18776483301E-01  0.23819591035E-01  0.00000000000E+00 0. -1.
     999901    1    3    3    0    0  0.62984428419E-01  0.98081529571E-01 -0.30333094709E-01  0.88820443666E+00  0.88000000000E+00 0. -1.
        -11    1    4    4    0    0 -0.13776514640E-01 -0.39308118376E-01  0.79966488337E-02  0.42416129473E-01  0.51100000000E-03 0.  1.
         11    1    4    4    0    0 -0.51224865507E-01 -0.73290590593E-01  0.35599625747E-02  0.89489842833E-01  0.51100000000E-03 0. -1.
</event>
<event>
 8    1  0.1082757E+005  0.1043930E+01  0.7957747E-01            NaN
         13   -1    0    0    0    0  0.00000000000E+00  0.00000000000E+00  0.74505805969E-08  0.10566000000E+00  0.10566000000E+00 0.  1.
     999900   -1    0    0    0    0 -0.00000000000E+00 -0.00000000000E+00 -0.74505805969E-08  0.93827000000E+00  0.93827000000E+00 0.  1.
     999902    2    1    2    0    0  0.14812429552E-01 -0.13829472548E-02  0.19375189810E-01  0.10195021759E+01  0.10192094819E+01 0.  0.
     999903    2    3    3    0    0 -0.56438085938E-01  0.10911840385E+00 -0.31186053343E-01  0.12829870646E+00  0.19897350391E-01 0.  0.
         14    1    1    2    0    0 -0.14812429552E-01  0.13829472548E-02 -0.19375189810E-01  0.24427824146E-01  0.00000000000E+00 0. -1.
     999901    1    3    3    0    0  0.71250515490E-01 -0.11050135110E+00  0.50561243153E-01  0.89120346940E+00  0.88000000000E+00 0. -1.
        -11    1    4    4    0    0 -0.24815332171E-01  0.55325306758E-01 -0.25007055896E-01  0.65591952587E-01  0.51100000000E-03 0.  1.
         11    1    4    4    0    0 -0.31622753767E-01  0.53793097092E-01 -0.61789974471E-02  0.62706753871E-01  0.51100000000E-03 0. -1.
</event>
<event>
 8    1  0.1082757E+005  0.1043930E+01  0.7957747E-01            NaN
         13   -1    0    0    0    0  0.00000000000E+00  0.00000000000E+00  0.74505805969E-08  0.10566000000E+00  0.10566000000E+00 0.  1.
     999900   -1    0    0    0    0 -0.00000000000E+00 -0.00000000000E+00 -0.74505805969E-08  0.93827000000E+00  0.93827000000E+00 0. -1.
     999902    2    1    2    0    0  0.17028373707E-01  0.10495658652E-01  0.12378404938E-01  0.10204066229E+01  0.10201354453E+01 0.  0.
     999903    2    3    3    0    0 -0.99918853390E-01  0.57041293327E-02 -0.77475840811E-01  0.12812113150E+00  0.19904875600E-01 0.  0.
         14    1    1    2    0    0 -0.17028373707E-01 -0.10495658652E-01 -0.12378404938E-01  0.23523377105E-01  0.00000000000E+00 0. -1.
     999901    1    3    3    0    0  0.11694722710E+00  0.47915293191E-02  0.89854245749E-01  0.89228549140E+00  0.88000000000E+00 0.  1.
        -11    1    4    4    0    0 -0.84261090352E-01  0.11650304131E-01 -0.61483369998E-01  0.10495773836E+00  0.51100000000E-03 0.  1.
         11    1    4    4    0    0 -0.15657763038E-01 -0.59461747988E-02 -0.15992470813E-01  0.23163393140E-01  0.51100000000E-03 0. -1.
</event>
<event>
 8    1  0.1082757E+005  0.1043930E+01  0.7957747E-01            NaN
         13   -1    0    0    0    0  0.00000000000E+00  0.00000000000E+00  0.74505805969E-08  0.10566000000E+00  0.10566000000E+00 0. -1.
     999900   -1    0    0    0    0 -0.00000000000E+00 -0.00000000000E+00 -0.74505805969E-08  0.93827000000E+00  0.93827000000E+00 0.  1.
     999902    2    1    2    0    0  0.75189209676E-02  0.17337830939E-01 -0.14190422459E-01  0.10202973395E+01  0.10200236067E+01 0.  0.
     999903    2    3    3    0    0 -0.43725217943E-01  0.25444819930E-01 -0.12059772700E+00  0.13237042834E+00  0.20464237022E-01 0.  0.
         14    1    1    2    0    0 -0.75189209676E-02 -0.17337830939E-01  0.14190422459E-01  0.23632660530E-01  0.00000000000E+00 0. -1.
     999901    1    3    3    0    0  0.51244138911E-01 -0.81069889914E-02  0.10640730454E+00  0.88792691113E+00  0.88000000000E+00 0. -1.
        -11    1    4    4    0    0 -0.36547934302E-01  0.15412333784E-01 -0.10640829040E+00  0.11356177579E+00  0.51100000000E-03 0.  1.
         11    1    4    4    0    0 -0.71772836407E-02  0.10032486146E-01 -0.14189436598E-01  0.18808652549E-01  0.51100000000E-03 0. -1.
</event>
<event>
 8    1  0.1082757E+005  0.1043930E+01  0.7957747E-01            NaN
         13   -1    0    0    0    0  0.00000000000E+00  0.00000000000E+00  0.74505805969E-08  0.10566000000E+00  0.10566000000E+00 0. -1.
     999900   -1    0    0    0    0 -0.00000000000E+00 -0.00000000000E+00 -0.74505805969E-08  0.93827000000E+00  0.93827000000E+00 0. -1.
     999902    2    1    2    0    0 -0.23661953425E-01  0.97826624804E-03  0.30952877297E-02  0.10200464104E+01  0.10197667643E+01 0.  0.
     999903    2    3    3    0    0 -0.81504681704E-01 -0.51711568260E-02  0.10244036440E+00  0.13254821838E+00  0.20130770861E-01 0.  0.
         14    1    1    2    0    0  0.23661953425E-01 -0.97826624804E-03 -0.30952877297E-02  0.23883589573E-01  0.00000000000E+00 0. -1.
     999901    1    3    3    0    0  0.57842728278E-01  0.61494230740E-02 -0.99345076673E-01  0.88749819204E+00  0.88000000000E+00 0. -1.
        -11    1    4    4    0    0 -0.48766775568E-01 -0.11620904666E-01  0.69143231876E-01  0.85406624215E-01  0.51100000000E-03 0.  1.
         11    1    4    4    0    0 -0.32737906136E-01  0.64497478404E-02  0.33297132527E-01  0.47141594170E-01  0.51100000000E-03 0. -1.
</event>
<event>
 8    1  0.1082757E+005  0.1043930E+01  0.7957747E-01            NaN
         13   -1    0    0    0    0  0.00000000000E+00  0.00000000000E+00  0.74505805969E-08  0.10566000000E+00  0.10566000000E+00 0.  1.
     999900   -1    0    0    0    0 -0.00000000000E+00 -0.00000000000E+00 -0.74505805969E-08  0.93827000000E+00  0.93827000000E+00 0. -1.
     999902    2    1    2    0    0 -0.92300069463E-02 -0.16354254987E-01  0.14359152992E-01  0.10202902039E+01  0.10200163039E+01 0.  0.
     999903    2    3    3    0    0 -0.63932814555E-01 -0.11341030488E+00  0.20925890970E-01  0.13324150399E+00  0.19133829787E-01 0.  0.
         14    1    1    2    0    0  0.92300069463E-02  0.16354254987E-01 -0.14359152992E-01  0.23639796087E-01  0.00000000000E+00 0. -1.
     999901    1    3    3    0    0  0.54702807609E-01  0.97056049898E-01 -0.65667379780E-02  0.88704869992E+00  0.88000000000E+00 0. -1.
        -11    1    4    4    0    0 -0.49439887877E-01 -0.71388459192E-01  0.18053341457E-01  0.88694976621E-01  0.51100000000E-03 0.  1.
         11    1    4    4    0    0 -0.14492926678E-01 -0.42021845693E-01  0.28725495126E-02  0.44546527371E-01  0.51100000000E-03 0. -1.
</event>
<event>
 8    1  0.1082757E+005  0.1043930E+01  0.7957747E-01            NaN
         13   -1    0    0    0    0  0.00000000000E+00  0.00000000000E+00  0.74505805969E-08  0.10566000000E+00  0.10566000000E+00 0.  1.
     999900   -1    0    0    0    0 -0.00000000000E+00 -0.00000000000E+00 -0.74505805969E-08  0.93827000000E+00  0.93827000000E+00 0.  1.
     999902    2    1    2    0    0 -0.53966422778E-02 -0.22631064864E-01  0.47962657155E-02  0.10201751477E+01  0.10198985434E+01 0.  0.
     999903    2    3    3    0    0  0.13086387681E-01 -0.13038221590E+00  0.15793548544E-01  0.13334208943E+00  0.18971053496E-01 0.  0.
         14    1    1    2    0    0  0.53966422778E-02  0.22631064864E-01 -0.47962657155E-02  0.23754852337E-01  0.00000000000E+00 0. -1.
     999901    1    3    3    0    0 -0.18483029958E-01  0.10775115104E+00 -0.10997282828E-01  0.88683305823E+00  0.88000000000E+00 0.  1.
        -11    1    4    4    0    0  0.73840124605E-03 -0.18040222656E-01 -0.42574015179E-02  0.18557517575E-01  0.51100000000E-03 0. -1.
         11    1    4    4    0    0  0.12347986435E-01 -0.11234199325E+00  0.20050950062E-01  0.11478457185E+00  0.51100000000E-03 0.  1.
</event>
<event>
 8    1  0.1082757E+005  0.1043930E+01  0.7957747E-01            NaN
         13   -1    0    0    0    0  0.00000000000E+00  0.00000000000E+00  0.74505805969E-08  0.10566000000E+00  0.10566000000E+00 0.  1.
     999900   -1    0    0    0    0 -0.00000000000E+00 -0.00000000000E+00 -0.74505805969E-08  0.93827000000E+00  0.93827000000E+00 0.  1.
     999902    2    1    2    0    0  0.18171371228E-01 -0.10683558384E-01 -0.16035115368E-01  0.10174448706E+01  0.10171000947E+01 0.  0.
     999903    2    3    3    0    0 -0.44529212792E-01  0.11347447901E+00 -0.28098588040E-01  0.12643863674E+00  0.18381785316E-01 0.  0.
         14    1    1    2    0    0 -0.18171371228E-01  0.10683558384E-01  0.16035115368E-01  0.26485129354E-01  0.00000000000E+00 0.  1.
     999901    1    3    3    0    0  0.62700584020E-01 -0.12415803740E+00  0.12063472672E-01  0.89100623391E+00  0.88000000000E+00 0. -1.
        -11    1    4    4    0    0 -0.20333249822E-01  0.69356828394E-01 -0.10015536358E-01  0.72968368371E-01  0.51100000000E-03 0. -1.
         11    1    4    4    0    0 -0.24195962970E-01  0.44117650619E-01 -0.18083051682E-01  0.53470268368E-01  0.51100000000E-03 0.  1.
</event>
<event>
 8    1  0.1082757E+005  0.1043930E+01  0.7957747E-01            NaN
         13   -1    0    0    0    0  0.00000000000E+00  0.00000000000E+00  0.74505805969E-08  0.10566000000E+00  0.10566000000E+00 0.  1.
     999900   -1    0    0    0    0 -0.00000000000E+00 -0.00000000000E+00 -0.74505805969E-08  0.93827000000E+00  0.93827000000E+00 0.  1.
     999902    2    1    2    0    0 -0.19189461948E-01 -0.14923299482E-01 -0.21537094058E-02  0.10195255172E+01  0.10192333891E+01 0.  0.
     999903    2    3    3    0    0 -0.84532128295E-01  0.95774962537E-01  0.79293662455E-02  0.13012940876E+00  0.23500298149E-01 0.  0.
         14    1    1    2    0    0  0.19189461948E-01  0.14923299482E-01  0.21537094058E-02  0.24404482815E-01  0.00000000000E+00 0.  1.
     999901    1    3    3    0    0  0.65342666347E-01 -0.11069826202E+00 -0.10083075651E-01  0.88939610842E+00  0.88000000000E+00 0.  1.
        -11    1    4    4    0    0 -0.85398737102E-03  0.49043094189E-02  0.42154802399E-02  0.65431597840E-02  0.51100000000E-03 0. -1.
         11    1    4    4    0    0 -0.83678140924E-01  0.90870653118E-01  0.37138860056E-02  0.12358624898E+00  0.51100000000E-03 0.  1.
</event>
<event>
 8    1  0.1082757E+005  0.1043930E+01  0.7957747E-01            NaN
         13   -1    0    0    0    0  0.00000000000E+00  0.00000000000E+00  0.74505805969E-08  0.10566000000E+00  0.10566000000E+00 0.  1.
     999900   -1    0    0    0    0 -0.00000000000E+00 -0.00000000000E+00 -0.74505805969E-08  0.93827000000E+00  0.93827000000E+00 0.  1.
     999902    2    1    2    0    0 -0.79267700831E-03 -0.22656253192E-01  0.35766941949E-02  0.10209794687E+01  0.10207214844E+01 0.  0.
     999903    2    3    3    0    0 -0.12748798276E+00  0.21490157186E-01 -0.98023626308E-02  0.13071006835E+00  0.16553641595E-01 0.  0.
         14    1    1    2    0    0  0.79267700831E-03  0.22656253192E-01 -0.35766941949E-02  0.22950531299E-01  0.00000000000E+00 0. -1.
     999901    1    3    3    0    0  0.12669530575E+00 -0.44146410378E-01  0.13379056826E-01  0.89026940036E+00  0.88000000000E+00 0. -1.
        -11    1    4    4    0    0 -0.43321481513E-01  0.12406780608E-01  0.26430242439E-02  0.45143390034E-01  0.51100000000E-03 0. -1.
         11    1    4    4    0    0 -0.84166501245E-01  0.90833765782E-02 -0.12445386875E-01  0.85566678312E-01  0.51100000000E-03 0.  1.
</event>
<event>
 8    1  0.1082757E+005  0.1043930E+01  0.7957747E-01            NaN
         13   -1    0    0    0    0  0.00000000000E+00  0.00000000000E+00  0.74505805969E-08  0.10566000000E+00  0.10566000000E+00 0. -1.
     999900   -1    0    0    0    0 -0.00000000000E+00 -0.00000000000E+00 -0.74505805969E-08  0.93827000000E+00  0.93827000000E+00 0. -1.
     999902    2    1    2    0    0 -0.10578218297E-03 -0.24425604074E-01  0.19048259206E-02  0.10194300064E+01  0.10191355593E+01 0.  0.
     999903    2    3    3    0    0 -0.87497492850E-01 -0.47416806310E-01 -0.82503371520E-01  0.13078460454E+00  0.19840405633E-01 0.  0.
         14    1    1    2    0    0  0.10578218297E-03  0.24425604074E-01 -0.19048259206E-02  0.24499993592E-01  0.00000000000E+00 0. -1.
     999901    1    3    3    0    0  0.87391710667E-01  0.22991202236E-01  0.84408197441E-01  0.88864540187E+00  0.88000000000E+00 0. -1.
        -11    1    4    4    0    0 -0.74751312009E-01 -0.41530307789E-01 -0.60780404643E-01  0.10491445955E+00  0.51100000000E-03 0. -1.
         11    1    4    4    0    0 -0.12746180841E-01 -0.58864985206E-02 -0.21722966877E-01  0.25870144990E-01  0.51100000000E-03 0.  1.
</event>
<event>
 8    1  0.1082757E+005  0.1043930E+01  0.7957747E-01            NaN
         13   -1    0    0    0    0  0.00000000000E+00  0.00000000000E+00  0.74505805969E-08  0.10566000000E+00  0.10566000000E+00 0.  1.
     999900   -1    0    0    0    0 -0.00000000000E+00 -0.00000000000E+00 -0.74505805969E-08  0.93827000000E+00  0.93827000000E+00 0. -1.
     999902    2    1    2    0    0 -0.11814481411E-01 -0.20391827662E-01  0.28069481820E-02  0.10201963200E+01  0.10199202145E+01 0.  0.
     999903    2    3    3    0    0 -0.23545514900E-01 -0.11046559184E+00 -0.66978402311E-01  0.13277257949E+00  0.19631944275E-01 0.  0.
         14    1    1    2    0    0  0.11814481411E-01  0.20391827662E-01 -0.28069481820E-02  0.23733679961E-01  0.00000000000E+00 0. -1.
     999901    1    3    3    0    0  0.11731033489E-01  0.90073764182E-01  0.69785350493E-01  0.88742374055E+00  0.88000000000E+00 0.  1.
        -11    1    4    4    0    0 -0.16001008392E-01 -0.44941478595E-01 -0.36727081465E-01  0.60207212208E-01  0.51100000000E-03 0.  1.
         11    1    4    4    0    0 -0.75445065079E-02 -0.65524113248E-01 -0.30251320846E-01  0.72565367286E-01  0.51100000000E-03 0. -1.
</event>
<event>
 8    1  0.1082757E+005  0.1043930E+01  0.7957747E-01            NaN
         13   -1    0    0    0    0  0.00000000000E+00  0.00000000000E+00  0.74505805969E-08  0.10566000000E+00  0.10566000000E+00 0.  1.
     999900   -1    0    0    0    0 -0.00000000000E+00 -0.00000000000E+00 -0.74505805969E-08  0.93827000000E+00  0.93827000000E+00 0.  1.
     999902    2    1    2    0    0  0.84709779787E-02 -0.53906129641E-03  0.22047662946E-01  0.10203048546E+01  0.10200312979E+01 0.  0.
     999903    2    3    3    0    0  0.12797050324E+00 -0.22628799887E-01  0.19223762681E-02  0.13172558391E+00  0.21434123320E-01 0.  0.
         14    1    1    2    0    0 -0.84709779787E-02  0.53906129641E-03 -0.22047662946E-01  0.23625145426E-01  0.00000000000E+00 0. -1.
     999901    1    3    3    0    0 -0.11949952526E+00  0.22089738591E-01  0.20125286678E-01  0.88857927066E+00  0.88000000000E+00 0. -1.
        -11    1    4    4    0    0  0.56437976258E-01 -0.77039152907E-02  0.11231341297E-01  0.58060310223E-01  0.51100000000E-03 0.  1.
         11    1    4    4    0    0  0.71532526982E-01 -0.14924884597E-01 -0.93089650286E-02  0.73665273688E-01  0.51100000000E-03 0. -1.
</event>
<event>
 8    1  0.1082757E+005  0.1043930E+01  0.7957747E-01            NaN
         13   -1    0    0    0    0  0.00000000000E+00  0.00000000000E+00  0.74505805969E-08  0.10566000000E+00  0.10566000000E+00 0. -1.
     999900   -1    0    0    0    0 -0.00000000000E+00 -0.00000000000E+00 -0.74505805969E-08  0.93827000000E+00  0.93827000000E+00 0.  1.
     999902    2    1    2    0    0 -0.74306381899E-02  0.69755242820E-03  0.22631805061E-01  0.10200993566E+01  0.10198209636E+01 0.  0.
     999903    2    3    3    0    0  0.16457816231E-01  0.11429797262E+00  0.60103394381E-01  0.13168513244E+00  0.19841114642E-01 0.  0.
         14    1    1    2    0    0  0.74306381899E-02 -0.69755242820E-03 -0.22631805061E-01  0.23830643374E-01  0.00000000000E+00 0.  1.
     999901    1    3    3    0    0 -0.23888454421E-01 -0.11360042019E+00 -0.37471589320E-01  0.88841422418E+00  0.88000000000E+00 0. -1.
        -11    1    4    4    0    0  0.20061665235E-01  0.75570314354E-01  0.37815405397E-01  0.86853951147E-01  0.51100000000E-03 0. -1.
         11    1    4    4    0    0 -0.36038490036E-02  0.38727658268E-01  0.22287988983E-01  0.44831181297E-01  0.51100000000E-03 0.  1.
</event>
<event>
 8    1  0.1082757E+005  0.1043930E+01  0.7957747E-01            NaN
         13   -1    0    0    0    0  0.00000000000E+00  0.00000000000E+00  0.74505805969E-08  0.10566000000E+00  0.10566000000E+00 0.  1.
     999900   -1    0    0    0    0 -0.00000000000E+00 -0.00000000000E+00 -0.74505805969E-08  0.93827000000E+00  0.93827000000E+00 0. -1.
     999902    2    1    2    0    0  0.22163200853E-01  0.89164090342E-02  0.25518897574E-02  0.10199045559E+01  0.10196215382E+01 0.  0.
     999903    2    3    3    0    0 -0.12700019323E-01  0.24622563121E-01 -0.12552009733E+00  0.12981211056E+00  0.18119826428E-01 0.  0.
         14    1    1    2    0    0 -0.22163200853E-01 -0.89164090342E-02 -0.25518897574E-02  0.24025444085E-01  0.00000000000E+00 0. -1.
     999901    1    3    3    0    0  0.34863220176E-01 -0.15706154087E-01  0.12807198709E+00  0.89009244535E+00  0.88000000000E+00 0.  1.
        -11    1    4    4    0    0 -0.52185919774E-02  0.59701562601E-02 -0.75294524024E-01  0.75712633933E-01  0.51100000000E-03 0.  1.
         11    1    4    4    0    0 -0.74814273455E-02  0.18652406861E-01 -0.50225573305E-01  0.54099476630E-01  0.51100000000E-03 0. -1.
</event>
<event>
 8    1  0.1082757E+005  0.1043930E+01  0.7957747E-01            NaN
         13   -1    0    0    0    0  0.00000000000E+00  0.00000000000E+00  0.74505805969E-08  0.10566000000E+00  0.10566000000E+00 0. -1.
     999900   -1    0    0    0    0 -0.00000000000E+00 -0.00000000000E+00 -0.74505805969E-08  0.93827000000E+00  0.93827000000E+00 0.  1.
     999902    2    1    2    0    0 -0.16585526092E-01 -0.99078340729E-04 -0.16236281696E-01  0.10207199518E+01  0.10204560322E+01 0.  0.
     999903    2    3    3    0    0 -0.77282035338E-01 -0.15723757632E-02 -0.10748886972E+00  0.13392049781E+00  0.20145899582E-01 0.  0.
         14    1    1    2    0    0  0.16585526092E-01  0.99078340729E-04  0.16236281696E-01  0.23210048160E-01  0.00000000000E+00 0. -1.
     999901    1    3    3    0    0  0.60696509246E-01  0.14732974225E-02  0.91252588022E-01  0.88679945403E+00  0.88000000000E+00 0. -1.
        -11    1    4    4    0    0 -0.25350950277E-01 -0.12307110198E-02 -0.20595779559E-01  0.32689946256E-01  0.51100000000E-03 0.  1.
         11    1    4    4    0    0 -0.51931085062E-01 -0.34166474339E-03 -0.86893090159E-01  0.10123055156E+00  0.51100000000E-03 0. -1.
</event>
<event>
 8    1  0.1082757E+005  0.1043930E+01  0.7957747E-01            NaN
         13   -1    0    0    0    0  0.00000000000E+00  0.00000000000E+00  0.74505805969E-08  0.10566000000E+00  0.10566000000E+00 0. -1.
     999900   -1    0    0    0    0 -0.00000000000E+00 -0.00000000000E+00 -0.74505805969E-08  0.93827000000E+00  0.93827000000E+00 0. -1.
     999902    2    1    2    0    0 -0.42944480394E-02  0.29223830923E-03  0.23128943442E-01  0.10204039355E+01  0.10201326952E+01 0.  0.
     999903    2    3    3    0    0  0.55063693167E-02 -0.12765264318E+00 -0.15399375288E-01  0.13026328363E+00  0.20146088685E-01 0.  0.
         14    1    1    2    0    0  0.42944480394E-02 -0.29223830923E-03 -0.23128943442E-01  0.23526064523E-01  0.00000000000E+00 0.  1.
     999901    1    3    3    0    0 -0.98008173561E-02  0.12794488149E+00  0.38528318731E-01  0.89014065184E+00  0.88000000000E+00 0.  1.
        -11    1    4    4    0    0 -0.71505005750E-02 -0.32844145179E-01 -0.19810613232E-02  0.33675707208E-01  0.51100000000E-03 0. -1.
         11    1    4    4    0    0  0.12656869892E-01 -0.94808498003E-01 -0.13418313965E-01  0.96587576425E-01  0.51100000000E-03 0.  1.
</event>
<event>
 8    1  0.1082757E+005  0.1043930E+01  0.7957747E-01            NaN
         13   -1    0    0    0    0  0.00000000000E+00  0.00000000000E+00  0.74505805969E-08  0.10566000000E+00  0.10566000000E+00 0. -1.
     999900   -1    0    0    0    0 -0.00000000000E+00 -0.00000000000E+00 -0.74505805969E-08  0.93827000000E+00  0.93827000000E+00 0. -1.
     999902    2    1    2    0    0 -0.40164601598E-02  0.20367761155E-01 -0.16067921865E-01  0.10176782237E+01  0.10173395752E+01 0.  0.
     999903    2    3    3    0    0 -0.11911242864E+00  0.46492654270E-01  0.66489575963E-02  0.12950839273E+00  0.19464778295E-01 0.  0.
         14    1    1    2    0    0  0.40164601598E-02 -0.20367761155E-01  0.16067921865E-01  0.26251776316E-01  0.00000000000E+00 0.  1.
     999901    1    3    3    0    0  0.11509596848E+00 -0.26124893116E-01 -0.22716879462E-01  0.88816983095E+00  0.88000000000E+00 0. -1.
        -11    1    4    4    0    0 -0.32852532915E-01  0.76480104598E-02  0.88581738989E-02  0.34878494073E-01  0.51100000000E-03 0.  1.
         11    1    4    4    0    0 -0.86259895722E-01  0.38844643810E-01 -0.22092163025E-02  0.94629898660E-01  0.51100000000E-03 0. -1.
</event>
<event>
 8    1  0.1082757E+005  0.1043930E+01  0.7957747E-01            NaN
         13   -1    0    0    0    0  0.00000000000E+00  0.00000000000E+00  0.74505805969E-08  0.10566000000E+00  0.10566000000E+00 0.  1.
     999900   -1    0    0    0    0 -0.00000000000E+00 -0.00000000000E+00 -0.74505805969E-08  0.93827000000E+00  0.93827000000E+00 0. -1.
     999902    2    1    2    0    0 -0.21133661258E-01 -0.14330201007E-01 -0.29776067946E-02  0.10182229496E+01  0.10178983852E+01 0.  0.
     999903    2    3    3    0    0 -0.63918738430E-01  0.10432347233E+00 -0.34424941348E-01  0.12867351763E+00  0.20070016215E-01 0.  0.
         14    1    1    2    0    0  0.21133661258E-01  0.14330201007E-01  0.29776067946E-02  0.25707050420E-01  0.00000000000E+00 0.  1.
     999901    1    3    3    0    0  0.42785077172E-01 -0.11865367334E+00  0.31447334553E-01  0.88954943195E+00  0.88000000000E+00 0.  1.
        -11    1    4    4    0    0 -0.23314325735E-01  0.35427126567E-01 -0.22572048700E-02  0.42473464376E-01  0.51100000000E-03 0. -1.
         11    1    4    4    0    0 -0.40604412695E-01  0.68896345767E-01 -0.32167736478E-01  0.86200053257E-01  0.51100000000E-03 0.  1.
</event>
<event>
 8    1  0.1082757E+005  0.1043930E+01  0.7957747E-01            NaN
         13   -1    0    0    0    0  0.00000000000E+00  0.00000000000E+00  0.74505805969E-08  0.10566000000E+00  0.10566000000E+00 0.  1.
     999900   -1    0    0    0    0 -0.00000000000E+00 -0.00000000000E+00 -0.74505805969E-08  0.93827000000E+00  0.93827000000E+00 0. -1.
     999902    2    1    2    0    0  0.13501991688E-01 -0.11024896718E-01  0.15756480835E-01  0.10204327913E+01  0.10201622238E+01 0.  0.
     999903    2    3    3    0    0 -0.94704591789E-01 -0.86229383079E-01  0.15855190652E-01  0.13062135668E+00  0.20151564185E-01 0.  0.
         14    1    1    2    0    0 -0.13501991688E-01  0.11024896718E-01 -0.15756480835E-01  0.23497208675E-01  0.00000000000E+00 0. -1.
     999901    1    3    3    0    0  0.10820658348E+00  0.75204486361E-01 -0.98709817174E-04  0.88981143464E+00  0.88000000000E+00 0.  1.
        -11    1    4    4    0    0 -0.80776555369E-01 -0.80856704870E-01  0.10586863293E-01  0.11478240900E+00  0.51100000000E-03 0. -1.
         11    1    4    4    0    0 -0.13928036420E-01 -0.53726782085E-02  0.52683273593E-02  0.15838947686E-01  0.51100000000E-03 0.  1.
</event>
<event>
 8    1  0.1082757E+005  0.1043930E+01  0.7957747E-01            NaN
         13   -1    0    0    0    0  0.00000000000E+00  0.00000000000E+00  0.74505805969E-08  0.10566000000E+00  0.10566000000E+00 0. -1.
     999900   -1    0    0    0    0 -0.00000000000E+00 -0.00000000000E+00 -0.74505805969E-08  0.93827000000E+00  0.93827000000E+00 0. -1.
     999902    2    1    2    0    0  0.19692703181E-02 -0.22951933860E-01  0.47798024555E-02  0.10204030834E+01  0.10201318232E+01 0.  0.
     999903    2    3    3    0    0 -0.71604861480E-01  0.67489660130E-01  0.81648271228E-01  0.12939152551E+00  0.19839764783E-01 0.  0.
         14    1    1    2    0    0 -0.19692703181E-02  0.22951933860E-01 -0.47798024555E-02  0.23526916607E-01  0.00000000000E+00 0.  1.
     999901    1    3    3    0    0  0.73574131798E-01 -0.90441593991E-01 -0.76868468773E-01  0.89101155789E+00  0.88000000000E+00 0.  1.
        -11    1    4    4    0    0 -0.58480097202E-01  0.55659362146E-01  0.56054553278E-01  0.98286623848E-01  0.51100000000E-03 0. -1.
         11    1    4    4    0    0 -0.13124764278E-01  0.11830297984E-01  0.25593717950E-01  0.31104901660E-01  0.51100000000E-03 0.  1.
</event>
<event>
 8    1  0.1082757E+005  0.1043930E+01  0.7957747E-01            NaN
         13   -1    0    0    0    0  0.00000000000E+00  0.00000000000E+00  0.74505805969E-08  0.10566000000E+00  0.10566000000E+00 0.  1.
     999900   -1    0    0    0    0 -0.00000000000E+00 -0.00000000000E+00 -0.74505805969E-08  0.93827000000E+00  0.93827000000E+00 0.  1.
     999902    2    1    2    0    0 -0.13339091411E-01 -0.85225849390E-02  0.15676729969E-01  0.10216516321E+01  0.10214086996E+01 0.  0.
     999903    2    3    3    0    0  0.99763749715E-01 -0.82058809785E-01  0.17276513634E-01  0.13136943620E+00  0.16522615504E-01 0.  0.
         14    1    1    2    0    0  0.13339091411E-01  0.85225849390E-02 -0.15676729969E-01  0.22278367899E-01  0.00000000000E+00 0.  1.
     999901    1    3    3    0    0 -0.11310284113E+00  0.73536224846E-01 -0.15997836646E-02  0.89028219590E+00  0.88000000000E+00 0. -1.
        -11    1    4    4    0    0  0.66415331636E-01 -0.44686522196E-01  0.12960456794E-01  0.81093255599E-01  0.51100000000E-03 0. -1.
         11    1    4    4    0    0  0.33348418079E-01 -0.37372287588E-01  0.43160568398E-02  0.50276180599E-01  0.51100000000E-03 0.  1.
</event>
<event>
 8    1  0.1082757E+005  0.1043930E+01  0.7957747E-01            NaN
         13   -1    0    0    0    0  0.00000000000E+00  0.00000000000E+00  0.74505805969E-08  0.10566000000E+00  0.10566000000E+00 0. -1.
     999900   -1    0    0    0    0 -0.00000000000E+00 -0.00000000000E+00 -0.74505805969E-08  0.93827000000E+00  0.93827000000E+00 0. -1.
     999902    2    1    2    0    0 -0.58802490531E-02  0.15438020623E-01  0.16513475042E-01  0.10205718180E+01  0.10203044795E+01 0.  0.
     999903    2    3    3    0    0  0.36856592528E-01 -0.12062461979E+00  0.17965437803E-01  0.12908901503E+00  0.20796863581E-01 0.  0.
         14    1    1    2    0    0  0.58802490531E-02 -0.15438020623E-01 -0.16513475042E-01  0.23358182028E-01  0.00000000000E+00 0.  1.
     999901    1    3    3    0    0 -0.42736841581E-01  0.13606264041E+00 -0.14519627612E-02  0.89148280294E+00  0.88000000000E+00 0.  1.
        -11    1    4    4    0    0  0.55334726351E-02 -0.48779116124E-01  0.11640855150E-01  0.50455843258E-01  0.51100000000E-03 0. -1.
         11    1    4    4    0    0  0.31323119893E-01 -0.71845503662E-01  0.63245826533E-02  0.78633171773E-01  0.51100000000E-03 0.  1.
</event>
<event>
 8    1  0.1091964E+005  0.1043930E+01  0.7957747E-01            NaN
         13   -1    0    0    0    0  0.00000000000E+00  0.00000000000E+00  0.74505805969E-08  0.10566000000E+00  0.10566000000E+00 0. -1.
     999900   -1    0    0    0    0 -0.00000000000E+00 -0.00000000000E+00 -0.74505805969E-08  0.93827000000E+00  0.93827000000E+00 0.  1.
     999902    2    1    2    0    0  0.14253613275E-01  0.11250004105E-01 -0.14873347535E-01  0.10204577920E+01  0.10201878065E+01 0.  0.
     999903    2    3    3    0    0 -0.28673699513E-01  0.10221019447E-02  0.12370029128E+00  0.12852168575E+00  0.19820088584E-01 0.  0.
         14    1    1    2    0    0 -0.14253613275E-01 -0.11250004105E-01  0.14873347535E-01  0.23472208048E-01  0.00000000000E+00 0. -1.
     999901    1    3    3    0    0  0.42927312788E-01  0.10227902160E-01 -0.13857363881E+00  0.89193610620E+00  0.88000000000E+00 0.  1.
        -11    1    4    4    0    0 -0.23940961390E-01  0.21131832625E-02  0.60031805362E-01  0.64666173165E-01  0.51100000000E-03 0.  1.
         11    1    4    4    0    0 -0.47327381227E-02 -0.10910813179E-02  0.63668485913E-01  0.63855512590E-01  0.51100000000E-03 0. -1.
</event>
<event>
 8    1  0.1082757E+005  0.1043930E+01  0.7957747E-01            NaN
         13   -1    0    0    0    0  0.00000000000E+00  0.00000000000E+00  0.74505805969E-08  0.10566000000E+00  0.10566000000E+00 0.  1.
     999900   -1    0    0    0    0 -0.00000000000E+00 -0.00000000000E+00 -0.74505805969E-08  0.93827000000E+00  0.93827000000E+00 0. -1.
     999902    2    1    2    0    0 -0.15779683321E-01 -0.10746619038E-01  0.13428907846E-01  0.10205885392E+01  0.10203215878E+01 0.  0.
     999903    2    3    3    0    0  0.43361439381E-01 -0.11856745936E+00 -0.28150263136E-01  0.13106516488E+00  0.21146708636E-01 0.  0.
         14    1    1    2    0    0  0.15779683321E-01  0.10746619038E-01 -0.13428907846E-01  0.23341460802E-01  0.00000000000E+00 0. -1.
     999901    1    3    3    0    0 -0.59141122701E-01  0.10782084032E+00  0.41579170982E-01  0.88952337432E+00  0.88000000000E+00 0.  1.
        -11    1    4    4    0    0  0.31630544892E-01 -0.94942243370E-01 -0.30393919850E-01  0.10458763039E+00  0.51100000000E-03 0.  1.
         11    1    4    4    0    0  0.11730894488E-01 -0.23625215988E-01  0.22436567141E-02  0.26477534485E-01  0.51100000000E-03 0. -1.
</event>
<event>
 8    1  0.1082757E+005  0.1043930E+01  0.7957747E-01            NaN
         13   -1    0    0    0    0  0.00000000000E+00  0.00000000000E+00  0.74505805969E-08  0.10566000000E+00  0.10566000000E+00 0. -1.
     999900   -1    0    0    0    0 -0.00000000000E+00 -0.00000000000E+00 -0.74505805969E-08  0.93827000000E+00  0.93827000000E+00 0.  1.
     999902    2    1    2    0    0 -0.22132852795E-01 -0.52078264607E-02 -0.65946362787E-02  0.10202556709E+01  0.10199809607E+01 0.  0.
     999903    2    3    3    0    0 -0.46734548367E-01 -0.12155278573E+00  0.94210158663E-02  0.13211272405E+00  0.20144939466E-01 0.  0.
         14    1    1    2    0    0  0.22132852795E-01  0.52078264607E-02  0.65946362787E-02  0.23674329070E-01  0.00000000000E+00 0. -1.
     999901    1    3    3    0    0  0.24601695572E-01  0.11634495927E+00 -0.16015652145E-01  0.88814294688E+00  0.88000000000E+00 0. -1.
        -11    1    4    4    0    0 -0.17384655501E-01 -0.72229275150E-01  0.76675712096E-02  0.74688333794E-01  0.51100000000E-03 0. -1.
         11    1    4    4    0    0 -0.29349892865E-01 -0.49323510583E-01  0.17534446568E-02  0.57424390259E-01  0.51100000000E-03 0.  1.
</event>
<event>
 8    1  0.1082757E+005  0.1043930E+01  0.7957747E-01            NaN
         13   -1    0    0    0    0  0.00000000000E+00  0.00000000000E+00  0.74505805969E-08  0.10566000000E+00  0.10566000000E+00 0. -1.
     999900   -1    0    0    0    0 -0.00000000000E+00 -0.00000000000E+00 -0.74505805969E-08  0.93827000000E+00  0.93827000000E+00 0. -1.
     999902    2    1    2    0    0  0.79511865035E-02  0.41002520800E-02  0.21813108315E-01  0.10203536320E+01  0.10200812170E+01 0.  0.
     999903    2    3    3    0    0 -0.10511013038E+00 -0.58853930794E-01  0.45776096413E-01  0.13056696357E+00  0.20984668048E-01 0.  0.
         14    1    1    2    0    0 -0.79511865035E-02 -0.41002520800E-02 -0.21813108315E-01  0.23576368004E-01  0.00000000000E+00 0.  1.
     999901    1    3    3    0    0  0.11306131689E+00  0.62954182874E-01 -0.23962988098E-01  0.88978666843E+00  0.88000000000E+00 0.  1.
        -11    1    4    4    0    0 -0.93225915143E-01 -0.49107378199E-01  0.32549090616E-01  0.11028286480E+00  0.51100000000E-03 0.  1.
         11    1    4    4    0    0 -0.11884215239E-01 -0.97465525941E-02  0.13227005797E-01  0.20284098764E-01  0.51100000000E-03 0. -1.
</event>
<event>
 8    1  0.1082757E+005  0.1043930E+01  0.7957747E-01            NaN
         13   -1    0    0    0    0  0.00000000000E+00  0.00000000000E+00  0.74505805969E-08  0.10566000000E+00  0.10566000000E+00 0.  1.
     999900   -1    0    0    0    0 -0.00000000000E+00 -0.00000000000E+00 -0.74505805969E-08  0.93827000000E+00  0.93827000000E+00 0.  1.
     999902    2    1    2    0    0 -0.16002706482E-01  0.11858763616E-01  0.12010941460E-01  0.10206710318E+01  0.10204059856E+01 0.  0.
     999903    2    3    3    0    0 -0.21100391768E-01 -0.56420704260E-01 -0.11263026402E+00  0.12925446121E+00  0.19814564521E-01 0.  0.
         14    1    1    2    0    0  0.16002706482E-01 -0.11858763616E-01 -0.12010941460E-01  0.23258968249E-01  0.00000000000E+00 0. -1.
     999901    1    3    3    0    0  0.50976852860E-02  0.68279467876E-01  0.12464120548E+00  0.89141657054E+00  0.88000000000E+00 0. -1.
        -11    1    4    4    0    0 -0.22541834482E-01 -0.55635259155E-01 -0.10096528868E+00  0.11746347093E+00  0.51100000000E-03 0. -1.
         11    1    4    4    0    0  0.14414427148E-02 -0.78544510522E-03 -0.11664975346E-01  0.11790990286E-01  0.51100000000E-03 0.  1.
</event>
<event>
 8    1  0.1082757E+005  0.1043930E+01  0.7957747E-01            NaN
         13   -1    0    0    0    0  0.00000000000E+00  0.00000000000E+00  0.74505805969E-08  0.10566000000E+00  0.10566000000E+00 0. -1.
     999900   -1    0    0    0    0 -0.00000000000E+00 -0.00000000000E+00 -0.74505805969E-08  0.93827000000E+00  0.93827000000E+00 0. -1.
     999902    2    1    2    0    0 -0.26789756303E-01 -0.25838758994E-02  0.13492192307E-01  0.10138234108E+01  0.10133762883E+01 0.  0.
     999903    2    3    3    0    0 -0.31161142875E-01  0.64133053227E-01  0.10274915828E+00  0.12678504435E+00  0.20808474293E-01 0.  0.
         14    1    1    2    0    0  0.26789756303E-01  0.25838758994E-02 -0.13492192307E-01  0.30106589157E-01  0.00000000000E+00 0.  1.
     999901    1    3    3    0    0  0.43713865717E-02 -0.66716929126E-01 -0.89256965974E-01  0.88703836649E+00  0.88000000000E+00 0.  1.
        -11    1    4    4    0    0 -0.21475043700E-03  0.21947554664E-01  0.30619002067E-01  0.37676593292E-01  0.51100000000E-03 0.  1.
         11    1    4    4    0    0 -0.30946392438E-01  0.42185498563E-01  0.72130156214E-01  0.89108451060E-01  0.51100000000E-03 0. -1.
</event>
<event>
 8    1  0.1082757E+005  0.1043930E+01  0.7957747E-01            NaN
         13   -1    0    0    0    0  0.00000000000E+00  0.00000000000E+00  0.74505805969E-08  0.10566000000E+00  0.10566000000E+00 0. -1.
     999900   -1    0    0    0    0 -0.00000000000E+00 -0.00000000000E+00 -0.74505805969E-08  0.93827000000E+00  0.93827000000E+00 0. -1.
     999902    2    1    2    0    0 -0.19362223894E-01  0.13278204752E-01  0.82559858196E-04  0.10204520688E+01  0.10201819502E+01 0.  0.
     999903    2    3    3    0    0  0.54713480821E-01 -0.21369676406E-01 -0.11327441374E+00  0.12942036954E+00  0.21640498847E-01 0.  0.
         14    1    1    2    0    0  0.19362223894E-01 -0.13278204752E-01 -0.82559858196E-04  0.23477931163E-01  0.00000000000E+00 0.  1.
     999901    1    3    3    0    0 -0.74075704714E-01  0.34647881158E-01  0.11335697359E+00  0.89103169930E+00  0.88000000000E+00 0.  1.
        -11    1    4    4    0    0  0.15797415031E-01 -0.16938183422E-01 -0.47914553967E-01  0.53221480458E-01  0.51100000000E-03 0.  1.
         11    1    4    4    0    0  0.38916065790E-01 -0.44314929835E-02 -0.65359859769E-01  0.76198889077E-01  0.51100000000E-03 0. -1.
</event>
<event>
 8    1  0.1082757E+005  0.1043930E+01  0.7957747E-01            NaN
         13   -1    0    0    0    0  0.00000000000E+00  0.00000000000E+00  0.74505805969E-08  0.10566000000E+00  0.10566000000E+00 0.  1.
     999900   -1    0    0    0    0 -0.00000000000E+00 -0.00000000000E+00 -0.74505805969E-08  0.93827000000E+00  0.93827000000E+00 0. -1.
     999902    2    1    2    0    0 -0.13039061254E-01  0.53692447223E-02  0.19628745177E-01  0.10197611452E+01  0.10194746979E+01 0.  0.
     999903    2    3    3    0    0 -0.10231126016E+00 -0.48138767620E-01  0.65967870482E-01  0.13241682224E+00  0.19937902870E-01 0.  0.
         14    1    1    2    0    0  0.13039061254E-01 -0.53692447223E-02 -0.19628745177E-01  0.24168854844E-01  0.00000000000E+00 0. -1.
     999901    1    3    3    0    0  0.89272198910E-01  0.53508012342E-01 -0.46339125305E-01  0.88734432292E+00  0.88000000000E+00 0. -1.
        -11    1    4    4    0    0 -0.22760151308E-01 -0.73440698296E-02  0.23152862384E-01  0.33290779606E-01  0.51100000000E-03 0. -1.
         11    1    4    4    0    0 -0.79551108856E-01 -0.40794697790E-01  0.42815008098E-01  0.99126042630E-01  0.51100000000E-03 0.  1.
</event>
<event>
 8    1  0.1082757E+005  0.1043930E+01  0.7957747E-01            NaN
         13   -1    0    0    0    0  0.00000000000E+00  0.00000000000E+00  0.74505805969E-08  0.10566000000E+00  0.10566000000E+00 0. -1.
     999900   -1    0    0    0    0 -0.00000000000E+00 -0.00000000000E+00 -0.74505805969E-08  0.93827000000E+00  0.93827000000E+00 0. -1.
     999902    2    1    2    0    0 -0.10334972677E-01  0.11360906583E-01 -0.13761078965E-01  0.10233084299E+01  0.10231006273E+01 0.  0.
     999903    2    3    3    0    0  0.12876036490E+00 -0.15402618737E-01 -0.14241697341E-01  0.13198131251E+00  0.19994216061E-01 0.  0.
         14    1    1    2    0    0  0.10334972677E-01 -0.11360906583E-01  0.13761078965E-01  0.20621570088E-01  0.00000000000E+00 0. -1.
     999901    1    3    3    0    0 -0.13909533757E+00  0.26763525320E-01  0.48061837575E-03  0.89132711740E+00  0.88000000000E+00 0. -1.
        -11    1    4    4    0    0  0.65768424278E-01 -0.11243070260E-01 -0.16769657528E-01  0.68799526129E-01  0.51100000000E-03 0. -1.
         11    1    4    4    0    0  0.62991940620E-01 -0.41595484775E-02  0.25279601864E-02  0.63181786381E-01  0.51100000000E-03 0.  1.
</event>
<event>
 8    1  0.1082757E+005  0.1043930E+01  0.7957747E-01            NaN
         13   -1    0    0    0    0  0.00000000000E+00  0.00000000000E+00  0.74505805969E-08  0.10566000000E+00  0.10566000000E+00 0. -1.
     999900   -1    0    0    0    0 -0.00000000000E+00 -0.00000000000E+00 -0.74505805969E-08  0.93827000000E+00  0.93827000000E+00 0.  1.
     999902    2    1    2    0    0  0.16493954551E-01  0.18573961701E-01  0.73552277465E-03  0.10190787710E+01  0.10187757152E+01 0.  0.
     999903    2    3    3    0    0 -0.38663607013E-01 -0.25726727023E-01 -0.11815202724E+00  0.12827062263E+00  0.18349716563E-01 0.  0.
         14    1    1    2    0    0 -0.16493954551E-01 -0.18573961701E-01 -0.73552277465E-03  0.24851229018E-01  0.00000000000E+00 0. -1.
     999901    1    3    3    0    0  0.55157561564E-01  0.44300688724E-01  0.11888755002E+00  0.89080814835E+00  0.88000000000E+00 0. -1.
        -11    1    4    4    0    0 -0.48873905056E-02 -0.56736458776E-02 -0.65691240946E-02  0.99745353711E-02  0.51100000000E-03 0. -1.
         11    1    4    4    0    0 -0.33776216507E-01 -0.20053081146E-01 -0.11158290315E+00  0.11829608726E+00  0.51100000000E-03 0.  1.
</event>
<event>
 8    1  0.1082757E+005  0.1043930E+01  0.7957747E-01            NaN
         13   -1    0    0    0    0  0.00000000000E+00  0.00000000000E+00  0.74505805969E-08  0.10566000000E+00  0.10566000000E+00 0.  1.
     999900   -1    0    0    0    0 -0.00000000000E+00 -0.00000000000E+00 -0.74505805969E-08  0.93827000000E+00  0.93827000000E+00 0. -1.
     999902    2    1    2    0    0  0.16536259556E-01  0.16866729910E-01 -0.24070394423E-02  0.10201870369E+01  0.10199107127E+01 0.  0.
     999903    2    3    3    0    0 -0.60206626441E-01 -0.59437378904E-02 -0.11286880960E+00  0.12967505458E+00  0.20398179150E-01 0.  0.
         14    1    1    2    0    0 -0.16536259556E-01 -0.16866729910E-01  0.24070394423E-02  0.23742963102E-01  0.00000000000E+00 0.  1.
     999901    1    3    3    0    0  0.76742885997E-01  0.22810467801E-01  0.11046177015E+00  0.89051198232E+00  0.88000000000E+00 0. -1.
        -11    1    4    4    0    0 -0.46682632911E-01  0.39064406418E-02 -0.77804683464E-01  0.90820473374E-01  0.51100000000E-03 0.  1.
         11    1    4    4    0    0 -0.13523993531E-01 -0.98501785322E-02 -0.35064126132E-01  0.38854581204E-01  0.51100000000E-03 0. -1.
</event>
<event>
 8    1  0.1082757E+005  0.1043930E+01  0.7957747E-01            NaN
         13   -1    0    0    0    0  0.00000000000E+00  0.00000000000E+00  0.74505805969E-08  0.10566000000E+00  0.10566000000E+00 0.  1.
     999900   -1    0    0    0    0 -0.00000000000E+00 -0.00000000000E+00 -0.74505805969E-08  0.93827000000E+00  0.93827000000E+00 0.  1.
     999902    2    1    2    0    0 -0.69560746855E-02  0.19100545747E-01 -0.13064990687E-01  0.10197657329E+01  0.10194793957E+01 0.  0.
     999903    2    3    3    0    0  0.43415942503E-01 -0.32660293760E-01 -0.11719489634E+00  0.13068780500E+00  0.19824726884E-01 0.  0.
         14    1    1    2    0    0  0.69560746855E-02 -0.19100545747E-01  0.13064990687E-01  0.24164267101E-01  0.00000000000E+00 0. -1.
     999901    1    3    3    0    0 -0.50372017189E-01  0.51760839507E-01  0.10412990565E+00  0.88907792790E+00  0.88000000000E+00 0. -1.
        -11    1    4    4    0    0  0.17107190691E-01 -0.93571981376E-02 -0.64186261935E-01  0.67084651542E-01  0.51100000000E-03 0. -1.
         11    1    4    4    0    0  0.26308751812E-01 -0.23303095622E-01 -0.53008634406E-01  0.63603153460E-01  0.51100000000E-03 0.  1.
</event>
<event>
 8    1  0.1082757E+005  0.1043930E+01  0.7957747E-01            NaN
         13   -1    0    0    0    0  0.00000000000E+00  0.00000000000E+00  0.74505805969E-08  0.10566000000E+00  0.10566000000E+00 0.  1.
     999900   -1    0    0    0    0 -0.00000000000E+00 -0.00000000000E+00 -0.74505805969E-08  0.93827000000E+00  0.93827000000E+00 0.  1.
     999902    2    1    2    0    0 -0.12156056434E-01 -0.66872756938E-02 -0.18004840744E-01  0.10211997634E+01  0.10209467631E+01 0.  0.
     999903    2    3    3    0    0  0.44351781046E-01 -0.82559198168E-01  0.87629283488E-01  0.12984783938E+00  0.19961672817E-01 0.  0.
         14    1    1    2    0    0  0.12156056434E-01  0.66872756938E-02  0.18004840744E-01  0.22730236568E-01  0.00000000000E+00 0.  1.
     999901    1    3    3    0    0 -0.56507837480E-01  0.75871922475E-01 -0.10563412423E+00  0.89135192406E+00  0.88000000000E+00 0.  1.
        -11    1    4    4    0    0  0.19655468544E-01 -0.40073062028E-01  0.28491046544E-01  0.52954589963E-01  0.51100000000E-03 0.  1.
         11    1    4    4    0    0  0.24696312501E-01 -0.42486136141E-01  0.59138236944E-01  0.76893249412E-01  0.51100000000E-03 0. -1.
</event>
<event>
 8    1  0.1082757E+005  0.1043930E+01  0.7957747E-01            NaN
         13   -1    0    0    0    0  0.00000000000E+00  0.00000000000E+00  0.74505805969E-08  0.10566000000E+00  0.10566000000E+00 0.  1.
     999900   -1    0    0    0    0 -0.00000000000E+00 -0.00000000000E+00 -0.74505805969E-08  0.93827000000E+00  0.93827000000E+00 0.  1.
     999902    2    1    2    0    0  0.15954700805E-01 -0.11389302648E-01  0.12577545132E-01  0.10206391577E+01  0.10203733762E+01 0.  0.
     999903    2    3    3    0    0 -0.61127099089E-01 -0.12975475174E-01 -0.11072750815E+00  0.12870403901E+00  0.19981576499E-01 0.  0.
         14    1    1    2    0    0 -0.15954700805E-01  0.11389302648E-01 -0.12577545132E-01  0.23290842280E-01  0.00000000000E+00 0. -1.
     999901    1    3    3    0    0  0.77081799894E-01  0.15861725269E-02  0.12330505328E+00  0.89193511871E+00  0.88000000000E+00 0. -1.
        -11    1    4    4    0    0 -0.17928535103E-01 -0.96452135292E-02 -0.22103544851E-01  0.30054788819E-01  0.51100000000E-03 0. -1.
         11    1    4    4    0    0 -0.43198563986E-01 -0.33302616452E-02 -0.88623963294E-01  0.98649250195E-01  0.51100000000E-03 0.  1.
</event>
<event>
 8    1  0.1082757E+005  0.1043930E+01  0.7957747E-01            NaN
         13   -1    0    0    0    0  0.00000000000E+00  0.00000000000E+00  0.74505805969E-08  0.10566000000E+00  0.10566000000E+00 0. -1.
     999900   -1    0    0    0    0 -0.00000000000E+00 -0.00000000000E+00 -0.74505805969E-08  0.93827000000E+00  0.93827000000E+00 0.  1.
     999902    2    1    2    0    0  0.22393801622E-01 -0.68522838456E-02  0.45327202838E-03  0.10205069003E+01  0.10202380565E+01 0.  0.
     999903    2    3    3    0    0 -0.11030300004E+00  0.61405665797E-01 -0.47676094791E-02  0.12792925858E+00  0.20143422988E-01 0.  0.
         14    1    1    2    0    0 -0.22393801622E-01  0.68522838456E-02 -0.45327202838E-03  0.23423099721E-01  0.00000000000E+00 0.  1.
     999901    1    3    3    0    0  0.13269680167E+00 -0.68257949643E-01  0.52208815075E-02  0.89257764170E+00  0.88000000000E+00 0. -1.
        -11    1    4    4    0    0 -0.86952897939E-01  0.57048507749E-01 -0.56803212662E-02  0.10415308861E+00  0.51100000000E-03 0.  1.
         11    1    4    4    0    0 -0.23350102104E-01  0.43571580483E-02  0.91271178711E-03  0.23776169968E-01  0.51100000000E-03 0. -1.
</event>
<event>
 8    1  0.1082757E+005  0.1043930E+01  0.7957747E-01            NaN
         13   -1    0    0    0    0  0.00000000000E+00  0.00000000000E+00  0.74505805969E-08  0.10566000000E+00  0.10566000000E+00 0.  1.
     999900   -1    0    0    0    0 -0.00000000000E+00 -0.00000000000E+00 -0.74505805969E-08  0.93827000000E+00  0.93827000000E+00 0.  1.
     999902    2    1    2    0    0 -0.11506280392E-01 -0.17075327983E-01  0.11390077035E-01  0.10203992718E+01  0.10201279227E+01 0.  0.
     999903    2    3    3    0    0  0.96223430239E-01  0.43147296913E-01  0.72639363327E-01  0.12967825479E+00  0.20477668372E-01 0.  0.
         14    1    1    2    0    0  0.11506280392E-01  0.17075327983E-01 -0.11390077035E-01  0.23530728187E-01  0.00000000000E+00 0. -1.
     999901    1    3    3    0    0 -0.10772971063E+00 -0.60222624896E-01 -0.61249286292E-01  0.89072101703E+00  0.88000000000E+00 0.  1.
        -11    1    4    4    0    0  0.86300680959E-01  0.44759854386E-01  0.63816482103E-01  0.11629297746E+00  0.51100000000E-03 0.  1.
         11    1    4    4    0    0  0.99227492796E-02 -0.16125574728E-02  0.88228812238E-02  0.13385277321E-01  0.51100000000E-03 0. -1.
</event>
<event>
 8    1  0.1082757E+005  0.1043930E+01  0.7957747E-01            NaN
         13   -1    0    0    0    0  0.00000000000E+00  0.00000000000E+00  0.74505805969E-08  0.10566000000E+00  0.10566000000E+00 0. -1.
     999900   -1    0    0    0    0 -0.00000000000E+00 -0.00000000000E+00 -0.74505805969E-08  0.93827000000E+00  0.93827000000E+00 0.  1.
     999902    2    1    2    0    0 -0.44379728374E-02 -0.13626906233E-01 -0.19149933472E-01  0.10200112181E+01  0.10197307374E+01 0.  0.
     999903    2    3    3    0    0  0.11966492782E+00  0.42951473676E-01 -0.15009208436E-01  0.12949463282E+00  0.19469451747E-01 0.  0.
         14    1    1    2    0    0  0.44379728374E-02  0.13626906233E-01  0.19149933472E-01  0.23918781917E-01  0.00000000000E+00 0.  1.
     999901    1    3    3    0    0 -0.12410290065E+00 -0.56578379908E-01 -0.41407250368E-02  0.89051658526E+00  0.88000000000E+00 0. -1.
        -11    1    4    4    0    0  0.11045286423E-01  0.76337348566E-02  0.32557793155E-02  0.13825103254E-01  0.51100000000E-03 0.  1.
         11    1    4    4    0    0  0.10861964139E+00  0.35317738819E-01 -0.18264987751E-01  0.11566952957E+00  0.51100000000E-03 0. -1.
</event>
<event>
 8    1  0.1082757E+005  0.1043930E+01  0.7957747E-01            NaN
         13   -1    0    0    0    0  0.00000000000E+00  0.00000000000E+00  0.74505805969E-08  0.10566000000E+00  0.10566000000E+00 0.  1.
     999900   -1    0    0    0    0 -0.00000000000E+00 -0.00000000000E+00 -0.74505805969E-08  0.93827000000E+00  0.93827000000E+00 0. -1.
     999902    2    1    2    0    0  0.21371171725E-01  0.12390235206E-01 -0.17865760832E-02  0.10191623444E+01  0.10188613485E+01 0.  0.
     999903    2    3    3    0    0 -0.11039926180E+00  0.21377225233E-01  0.56329251924E-01  0.12741032585E+00  0.20381946600E-01 0.  0.
         14    1    1    2    0    0 -0.21371171725E-01 -0.12390235206E-01  0.17865760832E-02  0.24767655590E-01  0.00000000000E+00 0.  1.
     999901    1    3    3    0    0  0.13177043352E+00 -0.89869900277E-02 -0.58115828007E-01  0.89175201856E+00  0.88000000000E+00 0. -1.
        -11    1    4    4    0    0 -0.48746125619E-01  0.16129580039E-01  0.34197114835E-01  0.61693207885E-01  0.51100000000E-03 0.  1.
         11    1    4    4    0    0 -0.61653136177E-01  0.52476451940E-02  0.22132137088E-01  0.65717117965E-01  0.51100000000E-03 0. -1.
</event>
<event>
 8    1  0.1082757E+005  0.1043930E+01  0.7957747E-01            NaN
         13   -1    0    0    0    0  0.00000000000E+00  0.00000000000E+00  0.74505805969E-08  0.10566000000E+00  0.10566000000E+00 0. -1.
     999900   -1    0    0    0    0 -0.00000000000E+00 -0.00000000000E+00 -0.74505805969E-08  0.93827000000E+00  0.93827000000E+00 0. -1.
     999902    2    1    2    0    0  0.97728645337E-03  0.17377360409E-01 -0.16174302156E-01  0.10201700380E+01  0.10198933134E+01 0.  0.
     999903    2    3    3    0    0 -0.12291726721E+00 -0.81738185132E-02  0.35046305714E-01  0.12964981149E+00  0.20133658076E-01 0.  0.
         14    1    1    2    0    0 -0.97728645337E-03 -0.17377360409E-01  0.16174302156E-01  0.23759961991E-01  0.00000000000E+00 0.  1.
     999901    1    3    3    0    0  0.12389455366E+00  0.25551178922E-01 -0.51220607869E-01  0.89052022652E+00  0.88000000000E+00 0. -1.
        -11    1    4    4    0    0 -0.98123873673E-01 -0.29159401845E-02  0.35231609950E-01  0.10429920782E+00  0.51100000000E-03 0.  1.
         11    1    4    4    0    0 -0.24793393536E-01 -0.52578783287E-02 -0.18530423621E-03  0.25350603665E-01  0.51100000000E-03 0. -1.
</event>
<event>
 8    1  0.1082757E+005  0.1043930E+01  0.7957747E-01            NaN
         13   -1    0    0    0    0  0.00000000000E+00  0.00000000000E+00  0.74505805969E-08  0.10566000000E+00  0.10566000000E+00 0. -1.
     999900   -1    0    0    0    0 -0.00000000000E+00 -0.00000000000E+00 -0.74505805969E-08  0.93827000000E+00  0.93827000000E+00 0. -1.
     999902    2    1    2    0    0  0.19293856956E-01  0.88659632890E-02  0.64010441999E-02  0.10217527236E+01  0.10215120149E+01 0.  0.
     999903    2    3    3    0    0  0.43051628957E-01 -0.12277623259E+00  0.45936522176E-02  0.13164185066E+00  0.19519968243E-01 0.  0.
         14    1    1    2    0    0 -0.19293856956E-01 -0.88659632890E-02 -0.64010441999E-02  0.22177276392E-01  0.00000000000E+00 0.  1.
     999901    1    3    3    0    0 -0.23757772001E-01  0.13164219588E+00  0.18073919823E-02  0.89011087294E+00  0.88000000000E+00 0.  1.
        -11    1    4    4    0    0  0.39588059931E-01 -0.10568145563E+00  0.10199063548E-01  0.11331401754E+00  0.51100000000E-03 0. -1.
         11    1    4    4    0    0  0.34635690264E-02 -0.17094776961E-01 -0.56054113304E-02  0.18327833121E-01  0.51100000000E-03 0.  1.
</event>
<event>
 8    1  0.1082757E+005  0.1043930E+01  0.7957747E-01            NaN
         13   -1    0    0    0    0  0.00000000000E+00  0.00000000000E+00  0.74505805969E-08  0.10566000000E+00  0.10566000000E+00 0.  1.
     999900   -1    0    0    0    0 -0.00000000000E+00 -0.00000000000E+00 -0.74505805969E-08  0.93827000000E+00  0.93827000000E+00 0.  1.
     999902    2    1    2    0    0  0.90025106944E-02  0.96304127781E-02 -0.11248855181E-01  0.10266000608E+01  0.10264537779E+01 0.  0.
     999903    2    3    3    0    0 -0.10121930262E+00  0.81727002028E-02 -0.88759688568E-01  0.13634228784E+00  0.19969899534E-01 0.  0.
         14    1    1    2    0    0 -0.90025106944E-02 -0.96304127781E-02  0.11248855181E-01  0.17329939179E-01  0.00000000000E+00 0.  1.
     999901    1    3    3    0    0  0.11022181332E+00  0.14577125753E-02  0.77510833387E-01  0.89025777298E+00  0.88000000000E+00 0. -1.
        -11    1    4    4    0    0 -0.31093638084E-01  0.55794096339E-02 -0.16613863433E-01  0.35696298412E-01  0.51100000000E-03 0. -1.
         11    1    4    4    0    0 -0.70125664538E-01  0.25932905689E-02 -0.72145825135E-01  0.10064598943E+00  0.51100000000E-03 0.  1.
</event>
<event>
 8    1  0.1082757E+005  0.1043930E+01  0.7957747E-01            NaN
         13   -1    0    0    0    0  0.00000000000E+00  0.00000000000E+00  0.74505805969E-08  0.10566000000E+00  0.10566000000E+00 0.  1.
     999900   -1    0    0    0    0 -0.00000000000E+00 -0.00000000000E+00 -0.74505805969E-08  0.93827000000E+00  0.93827000000E+00 0.  1.
     999902    2    1    2    0    0 -0.11265735849E-01 -0.19963820351E-01 -0.73609595139E-02  0.10198539818E+01  0.10195697571E+01 0.  0.
     999903    2    3    3    0    0  0.35422329016E-01 -0.73686669968E-01 -0.10166607325E+00  0.13195794372E+00  0.19810142272E-01 0.  0.
         14    1    1    2    0    0  0.11265735849E-01  0.19963820351E-01  0.73609595139E-02  0.24076018197E-01  0.00000000000E+00 0.  1.
     999901    1    3    3    0    0 -0.46688064866E-01  0.53722849617E-01  0.94305113733E-01  0.88789603809E+00  0.88000000000E+00 0. -1.
        -11    1    4    4    0    0  0.20860541919E-01 -0.31666808149E-01 -0.33698989997E-01  0.50732947828E-01  0.51100000000E-03 0. -1.
         11    1    4    4    0    0  0.14561787097E-01 -0.42019861819E-01 -0.67967083251E-01  0.81224995890E-01  0.51100000000E-03 0.  1.
</event>
<event>
 8    1  0.1082757E+005  0.1043930E+01  0.7957747E-01            NaN
         13   -1    0    0    0    0  0.00000000000E+00  0.00000000000E+00  0.74505805969E-08  0.10566000000E+00  0.10566000000E+00 0.  1.
     999900   -1    0    0    0    0 -0.00000000000E+00 -0.00000000000E+00 -0.74505805969E-08  0.93827000000E+00  0.93827000000E+00 0.  1.
     999902    2    1    2    0    0 -0.21573216121E-01  0.74024161618E-02 -0.60087440878E-02  0.10203438934E+01  0.10200712506E+01 0.  0.
     999903    2    3    3    0    0  0.10343892785E+00 -0.25699147753E-01 -0.69230695866E-01  0.12864844940E+00  0.19936807474E-01 0.  0.
         14    1    1    2    0    0  0.21573216121E-01 -0.74024161618E-02  0.60087440878E-02  0.23586106596E-01  0.00000000000E+00 0.  1.
     999901    1    3    3    0    0 -0.12501214397E+00  0.33101563915E-01  0.63221951778E-01  0.89169544401E+00  0.88000000000E+00 0. -1.
        -11    1    4    4    0    0  0.72069647144E-01 -0.93732110028E-02 -0.41387878210E-01  0.83636766483E-01  0.51100000000E-03 0. -1.
         11    1    4    4    0    0  0.31369280707E-01 -0.16325936750E-01 -0.27842817656E-01  0.45011682915E-01  0.51100000000E-03 0.  1.
</event>
<event>
 8    1  0.1082757E+005  0.1043930E+01  0.7957747E-01            NaN
         13   -1    0    0    0    0  0.00000000000E+00  0.00000000000E+00  0.74505805969E-08  0.10566000000E+00  0.10566000000E+00 0. -1.
     999900   -1    0    0    0    0 -0.00000000000E+00 -0.00000000000E+00 -0.74505805969E-08  0.93827000000E+00  0.93827000000E+00 0.  1.
     999902    2    1    2    0    0 -0.87620947435E-02  0.18033470764E-01  0.11779482369E-01  0.10206762567E+01  0.10204113310E+01 0.  0.
     999903    2    3    3    0    0 -0.39631812724E-01  0.11937801293E-01  0.12467498043E+00  0.13290630331E+00  0.20175307599E-01 0.  0.
         14    1    1    2    0    0  0.87620947435E-02 -0.18033470764E-01 -0.11779482369E-01  0.23253743289E-01  0.00000000000E+00 0. -1.
     999901    1    3    3    0    0  0.30869717981E-01  0.60956694704E-02 -0.11289549806E+00  0.88776995340E+00  0.88000000000E+00 0.  1.
        -11    1    4    4    0    0 -0.19382136096E-01 -0.10898917908E-02  0.34706393812E-01  0.39769962990E-01  0.51100000000E-03 0.  1.
         11    1    4    4    0    0 -0.20249676628E-01  0.13027693084E-01  0.89968586613E-01  0.93136340323E-01  0.51100000000E-03 0. -1.
</event>
<event>
 8    1  0.1082757E+005  0.1043930E+01  0.7957747E-01            NaN
         13   -1    0    0    0    0  0.00000000000E+00  0.00000000000E+00  0.74505805969E-08  0.10566000000E+00  0.10566000000E+00 0.  1.
     999900   -1    0    0    0    0 -0.00000000000E+00 -0.00000000000E+00 -0.74505805969E-08  0.93827000000E+00  0.93827000000E+00 0.  1.
     999902    2    1    2    0    0  0.95091533521E-02 -0.40309654921E-03 -0.22365197653E-01  0.10196238578E+01  0.10193341075E+01 0.  0.
     999903    2    3    3    0    0 -0.95242162549E-01  0.65703243452E-01  0.50698345688E-01  0.12795061731E+00  0.20323692782E-01 0.  0.
         14    1    1    2    0    0 -0.95091533521E-02  0.40309654921E-03  0.22365197653E-01  0.24306142235E-01  0.00000000000E+00 0.  1.
     999901    1    3    3    0    0  0.10475131590E+00 -0.66106340002E-01 -0.73063543341E-01  0.89167324045E+00  0.88000000000E+00 0. -1.
        -11    1    4    4    0    0 -0.32503191995E-01  0.18902617581E-01  0.26567428247E-01  0.46041891859E-01  0.51100000000E-03 0. -1.
         11    1    4    4    0    0 -0.62738970554E-01  0.46800625871E-01  0.24130917441E-01  0.81908725455E-01  0.51100000000E-03 0.  1.
</event>
<event>
 8    1  0.1082757E+005  0.1043930E+01  0.7957747E-01            NaN
         13   -1    0    0    0    0  0.00000000000E+00  0.00000000000E+00  0.74505805969E-08  0.10566000000E+00  0.10566000000E+00 0.  1.
     999900   -1    0    0    0    0 -0.00000000000E+00 -0.00000000000E+00 -0.74505805969E-08  0.93827000000E+00  0.93827000000E+00 0. -1.
     999902    2    1    2    0    0 -0.22119760863E-01 -0.12882991225E-02  0.20258395035E-02  0.10216803357E+01  0.10214380357E+01 0.  0.
     999903    2    3    3    0    0 -0.31796699727E-01 -0.12282001420E+00 -0.32889820190E-01  0.13258939311E+00  0.20060431014E-01 0.  0.
         14    1    1    2    0    0  0.22119760863E-01  0.12882991225E-02 -0.20258395035E-02  0.22249664289E-01  0.00000000000E+00 0. -1.
     999901    1    3    3    0    0  0.96769388640E-02  0.12153171508E+00  0.34915659693E-01  0.88909094260E+00  0.88000000000E+00 0.  1.
        -11    1    4    4    0    0 -0.13400463383E-01 -0.64262772784E-01 -0.26800592992E-01  0.70907046832E-01  0.51100000000E-03 0. -1.
         11    1    4    4    0    0 -0.18396236344E-01 -0.58557241417E-01 -0.60892271976E-02  0.61682346282E-01  0.51100000000E-03 0.  1.
</event>
<event>
 8    1  0.1082757E+005  0.1043930E+01  0.7957747E-01            NaN
         13   -1    0    0    0    0  0.00000000000E+00  0.00000000000E+00  0.74505805969E-08  0.10566000000E+00  0.10566000000E+00 0. -1.
     999900   -1    0    0    0    0 -0.00000000000E+00 -0.00000000000E+00 -0.74505805969E-08  0.93827000000E+00  0.93827000000E+00 0. -1.
     999902    2    1    2    0    0 -0.11645563771E-01 -0.44058219238E-02 -0.20608906025E-01  0.10198518475E+01  0.10195675717E+01 0.  0.
     999903    2    3    3    0    0  0.11511180201E+00 -0.54964904156E-01 -0.21423744001E-02  0.12914164578E+00  0.20027662313E-01 0.  0.
         14    1    1    2    0    0  0.11645563771E-01  0.44058219238E-02  0.20608906025E-01  0.24078152544E-01  0.00000000000E+00 0. -1.
     999901    1    3    3    0    0 -0.12675736578E+00  0.50559082232E-01 -0.18466531625E-01  0.89071020167E+00  0.88000000000E+00 0.  1.
        -11    1    4    4    0    0  0.64997829465E-01 -0.39831350708E-01 -0.70600934238E-02  0.76559521775E-01  0.51100000000E-03 0. -1.
         11    1    4    4    0    0  0.50113972540E-01 -0.15133553448E-01  0.49177190237E-02  0.52582124007E-01  0.51100000000E-03 0.  1.
</event>
<event>
 8    1  0.1082757E+005  0.1043930E+01  0.7957747E-01            NaN
         13   -1    0    0    0    0  0.00000000000E+00  0.00000000000E+00  0.74505805969E-08  0.10566000000E+00  0.10566000000E+00 0.  1.
     999900   -1    0    0    0    0 -0.00000000000E+00 -0.00000000000E+00 -0.74505805969E-08  0.93827000000E+00  0.93827000000E+00 0.  1.
     999902    2    1    2    0    0 -0.23697483887E-03  0.21723309118E-01  0.90953998224E-02  0.10203782567E+01  0.10201064170E+01 0.  0.
     999903    2    3    3    0    0 -0.33875800644E-01  0.11125384570E+00  0.63363266798E-01  0.13353425180E+00  0.17073510808E-01 0.  0.
         14    1    1    2    0    0  0.23697483887E-03 -0.21723309118E-01 -0.90953998224E-02  0.23551743333E-01  0.00000000000E+00 0. -1.
     999901    1    3    3    0    0  0.33638825805E-01 -0.89530536585E-01 -0.54267866975E-01  0.88684400487E+00  0.88000000000E+00 0.  1.
        -11    1    4    4    0    0 -0.34183465817E-01  0.89899572521E-01  0.51981398790E-01  0.10932872182E+00  0.51100000000E-03 0. -1.
         11    1    4    4    0    0  0.30766517272E-03  0.21354273182E-01  0.11381868007E-01  0.24205529974E-01  0.51100000000E-03 0.  1.
</event>
<event>
 8    1  0.1082757E+005  0.1043930E+01  0.7957747E-01            NaN
         13   -1    0    0    0    0  0.00000000000E+00  0.00000000000E+00  0.74505805969E-08  0.10566000000E+00  0.10566000000E+00 0.  1.
     999900   -1    0    0    0    0 -0.00000000000E+00 -0.00000000000E+00 -0.74505805969E-08  0.93827000000E+00  0.93827000000E+00 0. -1.
     999902    2    1    2    0    0  0.16763750538E-01 -0.17059380988E-01  0.12455832015E-02  0.10199801088E+01  0.10196988894E+01 0.  0.
     999903    2    3    3    0    0  0.54323805772E-01  0.60174675361E-01 -0.99687766183E-01  0.13005685466E+00  0.20126283543E-01 0.  0.
         14    1    1    2    0    0 -0.16763750538E-01  0.17059380988E-01 -0.12455832015E-02  0.23949891217E-01  0.00000000000E+00 0.  1.
     999901    1    3    3    0    0 -0.37560055234E-01 -0.77234056349E-01  0.10093334938E+00  0.88992325412E+00  0.88000000000E+00 0.  1.
        -11    1    4    4    0    0  0.28157222510E-01  0.18515872949E-01 -0.32846265941E-01  0.47061715203E-01  0.51100000000E-03 0. -1.
         11    1    4    4    0    0  0.26166583262E-01  0.41658802412E-01 -0.66841500243E-01  0.82995139458E-01  0.51100000000E-03 0.  1.
</event>
<event>
 8    1  0.1082757E+005  0.1043930E+01  0.7957747E-01            NaN
         13   -1    0    0    0    0  0.00000000000E+00  0.00000000000E+00  0.74505805969E-08  0.10566000000E+00  0.10566000000E+00 0.  1.
     999900   -1    0    0    0    0 -0.00000000000E+00 -0.00000000000E+00 -0.74505805969E-08  0.93827000000E+00  0.93827000000E+00 0. -1.
     999902    2    1    2    0    0 -0.15132113550E-01  0.55843894707E-02 -0.19803644694E-01  0.10183888448E+01  0.10180685088E+01 0.  0.
     999903    2    3    3    0    0 -0.14109008596E-01  0.40423111317E-01  0.11722322931E+00  0.12710261272E+00  0.24097647579E-01 0.  0.
         14    1    1    2    0    0  0.15132113550E-01 -0.55843894707E-02  0.19803644694E-01  0.25541155209E-01  0.00000000000E+00 0.  1.
     999901    1    3    3    0    0 -0.10231049544E-02 -0.34838721846E-01 -0.13702687400E+00  0.89128623207E+00  0.88000000000E+00 0. -1.
        -11    1    4    4    0    0  0.62155047957E-02  0.15276069299E-01  0.33273721998E-01  0.37140173528E-01  0.51100000000E-03 0.  1.
         11    1    4    4    0    0 -0.20324513392E-01  0.25147042018E-01  0.83949507308E-01  0.89962439191E-01  0.51100000000E-03 0. -1.
</event>
<event>
 8    1  0.1082757E+005  0.1043930E+01  0.7957747E-01            NaN
         13   -1    0    0    0    0  0.00000000000E+00  0.00000000000E+00  0.74505805969E-08  0.10566000000E+00  0.10566000000E+00 0. -1.
     999900   -1    0    0    0    0 -0.00000000000E+00 -0.00000000000E+00 -0.74505805969E-08  0.93827000000E+00  0.93827000000E+00 0.  1.
     999902    2    1    2    0    0 -0.10114600723E-01 -0.20545511170E-01  0.14167531560E-02  0.10209859296E+01  0.10207280921E+01 0.  0.
     999903    2    3    3    0    0 -0.78482529909E-01 -0.86006636675E-01  0.62874357121E-01  0.13377886821E+00  0.19671089024E-01 0.  0.
         14    1    1    2    0    0  0.10114600723E-01  0.20545511170E-01 -0.14167531560E-02  0.22944070400E-01  0.00000000000E+00 0. -1.
     999901    1    3    3    0    0  0.68367929186E-01  0.65461125505E-01 -0.61457603965E-01  0.88720706139E+00  0.88000000000E+00 0.  1.
        -11    1    4    4    0    0 -0.28094666533E-01 -0.42242710551E-01  0.20490036625E-01  0.54716173150E-01  0.51100000000E-03 0. -1.
         11    1    4    4    0    0 -0.50387863376E-01 -0.43763926124E-01  0.42384320496E-01  0.79062695061E-01  0.51100000000E-03 0.  1.
</event>
<event>
 8    1  0.1082757E+005  0.1043930E+01  0.7957747E-01            NaN
         13   -1    0    0    0    0  0.00000000000E+00  0.00000000000E+00  0.74505805969E-08  0.10566000000E+00  0.10566000000E+00 0. -1.
     999900   -1    0    0    0    0 -0.00000000000E+00 -0.00000000000E+00 -0.74505805969E-08  0.93827000000E+00  0.93827000000E+00 0.  1.
     999902    2    1    2    0    0 -0.21410020894E-01  0.54867563510E-02 -0.40630965544E-02  0.10214577450E+01  0.10212105183E+01 0.  0.
     999903    2    3    3    0    0  0.87872178108E-01 -0.85128726187E-01  0.36120769758E-01  0.12917499399E+00  0.20323615716E-01 0.  0.
         14    1    1    2    0    0  0.21410020894E-01 -0.54867563510E-02  0.40630965544E-02  0.22472254972E-01  0.00000000000E+00 0. -1.
     999901    1    3    3    0    0 -0.10928219900E+00  0.90615482538E-01 -0.40183866312E-01  0.89228275104E+00  0.88000000000E+00 0.  1.
        -11    1    4    4    0    0  0.77496750946E-01 -0.65183718166E-01  0.26233819471E-01  0.10460945429E+00  0.51100000000E-03 0. -1.
         11    1    4    4    0    0  0.10375427162E-01 -0.19945008022E-01  0.98869502869E-02  0.24565539700E-01  0.51100000000E-03 0.  1.
</event>
<event>
 8    1  0.1082757E+005  0.1043930E+01  0.7957747E-01            NaN
         13   -1    0    0    0    0  0.00000000000E+00  0.00000000000E+00  0.74505805969E-08  0.10566000000E+00  0.10566000000E+00 0.  1.
     999900   -1    0    0    0    0 -0.00000000000E+00 -0.00000000000E+00 -0.74505805969E-08  0.93827000000E+00  0.93827000000E+00 0.  1.
     999902    2    1    2    0    0  0.11604753322E-01 -0.64734537689E-02  0.19777605096E-01  0.10201029237E+01  0.10198246150E+01 0.  0.
     999903    2    3    3    0    0 -0.10693668844E+00 -0.43695832985E-01 -0.52832129784E-01  0.12841365462E+00  0.18816258958E-01 0.  0.
         14    1    1    2    0    0 -0.11604753322E-01  0.64734537689E-02 -0.19777605096E-01  0.23827076336E-01  0.00000000000E+00 0. -1.
     999901    1    3    3    0    0  0.11854144176E+00  0.37222379216E-01  0.72609734880E-01  0.89168926904E+00  0.88000000000E+00 0. -1.
        -11    1    4    4    0    0 -0.33128206857E-01 -0.12088119048E-01 -0.25778911017E-01  0.43685399001E-01  0.51100000000E-03 0.  1.
         11    1    4    4    0    0 -0.73808481581E-01 -0.31607713937E-01 -0.27053218766E-01  0.84728255619E-01  0.51100000000E-03 0. -1.
</event>
<event>
 8    1  0.1082757E+005  0.1043930E+01  0.7957747E-01            NaN
         13   -1    0    0    0    0  0.00000000000E+00  0.00000000000E+00  0.74505805969E-08  0.10566000000E+00  0.10566000000E+00 0. -1.
     999900   -1    0    0    0    0 -0.00000000000E+00 -0.00000000000E+00 -0.74505805969E-08  0.93827000000E+00  0.93827000000E+00 0. -1.
     999902    2    1    2    0    0  0.53379240980E-03  0.22794273247E-01 -0.53595842365E-02  0.10205080238E+01  0.10202392061E+01 0.  0.
     999903    2    3    3    0    0 -0.45160593385E-01 -0.11955747666E-01  0.11953262705E+00  0.12983771143E+00  0.19681546758E-01 0.  0.
         14    1    1    2    0    0 -0.53379240980E-03 -0.22794273247E-01  0.53595842365E-02  0.23421976227E-01  0.00000000000E+00 0.  1.
     999901    1    3    3    0    0  0.45694385795E-01  0.34750020912E-01 -0.12489221129E+00  0.89067031234E+00  0.88000000000E+00 0. -1.
        -11    1    4    4    0    0 -0.10898467538E-01  0.67844489353E-03  0.51240649723E-01  0.52393722784E-01  0.51100000000E-03 0. -1.
         11    1    4    4    0    0 -0.34262125847E-01 -0.12634192559E-01  0.68291977328E-01  0.77443988647E-01  0.51100000000E-03 0.  1.
</event>
<event>
 8    1  0.1082757E+005  0.1043930E+01  0.7957747E-01            NaN
         13   -1    0    0    0    0  0.00000000000E+00  0.00000000000E+00  0.74505805969E-08  0.10566000000E+00  0.10566000000E+00 0.  1.
     999900   -1    0    0    0    0 -0.00000000000E+00 -0.00000000000E+00 -0.74505805969E-08  0.93827000000E+00  0.93827000000E+00 0.  1.
     999902    2    1    2    0    0  0.12243649341E-01  0.79862326443E-02 -0.18654437192E-01  0.10202303188E+01  0.10199550130E+01 0.  0.
     999903    2    3    3    0    0  0.21385910234E-01 -0.82559614943E-01  0.93709456721E-01  0.12843001825E+00  0.20960919149E-01 0.  0.
         14    1    1    2    0    0 -0.12243649341E-01 -0.79862326443E-02  0.18654437192E-01  0.23699681179E-01  0.00000000000E+00 0. -1.
     999901    1    3    3    0    0 -0.91422608933E-02  0.90545847587E-01 -0.11236389391E+00  0.89180030057E+00  0.88000000000E+00 0.  1.
        -11    1    4    4    0    0  0.11158605178E-01 -0.57690390244E-01  0.50229881669E-01  0.77304577675E-01  0.51100000000E-03 0.  1.
         11    1    4    4    0    0  0.10227305057E-01 -0.24869224699E-01  0.43479575052E-01  0.51125440571E-01  0.51100000000E-03 0. -1.
</event>
<event>
 8    1  0.1082757E+005  0.1043930E+01  0.7957747E-01            NaN
         13   -1    0    0    0    0  0.00000000000E+00  0.00000000000E+00  0.74505805969E-08  0.10566000000E+00  0.10566000000E+00 0.  1.
     999900   -1    0    0    0    0 -0.00000000000E+00 -0.00000000000E+00 -0.74505805969E-08  0.93827000000E+00  0.93827000000E+00 0. -1.
     999902    2    1    2    0    0  0.23730118180E-01 -0.26410445781E-02 -0.32634080185E-02  0.10198313806E+01  0.10195466156E+01 0.  0.
     999903    2    3    3    0    0  0.10019662692E+00  0.66944681012E-01  0.50301492051E-01  0.13216111598E+00  0.20380532691E-01 0.  0.
         14    1    1    2    0    0 -0.23730118180E-01  0.26410445781E-02  0.32634080185E-02  0.24098619404E-01  0.00000000000E+00 0.  1.
     999901    1    3    3    0    0 -0.76466508738E-01 -0.69585725590E-01 -0.53564900070E-01  0.88767026462E+00  0.88000000000E+00 0. -1.
        -11    1    4    4    0    0  0.49672774125E-01  0.34858421207E-01  0.14417097455E-01  0.62374737181E-01  0.51100000000E-03 0.  1.
         11    1    4    4    0    0  0.50523852793E-01  0.32086259804E-01  0.35884394596E-01  0.69786378799E-01  0.51100000000E-03 0. -1.
</event>
<event>
 7    1  0.1082757E+005  0.1043930E+01  0.7957747E-01            NaN
         13   -1    0    0    0    0  0.00000000000E+00  0.00000000000E+00  0.74505805969E-08  0.10566000000E+00  0.10566000000E+00 0.  1.
     999900   -1    0    0    0    0 -0.00000000000E+00 -0.00000000000E+00 -0.74505805969E-08  0.93827000000E+00  0.93827000000E+00 0.  1.
     999903    2    1    2    0    0 -0.26663142712E-02 -0.98023221490E-01  0.54656651269E-01  0.11405726491E+00  0.20150656785E-01 0.  0.
         14    1    1    2    0    0  0.11241103076E-01  0.33908898019E-01  0.25461533863E-01  0.43868729978E-01  0.00000000000E+00 0.  1.
     999901    1    1    2    0    0 -0.85747888047E-02  0.64114323471E-01 -0.80118185132E-01  0.88600400511E+00  0.88000000000E+00 0.  1.
        -11    1    3    3    0    0 -0.10462326177E-01 -0.58007030818E-01  0.27314792682E-01  0.64966413735E-01  0.51100000000E-03 0.  1.
         11    1    3    3    0    0  0.77960119062E-02 -0.40016190672E-01  0.27341858588E-01  0.49090851180E-01  0.51100000000E-03 0. -1.
</event>
<event>
 8    1  0.1082757E+005  0.1043930E+01  0.7957747E-01            NaN
         13   -1    0    0    0    0  0.00000000000E+00  0.00000000000E+00  0.74505805969E-08  0.10566000000E+00  0.10566000000E+00 0.  1.
     999900   -1    0    0    0    0 -0.00000000000E+00 -0.00000000000E+00 -0.74505805969E-08  0.93827000000E+00  0.93827000000E+00 0.  1.
     999902    2    1    2    0    0  0.13403074964E-01 -0.17461146075E-01  0.58158236526E-02  0.10211625266E+01  0.10209086873E+01 0.  0.
     999903    2    3    3    0    0 -0.10697301926E+00 -0.31477663572E-01 -0.64225071799E-01  0.13009990597E+00  0.19158693414E-01 0.  0.
         14    1    1    2    0    0 -0.13403074964E-01  0.17461146075E-01 -0.58158236526E-02  0.22767473411E-01  0.00000000000E+00 0. -1.
     999901    1    3    3    0    0  0.12037609422E+00  0.14016517497E-01  0.70040895452E-01  0.89106262062E+00  0.88000000000E+00 0. -1.
        -11    1    4    4    0    0 -0.31597156306E-01 -0.18263482022E-01 -0.23514132325E-01  0.43417860405E-01  0.51100000000E-03 0.  1.
         11    1    4    4    0    0 -0.75375862953E-01 -0.13214181550E-01 -0.40710939474E-01  0.86682045568E-01  0.51100000000E-03 0. -1.
</event>
<event>
 8    1  0.1082757E+005  0.1043930E+01  0.7957747E-01            NaN
         13   -1    0    0    0    0  0.00000000000E+00  0.00000000000E+00  0.74505805969E-08  0.10566000000E+00  0.10566000000E+00 0. -1.
     999900   -1    0    0    0    0 -0.00000000000E+00 -0.00000000000E+00 -0.74505805969E-08  0.93827000000E+00  0.93827000000E+00 0. -1.
     999902    2    1    2    0    0 -0.32172237059E-01  0.10586427701E-01  0.28321428749E-02  0.10099425564E+01  0.10093705073E+01 0.  0.
     999903    2    3    3    0    0  0.10202734844E+00 -0.52430884602E-01 -0.15388811276E-01  0.11735490605E+00  0.19410846752E-01 0.  0.
         14    1    1    2    0    0  0.32172237059E-01 -0.10586427701E-01 -0.28321428749E-02  0.33987443595E-01  0.00000000000E+00 0.  1.
     999901    1    3    3    0    0 -0.13419958550E+00  0.63017312303E-01  0.18220954151E-01  0.89258765036E+00  0.88000000000E+00 0.  1.
        -11    1    4    4    0    0  0.10023470700E+00 -0.53473805611E-01 -0.13327908394E-01  0.11438679398E+00  0.51100000000E-03 0.  1.
         11    1    4    4    0    0  0.17926414379E-02  0.10429210096E-02 -0.20609028820E-02  0.29681120676E-02  0.51100000000E-03 0. -1.
</event>
<event>
 8    1  0.1082757E+005  0.1043930E+01  0.7957747E-01            NaN
         13   -1    0    0    0    0  0.00000000000E+00  0.00000000000E+00  0.74505805969E-08  0.10566000000E+00  0.10566000000E+00 0.  1.
     999900   -1    0    0    0    0 -0.00000000000E+00 -0.00000000000E+00 -0.74505805969E-08  0.93827000000E+00  0.93827000000E+00 0. -1.
     999902    2    1    2    0    0 -0.60843254395E-02  0.23341426268E-01  0.24872632190E-02  0.10196807181E+01  0.10193923382E+01 0.  0.
     999903    2    3    3    0    0 -0.90688370174E-01 -0.12496923908E-01  0.90739462300E-01  0.13050656056E+00  0.20439147189E-01 0.  0.
         14    1    1    2    0    0  0.60843254395E-02 -0.23341426268E-01 -0.24872632190E-02  0.24249281940E-01  0.00000000000E+00 0. -1.
     999901    1    3    3    0    0  0.84604044735E-01  0.35838350177E-01 -0.88252199081E-01  0.88917415750E+00  0.88000000000E+00 0.  1.
        -11    1    4    4    0    0 -0.55953382411E-01  0.65576009382E-03  0.46638028131E-01  0.72846261493E-01  0.51100000000E-03 0.  1.
         11    1    4    4    0    0 -0.34734987763E-01 -0.13152684002E-01  0.44101434169E-01  0.57660299064E-01  0.51100000000E-03 0. -1.
</event>
<event>
 8    1  0.1082757E+005  0.1043930E+01  0.7957747E-01            NaN
         13   -1    0    0    0    0  0.00000000000E+00  0.00000000000E+00  0.74505805969E-08  0.10566000000E+00  0.10566000000E+00 0.  1.
     999900   -1    0    0    0    0 -0.00000000000E+00 -0.00000000000E+00 -0.74505805969E-08  0.93827000000E+00  0.93827000000E+00 0.  1.
     999902    2    1    2    0    0 -0.13192936312E-01 -0.18156005994E-01  0.52618016865E-02  0.10208783042E+01  0.10206180144E+01 0.  0.
     999903    2    3    3    0    0  0.92704052243E-01  0.45955576272E-01  0.75127899102E-01  0.12947169735E+00  0.20316567114E-01 0.  0.
         14    1    1    2    0    0  0.13192936312E-01  0.18156005994E-01 -0.52618016865E-02  0.23051695798E-01  0.00000000000E+00 0. -1.
     999901    1    3    3    0    0 -0.10589698856E+00 -0.64111582265E-01 -0.69866097415E-01  0.89140660685E+00  0.88000000000E+00 0.  1.
        -11    1    4    4    0    0  0.90701108604E-01  0.42638927359E-01  0.67304997468E-01  0.12072693582E+00  0.51100000000E-03 0.  1.
         11    1    4    4    0    0  0.20029436392E-02  0.33166489123E-02  0.78229016333E-02  0.87447615287E-02  0.51100000000E-03 0. -1.
</event>
<event>
 8    1  0.1082757E+005  0.1043930E+01  0.7957747E-01            NaN
         13   -1    0    0    0    0  0.00000000000E+00  0.00000000000E+00  0.74505805969E-08  0.10566000000E+00  0.10566000000E+00 0.  1.
     999900   -1    0    0    0    0 -0.00000000000E+00 -0.00000000000E+00 -0.74505805969E-08  0.93827000000E+00  0.93827000000E+00 0.  1.
     999902    2    1    2    0    0  0.84152304077E-02 -0.20939291841E-01  0.59146989717E-02  0.10206007542E+01  0.10203340854E+01 0.  0.
     999903    2    3    3    0    0  0.38063541340E-01 -0.46055263580E-01 -0.11544178700E+00  0.13142291425E+00  0.19371518306E-01 0.  0.
         14    1    1    2    0    0 -0.84152304077E-02  0.20939291841E-01 -0.59146989717E-02  0.23329245799E-01  0.00000000000E+00 0. -1.
     999901    1    3    3    0    0 -0.29648310932E-01  0.25115971739E-01  0.12135648597E+00  0.88917783995E+00  0.88000000000E+00 0. -1.
        -11    1    4    4    0    0  0.29997885118E-01 -0.22193104749E-01 -0.75089158334E-01  0.83851355566E-01  0.51100000000E-03 0. -1.
         11    1    4    4    0    0  0.80656562216E-02 -0.23862158831E-01 -0.40352628663E-01  0.47571558681E-01  0.51100000000E-03 0.  1.
</event>
<event>
 8    1  0.1082757E+005  0.1043930E+01  0.7957747E-01            NaN
         13   -1    0    0    0    0  0.00000000000E+00  0.00000000000E+00  0.74505805969E-08  0.10566000000E+00  0.10566000000E+00 0.  1.
     999900   -1    0    0    0    0 -0.00000000000E+00 -0.00000000000E+00 -0.74505805969E-08  0.93827000000E+00  0.93827000000E+00 0. -1.
     999902    2    1    2    0    0 -0.19284789814E-01  0.22976888352E-02 -0.14416738857E-01  0.10197427130E+01  0.10194558234E+01 0.  0.
     999903    2    3    3    0    0  0.22673191846E-01 -0.85177827783E-01 -0.94765871106E-01  0.13077228534E+00  0.18747914893E-01 0.  0.
         14    1    1    2    0    0  0.19284789814E-01 -0.22976888352E-02  0.14416738857E-01  0.24187286980E-01  0.00000000000E+00 0.  1.
     999901    1    3    3    0    0 -0.41957981661E-01  0.87475516618E-01  0.80349132249E-01  0.88897042768E+00  0.88000000000E+00 0.  1.
        -11    1    4    4    0    0  0.16077554386E-01 -0.70235578971E-01 -0.86111762062E-01  0.11228099124E+00  0.51100000000E-03 0.  1.
         11    1    4    4    0    0  0.65956374602E-02 -0.14942248812E-01 -0.86541090442E-02  0.18491294098E-01  0.51100000000E-03 0. -1.
</event>
<event>
 8    1  0.1082757E+005  0.1043930E+01  0.7957747E-01            NaN
         13   -1    0    0    0    0  0.00000000000E+00  0.00000000000E+00  0.74505805969E-08  0.10566000000E+00  0.10566000000E+00 0. -1.
     999900   -1    0    0    0    0 -0.00000000000E+00 -0.00000000000E+00 -0.74505805969E-08  0.93827000000E+00  0.93827000000E+00 0.  1.
     999902    2    1    2    0    0  0.21372357370E-01  0.77567211633E-02 -0.20648080166E-02  0.10211000238E+01  0.10208447731E+01 0.  0.
     999903    2    3    3    0    0  0.86167695260E-01  0.91954841589E-01  0.39745884107E-01  0.13372417708E+00  0.20539124501E-01 0.  0.
         14    1    1    2    0    0 -0.21372357370E-01 -0.77567211633E-02  0.20648080166E-02  0.22829976235E-01  0.00000000000E+00 0. -1.
     999901    1    3    3    0    0 -0.64795337890E-01 -0.84198120426E-01 -0.41810692124E-01  0.88737584668E+00  0.88000000000E+00 0. -1.
        -11    1    4    4    0    0  0.26815149928E-01  0.18737460713E-01  0.41781967647E-02  0.32982770485E-01  0.51100000000E-03 0. -1.
         11    1    4    4    0    0  0.59352545332E-01  0.73217380877E-01  0.35567687343E-01  0.10074140660E+00  0.51100000000E-03 0.  1.
</event>
<event>
 8    1  0.1082757E+005  0.1043930E+01  0.7957747E-01            NaN
         13   -1    0    0    0    0  0.00000000000E+00  0.00000000000E+00  0.74505805969E-08  0.10566000000E+00  0.10566000000E+00 0.  1.
     999900   -1    0    0    0    0 -0.00000000000E+00 -0.00000000000E+00 -0.74505805969E-08  0.93827000000E+00  0.93827000000E+00 0. -1.
     999902    2    1    2    0    0 -0.18252372692E-01  0.12178102196E-01 -0.80930838473E-02  0.10205429675E+01  0.10202749606E+01 0.  0.
     999903    2    3    3    0    0 -0.25945427562E-02 -0.35350230178E-01  0.12290809117E+00  0.12943948426E+00  0.19794210893E-01 0.  0.
         14    1    1    2    0    0  0.18252372692E-01 -0.12178102196E-01  0.80930838473E-02  0.23387032479E-01  0.00000000000E+00 0. -1.
     999901    1    3    3    0    0 -0.15657829936E-01  0.47528332374E-01 -0.13100117502E+00  0.89110348326E+00  0.88000000000E+00 0. -1.
        -11    1    4    4    0    0 -0.88138024441E-02 -0.32483384749E-01  0.99115851584E-01  0.10467600754E+00  0.51100000000E-03 0.  1.
         11    1    4    4    0    0  0.62192596879E-02 -0.28668454287E-02  0.23792239589E-01  0.24763476723E-01  0.51100000000E-03 0. -1.
</event>
<event>
 8    1  0.1082757E+005  0.1043930E+01  0.7957747E-01            NaN
         13   -1    0    0    0    0  0.00000000000E+00  0.00000000000E+00  0.74505805969E-08  0.10566000000E+00  0.10566000000E+00 0. -1.
     999900   -1    0    0    0    0 -0.00000000000E+00 -0.00000000000E+00 -0.74505805969E-08  0.93827000000E+00  0.93827000000E+00 0.  1.
     999902    2    1    2    0    0  0.72078537548E-02 -0.21511931761E-01 -0.54415928019E-02  0.10205991771E+01  0.10203324718E+01 0.  0.
     999903    2    3    3    0    0 -0.23332988648E-01 -0.11880964134E+00 -0.52258926847E-01  0.13347379134E+00  0.20593647174E-01 0.  0.
         14    1    1    2    0    0 -0.72078537548E-02  0.21511931761E-01  0.54415928019E-02  0.23330822876E-01  0.00000000000E+00 0.  1.
     999901    1    3    3    0    0  0.30540842403E-01  0.97297709577E-01  0.46817334046E-01  0.88712538579E+00  0.88000000000E+00 0.  1.
        -11    1    4    4    0    0 -0.26487340620E-01 -0.10682850681E+00 -0.43779040498E-01  0.11845157065E+00  0.51100000000E-03 0.  1.
         11    1    4    4    0    0  0.31543519719E-02 -0.11981134525E-01 -0.84798863492E-02  0.15022220687E-01  0.51100000000E-03 0. -1.
</event>
<event>
 8    1  0.1082757E+005  0.1043930E+01  0.7957747E-01            NaN
         13   -1    0    0    0    0  0.00000000000E+00  0.00000000000E+00  0.74505805969E-08  0.10566000000E+00  0.10566000000E+00 0.  1.
     999900   -1    0    0    0    0 -0.00000000000E+00 -0.00000000000E+00 -0.74505805969E-08  0.93827000000E+00  0.93827000000E+00 0.  1.
     999902    2    1    2    0    0 -0.86240419701E-02  0.54752134188E-02  0.20234379409E-01  0.10212632364E+01  0.10210116629E+01 0.  0.
     999903    2    3    3    0    0  0.27461429977E-01 -0.12301927299E-01  0.12867472707E+00  0.13369493085E+00  0.20289938332E-01 0.  0.
         14    1    1    2    0    0  0.86240419701E-02 -0.54752134188E-02 -0.20234379409E-01  0.22666763597E-01  0.00000000000E+00 0. -1.
     999901    1    3    3    0    0 -0.36085471947E-01  0.17777140718E-01 -0.10844034766E+00  0.88756830555E+00  0.88000000000E+00 0.  1.
        -11    1    4    4    0    0  0.28156620733E-01 -0.16013808227E-01  0.11206205018E+00  0.11665076749E+00  0.51100000000E-03 0.  1.
         11    1    4    4    0    0 -0.69519075524E-03  0.37118809276E-02  0.16612676892E-01  0.17044163363E-01  0.51100000000E-03 0. -1.
</event>
<event>
 8    1  0.1082757E+005  0.1043930E+01  0.7957747E-01            NaN
         13   -1    0    0    0    0  0.00000000000E+00  0.00000000000E+00  0.74505805969E-08  0.10566000000E+00  0.10566000000E+00 0. -1.
     999900   -1    0    0    0    0 -0.00000000000E+00 -0.00000000000E+00 -0.74505805969E-08  0.93827000000E+00  0.93827000000E+00 0.  1.
     999902    2    1    2    0    0  0.23845519771E-02 -0.85362126605E-02 -0.46342735092E-02  0.10339285248E+01  0.10338801502E+01 0.  0.
     999903    2    3    3    0    0 -0.58635285664E-01 -0.12239337059E-01  0.12598755227E+00  0.14218910376E+00  0.27513265963E-01 0.  0.
         14    1    1    2    0    0 -0.23845519771E-02  0.85362126605E-02  0.46342735092E-02  0.10001475175E-01  0.00000000000E+00 0. -1.
     999901    1    3    3    0    0  0.61019837641E-01  0.37031243984E-02 -0.13062182578E+00  0.89173942107E+00  0.88000000000E+00 0.  1.
        -11    1    4    4    0    0 -0.15689337655E-01 -0.23805454202E-02  0.65226193260E-01  0.67130765829E-01  0.51100000000E-03 0. -1.
         11    1    4    4    0    0 -0.42945948008E-01 -0.98587916387E-02  0.60761359010E-01  0.75058337929E-01  0.51100000000E-03 0.  1.
</event>
<event>
 8    1  0.1384754E+005  0.1043930E+01  0.7957747E-01            NaN
         13   -1    0    0    0    0  0.00000000000E+00  0.00000000000E+00  0.74505805969E-08  0.10566000000E+00  0.10566000000E+00 0.  1.
     999900   -1    0    0    0    0 -0.00000000000E+00 -0.00000000000E+00 -0.74505805969E-08  0.93827000000E+00  0.93827000000E+00 0. -1.
     999902    2    1    2    0    0 -0.14317917870E-01  0.14391153563E-01  0.12654384088E-01  0.10200084300E+01  0.10197278832E+01 0.  0.
     999903    2    3    3    0    0  0.13400174730E-01 -0.43874584443E-01  0.12120053446E+00  0.13099467556E+00  0.19117835347E-01 0.  0.
         14    1    1    2    0    0  0.14317917870E-01 -0.14391153563E-01 -0.12654384088E-01  0.23921569966E-01  0.00000000000E+00 0.  1.
     999901    1    3    3    0    0 -0.27718092600E-01  0.58265738006E-01 -0.10854615037E+00  0.88901375447E+00  0.88000000000E+00 0. -1.
        -11    1    4    4    0    0  0.15951829152E-01 -0.20010341295E-01  0.58423507161E-01  0.63784339160E-01  0.51100000000E-03 0. -1.
         11    1    4    4    0    0 -0.25516544217E-02 -0.23864243148E-01  0.62777027301E-01  0.67210336401E-01  0.51100000000E-03 0.  1.
</event>
<event>
 8    1  0.1082757E+005  0.1043930E+01  0.7957747E-01            NaN
         13   -1    0    0    0    0  0.00000000000E+00  0.00000000000E+00  0.74505805969E-08  0.10566000000E+00  0.10566000000E+00 0. -1.
     999900   -1    0    0    0    0 -0.00000000000E+00 -0.00000000000E+00 -0.74505805969E-08  0.93827000000E+00  0.93827000000E+00 0. -1.
     999902    2    1    2    0    0  0.20554537341E-01  0.10668161942E-01 -0.77467553221E-02  0.10195105221E+01  0.10192180305E+01 0.  0.
     999903    2    3    3    0    0  0.26367742023E-02  0.47003531547E-01 -0.12098978390E+00  0.13132963461E+00  0.19815664562E-01 0.  0.
         14    1    1    2    0    0 -0.20554537341E-01 -0.10668161942E-01  0.77467553221E-02  0.24419477933E-01  0.00000000000E+00 0. -1.
     999901    1    3    3    0    0  0.17917763138E-01 -0.36335369605E-01  0.11324302858E+00  0.88818088746E+00  0.88000000000E+00 0.  1.
        -11    1    4    4    0    0  0.10180604649E-01  0.19579832486E-01 -0.62621160011E-01  0.66397931846E-01  0.51100000000E-03 0.  1.
         11    1    4    4    0    0 -0.75438304469E-02  0.27423699061E-01 -0.58368623891E-01  0.64931702765E-01  0.51100000000E-03 0. -1.
</event>
<event>
 8    1  0.1082757E+005  0.1043930E+01  0.7957747E-01            NaN
         13   -1    0    0    0    0  0.00000000000E+00  0.00000000000E+00  0.74505805969E-08  0.10566000000E+00  0.10566000000E+00 0. -1.
     999900   -1    0    0    0    0 -0.00000000000E+00 -0.00000000000E+00 -0.74505805969E-08  0.93827000000E+00  0.93827000000E+00 0.  1.
     999902    2    1    2    0    0 -0.10633960170E-01  0.19134778294E-02 -0.21167412701E-01  0.10201644395E+01  0.10198875829E+01 0.  0.
     999903    2    3    3    0    0 -0.97017965192E-02 -0.24536900516E-02 -0.13141009690E+00  0.13327471099E+00  0.19834050801E-01 0.  0.
         14    1    1    2    0    0  0.10633960170E-01 -0.19134778294E-02  0.21167412701E-01  0.23765560518E-01  0.00000000000E+00 0. -1.
     999901    1    3    3    0    0 -0.93216365109E-03  0.43671678810E-02  0.11024268420E+00  0.88688972849E+00  0.88000000000E+00 0. -1.
        -11    1    4    4    0    0 -0.62177501327E-02 -0.10196267375E-01 -0.49441012167E-01  0.50865499999E-01  0.51100000000E-03 0. -1.
         11    1    4    4    0    0 -0.34840463865E-02  0.77425773234E-02 -0.81969084735E-01  0.82409210990E-01  0.51100000000E-03 0.  1.
</event>
<event>
 8    1  0.1082757E+005  0.1043930E+01  0.7957747E-01            NaN
         13   -1    0    0    0    0  0.00000000000E+00  0.00000000000E+00  0.74505805969E-08  0.10566000000E+00  0.10566000000E+00 0. -1.
     999900   -1    0    0    0    0 -0.00000000000E+00 -0.00000000000E+00 -0.74505805969E-08  0.93827000000E+00  0.93827000000E+00 0. -1.
     999902    2    1    2    0    0 -0.15252479151E-01 -0.11498543034E-01  0.14057737219E-01  0.10202134533E+01  0.10199377509E+01 0.  0.
     999903    2    3    3    0    0  0.10978290470E+00  0.45713632843E-01 -0.45736577962E-01  0.12753073227E+00  0.54982467457E-02 0.  0.
         14    1    1    2    0    0  0.15252479151E-01  0.11498543034E-01 -0.14057737219E-01  0.23716546711E-01  0.00000000000E+00 0.  1.
     999901    1    3    3    0    0 -0.12503538385E+00 -0.57212175877E-01  0.59794315181E-01  0.89268272102E+00  0.88000000000E+00 0. -1.
        -11    1    4    4    0    0  0.87726061668E-01  0.34421120408E-01 -0.37241793714E-01  0.10133058643E+00  0.51100000000E-03 0. -1.
         11    1    4    4    0    0  0.22056843031E-01  0.11292512435E-01 -0.84947842484E-02  0.26200145839E-01  0.51100000000E-03 0.  1.
</event>
<event>
 8    1  0.1082757E+005  0.1043930E+01  0.7957747E-01            NaN
         13   -1    0    0    0    0  0.00000000000E+00  0.00000000000E+00  0.74505805969E-08  0.10566000000E+00  0.10566000000E+00 0.  1.
     999900   -1    0    0    0    0 -0.00000000000E+00 -0.00000000000E+00 -0.74505805969E-08  0.93827000000E+00  0.93827000000E+00 0.  1.
     999902    2    1    2    0    0 -0.72301600652E-02 -0.20424370186E-01 -0.10102230081E-01  0.10200242441E+01  0.10197440725E+01 0.  0.
     999903    2    3    3    0    0  0.86374178964E-01 -0.13989736899E-01  0.92790366708E-01  0.12907527629E+00  0.19853545390E-01 0.  0.
         14    1    1    2    0    0  0.72301600652E-02  0.20424370186E-01  0.10102230081E-01  0.23905755890E-01  0.00000000000E+00 0. -1.
     999901    1    3    3    0    0 -0.93604339030E-01 -0.64346332870E-02 -0.10289259679E+00  0.89094896782E+00  0.88000000000E+00 0.  1.
        -11    1    4    4    0    0  0.60418880239E-01 -0.14757908806E-01  0.53857748361E-01  0.82274875516E-01  0.51100000000E-03 0. -1.
         11    1    4    4    0    0  0.25955298725E-01  0.76817190709E-03  0.38932618346E-01  0.46800400771E-01  0.51100000000E-03 0.  1.
</event>
<event>
 8    1  0.1082757E+005  0.1043930E+01  0.7957747E-01            NaN
         13   -1    0    0    0    0  0.00000000000E+00  0.00000000000E+00  0.74505805969E-08  0.10566000000E+00  0.10566000000E+00 0.  1.
     999900   -1    0    0    0    0 -0.00000000000E+00 -0.00000000000E+00 -0.74505805969E-08  0.93827000000E+00  0.93827000000E+00 0.  1.
     999902    2    1    2    0    0 -0.22412122822E-01 -0.12726270593E-01 -0.76499302233E-02  0.10170453827E+01  0.10166899861E+01 0.  0.
     999903    2    3    3    0    0 -0.75401926717E-01  0.96636931071E-01  0.30208708202E-01  0.12788763200E+00  0.20458088108E-01 0.  0.
         14    1    1    2    0    0  0.22412122822E-01  0.12726270593E-01  0.76499302233E-02  0.26884617257E-01  0.00000000000E+00 0.  1.
     999901    1    3    3    0    0  0.52989803895E-01 -0.10936320166E+00 -0.37858638425E-01  0.88915775074E+00  0.88000000000E+00 0. -1.
        -11    1    4    4    0    0 -0.15829557271E-01  0.25698636312E-01  0.16010952333E-01  0.34170257642E-01  0.51100000000E-03 0.  1.
         11    1    4    4    0    0 -0.59572369446E-01  0.70938294759E-01  0.14197755869E-01  0.93717374363E-01  0.51100000000E-03 0. -1.
</event>
<event>
 8    1  0.1082757E+005  0.1043930E+01  0.7957747E-01            NaN
         13   -1    0    0    0    0  0.00000000000E+00  0.00000000000E+00  0.74505805969E-08  0.10566000000E+00  0.10566000000E+00 0. -1.
     999900   -1    0    0    0    0 -0.00000000000E+00 -0.00000000000E+00 -0.74505805969E-08  0.93827000000E+00  0.93827000000E+00 0.  1.
     999902    2    1    2    0    0 -0.18088741017E-01 -0.18409992826E-02  0.14077433556E-01  0.10209350883E+01  0.10206760938E+01 0.  0.
     999903    2    3    3    0    0 -0.11302401263E+00  0.43873754697E-01 -0.49271579288E-01  0.13238816100E+00  0.19990069185E-01 0.  0.
         14    1    1    2    0    0  0.18088741017E-01  0.18409992826E-02 -0.14077433556E-01  0.22994911730E-01  0.00000000000E+00 0. -1.
     999901    1    3    3    0    0  0.94935271613E-01 -0.45714753980E-01  0.63349012844E-01  0.88854692727E+00  0.88000000000E+00 0. -1.
        -11    1    4    4    0    0 -0.58220641221E-01  0.28458730776E-01 -0.35175002145E-01  0.73736587380E-01  0.51100000000E-03 0.  1.
         11    1    4    4    0    0 -0.54803371409E-01  0.15415023921E-01 -0.14096577143E-01  0.58651573623E-01  0.51100000000E-03 0. -1.
</event>
<event>
 8    1  0.1082757E+005  0.1043930E+01  0.7957747E-01            NaN
         13   -1    0    0    0    0  0.00000000000E+00  0.00000000000E+00  0.74505805969E-08  0.10566000000E+00  0.10566000000E+00 0.  1.
     999900   -1    0    0    0    0 -0.00000000000E+00 -0.00000000000E+00 -0.74505805969E-08  0.93827000000E+00  0.93827000000E+00 0. -1.
     999902    2    1    2    0    0  0.86339228406E-02  0.21826219852E-01  0.38583398134E-03  0.10204549629E+01  0.10201849117E+01 0.  0.
     999903    2    3    3    0    0  0.84047693497E-01 -0.66524315753E-01  0.70599256015E-01  0.13004888785E+00  0.20951346300E-01 0.  0.
         14    1    1    2    0    0 -0.86339228406E-02 -0.21826219852E-01 -0.38583398134E-03  0.23475037051E-01  0.00000000000E+00 0.  1.
     999901    1    3    3    0    0 -0.75413770656E-01  0.88350535605E-01 -0.70213422034E-01  0.89040607510E+00  0.88000000000E+00 0. -1.
        -11    1    4    4    0    0  0.66113220405E-01 -0.49727268507E-01  0.43512755417E-01  0.93473954396E-01  0.51100000000E-03 0.  1.
         11    1    4    4    0    0  0.17934473092E-01 -0.16797047246E-01  0.27086500598E-01  0.36574933450E-01  0.51100000000E-03 0. -1.
</event>
<event>
 8    1  0.1082757E+005  0.1043930E+01  0.7957747E-01            NaN
         13   -1    0    0    0    0  0.00000000000E+00  0.00000000000E+00  0.74505805969E-08  0.10566000000E+00  0.10566000000E+00 0. -1.
     999900   -1    0    0    0    0 -0.00000000000E+00 -0.00000000000E+00 -0.74505805969E-08  0.93827000000E+00  0.93827000000E+00 0.  1.
     999902    2    1    2    0    0  0.23324322072E-01  0.61107994346E-03 -0.26422039619E-02  0.10204485465E+01  0.10201783458E+01 0.  0.
     999903    2    3    3    0    0  0.60509822796E-01  0.80467342725E-01 -0.83596219669E-01  0.13235320426E+00  0.19814409780E-01 0.  0.
         14    1    1    2    0    0 -0.23324322072E-01 -0.61107994346E-03  0.26422039619E-02  0.23481453545E-01  0.00000000000E+00 0.  1.
     999901    1    3    3    0    0 -0.37185500724E-01 -0.79856262781E-01  0.80954015707E-01  0.88809534220E+00  0.88000000000E+00 0. -1.
        -11    1    4    4    0    0  0.37417198570E-01  0.51310561670E-01 -0.64590813598E-01  0.90581757600E-01  0.51100000000E-03 0.  1.
         11    1    4    4    0    0  0.23092624226E-01  0.29156781055E-01 -0.19005406071E-01  0.41771446660E-01  0.51100000000E-03 0. -1.
</event>
<event>
 8    1  0.1082757E+005  0.1043930E+01  0.7957747E-01            NaN
         13   -1    0    0    0    0  0.00000000000E+00  0.00000000000E+00  0.74505805969E-08  0.10566000000E+00  0.10566000000E+00 0. -1.
     999900   -1    0    0    0    0 -0.00000000000E+00 -0.00000000000E+00 -0.74505805969E-08  0.93827000000E+00  0.93827000000E+00 0.  1.
     999902    2    1    2    0    0 -0.10127600161E-01  0.17850794161E-01 -0.18655307964E-01  0.10161948300E+01  0.10158162693E+01 0.  0.
     999903    2    3    3    0    0  0.83831212118E-01  0.94309359903E-01  0.40350060076E-02  0.12760661212E+00  0.18580599926E-01 0.  0.
         14    1    1    2    0    0  0.10127600161E-01 -0.17850794161E-01  0.18655307964E-01  0.27735169955E-01  0.00000000000E+00 0.  1.
     999901    1    3    3    0    0 -0.93958812279E-01 -0.76458565742E-01 -0.22690313971E-01  0.88858821792E+00  0.88000000000E+00 0. -1.
        -11    1    4    4    0    0  0.78185190835E-01  0.81066174951E-01  0.72008575899E-02  0.11285726498E+00  0.51100000000E-03 0.  1.
         11    1    4    4    0    0  0.56460212837E-02  0.13243184952E-01 -0.31658515823E-02  0.14749347147E-01  0.51100000000E-03 0. -1.
</event>
<event>
 8    1  0.1082757E+005  0.1043930E+01  0.7957747E-01            NaN
         13   -1    0    0    0    0  0.00000000000E+00  0.00000000000E+00  0.74505805969E-08  0.10566000000E+00  0.10566000000E+00 0.  1.
     999900   -1    0    0    0    0 -0.00000000000E+00 -0.00000000000E+00 -0.74505805969E-08  0.93827000000E+00  0.93827000000E+00 0.  1.
     999902    2    1    2    0    0 -0.13707608820E-01 -0.75022916856E-02  0.17752963348E-01  0.10202794053E+01  0.10200052521E+01 0.  0.
     999903    2    3    3    0    0  0.21430730418E-01  0.12512650773E+00  0.17298137133E-01  0.12964743411E+00  0.19832107306E-01 0.  0.
         14    1    1    2    0    0  0.13707608820E-01  0.75022916856E-02 -0.17752963348E-01  0.23650594659E-01  0.00000000000E+00 0. -1.
     999901    1    3    3    0    0 -0.35138339237E-01 -0.13262879941E+00  0.45482621464E-03  0.89063197123E+00  0.88000000000E+00 0.  1.
        -11    1    4    4    0    0  0.23883792449E-01  0.85296331660E-01  0.12134438012E-01  0.89405846807E-01  0.51100000000E-03 0. -1.
         11    1    4    4    0    0 -0.24530620311E-02  0.39830176066E-01  0.51636991212E-02  0.40241587300E-01  0.51100000000E-03 0.  1.
</event>
<event>
 8    1  0.1082757E+005  0.1043930E+01  0.7957747E-01            NaN
         13   -1    0    0    0    0  0.00000000000E+00  0.00000000000E+00  0.74505805969E-08  0.10566000000E+00  0.10566000000E+00 0.  1.
     999900   -1    0    0    0    0 -0.00000000000E+00 -0.00000000000E+00 -0.74505805969E-08  0.93827000000E+00  0.93827000000E+00 0. -1.
     999902    2    1    2    0    0  0.19641261008E-01  0.11868899590E-01  0.17604019264E-03  0.10209804706E+01  0.10207225090E+01 0.  0.
     999903    2    3    3    0    0 -0.25338207780E-01  0.29580508693E-01 -0.12348318433E+00  0.13102066387E+00  0.20032131233E-01 0.  0.
         14    1    1    2    0    0 -0.19641261008E-01 -0.11868899590E-01 -0.17604019264E-03  0.22949529443E-01  0.00000000000E+00 0. -1.
     999901    1    3    3    0    0  0.44979468788E-01 -0.17711609102E-01  0.12365922452E+00  0.88995980669E+00  0.88000000000E+00 0.  1.
        -11    1    4    4    0    0 -0.26918904049E-01  0.23593525158E-01 -0.88089433767E-01  0.95085704956E-01  0.51100000000E-03 0. -1.
         11    1    4    4    0    0  0.15806962693E-02  0.59869835347E-02 -0.35393750560E-01  0.35934958915E-01  0.51100000000E-03 0.  1.
</event>
<event>
 8    1  0.1082757E+005  0.1043930E+01  0.7957747E-01            NaN
         13   -1    0    0    0    0  0.00000000000E+00  0.00000000000E+00  0.74505805969E-08  0.10566000000E+00  0.10566000000E+00 0. -1.
     999900   -1    0    0    0    0 -0.00000000000E+00 -0.00000000000E+00 -0.74505805969E-08  0.93827000000E+00  0.93827000000E+00 0.  1.
     999902    2    1    2    0    0 -0.37052190041E-02 -0.18057149798E-01  0.15308147314E-01  0.10199690175E+01  0.10196875345E+01 0.  0.
     999903    2    3    3    0    0  0.52794488382E-01  0.77882871180E-02  0.11883795858E+00  0.13172432975E+00  0.19517254699E-01 0.  0.
         14    1    1    2    0    0  0.37052190041E-02  0.18057149798E-01 -0.15308147314E-01  0.23960982469E-01  0.00000000000E+00 0.  1.
     999901    1    3    3    0    0 -0.56499707386E-01 -0.25845436916E-01 -0.10352981126E+00  0.88824468778E+00  0.88000000000E+00 0.  1.
        -11    1    4    4    0    0  0.11851678892E-03 -0.28884636350E-02  0.43618664867E-02  0.52577817231E-02  0.51100000000E-03 0. -1.
         11    1    4    4    0    0  0.52675971593E-01  0.10676750753E-01  0.11447609209E+00  0.12646654803E+00  0.51100000000E-03 0.  1.
</event>
<event>
 8    1  0.1082757E+005  0.1043930E+01  0.7957747E-01            NaN
         13   -1    0    0    0    0  0.00000000000E+00  0.00000000000E+00  0.74505805969E-08  0.10566000000E+00  0.10566000000E+00 0. -1.
     999900   -1    0    0    0    0 -0.00000000000E+00 -0.00000000000E+00 -0.74505805969E-08  0.93827000000E+00  0.93827000000E+00 0. -1.
     999902    2    1    2    0    0  0.23915670314E-01 -0.63105377169E-02  0.61362883803E-02  0.10184459617E+01  0.10181270749E+01 0.  0.
     999903    2    3    3    0    0  0.77114441789E-01 -0.49066444811E-01 -0.91077224525E-01  0.13046586960E+00  0.19290649674E-01 0.  0.
         14    1    1    2    0    0 -0.23915670314E-01  0.63105377169E-02 -0.61362883803E-02  0.25484038297E-01  0.00000000000E+00 0.  1.
     999901    1    3    3    0    0 -0.53198771474E-01  0.42755907094E-01  0.97213512905E-01  0.88798009210E+00  0.88000000000E+00 0.  1.
        -11    1    4    4    0    0  0.95578144559E-02  0.47326640045E-03 -0.80215913475E-02  0.12497313592E-01  0.51100000000E-03 0.  1.
         11    1    4    4    0    0  0.67556627333E-01 -0.49539711211E-01 -0.83055633177E-01  0.11796855601E+00  0.51100000000E-03 0. -1.
</event>
<event>
 8    1  0.1082757E+005  0.1043930E+01  0.7957747E-01            NaN
         13   -1    0    0    0    0  0.00000000000E+00  0.00000000000E+00  0.74505805969E-08  0.10566000000E+00  0.10566000000E+00 0. -1.
     999900   -1    0    0    0    0 -0.00000000000E+00 -0.00000000000E+00 -0.74505805969E-08  0.93827000000E+00  0.93827000000E+00 0.  1.
     999902    2    1    2    0    0  0.19480775118E-01  0.18128439090E-01  0.23672921985E-02  0.10172139940E+01  0.10168631003E+01 0.  0.
     999903    2    3    3    0    0  0.11478542926E+00  0.49510545148E-02  0.57776722807E-01  0.13023776798E+00  0.20579572355E-01 0.  0.
         14    1    1    2    0    0 -0.19480775118E-01 -0.18128439090E-01 -0.23672921985E-02  0.26716005977E-01  0.00000000000E+00 0.  1.
     999901    1    3    3    0    0 -0.95304654144E-01  0.13177384575E-01 -0.55409430608E-01  0.88697622604E+00  0.88000000000E+00 0.  1.
        -11    1    4    4    0    0  0.55661023131E-01  0.73077618899E-02  0.38220881926E-01  0.67916491488E-01  0.51100000000E-03 0. -1.
         11    1    4    4    0    0  0.59124406131E-01 -0.23567073751E-02  0.19555840881E-01  0.62321276491E-01  0.51100000000E-03 0.  1.
</event>
<event>
 8    1  0.1082757E+005  0.1043930E+01  0.7957747E-01            NaN
         13   -1    0    0    0    0  0.00000000000E+00  0.00000000000E+00  0.74505805969E-08  0.10566000000E+00  0.10566000000E+00 0. -1.
     999900   -1    0    0    0    0 -0.00000000000E+00 -0.00000000000E+00 -0.74505805969E-08  0.93827000000E+00  0.93827000000E+00 0.  1.
     999902    2    1    2    0    0  0.36328479376E-02  0.16016742581E-01  0.17340977136E-01  0.10200460490E+01  0.10197663943E+01 0.  0.
     999903    2    3    3    0    0 -0.11909144533E+00 -0.31694271514E-01  0.36705971044E-01  0.13003897262E+00  0.19378000212E-01 0.  0.
         14    1    1    2    0    0 -0.36328479376E-02 -0.16016742581E-01 -0.17340977136E-01  0.23883950994E-01  0.00000000000E+00 0.  1.
     999901    1    3    3    0    0  0.12272429327E+00  0.47711014095E-01 -0.19364993908E-01  0.89000707638E+00  0.88000000000E+00 0.  1.
        -11    1    4    4    0    0 -0.10312982777E+00 -0.22591936104E-01  0.25865697107E-01  0.10869890690E+00  0.51100000000E-03 0. -1.
         11    1    4    4    0    0 -0.15961617564E-01 -0.91023354105E-02  0.10840273938E-01  0.21340065727E-01  0.51100000000E-03 0.  1.
</event>
<event>
 8    1  0.1082757E+005  0.1043930E+01  0.7957747E-01            NaN
         13   -1    0    0    0    0  0.00000000000E+00  0.00000000000E+00  0.74505805969E-08  0.10566000000E+00  0.10566000000E+00 0. -1.
     999900   -1    0    0    0    0 -0.00000000000E+00 -0.00000000000E+00 -0.74505805969E-08  0.93827000000E+00  0.93827000000E+00 0. -1.
     999902    2    1    2    0    0  0.87440485386E-02 -0.18110112304E-01 -0.11434950361E-01  0.10207957690E+01  0.10205335905E+01 0.  0.
     999903    2    3    3    0    0 -0.38767913272E-01 -0.93662726107E-01  0.81265443395E-01  0.13143704109E+00  0.19898897449E-01 0.  0.
         14    1    1    2    0    0 -0.87440485386E-02  0.18110112304E-01  0.11434950361E-01  0.23134230964E-01  0.00000000000E+00 0.  1.
     999901    1    3    3    0    0  0.47511961810E-01  0.75552613803E-01 -0.92700393756E-01  0.88935872794E+00  0.88000000000E+00 0. -1.
        -11    1    4    4    0    0 -0.23641263347E-01 -0.70371231723E-01  0.49438001569E-01  0.89193030596E-01  0.51100000000E-03 0. -1.
         11    1    4    4    0    0 -0.15126649924E-01 -0.23291494384E-01  0.31827441826E-01  0.42244010496E-01  0.51100000000E-03 0.  1.
</event>
<event>
 8    1  0.1082757E+005  0.1043930E+01  0.7957747E-01            NaN
         13   -1    0    0    0    0  0.00000000000E+00  0.00000000000E+00  0.74505805969E-08  0.10566000000E+00  0.10566000000E+00 0. -1.
     999900   -1    0    0    0    0 -0.00000000000E+00 -0.00000000000E+00 -0.74505805969E-08  0.93827000000E+00  0.93827000000E+00 0. -1.
     999902    2    1    2    0    0  0.12381183022E-01 -0.18048276487E-01  0.10943674179E-01  0.10194596510E+01  0.10191659247E+01 0.  0.
     999903    2    3    3    0    0 -0.55547631952E-01  0.29087033196E-01 -0.10912770528E+00  0.12746570621E+00  0.20175611106E-01 0.  0.
         14    1    1    2    0    0 -0.12381183022E-01  0.18048276487E-01 -0.10943674179E-01  0.24470349031E-01  0.00000000000E+00 0.  1.
     999901    1    3    3    0    0  0.67928814975E-01 -0.47135309683E-01  0.12007137946E+00  0.89199394476E+00  0.88000000000E+00 0.  1.
        -11    1    4    4    0    0 -0.34013387651E-01  0.97800581946E-02 -0.73460349549E-01  0.81542897634E-01  0.51100000000E-03 0. -1.
         11    1    4    4    0    0 -0.21534244302E-01  0.19306975002E-01 -0.35667355733E-01  0.45922808574E-01  0.51100000000E-03 0.  1.
</event>
<event>
 8    1  0.1082757E+005  0.1043930E+01  0.7957747E-01            NaN
         13   -1    0    0    0    0  0.00000000000E+00  0.00000000000E+00  0.74505805969E-08  0.10566000000E+00  0.10566000000E+00 0. -1.
     999900   -1    0    0    0    0 -0.00000000000E+00 -0.00000000000E+00 -0.74505805969E-08  0.93827000000E+00  0.93827000000E+00 0.  1.
     999902    2    1    2    0    0  0.90576125678E-02 -0.19117600818E-01  0.93046484648E-02  0.10208194074E+01  0.10205577706E+01 0.  0.
     999903    2    3    3    0    0 -0.99791839766E-01 -0.73486104775E-01 -0.37982373908E-01  0.13119015881E+00  0.20238037493E-01 0.  0.
         14    1    1    2    0    0 -0.90576125678E-02  0.19117600818E-01 -0.93046484648E-02  0.23110592583E-01  0.00000000000E+00 0.  1.
     999901    1    3    3    0    0  0.10884945233E+00  0.54368503957E-01  0.47287022373E-01  0.88962924861E+00  0.88000000000E+00 0.  1.
        -11    1    4    4    0    0 -0.21849698590E-01 -0.10444167697E-01 -0.14493184235E-01  0.28227707622E-01  0.51100000000E-03 0. -1.
         11    1    4    4    0    0 -0.77942141176E-01 -0.63041937078E-01 -0.23489189673E-01  0.10296245119E+00  0.51100000000E-03 0.  1.
</event>
<event>
 7    1  0.1135560E+005  0.1043930E+01  0.7957747E-01            NaN
         13   -1    0    0    0    0  0.00000000000E+00  0.00000000000E+00  0.74505805969E-08  0.10566000000E+00  0.10566000000E+00 0. -1.
     999900   -1    0    0    0    0 -0.00000000000E+00 -0.00000000000E+00 -0.74505805969E-08  0.93827000000E+00  0.93827000000E+00 0. -1.
     999903    2    1    2    0    0  0.83807379465E-01  0.31125206179E-01  0.37043614810E-01  0.97531065519E-01  0.12150062992E-01 0.  0.
         14    1    1    2    0    0  0.48867641621E-01 -0.25576445574E-01 -0.97960052009E-02  0.56019306348E-01  0.00000000000E+00 0. -1.
     999901    1    1    2    0    0 -0.13267502109E+00 -0.55487606049E-02 -0.27247609609E-01  0.89037962813E+00  0.88000000000E+00 0. -1.
        -11    1    3    3    0    0  0.26239752563E-01  0.14969528724E-01  0.15640948077E-01  0.34022224832E-01  0.51100000000E-03 0. -1.
         11    1    3    3    0    0  0.57567626902E-01  0.16155677455E-01  0.21402666733E-01  0.63508840688E-01  0.51100000000E-03 0.  1.
</event>
<event>
 8    1  0.1082757E+005  0.1043930E+01  0.7957747E-01            NaN
         13   -1    0    0    0    0  0.00000000000E+00  0.00000000000E+00  0.74505805969E-08  0.10566000000E+00  0.10566000000E+00 0. -1.
     999900   -1    0    0    0    0 -0.00000000000E+00 -0.00000000000E+00 -0.74505805969E-08  0.93827000000E+00  0.93827000000E+00 0.  1.
     999902    2    1    2    0    0  0.18894934210E-01  0.13905192743E-01  0.16642576702E-02  0.10204110145E+01  0.10201399394E+01 0.  0.
     999903    2    3    3    0    0 -0.12527056554E+00 -0.16125647248E-01 -0.73003288528E-02  0.12812972117E+00  0.20277562848E-01 0.  0.
         14    1    1    2    0    0 -0.18894934210E-01 -0.13905192743E-01 -0.16642576702E-02  0.23518985471E-01  0.00000000000E+00 0.  1.
     999901    1    3    3    0    0  0.14416549975E+00  0.30030839991E-01  0.89645865230E-02  0.89228129336E+00  0.88000000000E+00 0.  1.
        -11    1    4    4    0    0 -0.98881803723E-01 -0.63510043691E-02 -0.11189842316E-01  0.99716698983E-01  0.51100000000E-03 0. -1.
         11    1    4    4    0    0 -0.26388761819E-01 -0.97746428792E-02  0.38895134631E-02  0.28413022186E-01  0.51100000000E-03 0.  1.
</event>
<event>
 8    1  0.1082757E+005  0.1043930E+01  0.7957747E-01            NaN
         13   -1    0    0    0    0  0.00000000000E+00  0.00000000000E+00  0.74505805969E-08  0.10566000000E+00  0.10566000000E+00 0. -1.
     999900   -1    0    0    0    0 -0.00000000000E+00 -0.00000000000E+00 -0.74505805969E-08  0.93827000000E+00  0.93827000000E+00 0. -1.
     999902    2    1    2    0    0  0.51676112925E-02  0.90733357039E-02  0.49986281457E-02  0.10323534759E+01  0.10322885659E+01 0.  0.
     999903    2    3    3    0    0 -0.77526277933E-02  0.57899630346E-01 -0.12688263478E+00  0.14109391373E+00  0.19895201650E-01 0.  0.
         14    1    1    2    0    0 -0.51676112925E-02 -0.90733357039E-02 -0.49986281457E-02  0.11576524116E-01  0.00000000000E+00 0.  1.
     999901    1    3    3    0    0  0.12920239086E-01 -0.48826294642E-01  0.13188126293E+00  0.89125956216E+00  0.88000000000E+00 0.  1.
        -11    1    4    4    0    0  0.19007830074E-02  0.24141119244E-02 -0.20374703220E-01  0.20611418309E-01  0.51100000000E-03 0. -1.
         11    1    4    4    0    0 -0.96534108007E-02  0.55485518422E-01 -0.10650793156E+00  0.12048249542E+00  0.51100000000E-03 0.  1.
</event>
<event>
 8    1  0.1082757E+005  0.1043930E+01  0.7957747E-01            NaN
         13   -1    0    0    0    0  0.00000000000E+00  0.00000000000E+00  0.74505805969E-08  0.10566000000E+00  0.10566000000E+00 0.  1.
     999900   -1    0    0    0    0 -0.00000000000E+00 -0.00000000000E+00 -0.74505805969E-08  0.93827000000E+00  0.93827000000E+00 0. -1.
     999902    2    1    2    0    0  0.68783841349E-02  0.20303994422E-01  0.59087936226E-02  0.10216931342E+01  0.10214511160E+01 0.  0.
     999903    2    3    3    0    0  0.10044978197E+00 -0.41721836115E-01  0.70452716986E-01  0.13221647449E+00  0.26205733911E-01 0.  0.
         14    1    1    2    0    0 -0.68783841349E-02 -0.20303994422E-01 -0.59087936226E-02  0.22236865783E-01  0.00000000000E+00 0. -1.
     999901    1    3    3    0    0 -0.93571397838E-01  0.62025830536E-01 -0.64543923363E-01  0.88947665972E+00  0.88000000000E+00 0.  1.
        -11    1    4    4    0    0  0.43094563079E-01 -0.10922286875E-01  0.42019480077E-01  0.61174631544E-01  0.51100000000E-03 0.  1.
         11    1    4    4    0    0  0.57355218894E-01 -0.30799549240E-01  0.28433236909E-01  0.71041842951E-01  0.51100000000E-03 0. -1.
</event>
<event>
 8    1  0.1082757E+005  0.1043930E+01  0.7957747E-01            NaN
         13   -1    0    0    0    0  0.00000000000E+00  0.00000000000E+00  0.74505805969E-08  0.10566000000E+00  0.10566000000E+00 0.  1.
     999900   -1    0    0    0    0 -0.00000000000E+00 -0.00000000000E+00 -0.74505805969E-08  0.93827000000E+00  0.93827000000E+00 0.  1.
     999902    2    1    2    0    0 -0.11314359259E-01 -0.21182379198E-01  0.19735374740E-02  0.10198342999E+01  0.10195496047E+01 0.  0.
     999903    2    3    3    0    0  0.56774783706E-01 -0.11116557293E+00  0.37041909050E-01  0.13193627802E+00  0.21305345869E-01 0.  0.
         14    1    1    2    0    0  0.11314359259E-01  0.21182379198E-01 -0.19735374740E-02  0.24095700116E-01  0.00000000000E+00 0.  1.
     999901    1    3    3    0    0 -0.68089142964E-01  0.89983193730E-01 -0.35068371576E-01  0.88789802186E+00  0.88000000000E+00 0.  1.
        -11    1    4    4    0    0  0.26678980592E-01 -0.32610510986E-01  0.76505519963E-02  0.42825290414E-01  0.51100000000E-03 0.  1.
         11    1    4    4    0    0  0.30095803114E-01 -0.78555061942E-01  0.29391357054E-01  0.89110987607E-01  0.51100000000E-03 0. -1.
</event>
<event>
 8    1  0.1296165E+005  0.1043930E+01  0.7957747E-01            NaN
         13   -1    0    0    0    0  0.00000000000E+00  0.00000000000E+00  0.74505805969E-08  0.10566000000E+00  0.10566000000E+00 0.  1.
     999900   -1    0    0    0    0 -0.00000000000E+00 -0.00000000000E+00 -0.74505805969E-08  0.93827000000E+00  0.93827000000E+00 0.  1.
     999902    2    1    2    0    0  0.46392258602E-02 -0.79770958747E-03 -0.22999752675E-01  0.10204534717E+01  0.10201833857E+01 0.  0.
     999903    2    3    3    0    0  0.21498497234E-01 -0.91238112732E-01 -0.92871032671E-01  0.13290308029E+00  0.15862579948E-01 0.  0.
         14    1    1    2    0    0 -0.46392258602E-02  0.79770958747E-03  0.22999752675E-01  0.23476528285E-01  0.00000000000E+00 0.  1.
     999901    1    3    3    0    0 -0.16859271374E-01  0.90440403145E-01  0.69871279996E-01  0.88755039143E+00  0.88000000000E+00 0. -1.
        -11    1    4    4    0    0  0.53297776822E-02 -0.53706904395E-01 -0.48272654025E-01  0.72410968488E-01  0.51100000000E-03 0.  1.
         11    1    4    4    0    0  0.16168719552E-01 -0.37531208338E-01 -0.44598378647E-01  0.60492111801E-01  0.51100000000E-03 0. -1.
</event>
<event>
 8    1  0.1082757E+005  0.1043930E+01  0.7957747E-01            NaN
         13   -1    0    0    0    0  0.00000000000E+00  0.00000000000E+00  0.74505805969E-08  0.10566000000E+00  0.10566000000E+00 0. -1.
     999900   -1    0    0    0    0 -0.00000000000E+00 -0.00000000000E+00 -0.74505805969E-08  0.93827000000E+00  0.93827000000E+00 0.  1.
     999902    2    1    2    0    0 -0.32618727676E-02 -0.22505210337E-01  0.80679666339E-02  0.10198008394E+01  0.10195153435E+01 0.  0.
     999903    2    3    3    0    0  0.10454216213E+00  0.12669058498E-01  0.73795251343E-01  0.13009357569E+00  0.19723858853E-01 0.  0.
         14    1    1    2    0    0  0.32618727676E-02  0.22505210337E-01 -0.80679666339E-02  0.24129160613E-01  0.00000000000E+00 0.  1.
     999901    1    3    3    0    0 -0.10780403490E+00 -0.35174268835E-01 -0.65727284709E-01  0.88970726370E+00  0.88000000000E+00 0. -1.
        -11    1    4    4    0    0  0.45351110448E-01 -0.31170391417E-02  0.37135207172E-01  0.58700288625E-01  0.51100000000E-03 0. -1.
         11    1    4    4    0    0  0.59191051680E-01  0.15786097640E-01  0.36660044171E-01  0.71393287061E-01  0.51100000000E-03 0.  1.
</event>
<event>
 8    1  0.1196675E+005  0.1043930E+01  0.7957747E-01            NaN
         13   -1    0    0    0    0  0.00000000000E+00  0.00000000000E+00  0.74505805969E-08  0.10566000000E+00  0.10566000000E+00 0.  1.
     999900   -1    0    0    0    0 -0.00000000000E+00 -0.00000000000E+00 -0.74505805969E-08  0.93827000000E+00  0.93827000000E+00 0. -1.
     999902    2    1    2    0    0  0.15057306370E-01  0.44820879767E-02  0.18309423926E-01  0.10198043582E+01  0.10195189466E+01 0.  0.
     999903    2    3    3    0    0  0.57549181314E-01  0.75058762243E-01  0.91284194796E-01  0.13294927220E+00  0.19924324297E-01 0.  0.
         14    1    1    2    0    0 -0.15057306370E-01 -0.44820879767E-02 -0.18309423926E-01  0.24125641800E-01  0.00000000000E+00 0. -1.
     999901    1    3    3    0    0 -0.42491874944E-01 -0.70576674266E-01 -0.72974770869E-01  0.88685508600E+00  0.88000000000E+00 0. -1.
        -11    1    4    4    0    0  0.16783951866E-01  0.37991744754E-01  0.37888542858E-01  0.56221672962E-01  0.51100000000E-03 0. -1.
         11    1    4    4    0    0  0.40765229449E-01  0.37067017489E-01  0.53395651937E-01  0.76727599235E-01  0.51100000000E-03 0.  1.
</event>
<event>
 8    1  0.1082757E+005  0.1043930E+01  0.7957747E-01            NaN
         13   -1    0    0    0    0  0.00000000000E+00  0.00000000000E+00  0.74505805969E-08  0.10566000000E+00  0.10566000000E+00 0.  1.
     999900   -1    0    0    0    0 -0.00000000000E+00 -0.00000000000E+00 -0.74505805969E-08  0.93827000000E+00  0.93827000000E+00 0. -1.
     999902    2    1    2    0    0 -0.16925414157E-01  0.16711177986E-02 -0.17094426342E-01  0.10198160685E+01  0.10195309372E+01 0.  0.
     999903    2    3    3    0    0  0.20042690223E-01 -0.46548558428E-01  0.11561952737E+00  0.12779321488E+00  0.19868390410E-01 0.  0.
         14    1    1    2    0    0  0.16925414157E-01 -0.16711177986E-02  0.17094426342E-01  0.24113931472E-01  0.00000000000E+00 0. -1.
     999901    1    3    3    0    0 -0.36968104380E-01  0.48219676227E-01 -0.13271395371E+00  0.89202285365E+00  0.88000000000E+00 0. -1.
        -11    1    4    4    0    0  0.60270462612E-02 -0.36574688829E-01  0.74366899031E-01  0.83094704657E-01  0.51100000000E-03 0.  1.
         11    1    4    4    0    0  0.14015643961E-01 -0.99738695997E-02  0.41252628340E-01  0.44698510225E-01  0.51100000000E-03 0. -1.
</event>
<event>
 8    1  0.1082757E+005  0.1043930E+01  0.7957747E-01            NaN
         13   -1    0    0    0    0  0.00000000000E+00  0.00000000000E+00  0.74505805969E-08  0.10566000000E+00  0.10566000000E+00 0.  1.
     999900   -1    0    0    0    0 -0.00000000000E+00 -0.00000000000E+00 -0.74505805969E-08  0.93827000000E+00  0.93827000000E+00 0. -1.
     999902    2    1    2    0    0 -0.20425746830E-02 -0.58653963310E-02  0.22251929145E-01  0.10208275470E+01  0.10205660965E+01 0.  0.
     999903    2    3    3    0    0 -0.90991414589E-01 -0.62778644391E-01 -0.65696926365E-01  0.13016149557E+00  0.20132885406E-01 0.  0.
         14    1    1    2    0    0  0.20425746830E-02  0.58653963310E-02 -0.22251929145E-01  0.23102453033E-01  0.00000000000E+00 0. -1.
     999901    1    3    3    0    0  0.88948839906E-01  0.56913248060E-01  0.87948855511E-01  0.89066605140E+00  0.88000000000E+00 0.  1.
        -11    1    4    4    0    0 -0.60191496905E-01 -0.51589382526E-01 -0.41968947526E-01  0.89700247304E-01  0.51100000000E-03 0. -1.
         11    1    4    4    0    0 -0.30799917684E-01 -0.11189261865E-01 -0.23727978839E-01  0.40461248266E-01  0.51100000000E-03 0.  1.
</event>
<event>
 8    1  0.1082757E+005  0.1043930E+01  0.7957747E-01            NaN
         13   -1    0    0    0    0  0.00000000000E+00  0.00000000000E+00  0.74505805969E-08  0.10566000000E+00  0.10566000000E+00 0.  1.
     999900   -1    0    0    0    0 -0.00000000000E+00 -0.00000000000E+00 -0.74505805969E-08  0.93827000000E+00  0.93827000000E+00 0. -1.
     999902    2    1    2    0    0  0.81887907872E-02  0.21607231430E-01  0.40705454009E-02  0.10204673044E+01  0.10201975403E+01 0.  0.
     999903    2    3    3    0    0  0.87543710030E-01 -0.18952095484E-01 -0.93127048279E-01  0.13064168417E+00  0.19274839388E-01 0.  0.
         14    1    1    2    0    0 -0.81887907872E-02 -0.21607231430E-01 -0.40705454009E-02  0.23462695593E-01  0.00000000000E+00 0. -1.
     999901    1    3    3    0    0 -0.79354919243E-01  0.40559326914E-01  0.97197593680E-01  0.88982562023E+00  0.88000000000E+00 0.  1.
        -11    1    4    4    0    0  0.54741164272E-01 -0.26237458649E-02 -0.51874145731E-01  0.75463018920E-01  0.51100000000E-03 0.  1.
         11    1    4    4    0    0  0.32802545758E-01 -0.16328349619E-01 -0.41252902548E-01  0.55178665254E-01  0.51100000000E-03 0. -1.
</event>
<event>
 8    1  0.1082757E+005  0.1043930E+01  0.7957747E-01            NaN
         13   -1    0    0    0    0  0.00000000000E+00  0.00000000000E+00  0.74505805969E-08  0.10566000000E+00  0.10566000000E+00 0. -1.
     999900   -1    0    0    0    0 -0.00000000000E+00 -0.00000000000E+00 -0.74505805969E-08  0.93827000000E+00  0.93827000000E+00 0. -1.
     999902    2    1    2    0    0  0.83107497269E-03 -0.20348380432E-01  0.10865359307E-01  0.10208474675E+01  0.10205864729E+01 0.  0.
     999903    2    3    3    0    0 -0.29869451538E-01  0.99680029880E-01 -0.72197997616E-01  0.12829558509E+00  0.20467383836E-01 0.  0.
         14    1    1    2    0    0 -0.83107497269E-03  0.20348380432E-01 -0.10865359307E-01  0.23082532458E-01  0.00000000000E+00 0.  1.
     999901    1    3    3    0    0  0.30700526511E-01 -0.12002841031E+00  0.83063356923E-01  0.89255188245E+00  0.88000000000E+00 0. -1.
        -11    1    4    4    0    0 -0.21918740930E-01  0.43314944557E-01 -0.39940549122E-01  0.62865922495E-01  0.51100000000E-03 0. -1.
         11    1    4    4    0    0 -0.79507106076E-02  0.56365085323E-01 -0.32257448494E-01  0.65429662592E-01  0.51100000000E-03 0.  1.
</event>
<event>
 8    1  0.1082757E+005  0.1043930E+01  0.7957747E-01            NaN
         13   -1    0    0    0    0  0.00000000000E+00  0.00000000000E+00  0.74505805969E-08  0.10566000000E+00  0.10566000000E+00 0.  1.
     999900   -1    0    0    0    0 -0.00000000000E+00 -0.00000000000E+00 -0.74505805969E-08  0.93827000000E+00  0.93827000000E+00 0. -1.
     999902    2    1    2    0    0  0.22263871812E-01  0.57069124557E-02  0.57130403543E-02  0.10202469329E+01  0.10199720175E+01 0.  0.
     999903    2    3    3    0    0 -0.71887383001E-01 -0.52406908850E-01 -0.90497792631E-01  0.12811566486E+00  0.17592418274E-01 0.  0.
         14    1    1    2    0    0 -0.22263871812E-01 -0.57069124557E-02 -0.57130403543E-02  0.23683067114E-01  0.00000000000E+00 0. -1.
     999901    1    3    3    0    0  0.94151254813E-01  0.58113821306E-01  0.96210832986E-01  0.89213126803E+00  0.88000000000E+00 0.  1.
        -11    1    4    4    0    0 -0.44996644956E-01 -0.41962001323E-01 -0.56610816032E-01  0.83609528315E-01  0.51100000000E-03 0.  1.
         11    1    4    4    0    0 -0.26890738045E-01 -0.10444907528E-01 -0.33886976599E-01  0.44506136542E-01  0.51100000000E-03 0. -1.
</event>
<event>
 8    1  0.1082757E+005  0.1043930E+01  0.7957747E-01            NaN
         13   -1    0    0    0    0  0.00000000000E+00  0.00000000000E+00  0.74505805969E-08  0.10566000000E+00  0.10566000000E+00 0. -1.
     999900   -1    0    0    0    0 -0.00000000000E+00 -0.00000000000E+00 -0.74505805969E-08  0.93827000000E+00  0.93827000000E+00 0.  1.
     999902    2    1    2    0    0 -0.21094626664E-01 -0.10202502233E-01 -0.49263051485E-02  0.10199854222E+01  0.10197043290E+01 0.  0.
     999903    2    3    3    0    0 -0.12324919485E+00  0.15211069481E-01 -0.42933974965E-01  0.13289693255E+00  0.19913006011E-01 0.  0.
         14    1    1    2    0    0  0.21094626664E-01  0.10202502233E-01  0.49263051485E-02  0.23944577848E-01  0.00000000000E+00 0. -1.
     999901    1    3    3    0    0  0.10215456818E+00 -0.25413571714E-01  0.38007669816E-01  0.88708848961E+00  0.88000000000E+00 0.  1.
        -11    1    4    4    0    0 -0.80707690243E-01  0.26993762164E-02 -0.21091371323E-01  0.83463315065E-01  0.51100000000E-03 0. -1.
         11    1    4    4    0    0 -0.42541504604E-01  0.12511693265E-01 -0.21842603642E-01  0.49433617480E-01  0.51100000000E-03 0.  1.
</event>
<event>
 8    1  0.1082757E+005  0.1043930E+01  0.7957747E-01            NaN
         13   -1    0    0    0    0  0.00000000000E+00  0.00000000000E+00  0.74505805969E-08  0.10566000000E+00  0.10566000000E+00 0. -1.
     999900   -1    0    0    0    0 -0.00000000000E+00 -0.00000000000E+00 -0.74505805969E-08  0.93827000000E+00  0.93827000000E+00 0.  1.
     999902    2    1    2    0    0  0.12092757076E-01  0.10931924110E-01 -0.10008150116E-01  0.10248013616E+01  0.10246228213E+01 0.  0.
     999903    2    3    3    0    0 -0.10662501249E+00 -0.12665267158E-01  0.75010323641E-01  0.13245676609E+00  0.19721661934E-01 0.  0.
         14    1    1    2    0    0 -0.12092757076E-01 -0.10931924110E-01  0.10008150116E-01  0.19128638404E-01  0.00000000000E+00 0. -1.
     999901    1    3    3    0    0  0.11871776957E+00  0.23597191269E-01 -0.85018473757E-01  0.89234459550E+00  0.88000000000E+00 0. -1.
        -11    1    4    4    0    0 -0.22783145228E-01 -0.76928673529E-02  0.91906985881E-02  0.25748436382E-01  0.51100000000E-03 0.  1.
         11    1    4    4    0    0 -0.83841867264E-01 -0.49723998055E-02  0.65819625053E-01  0.10670832971E+00  0.51100000000E-03 0. -1.
</event>
<event>
 8    1  0.1082757E+005  0.1043930E+01  0.7957747E-01            NaN
         13   -1    0    0    0    0  0.00000000000E+00  0.00000000000E+00  0.74505805969E-08  0.10566000000E+00  0.10566000000E+00 0.  1.
     999900   -1    0    0    0    0 -0.00000000000E+00 -0.00000000000E+00 -0.74505805969E-08  0.93827000000E+00  0.93827000000E+00 0.  1.
     999902    2    1    2    0    0 -0.21889664789E-01 -0.93808256593E-02 -0.18603236334E-02  0.10200423857E+01  0.10197626442E+01 0.  0.
     999903    2    3    3    0    0 -0.36530582866E-01 -0.11261679925E+00  0.54859757073E-01  0.13207324753E+00  0.20413789707E-01 0.  0.
         14    1    1    2    0    0  0.21889664789E-01  0.93808256593E-02  0.18603236334E-02  0.23887614335E-01  0.00000000000E+00 0.  1.
     999901    1    3    3    0    0  0.14640918078E-01  0.10323597359E+00 -0.56720080706E-01  0.88796913813E+00  0.88000000000E+00 0.  1.
        -11    1    4    4    0    0 -0.13131444257E-01 -0.32421712227E-01  0.66184759586E-02  0.35604319921E-01  0.51100000000E-03 0. -1.
         11    1    4    4    0    0 -0.23399138610E-01 -0.80195087019E-01  0.48241281114E-01  0.96468927609E-01  0.51100000000E-03 0.  1.
</event>
<event>
 8    1  0.1082757E+005  0.1043930E+01  0.7957747E-01            NaN
         13   -1    0    0    0    0  0.00000000000E+00  0.00000000000E+00  0.74505805969E-08  0.10566000000E+00  0.10566000000E+00 0.  1.
     999900   -1    0    0    0    0 -0.00000000000E+00 -0.00000000000E+00 -0.74505805969E-08  0.93827000000E+00  0.93827000000E+00 0. -1.
     999902    2    1    2    0    0  0.21698128959E-01 -0.95796902668E-02  0.63745089553E-02  0.10193695922E+01  0.10190736734E+01 0.  0.
     999903    2    3    3    0    0  0.76532317505E-01  0.10248467802E+00 -0.15089791912E-01  0.13031058007E+00  0.19820207015E-01 0.  0.
         14    1    1    2    0    0 -0.21698128959E-01  0.95796902668E-02 -0.63745089553E-02  0.24560407780E-01  0.00000000000E+00 0.  1.
     999901    1    3    3    0    0 -0.54834188546E-01 -0.11206436829E+00  0.21464300867E-01  0.88905901215E+00  0.88000000000E+00 0. -1.
        -11    1    4    4    0    0  0.36228321542E-01  0.37649624780E-01  0.11281255636E-02  0.52263938964E-01  0.51100000000E-03 0.  1.
         11    1    4    4    0    0  0.40303995964E-01  0.64835053242E-01 -0.16217917475E-01  0.78046641105E-01  0.51100000000E-03 0. -1.
</event>
<event>
 8    1  0.1082757E+005  0.1043930E+01  0.7957747E-01            NaN
         13   -1    0    0    0    0  0.00000000000E+00  0.00000000000E+00  0.74505805969E-08  0.10566000000E+00  0.10566000000E+00 0.  1.
     999900   -1    0    0    0    0 -0.00000000000E+00 -0.00000000000E+00 -0.74505805969E-08  0.93827000000E+00  0.93827000000E+00 0.  1.
     999902    2    1    2    0    0  0.12117853392E-01  0.99507645563E-02 -0.16927319054E-01  0.10208563307E+01  0.10205955387E+01 0.  0.
     999903    2    3    3    0    0  0.60437703629E-01 -0.10742640644E+00  0.36631841830E-01  0.13013707528E+00  0.20015436709E-01 0.  0.
         14    1    1    2    0    0 -0.12117853392E-01 -0.99507645563E-02  0.16927319054E-01  0.23073669331E-01  0.00000000000E+00 0.  1.
     999901    1    3    3    0    0 -0.48319850237E-01  0.11737717100E+00 -0.53559160884E-01  0.89071925538E+00  0.88000000000E+00 0.  1.
        -11    1    4    4    0    0  0.10402762235E-01 -0.26844680811E-01  0.16444416820E-01  0.33159226702E-01  0.51100000000E-03 0.  1.
         11    1    4    4    0    0  0.50034941394E-01 -0.80581725631E-01  0.20187425010E-01  0.96977848582E-01  0.51100000000E-03 0. -1.
</event>
<event>
 8    1  0.1082757E+005  0.1043930E+01  0.7957747E-01            NaN
         13   -1    0    0    0    0  0.00000000000E+00  0.00000000000E+00  0.74505805969E-08  0.10566000000E+00  0.10566000000E+00 0. -1.
     999900   -1    0    0    0    0 -0.00000000000E+00 -0.00000000000E+00 -0.74505805969E-08  0.93827000000E+00  0.93827000000E+00 0.  1.
     999902    2    1    2    0    0 -0.41363327901E-02  0.14400423512E-01  0.18602897370E-01  0.10200438275E+01  0.10197641202E+01 0.  0.
     999903    2    3    3    0    0 -0.44531644000E-01 -0.11754866046E+00 -0.17710212640E-01  0.12855014615E+00  0.20266562351E-01 0.  0.
         14    1    1    2    0    0  0.41363327901E-02 -0.14400423512E-01 -0.18602897370E-01  0.23886172503E-01  0.00000000000E+00 0. -1.
     999901    1    3    3    0    0  0.40395311210E-01  0.13194908397E+00  0.36313110010E-01  0.89149368135E+00  0.88000000000E+00 0. -1.
        -11    1    4    4    0    0 -0.56618971843E-02 -0.40964023451E-01 -0.79235877657E-02  0.42108819279E-01  0.51100000000E-03 0.  1.
         11    1    4    4    0    0 -0.38869746816E-01 -0.76584637008E-01 -0.97866248739E-02  0.86441326868E-01  0.51100000000E-03 0. -1.
</event>
<event>
 8    1  0.1082757E+005  0.1043930E+01  0.7957747E-01            NaN
         13   -1    0    0    0    0  0.00000000000E+00  0.00000000000E+00  0.74505805969E-08  0.10566000000E+00  0.10566000000E+00 0. -1.
     999900   -1    0    0    0    0 -0.00000000000E+00 -0.00000000000E+00 -0.74505805969E-08  0.93827000000E+00  0.93827000000E+00 0.  1.
     999902    2    1    2    0    0  0.83600503430E-03 -0.84959659506E-02 -0.21571688991E-01  0.10207304718E+01  0.10204667942E+01 0.  0.
     999903    2    3    3    0    0 -0.40138653212E-01  0.74088623728E-01  0.94581535233E-01  0.12832321694E+00  0.20516957625E-01 0.  0.
         14    1    1    2    0    0 -0.83600503430E-03  0.84959659506E-02  0.21571688991E-01  0.23199528180E-01  0.00000000000E+00 0. -1.
     999901    1    3    3    0    0  0.40974658247E-01 -0.82584589679E-01 -0.11615322422E+00  0.89240725488E+00  0.88000000000E+00 0.  1.
        -11    1    4    4    0    0 -0.22053915485E-01  0.56960727919E-01  0.59308404575E-01  0.85138990407E-01  0.51100000000E-03 0. -1.
         11    1    4    4    0    0 -0.18084737727E-01  0.17127895809E-01  0.35273130658E-01  0.43184226529E-01  0.51100000000E-03 0.  1.
</event>
<event>
 8    1  0.1082757E+005  0.1043930E+01  0.7957747E-01            NaN
         13   -1    0    0    0    0  0.00000000000E+00  0.00000000000E+00  0.74505805969E-08  0.10566000000E+00  0.10566000000E+00 0. -1.
     999900   -1    0    0    0    0 -0.00000000000E+00 -0.00000000000E+00 -0.74505805969E-08  0.93827000000E+00  0.93827000000E+00 0. -1.
     999902    2    1    2    0    0 -0.60791022822E-02  0.16793980673E-01  0.15195171436E-01  0.10204803410E+01  0.10202108801E+01 0.  0.
     999903    2    3    3    0    0 -0.72013339989E-01  0.69855610672E-02  0.10956366421E+00  0.13292812214E+00  0.20759815551E-01 0.  0.
         14    1    1    2    0    0  0.60791022822E-02 -0.16793980673E-01 -0.15195171436E-01  0.23449658983E-01  0.00000000000E+00 0.  1.
     999901    1    3    3    0    0  0.65934237707E-01  0.98084196062E-02 -0.94368492775E-01  0.88755221887E+00  0.88000000000E+00 0.  1.
        -11    1    4    4    0    0 -0.37700129046E-01  0.60278441862E-02  0.39679290040E-01  0.55066703321E-01  0.51100000000E-03 0. -1.
         11    1    4    4    0    0 -0.34313210944E-01  0.95771688101E-03  0.69884374172E-01  0.77861418824E-01  0.51100000000E-03 0.  1.
</event>
<event>
 8    1  0.1082757E+005  0.1043930E+01  0.7957747E-01            NaN
         13   -1    0    0    0    0  0.00000000000E+00  0.00000000000E+00  0.74505805969E-08  0.10566000000E+00  0.10566000000E+00 0.  1.
     999900   -1    0    0    0    0 -0.00000000000E+00 -0.00000000000E+00 -0.74505805969E-08  0.93827000000E+00  0.93827000000E+00 0.  1.
     999902    2    1    2    0    0 -0.20424524640E-01  0.95444868001E-02  0.70016919670E-02  0.10203231763E+01  0.10200500488E+01 0.  0.
     999903    2    3    3    0    0 -0.10885667819E+00  0.68671594850E-01 -0.28164586881E-01  0.13321950261E+00  0.19713639853E-01 0.  0.
         14    1    1    2    0    0  0.20424524640E-01 -0.95444868001E-02 -0.70016919670E-02  0.23606823705E-01  0.00000000000E+00 0. -1.
     999901    1    3    3    0    0  0.88432153552E-01 -0.59127108050E-01  0.35166278848E-01  0.88710367368E+00  0.88000000000E+00 0.  1.
        -11    1    4    4    0    0 -0.56807140667E-01  0.28477669699E-01 -0.60434664340E-02  0.63834265954E-01  0.51100000000E-03 0. -1.
         11    1    4    4    0    0 -0.52049537525E-01  0.40193925151E-01 -0.22121120447E-01  0.69385236661E-01  0.51100000000E-03 0.  1.
</event>
<event>
 8    1  0.1082757E+005  0.1043930E+01  0.7957747E-01            NaN
         13   -1    0    0    0    0  0.00000000000E+00  0.00000000000E+00  0.74505805969E-08  0.10566000000E+00  0.10566000000E+00 0.  1.
     999900   -1    0    0    0    0 -0.00000000000E+00 -0.00000000000E+00 -0.74505805969E-08  0.93827000000E+00  0.93827000000E+00 0. -1.
     999902    2    1    2    0    0  0.15879672463E-01  0.11592057483E-01 -0.13076281051E-01  0.10203179497E+01  0.10200446998E+01 0.  0.
     999903    2    3    3    0    0  0.40989107952E-01  0.48426020441E-01 -0.11558091108E+00  0.13324725139E+00  0.19253482056E-01 0.  0.
         14    1    1    2    0    0 -0.15879672463E-01 -0.11592057483E-01  0.13076281051E-01  0.23612050320E-01  0.00000000000E+00 0. -1.
     999901    1    3    3    0    0 -0.25109435489E-01 -0.36833962958E-01  0.10250463003E+00  0.88707069828E+00  0.88000000000E+00 0.  1.
        -11    1    4    4    0    0  0.33048822930E-01  0.25306667990E-01 -0.67440341434E-01  0.79253472577E-01  0.51100000000E-03 0. -1.
         11    1    4    4    0    0  0.79402850220E-02  0.23119352451E-01 -0.48140569648E-01  0.53993778817E-01  0.51100000000E-03 0.  1.
</event>
<event>
 8    1  0.1082757E+005  0.1043930E+01  0.7957747E-01            NaN
         13   -1    0    0    0    0  0.00000000000E+00  0.00000000000E+00  0.74505805969E-08  0.10566000000E+00  0.10566000000E+00 0. -1.
     999900   -1    0    0    0    0 -0.00000000000E+00 -0.00000000000E+00 -0.74505805969E-08  0.93827000000E+00  0.93827000000E+00 0.  1.
     999902    2    1    2    0    0 -0.87252712518E-02 -0.65645782290E-02  0.23728838136E-01  0.10178094754E+01  0.10174742485E+01 0.  0.
     999903    2    3    3    0    0 -0.21829939315E-01 -0.91180939868E-01  0.89518986852E-01  0.13120922465E+00  0.20290430730E-01 0.  0.
         14    1    1    2    0    0  0.87252712518E-02  0.65645782290E-02 -0.23728838136E-01  0.26120524594E-01  0.00000000000E+00 0.  1.
     999901    1    3    3    0    0  0.13104668063E-01  0.84616361639E-01 -0.65790148716E-01  0.88660025076E+00  0.88000000000E+00 0.  1.
        -11    1    4    4    0    0 -0.38774726642E-02 -0.37524859687E-01  0.47875211938E-01  0.60954466021E-01  0.51100000000E-03 0. -1.
         11    1    4    4    0    0 -0.17952466651E-01 -0.53656080181E-01  0.41643774915E-01  0.70254758625E-01  0.51100000000E-03 0.  1.
</event>
<event>
 8    1  0.1082757E+005  0.1043930E+01  0.7957747E-01            NaN
         13   -1    0    0    0    0  0.00000000000E+00  0.00000000000E+00  0.74505805969E-08  0.10566000000E+00  0.10566000000E+00 0.  1.
     999900   -1    0    0    0    0 -0.00000000000E+00 -0.00000000000E+00 -0.74505805969E-08  0.93827000000E+00  0.93827000000E+00 0. -1.
     999902    2    1    2    0    0  0.19560334186E-01 -0.25492745896E-02  0.11132416552E-01  0.10212796982E+01  0.10210284941E+01 0.  0.
     999903    2    3    3    0    0 -0.64608220071E-02 -0.12274699702E+00 -0.41161819914E-01  0.13119021941E+00  0.20199276035E-01 0.  0.
         14    1    1    2    0    0 -0.19560334186E-01  0.25492745896E-02 -0.11132416552E-01  0.22650301823E-01  0.00000000000E+00 0. -1.
     999901    1    3    3    0    0  0.26021156193E-01  0.12019772243E+00  0.52294236466E-01  0.89008947877E+00  0.88000000000E+00 0.  1.
        -11    1    4    4    0    0 -0.31276322358E-02 -0.59221375441E-01 -0.30495131250E-01  0.66687086782E-01  0.51100000000E-03 0. -1.
         11    1    4    4    0    0 -0.33331897713E-02 -0.63525621575E-01 -0.10666688663E-01  0.64503132626E-01  0.51100000000E-03 0.  1.
</event>
<event>
 8    1  0.1082757E+005  0.1043930E+01  0.7957747E-01            NaN
         13   -1    0    0    0    0  0.00000000000E+00  0.00000000000E+00  0.74505805969E-08  0.10566000000E+00  0.10566000000E+00 0. -1.
     999900   -1    0    0    0    0 -0.00000000000E+00 -0.00000000000E+00 -0.74505805969E-08  0.93827000000E+00  0.93827000000E+00 0.  1.
     999902    2    1    2    0    0 -0.19166591354E-01  0.11899854787E-01  0.11983428891E-01  0.10183846024E+01  0.10180641587E+01 0.  0.
     999903    2    3    3    0    0  0.46268481918E-01  0.11307767258E+00  0.39076042975E-01  0.12976054844E+00  0.19583930696E-01 0.  0.
         14    1    1    2    0    0  0.19166591354E-01 -0.11899854787E-01 -0.11983428891E-01  0.25545397551E-01  0.00000000000E+00 0.  1.
     999901    1    3    3    0    0 -0.65435073272E-01 -0.10117781779E+00 -0.27092614084E-01  0.88862405401E+00  0.88000000000E+00 0. -1.
        -11    1    4    4    0    0  0.23530154106E-01  0.65114859078E-01  0.31766778932E-01  0.76177440163E-01  0.51100000000E-03 0.  1.
         11    1    4    4    0    0  0.22738327812E-01  0.47962813501E-01  0.73092640427E-02  0.53583108276E-01  0.51100000000E-03 0. -1.
</event>
<event>
 7    1  0.1082757E+005  0.1043930E+01  0.7957747E-01            NaN
         13   -1    0    0    0    0  0.00000000000E+00  0.00000000000E+00  0.74505805969E-08  0.10566000000E+00  0.10566000000E+00 0. -1.
     999900   -1    0    0    0    0 -0.00000000000E+00 -0.00000000000E+00 -0.74505805969E-08  0.93827000000E+00  0.93827000000E+00 0. -1.
     999903    2    1    2    0    0 -0.34776538853E-01 -0.46028403721E-01 -0.31619744934E-01  0.68918246482E-01  0.20540078502E-01 0.  0.
         14    1    1    2    0    0  0.17724533452E-01 -0.50790771109E-01 -0.64895639784E-01  0.84292974671E-01  0.00000000000E+00 0.  1.
     999901    1    1    2    0    0  0.17052005400E-01  0.96819174830E-01  0.96515384718E-01  0.89071877885E+00  0.88000000000E+00 0.  1.
        -11    1    3    3    0    0 -0.18333539151E-01 -0.23460818310E-01 -0.47345893737E-02  0.30153044806E-01  0.51100000000E-03 0. -1.
         11    1    3    3    0    0 -0.16442999702E-01 -0.22567585411E-01 -0.26885155560E-01  0.38765201676E-01  0.51100000000E-03 0.  1.
</event>
<event>
 8    1  0.1082757E+005  0.1043930E+01  0.7957747E-01            NaN
         13   -1    0    0    0    0  0.00000000000E+00  0.00000000000E+00  0.74505805969E-08  0.10566000000E+00  0.10566000000E+00 0.  1.
     999900   -1    0    0    0    0 -0.00000000000E+00 -0.00000000000E+00 -0.74505805969E-08  0.93827000000E+00  0.93827000000E+00 0. -1.
     999902    2    1    2    0    0  0.82046056108E-02  0.19480126497E-01  0.12724066386E-01  0.10192583007E+01  0.10189596610E+01 0.  0.
     999903    2    3    3    0    0  0.49207715392E-01  0.90272322237E-01  0.80967868327E-01  0.13283289125E+00  0.22765980778E-01 0.  0.
         14    1    1    2    0    0 -0.82046056108E-02 -0.19480126497E-01 -0.12724066386E-01  0.24671699313E-01  0.00000000000E+00 0.  1.
     999901    1    3    3    0    0 -0.41003109781E-01 -0.70792195740E-01 -0.68243801941E-01  0.88642540944E+00  0.88000000000E+00 0. -1.
        -11    1    4    4    0    0  0.29101771400E-01  0.70183459109E-01  0.66328643053E-01  0.10085822248E+00  0.51100000000E-03 0.  1.
         11    1    4    4    0    0  0.20105943992E-01  0.20088863128E-01  0.14639225274E-01  0.31974668774E-01  0.51100000000E-03 0. -1.
</event>
<event>
 8    1  0.1082757E+005  0.1043930E+01  0.7957747E-01            NaN
         13   -1    0    0    0    0  0.00000000000E+00  0.00000000000E+00  0.74505805969E-08  0.10566000000E+00  0.10566000000E+00 0. -1.
     999900   -1    0    0    0    0 -0.00000000000E+00 -0.00000000000E+00 -0.74505805969E-08  0.93827000000E+00  0.93827000000E+00 0. -1.
     999902    2    1    2    0    0 -0.14898395831E-01 -0.16437657906E-01  0.13496231687E-01  0.10179625768E+01  0.10176313187E+01 0.  0.
     999903    2    3    3    0    0  0.19573392005E-01 -0.99552177896E-01  0.80126158581E-01  0.13086851489E+00  0.20312880203E-01 0.  0.
         14    1    1    2    0    0  0.14898395831E-01  0.16437657906E-01 -0.13496231687E-01  0.25967423159E-01  0.00000000000E+00 0.  1.
     999901    1    3    3    0    0 -0.34471787837E-01  0.83114519991E-01 -0.66629926894E-01  0.88709406195E+00  0.88000000000E+00 0. -1.
        -11    1    4    4    0    0  0.18748571921E-02 -0.61065781866E-01  0.46378831203E-01  0.76705944418E-01  0.51100000000E-03 0. -1.
         11    1    4    4    0    0  0.17698534813E-01 -0.38486396031E-01  0.33747327378E-01  0.54162570472E-01  0.51100000000E-03 0.  1.
</event>
<event>
 8    1  0.1082757E+005  0.1043930E+01  0.7957747E-01            NaN
         13   -1    0    0    0    0  0.00000000000E+00  0.00000000000E+00  0.74505805969E-08  0.10566000000E+00  0.10566000000E+00 0. -1.
     999900   -1    0    0    0    0 -0.00000000000E+00 -0.00000000000E+00 -0.74505805969E-08  0.93827000000E+00  0.93827000000E+00 0.  1.
     999902    2    1    2    0    0 -0.14822693346E-01  0.10834959388E-01 -0.20140620874E-01  0.10166765013E+01  0.10163111507E+01 0.  0.
     999903    2    3    3    0    0 -0.92810564859E-01 -0.83896282134E-01  0.13887705596E-01  0.12751170035E+00  0.20346455552E-01 0.  0.
         14    1    1    2    0    0  0.14822693346E-01 -0.10834959388E-01  0.20140620874E-01  0.27253498714E-01  0.00000000000E+00 0. -1.
     999901    1    3    3    0    0  0.77987871513E-01  0.94731241522E-01 -0.34028326470E-01  0.88916480094E+00  0.88000000000E+00 0.  1.
        -11    1    4    4    0    0 -0.74667253822E-01 -0.60688754249E-01  0.17594998635E-01  0.97817016840E-01  0.51100000000E-03 0.  1.
         11    1    4    4    0    0 -0.18143311037E-01 -0.23207527885E-01 -0.37072930391E-02  0.29694683508E-01  0.51100000000E-03 0. -1.
</event>
<event>
 8    1  0.1082757E+005  0.1043930E+01  0.7957747E-01            NaN
         13   -1    0    0    0    0  0.00000000000E+00  0.00000000000E+00  0.74505805969E-08  0.10566000000E+00  0.10566000000E+00 0.  1.
     999900   -1    0    0    0    0 -0.00000000000E+00 -0.00000000000E+00 -0.74505805969E-08  0.93827000000E+00  0.93827000000E+00 0.  1.
     999902    2    1    2    0    0 -0.26860362858E-02 -0.88270504695E-02  0.21788710366E-01  0.10202682268E+01  0.10199938113E+01 0.  0.
     999903    2    3    3    0    0  0.19230161568E-01 -0.58427537178E-01  0.11683605955E+00  0.13349061850E+00  0.19634260949E-01 0.  0.
         14    1    1    2    0    0  0.26860362858E-02  0.88270504695E-02 -0.21788710366E-01  0.23661773187E-01  0.00000000000E+00 0. -1.
     999901    1    3    3    0    0 -0.21916197854E-01  0.49600486708E-01 -0.95047349184E-01  0.88677760831E+00  0.88000000000E+00 0. -1.
        -11    1    4    4    0    0  0.48106484898E-02 -0.12148274192E-01  0.44746598623E-01  0.46618044941E-01  0.51100000000E-03 0.  1.
         11    1    4    4    0    0  0.14419513078E-01 -0.46279262986E-01  0.72089460927E-01  0.86872573564E-01  0.51100000000E-03 0. -1.
</event>
<event>
 8    1  0.1082757E+005  0.1043930E+01  0.7957747E-01            NaN
         13   -1    0    0    0    0  0.00000000000E+00  0.00000000000E+00  0.74505805969E-08  0.10566000000E+00  0.10566000000E+00 0.  1.
     999900   -1    0    0    0    0 -0.00000000000E+00 -0.00000000000E+00 -0.74505805969E-08  0.93827000000E+00  0.93827000000E+00 0. -1.
     999902    2    1    2    0    0 -0.78346558104E-02 -0.12446037967E-01 -0.19261021050E-01  0.10196962916E+01  0.10194082864E+01 0.  0.
     999903    2    3    3    0    0 -0.48216945085E-01 -0.10601177263E+00 -0.60686725020E-01  0.13284716970E+00  0.20052984196E-01 0.  0.
         14    1    1    2    0    0  0.78346558104E-02  0.12446037967E-01  0.19261021050E-01  0.24233708437E-01  0.00000000000E+00 0.  1.
     999901    1    3    3    0    0  0.40382289275E-01  0.93565734665E-01  0.41425703970E-01  0.88684912186E+00  0.88000000000E+00 0. -1.
        -11    1    4    4    0    0 -0.31082499629E-01 -0.73870637993E-01 -0.31284047147E-01  0.86034560890E-01  0.51100000000E-03 0.  1.
         11    1    4    4    0    0 -0.17134445456E-01 -0.32141134639E-01 -0.29402677873E-01  0.46812608815E-01  0.51100000000E-03 0. -1.
</event>
<event>
 8    1  0.1082757E+005  0.1043930E+01  0.7957747E-01            NaN
         13   -1    0    0    0    0  0.00000000000E+00  0.00000000000E+00  0.74505805969E-08  0.10566000000E+00  0.10566000000E+00 0. -1.
     999900   -1    0    0    0    0 -0.00000000000E+00 -0.00000000000E+00 -0.74505805969E-08  0.93827000000E+00  0.93827000000E+00 0.  1.
     999902    2    1    2    0    0  0.53919404671E-02 -0.11528902900E-01 -0.17609353659E-01  0.10222026449E+01  0.10219717067E+01 0.  0.
     999903    2    3    3    0    0  0.93405257397E-01 -0.92113519156E-01  0.14253450825E-01  0.13357704169E+00  0.20741810109E-01 0.  0.
         14    1    1    2    0    0 -0.53919404671E-02  0.11528902900E-01  0.17609353659E-01  0.21727355117E-01  0.00000000000E+00 0. -1.
     999901    1    3    3    0    0 -0.88013316930E-01  0.80584616256E-01 -0.31862804484E-01  0.88862560319E+00  0.88000000000E+00 0.  1.
        -11    1    4    4    0    0  0.55620296952E-01 -0.65561888524E-01  0.15559361956E-01  0.87374673249E-01  0.51100000000E-03 0. -1.
         11    1    4    4    0    0  0.37784960445E-01 -0.26551630631E-01 -0.13059111312E-02  0.46202368445E-01  0.51100000000E-03 0.  1.
</event>
<event>
 8    1  0.1082757E+005  0.1043930E+01  0.7957747E-01            NaN
         13   -1    0    0    0    0  0.00000000000E+00  0.00000000000E+00  0.74505805969E-08  0.10566000000E+00  0.10566000000E+00 0.  1.
     999900   -1    0    0    0    0 -0.00000000000E+00 -0.00000000000E+00 -0.74505805969E-08  0.93827000000E+00  0.93827000000E+00 0.  1.
     999902    2    1    2    0    0  0.81382369953E-02  0.10708624659E-01 -0.20126958582E-01  0.10197225630E+01  0.10194351895E+01 0.  0.
     999903    2    3    3    0    0 -0.10588860798E+00  0.41413059666E-01 -0.61672978584E-01  0.13086320661E+00  0.19854061185E-01 0.  0.
         14    1    1    2    0    0 -0.81382369953E-02 -0.10708624659E-01  0.20126958582E-01  0.24207436982E-01  0.00000000000E+00 0.  1.
     999901    1    3    3    0    0  0.11402684497E+00 -0.30704435007E-01  0.41546020002E-01  0.88885935641E+00  0.88000000000E+00 0.  1.
        -11    1    4    4    0    0 -0.48031375666E-02  0.58849735165E-02 -0.79261401267E-02  0.10990353137E-01  0.51100000000E-03 0. -1.
         11    1    4    4    0    0 -0.10108547041E+00  0.35528086150E-01 -0.53746838457E-01  0.11987285347E+00  0.51100000000E-03 0.  1.
</event>
<event>
 8    1  0.1082757E+005  0.1043930E+01  0.7957747E-01            NaN
         13   -1    0    0    0    0  0.00000000000E+00  0.00000000000E+00  0.74505805969E-08  0.10566000000E+00  0.10566000000E+00 0.  1.
     999900   -1    0    0    0    0 -0.00000000000E+00 -0.00000000000E+00 -0.74505805969E-08  0.93827000000E+00  0.93827000000E+00 0. -1.
     999902    2    1    2    0    0  0.15896801668E-01  0.13374556815E-01 -0.13515004421E-01  0.10191460855E+01  0.10188446894E+01 0.  0.
     999903    2    3    3    0    0  0.30391325378E-01 -0.84056930771E-01 -0.92497271369E-01  0.13013473322E+00  0.19751033177E-01 0.  0.
         14    1    1    2    0    0 -0.15896801668E-01 -0.13374556815E-01  0.13515004421E-01  0.24783914497E-01  0.00000000000E+00 0.  1.
     999901    1    3    3    0    0 -0.14494523710E-01  0.97431487586E-01  0.78982266948E-01  0.88901135228E+00  0.88000000000E+00 0. -1.
        -11    1    4    4    0    0  0.95323458427E-02 -0.48987506429E-01 -0.59465462393E-01  0.77634037264E-01  0.51100000000E-03 0. -1.
         11    1    4    4    0    0  0.20858979535E-01 -0.35069424342E-01 -0.33031808976E-01  0.52500695959E-01  0.51100000000E-03 0.  1.
</event>
<event>
 8    1  0.1082757E+005  0.1043930E+01  0.7957747E-01            NaN
         13   -1    0    0    0    0  0.00000000000E+00  0.00000000000E+00  0.74505805969E-08  0.10566000000E+00  0.10566000000E+00 0. -1.
     999900   -1    0    0    0    0 -0.00000000000E+00 -0.00000000000E+00 -0.74505805969E-08  0.93827000000E+00  0.93827000000E+00 0. -1.
     999902    2    1    2    0    0 -0.37356966047E-02 -0.17192619246E-01 -0.15342738380E-01  0.10205860242E+01  0.10203190146E+01 0.  0.
     999903    2    3    3    0    0  0.23286091948E-01  0.14971965932E-01 -0.12781217808E+00  0.13243394686E+00  0.20890083166E-01 0.  0.
         14    1    1    2    0    0  0.37356966047E-02  0.17192619246E-01  0.15342738380E-01  0.23343975811E-01  0.00000000000E+00 0. -1.
     999901    1    3    3    0    0 -0.27021788553E-01 -0.32164585178E-01  0.11246943970E+00  0.88815207733E+00  0.88000000000E+00 0.  1.
        -11    1    4    4    0    0  0.18240300026E-01  0.20194320086E-01 -0.94869416362E-01  0.98696435552E-01  0.51100000000E-03 0. -1.
         11    1    4    4    0    0  0.50457919218E-02 -0.52223541536E-02 -0.32942761713E-01  0.33737511309E-01  0.51100000000E-03 0.  1.
</event>
<event>
 8    1  0.1082757E+005  0.1043930E+01  0.7957747E-01            NaN
         13   -1    0    0    0    0  0.00000000000E+00  0.00000000000E+00  0.74505805969E-08  0.10566000000E+00  0.10566000000E+00 0.  1.
     999900   -1    0    0    0    0 -0.00000000000E+00 -0.00000000000E+00 -0.74505805969E-08  0.93827000000E+00  0.93827000000E+00 0.  1.
     999902    2    1    2    0    0  0.20504505001E-01 -0.92505242781E-02  0.74883045405E-02  0.10202217392E+01  0.10199462317E+01 0.  0.
     999903    2    3    3    0    0 -0.11440946967E+00 -0.24373329184E-01 -0.48153241518E-01  0.12807463170E+00  0.20019757506E-01 0.  0.
         14    1    1    2    0    0 -0.20504505001E-01  0.92505242781E-02 -0.74883045405E-02  0.23708260789E-01  0.00000000000E+00 0. -1.
     999901    1    3    3    0    0  0.13491397467E+00  0.15122804906E-01  0.55641546059E-01  0.89214710751E+00  0.88000000000E+00 0.  1.
        -11    1    4    4    0    0 -0.21983410379E-01  0.32091416521E-02 -0.90087699929E-02  0.23978906977E-01  0.51100000000E-03 0. -1.
         11    1    4    4    0    0 -0.92426059293E-01 -0.27582470836E-01 -0.39144471526E-01  0.10409572472E+00  0.51100000000E-03 0.  1.
</event>
<event>
 8    1  0.1082757E+005  0.1043930E+01  0.7957747E-01            NaN
         13   -1    0    0    0    0  0.00000000000E+00  0.00000000000E+00  0.74505805969E-08  0.10566000000E+00  0.10566000000E+00 0. -1.
     999900   -1    0    0    0    0 -0.00000000000E+00 -0.00000000000E+00 -0.74505805969E-08  0.93827000000E+00  0.93827000000E+00 0.  1.
     999902    2    1    2    0    0 -0.18831725516E-01  0.82277366002E-02 -0.12656753503E-01  0.10197944879E+01  0.10195088399E+01 0.  0.
     999903    2    3    3    0    0 -0.39526572159E-01 -0.99532372169E-01  0.69370780482E-01  0.12919410947E+00  0.20242769578E-01 0.  0.
         14    1    1    2    0    0  0.18831725516E-01 -0.82277366002E-02  0.12656753503E-01  0.24135512108E-01  0.00000000000E+00 0. -1.
     999901    1    3    3    0    0  0.20694846643E-01  0.10776010877E+00 -0.82027533985E-01  0.89060037843E+00  0.88000000000E+00 0.  1.
        -11    1    4    4    0    0 -0.23017849598E-01 -0.32115584740E-01  0.23053642022E-01  0.45748920368E-01  0.51100000000E-03 0. -1.
         11    1    4    4    0    0 -0.16508722561E-01 -0.67416787428E-01  0.46317138460E-01  0.83445189099E-01  0.51100000000E-03 0.  1.
</event>
<event>
 8    1  0.1082757E+005  0.1043930E+01  0.7957747E-01            NaN
         13   -1    0    0    0    0  0.00000000000E+00  0.00000000000E+00  0.74505805969E-08  0.10566000000E+00  0.10566000000E+00 0. -1.
     999900   -1    0    0    0    0 -0.00000000000E+00 -0.00000000000E+00 -0.74505805969E-08  0.93827000000E+00  0.93827000000E+00 0.  1.
     999902    2    1    2    0    0  0.76122337067E-02 -0.15730762492E-01  0.29589151726E-01  0.10095654705E+01  0.10089804350E+01 0.  0.
     999903    2    3    3    0    0  0.62043486781E-01  0.99200932066E-01  0.20271497801E-01  0.12037546017E+00  0.19725582714E-01 0.  0.
         14    1    1    2    0    0 -0.76122337067E-02  0.15730762492E-01 -0.29589151726E-01  0.34364529539E-01  0.00000000000E+00 0.  1.
     999901    1    3    3    0    0 -0.54431253074E-01 -0.11493169456E+00  0.93176539251E-02  0.88919001029E+00  0.88000000000E+00 0.  1.
        -11    1    4    4    0    0  0.40030998452E-01  0.79874605186E-01  0.16042297331E-01  0.90774720134E-01  0.51100000000E-03 0.  1.
         11    1    4    4    0    0  0.22012488329E-01  0.19326326880E-01  0.42292004700E-02  0.29600740037E-01  0.51100000000E-03 0. -1.
</event>
<event>
 8    1  0.1082757E+005  0.1043930E+01  0.7957747E-01            NaN
         13   -1    0    0    0    0  0.00000000000E+00  0.00000000000E+00  0.74505805969E-08  0.10566000000E+00  0.10566000000E+00 0.  1.
     999900   -1    0    0    0    0 -0.00000000000E+00 -0.00000000000E+00 -0.74505805969E-08  0.93827000000E+00  0.93827000000E+00 0.  1.
     999902    2    1    2    0    0 -0.92713093849E-02 -0.20627125814E-01  0.10341229490E-01  0.10190628223E+01  0.10187593727E+01 0.  0.
     999903    2    3    3    0    0  0.11452713455E+00  0.37531243116E-01 -0.35807447123E-01  0.12730155892E+00  0.19961334503E-01 0.  0.
         14    1    1    2    0    0  0.92713093849E-02  0.20627125814E-01 -0.10341229490E-01  0.24867177652E-01  0.00000000000E+00 0. -1.
     999901    1    3    3    0    0 -0.12379844394E+00 -0.58158368930E-01  0.46148676613E-01  0.89176126343E+00  0.88000000000E+00 0.  1.
        -11    1    4    4    0    0  0.71370760785E-01  0.13156546754E-01 -0.20142920204E-01  0.75318514144E-01  0.51100000000E-03 0.  1.
         11    1    4    4    0    0  0.43156373768E-01  0.24374696362E-01 -0.15664526919E-01  0.51983044775E-01  0.51100000000E-03 0. -1.
</event>
<event>
 8    1  0.1082757E+005  0.1043930E+01  0.7957747E-01            NaN
         13   -1    0    0    0    0  0.00000000000E+00  0.00000000000E+00  0.74505805969E-08  0.10566000000E+00  0.10566000000E+00 0.  1.
     999900   -1    0    0    0    0 -0.00000000000E+00 -0.00000000000E+00 -0.74505805969E-08  0.93827000000E+00  0.93827000000E+00 0.  1.
     999902    2    1    2    0    0 -0.80102124655E-02 -0.47777874423E-02 -0.22888276626E-01  0.10192143377E+01  0.10189146197E+01 0.  0.
     999903    2    3    3    0    0  0.14588134922E-01 -0.55657493939E-02  0.12431348426E+00  0.12670122036E+00  0.18856447873E-01 0.  0.
         14    1    1    2    0    0  0.80102124655E-02  0.47777874423E-02  0.22888276626E-01  0.24715662311E-01  0.00000000000E+00 0.  1.
     999901    1    3    3    0    0 -0.22598347387E-01  0.78796195161E-03 -0.14720176088E+00  0.89251311732E+00  0.88000000000E+00 0.  1.
        -11    1    4    4    0    0  0.17634520070E-01 -0.25350426669E-02  0.11566859905E+00  0.11703370739E+00  0.51100000000E-03 0. -1.
         11    1    4    4    0    0 -0.30463851482E-02 -0.30307067270E-02  0.86448852092E-02  0.96675129696E-02  0.51100000000E-03 0.  1.
</event>
<event>
 8    1  0.1082757E+005  0.1043930E+01  0.7957747E-01            NaN
         13   -1    0    0    0    0  0.00000000000E+00  0.00000000000E+00  0.74505805969E-08  0.10566000000E+00  0.10566000000E+00 0.  1.
     999900   -1    0    0    0    0 -0.00000000000E+00 -0.00000000000E+00 -0.74505805969E-08  0.93827000000E+00  0.93827000000E+00 0. -1.
     999902    2    1    2    0    0  0.81559181504E-02  0.38799706959E-02  0.20858158498E-01  0.10212003729E+01  0.10209473863E+01 0.  0.
     999903    2    3    3    0    0 -0.59583819020E-01  0.11527302468E+00  0.78447728106E-02  0.13150018029E+00  0.19815530491E-01 0.  0.
         14    1    1    2    0    0 -0.81559181504E-02 -0.38799706959E-02 -0.20858158498E-01  0.22729627128E-01  0.00000000000E+00 0. -1.
     999901    1    3    3    0    0  0.67739737170E-01 -0.11139305398E+00  0.13013385687E-01  0.88970019258E+00  0.88000000000E+00 0.  1.
        -11    1    4    4    0    0 -0.20456546909E-01  0.22735723473E-01  0.49619767817E-02  0.30988155283E-01  0.51100000000E-03 0.  1.
         11    1    4    4    0    0 -0.39127272111E-01  0.92537301207E-01  0.28827960290E-02  0.10051202501E+00  0.51100000000E-03 0. -1.
</event>
<event>
 8    1  0.1082757E+005  0.1043930E+01  0.7957747E-01            NaN
         13   -1    0    0    0    0  0.00000000000E+00  0.00000000000E+00  0.74505805969E-08  0.10566000000E+00  0.10566000000E+00 0. -1.
     999900   -1    0    0    0    0 -0.00000000000E+00 -0.00000000000E+00 -0.74505805969E-08  0.93827000000E+00  0.93827000000E+00 0.  1.
     999902    2    1    2    0    0 -0.25313026363E-01 -0.32868476833E-02  0.12539896195E-01  0.10154905614E+01  0.10150922513E+01 0.  0.
     999903    2    3    3    0    0  0.63239543193E-01 -0.70268149913E-01  0.81463095032E-01  0.12583980983E+00  0.16203986283E-01 0.  0.
         14    1    1    2    0    0  0.25313026363E-01  0.32868476833E-02 -0.12539896195E-01  0.28439438601E-01  0.00000000000E+00 0.  1.
     999901    1    3    3    0    0 -0.88552569556E-01  0.66981302229E-01 -0.68923198836E-01  0.88965075157E+00  0.88000000000E+00 0.  1.
        -11    1    4    4    0    0  0.83962016202E-02 -0.28207809753E-02  0.58742877917E-02  0.10640553793E-01  0.51100000000E-03 0. -1.
         11    1    4    4    0    0  0.54843341572E-01 -0.67447368937E-01  0.75588807240E-01  0.11519925604E+00  0.51100000000E-03 0.  1.
</event>
<event>
 8    1  0.1082757E+005  0.1043930E+01  0.7957747E-01            NaN
         13   -1    0    0    0    0  0.00000000000E+00  0.00000000000E+00  0.74505805969E-08  0.10566000000E+00  0.10566000000E+00 0. -1.
     999900   -1    0    0    0    0 -0.00000000000E+00 -0.00000000000E+00 -0.74505805969E-08  0.93827000000E+00  0.93827000000E+00 0.  1.
     999902    2    1    2    0    0 -0.15971704545E-01 -0.18125279996E-01  0.14427416493E-02  0.10197287061E+01  0.10194414802E+01 0.  0.
     999903    2    3    3    0    0  0.37557625877E-01  0.31396532108E-01 -0.11745743567E+00  0.12874326784E+00  0.19551530146E-01 0.  0.
         14    1    1    2    0    0  0.15971704545E-01  0.18125279996E-01 -0.14427416493E-02  0.24201293859E-01  0.00000000000E+00 0. -1.
     999901    1    3    3    0    0 -0.53529330422E-01 -0.49521812104E-01  0.11890017732E+00  0.89098543830E+00  0.88000000000E+00 0. -1.
        -11    1    4    4    0    0  0.64569854625E-02  0.16042163529E-01 -0.49657203736E-01  0.52584623948E-01  0.51100000000E-03 0.  1.
         11    1    4    4    0    0  0.31100640415E-01  0.15354368580E-01 -0.67800231935E-01  0.76158643896E-01  0.51100000000E-03 0. -1.
</event>
<event>
 8    1  0.1082757E+005  0.1043930E+01  0.7957747E-01            NaN
         13   -1    0    0    0    0  0.00000000000E+00  0.00000000000E+00  0.74505805969E-08  0.10566000000E+00  0.10566000000E+00 0.  1.
     999900   -1    0    0    0    0 -0.00000000000E+00 -0.00000000000E+00 -0.74505805969E-08  0.93827000000E+00  0.93827000000E+00 0.  1.
     999902    2    1    2    0    0  0.12872956898E-01  0.17188258779E-01  0.10114602623E-01  0.10201928046E+01  0.10199166163E+01 0.  0.
     999903    2    3    3    0    0 -0.92908787724E-01  0.86379368873E-01  0.26523900858E-01  0.13100977942E+00  0.19146978414E-01 0.  0.
         14    1    1    2    0    0 -0.12872956898E-01 -0.17188258779E-01 -0.10114602623E-01  0.23737195398E-01  0.00000000000E+00 0. -1.
     999901    1    3    3    0    0  0.10578174462E+00 -0.69191110095E-01 -0.16409298235E-01  0.88918302519E+00  0.88000000000E+00 0.  1.
        -11    1    4    4    0    0 -0.50305927098E-01  0.39567376155E-01  0.51934710845E-02  0.64214459586E-01  0.51100000000E-03 0. -1.
         11    1    4    4    0    0 -0.42602860626E-01  0.46811992719E-01  0.21330429774E-01  0.66795319829E-01  0.51100000000E-03 0.  1.
</event>
<event>
 8    1  0.1082757E+005  0.1043930E+01  0.7957747E-01            NaN
         13   -1    0    0    0    0  0.00000000000E+00  0.00000000000E+00  0.74505805969E-08  0.10566000000E+00  0.10566000000E+00 0.  1.
     999900   -1    0    0    0    0 -0.00000000000E+00 -0.00000000000E+00 -0.74505805969E-08  0.93827000000E+00  0.93827000000E+00 0. -1.
     999902    2    1    2    0    0 -0.19775866687E-01 -0.11171742369E-01 -0.24550910022E-02  0.10210844271E+01  0.10208288236E+01 0.  0.
     999903    2    3    3    0    0 -0.74311718969E-01  0.55790705236E-01  0.91381543465E-01  0.13189184807E+00  0.20249413196E-01 0.  0.
         14    1    1    2    0    0  0.19775866687E-01  0.11171742369E-01  0.24550910022E-02  0.22845572933E-01  0.00000000000E+00 0.  1.
     999901    1    3    3    0    0  0.54535852282E-01 -0.66962447605E-01 -0.93836634467E-01  0.88919257900E+00  0.88000000000E+00 0. -1.
        -11    1    4    4    0    0 -0.23972149093E-01  0.79971785306E-02  0.19141282603E-01  0.31705971319E-01  0.51100000000E-03 0.  1.
         11    1    4    4    0    0 -0.50339569876E-01  0.47793526706E-01  0.72240260862E-01  0.10018587675E+00  0.51100000000E-03 0. -1.
</event>
<event>
 8    1  0.1082757E+005  0.1043930E+01  0.7957747E-01            NaN
         13   -1    0    0    0    0  0.00000000000E+00  0.00000000000E+00  0.74505805969E-08  0.10566000000E+00  0.10566000000E+00 0.  1.
     999900   -1    0    0    0    0 -0.00000000000E+00 -0.00000000000E+00 -0.74505805969E-08  0.93827000000E+00  0.93827000000E+00 0.  1.
     999902    2    1    2    0    0  0.13916483060E-01  0.17842957706E-01 -0.66982727502E-02  0.10203311335E+01  0.10200581922E+01 0.  0.
     999903    2    3    3    0    0  0.19773496530E-01  0.74020163575E-01  0.10454551561E+00  0.13153117657E+00  0.22376545607E-01 0.  0.
         14    1    1    2    0    0 -0.13916483060E-01 -0.17842957706E-01  0.66982727502E-02  0.23598866462E-01  0.00000000000E+00 0.  1.
     999901    1    3    3    0    0 -0.58570134703E-02 -0.56177205869E-01 -0.11124378836E+00  0.88879995697E+00  0.88000000000E+00 0.  1.
        -11    1    4    4    0    0  0.50182633306E-02  0.57245457423E-01  0.75763042846E-01  0.95092192869E-01  0.51100000000E-03 0. -1.
         11    1    4    4    0    0  0.14755233199E-01  0.16774706152E-01  0.28782472766E-01  0.36438983696E-01  0.51100000000E-03 0.  1.
</event>
<event>
 8    1  0.1082757E+005  0.1043930E+01  0.7957747E-01            NaN
         13   -1    0    0    0    0  0.00000000000E+00  0.00000000000E+00  0.74505805969E-08  0.10566000000E+00  0.10566000000E+00 0. -1.
     999900   -1    0    0    0    0 -0.00000000000E+00 -0.00000000000E+00 -0.74505805969E-08  0.93827000000E+00  0.93827000000E+00 0.  1.
     999902    2    1    2    0    0  0.20910682291E-01 -0.57951070733E-02  0.10012468222E-01  0.10200325227E+01  0.10197525474E+01 0.  0.
     999903    2    3    3    0    0 -0.11139916455E+00 -0.58295045733E-01  0.17705547774E-01  0.12856108595E+00  0.20158873444E-01 0.  0.
         14    1    1    2    0    0 -0.20910682291E-01  0.57951070733E-02 -0.10012468222E-01  0.23897477268E-01  0.00000000000E+00 0.  1.
     999901    1    3    3    0    0  0.13230984684E+00  0.52499938660E-01 -0.76930795521E-02  0.89147143678E+00  0.88000000000E+00 0.  1.
        -11    1    4    4    0    0 -0.70680453136E-01 -0.25870523624E-01  0.95296979649E-02  0.75868878418E-01  0.51100000000E-03 0.  1.
         11    1    4    4    0    0 -0.40718711413E-01 -0.32424522109E-01  0.81758498090E-02  0.52692207529E-01  0.51100000000E-03 0. -1.
</event>
<event>
 8    1  0.1082757E+005  0.1043930E+01  0.7957747E-01            NaN
         13   -1    0    0    0    0  0.00000000000E+00  0.00000000000E+00  0.74505805969E-08  0.10566000000E+00  0.10566000000E+00 0. -1.
     999900   -1    0    0    0    0 -0.00000000000E+00 -0.00000000000E+00 -0.74505805969E-08  0.93827000000E+00  0.93827000000E+00 0. -1.
     999902    2    1    2    0    0 -0.95601974800E-02  0.21667919938E-01  0.20534942788E-02  0.10201578951E+01  0.10198808843E+01 0.  0.
     999903    2    3    3    0    0 -0.63595728839E-02  0.61643394379E-01  0.11476597001E+00  0.13206308898E+00  0.20714230874E-01 0.  0.
         14    1    1    2    0    0  0.95601974800E-02 -0.21667919938E-01 -0.20534942788E-02  0.23772104851E-01  0.00000000000E+00 0.  1.
     999901    1    3    3    0    0 -0.32006245961E-02 -0.39975474440E-01 -0.11271247573E+00  0.88809480617E+00  0.88000000000E+00 0. -1.
        -11    1    4    4    0    0 -0.42078923457E-02  0.34048167356E-01  0.42152588883E-01  0.54351503465E-01  0.51100000000E-03 0.  1.
         11    1    4    4    0    0 -0.21516805382E-02  0.27595227023E-01  0.72613381129E-01  0.77711585517E-01  0.51100000000E-03 0. -1.
</event>
<event>
 8    1  0.1082757E+005  0.1043930E+01  0.7957747E-01            NaN
         13   -1    0    0    0    0  0.00000000000E+00  0.00000000000E+00  0.74505805969E-08  0.10566000000E+00  0.10566000000E+00 0. -1.
     999900   -1    0    0    0    0 -0.00000000000E+00 -0.00000000000E+00 -0.74505805969E-08  0.93827000000E+00  0.93827000000E+00 0. -1.
     999902    2    1    2    0    0  0.20928257440E-01 -0.12724030128E-02  0.95095145189E-02  0.10209073625E+01  0.10206477360E+01 0.  0.
     999903    2    3    3    0    0  0.11736881027E+00 -0.61145804285E-01 -0.10686127610E-01  0.13338639470E+00  0.12786319287E-01 0.  0.
         14    1    1    2    0    0 -0.20928257440E-01  0.12724030128E-02 -0.95095145189E-02  0.23022637453E-01  0.00000000000E+00 0.  1.
     999901    1    3    3    0    0 -0.96440552833E-01  0.59873401272E-01  0.20195642129E-01  0.88752096785E+00  0.88000000000E+00 0. -1.
        -11    1    4    4    0    0  0.82028504696E-01 -0.47107390129E-01 -0.11883557711E-01  0.95337620341E-01  0.51100000000E-03 0.  1.
         11    1    4    4    0    0  0.35340305577E-01 -0.14038414156E-01  0.11974301008E-02  0.38048774358E-01  0.51100000000E-03 0. -1.
</event>
<event>
 8    1  0.1082757E+005  0.1043930E+01  0.7957747E-01            NaN
         13   -1    0    0    0    0  0.00000000000E+00  0.00000000000E+00  0.74505805969E-08  0.10566000000E+00  0.10566000000E+00 0.  1.
     999900   -1    0    0    0    0 -0.00000000000E+00 -0.00000000000E+00 -0.74505805969E-08  0.93827000000E+00  0.93827000000E+00 0.  1.
     999902    2    1    2    0    0 -0.22090736835E-01  0.15995500290E-03  0.85318429841E-02  0.10202483914E+01  0.10199735103E+01 0.  0.
     999903    2    3    3    0    0 -0.12903152965E+00 -0.18891693370E-01 -0.18172849129E-01  0.13316753883E+00  0.19932617284E-01 0.  0.
         14    1    1    2    0    0  0.22090736835E-01 -0.15995500290E-03 -0.85318429841E-02  0.23681608565E-01  0.00000000000E+00 0. -1.
     999901    1    3    3    0    0  0.10694079281E+00  0.19051648373E-01  0.26704692114E-01  0.88708085260E+00  0.88000000000E+00 0. -1.
        -11    1    4    4    0    0 -0.53528656214E-01 -0.78811951636E-02  0.23282972535E-02  0.54158216019E-01  0.51100000000E-03 0.  1.
         11    1    4    4    0    0 -0.75502873433E-01 -0.11010498207E-01 -0.20501146383E-01  0.79009322813E-01  0.51100000000E-03 0. -1.
</event>
<event>
 8    1  0.1082757E+005  0.1043930E+01  0.7957747E-01            NaN
         13   -1    0    0    0    0  0.00000000000E+00  0.00000000000E+00  0.74505805969E-08  0.10566000000E+00  0.10566000000E+00 0. -1.
     999900   -1    0    0    0    0 -0.00000000000E+00 -0.00000000000E+00 -0.74505805969E-08  0.93827000000E+00  0.93827000000E+00 0.  1.
     999902    2    1    2    0    0  0.50085729671E-02 -0.23595109378E-01 -0.73669583166E-03  0.10197979112E+01  0.10195123452E+01 0.  0.
     999903    2    3    3    0    0  0.55680711436E-01  0.74202263633E-01 -0.86701653734E-01  0.12877492283E+00  0.21435634736E-01 0.  0.
         14    1    1    2    0    0 -0.50085729671E-02  0.23595109378E-01  0.73669583166E-03  0.24132088813E-01  0.00000000000E+00 0.  1.
     999901    1    3    3    0    0 -0.50672138469E-01 -0.97797373011E-01  0.85964957902E-01  0.89102298835E+00  0.88000000000E+00 0.  1.
        -11    1    4    4    0    0  0.49819061271E-01  0.51143713944E-01 -0.63945621945E-01  0.95848432584E-01  0.51100000000E-03 0.  1.
         11    1    4    4    0    0  0.58616501648E-02  0.23058549689E-01 -0.22756031789E-01  0.32926490250E-01  0.51100000000E-03 0. -1.
</event>
<event>
 8    1  0.1082757E+005  0.1043930E+01  0.7957747E-01            NaN
         13   -1    0    0    0    0  0.00000000000E+00  0.00000000000E+00  0.74505805969E-08  0.10566000000E+00  0.10566000000E+00 0.  1.
     999900   -1    0    0    0    0 -0.00000000000E+00 -0.00000000000E+00 -0.74505805969E-08  0.93827000000E+00  0.93827000000E+00 0. -1.
     999902    2    1    2    0    0  0.35719430700E-05 -0.18419584836E-01  0.14442730139E-01  0.10205233007E+01  0.10202548376E+01 0.  0.
     999903    2    3    3    0    0  0.72998274010E-01  0.49078767918E-01  0.95219279630E-01  0.13124881827E+00  0.20544284243E-01 0.  0.
         14    1    1    2    0    0 -0.35719430700E-05  0.18419584836E-01 -0.14442730139E-01  0.23406699300E-01  0.00000000000E+00 0. -1.
     999901    1    3    3    0    0 -0.72994702067E-01 -0.67498352753E-01 -0.80776549492E-01  0.88927448243E+00  0.88000000000E+00 0. -1.
        -11    1    4    4    0    0  0.22567518339E-01  0.79492400968E-02  0.36190867247E-01  0.43388054752E-01  0.51100000000E-03 0.  1.
         11    1    4    4    0    0  0.50430755671E-01  0.41129527821E-01  0.59028412383E-01  0.87860763517E-01  0.51100000000E-03 0. -1.
</event>
<event>
 8    1  0.1082757E+005  0.1043930E+01  0.7957747E-01            NaN
         13   -1    0    0    0    0  0.00000000000E+00  0.00000000000E+00  0.74505805969E-08  0.10566000000E+00  0.10566000000E+00 0.  1.
     999900   -1    0    0    0    0 -0.00000000000E+00 -0.00000000000E+00 -0.74505805969E-08  0.93827000000E+00  0.93827000000E+00 0.  1.
     999902    2    1    2    0    0 -0.15028963061E-01 -0.16248398445E-01  0.77696875102E-02  0.10204726296E+01  0.10202029894E+01 0.  0.
     999903    2    3    3    0    0  0.64284897146E-01 -0.85354855106E-01 -0.72326985779E-01  0.13059518418E+00  0.20147207436E-01 0.  0.
         14    1    1    2    0    0  0.15028963061E-01  0.16248398445E-01 -0.77696875102E-02  0.23457370414E-01  0.00000000000E+00 0.  1.
     999901    1    3    3    0    0 -0.79313860207E-01  0.69106456661E-01  0.80096673290E-01  0.88987744541E+00  0.88000000000E+00 0. -1.
        -11    1    4    4    0    0  0.10774390312E-01 -0.27250857502E-01 -0.24914347454E-01  0.38466642059E-01  0.51100000000E-03 0. -1.
         11    1    4    4    0    0  0.53510506834E-01 -0.58103997604E-01 -0.47412638325E-01  0.92128542120E-01  0.51100000000E-03 0.  1.
</event>
<event>
 8    1  0.1233640E+005  0.1043930E+01  0.7957747E-01            NaN
         13   -1    0    0    0    0  0.00000000000E+00  0.00000000000E+00  0.74505805969E-08  0.10566000000E+00  0.10566000000E+00 0. -1.
     999900   -1    0    0    0    0 -0.00000000000E+00 -0.00000000000E+00 -0.74505805969E-08  0.93827000000E+00  0.93827000000E+00 0.  1.
     999902    2    1    2    0    0  0.22783377611E-01  0.35661026477E-02 -0.33081065809E-02  0.10206331557E+01  0.10203672357E+01 0.  0.
     999903    2    3    3    0    0  0.61725194346E-01 -0.11225481002E+00  0.22897195512E-01  0.13180377573E+00  0.20900041760E-01 0.  0.
         14    1    1    2    0    0 -0.22783377611E-01 -0.35661026477E-02  0.33081065809E-02  0.23296844263E-01  0.00000000000E+00 0.  1.
     999901    1    3    3    0    0 -0.38941816734E-01  0.11582091267E+00 -0.26205302093E-01  0.88882938000E+00  0.88000000000E+00 0. -1.
        -11    1    4    4    0    0  0.21011401500E-01 -0.59430298048E-01  0.90133397649E-02  0.63678416546E-01  0.51100000000E-03 0. -1.
         11    1    4    4    0    0  0.40713792846E-01 -0.52824511970E-01  0.13883855747E-01  0.68125359186E-01  0.51100000000E-03 0.  1.
</event>
<event>
 8    1  0.1082757E+005  0.1043930E+01  0.7957747E-01            NaN
         13   -1    0    0    0    0  0.00000000000E+00  0.00000000000E+00  0.74505805969E-08  0.10566000000E+00  0.10566000000E+00 0. -1.
     999900   -1    0    0    0    0 -0.00000000000E+00 -0.00000000000E+00 -0.74505805969E-08  0.93827000000E+00  0.93827000000E+00 0.  1.
     999902    2    1    2    0    0  0.21372847447E-01 -0.28805079604E-02  0.97415550017E-02  0.10202658113E+01  0.10199913391E+01 0.  0.
     999903    2    3    3    0    0 -0.10657007233E+00  0.21046695368E-01 -0.63592710401E-01  0.12767418222E+00  0.21366335349E-01 0.  0.
         14    1    1    2    0    0 -0.21372847447E-01  0.28805079604E-02 -0.97415550017E-02  0.23664188724E-01  0.00000000000E+00 0.  1.
     999901    1    3    3    0    0  0.12794291978E+00 -0.23927203329E-01  0.73334265402E-01  0.89259162906E+00  0.88000000000E+00 0. -1.
        -11    1    4    4    0    0 -0.37181852470E-01  0.14983229856E-01 -0.31483448645E-01  0.50975052620E-01  0.51100000000E-03 0. -1.
         11    1    4    4    0    0 -0.69388219863E-01  0.60634655120E-02 -0.32109261755E-01  0.76699129599E-01  0.51100000000E-03 0.  1.
</event>
<event>
 8    1  0.1082757E+005  0.1043930E+01  0.7957747E-01            NaN
         13   -1    0    0    0    0  0.00000000000E+00  0.00000000000E+00  0.74505805969E-08  0.10566000000E+00  0.10566000000E+00 0.  1.
     999900   -1    0    0    0    0 -0.00000000000E+00 -0.00000000000E+00 -0.74505805969E-08  0.93827000000E+00  0.93827000000E+00 0.  1.
     999902    2    1    2    0    0 -0.41289840326E-02 -0.17809513354E-01 -0.15187185699E-01  0.10201628402E+01  0.10198859459E+01 0.  0.
     999903    2    3    3    0    0 -0.83812579735E-01  0.81254037179E-01 -0.53893272916E-01  0.13018462494E+00  0.20415303707E-01 0.  0.
         14    1    1    2    0    0  0.41289840326E-02  0.17809513354E-01  0.15187185699E-01  0.23767159790E-01  0.00000000000E+00 0. -1.
     999901    1    3    3    0    0  0.79683595702E-01 -0.99063550533E-01  0.38706087218E-01  0.88997821527E+00  0.88000000000E+00 0.  1.
        -11    1    4    4    0    0 -0.17356411718E-01  0.78439164589E-02 -0.47482706231E-02  0.19636171929E-01  0.51100000000E-03 0.  1.
         11    1    4    4    0    0 -0.66456168017E-01  0.73410120720E-01 -0.49145002293E-01  0.11054845301E+00  0.51100000000E-03 0. -1.
</event>
<event>
 8    1  0.1082757E+005  0.1043930E+01  0.7957747E-01            NaN
         13   -1    0    0    0    0  0.00000000000E+00  0.00000000000E+00  0.74505805969E-08  0.10566000000E+00  0.10566000000E+00 0.  1.
     999900   -1    0    0    0    0 -0.00000000000E+00 -0.00000000000E+00 -0.74505805969E-08  0.93827000000E+00  0.93827000000E+00 0. -1.
     999902    2    1    2    0    0 -0.11594837622E-01 -0.20390184047E-01  0.27830392531E-02  0.10203091369E+01  0.10200356806E+01 0.  0.
     999903    2    3    3    0    0  0.12251096628E+00  0.14127926645E-01 -0.31388170510E-01  0.12882524016E+00  0.20054677410E-01 0.  0.
         14    1    1    2    0    0  0.11594837622E-01  0.20390184047E-01 -0.27830392531E-02  0.23620863075E-01  0.00000000000E+00 0. -1.
     999901    1    3    3    0    0 -0.13410580390E+00 -0.34518110692E-01  0.34171209763E-01  0.89148389676E+00  0.88000000000E+00 0. -1.
        -11    1    4    4    0    0  0.38433517781E-01  0.15612960101E-02 -0.80030466740E-03  0.38476935206E-01  0.51100000000E-03 0. -1.
         11    1    4    4    0    0  0.84077448496E-01  0.12566630635E-01 -0.30587865842E-01  0.90348304959E-01  0.51100000000E-03 0.  1.
</event>
<event>
 8    1  0.1082757E+005  0.1043930E+01  0.7957747E-01            NaN
         13   -1    0    0    0    0  0.00000000000E+00  0.00000000000E+00  0.74505805969E-08  0.10566000000E+00  0.10566000000E+00 0.  1.
     999900   -1    0    0    0    0 -0.00000000000E+00 -0.00000000000E+00 -0.74505805969E-08  0.93827000000E+00  0.93827000000E+00 0.  1.
     999902    2    1    2    0    0  0.14181509011E-01 -0.13335028035E-02  0.19384950193E-01  0.10198744451E+01  0.10195907091E+01 0.  0.
     999903    2    3    3    0    0  0.21953722894E-01  0.11851405758E+00 -0.42946861410E-01  0.12953231997E+00  0.20165347020E-01 0.  0.
         14    1    1    2    0    0 -0.14181509011E-01  0.13335028035E-02 -0.19384950193E-01  0.24055554900E-01  0.00000000000E+00 0. -1.
     999901    1    3    3    0    0 -0.77722138828E-02 -0.11984756038E+00  0.62331811604E-01  0.89034212513E+00  0.88000000000E+00 0. -1.
        -11    1    4    4    0    0  0.14560929022E-01  0.32210471172E-01 -0.88615786921E-02  0.36446176823E-01  0.51100000000E-03 0. -1.
         11    1    4    4    0    0  0.73927938716E-02  0.86303586405E-01 -0.34085282718E-01  0.93086143150E-01  0.51100000000E-03 0.  1.
</event>
<event>
 8    1  0.1082757E+005  0.1043930E+01  0.7957747E-01            NaN
         13   -1    0    0    0    0  0.00000000000E+00  0.00000000000E+00  0.74505805969E-08  0.10566000000E+00  0.10566000000E+00 0.  1.
     999900   -1    0    0    0    0 -0.00000000000E+00 -0.00000000000E+00 -0.74505805969E-08  0.93827000000E+00  0.93827000000E+00 0.  1.
     999902    2    1    2    0    0  0.65296722039E-02 -0.11648031663E-01 -0.12956235465E-01  0.10253241596E+01  0.10251553321E+01 0.  0.
     999903    2    3    3    0    0  0.63577417418E-02  0.12339129594E+00  0.44751843010E-01  0.13315496492E+00  0.21486843327E-01 0.  0.
         14    1    1    2    0    0 -0.65296722039E-02  0.11648031663E-01  0.12956235465E-01  0.18605840431E-01  0.00000000000E+00 0.  1.
     999901    1    3    3    0    0  0.17193046208E-03 -0.13503932760E+00 -0.57708078475E-01  0.89216919465E+00  0.88000000000E+00 0.  1.
        -11    1    4    4    0    0  0.46450582239E-03  0.65001173686E-01  0.12526678238E-01  0.66200809171E-01  0.51100000000E-03 0. -1.
         11    1    4    4    0    0  0.58932359195E-02  0.58390122254E-01  0.32225164772E-01  0.66954155749E-01  0.51100000000E-03 0.  1.
</event>
<event>
 8    1  0.1082757E+005  0.1043930E+01  0.7957747E-01            NaN
         13   -1    0    0    0    0  0.00000000000E+00  0.00000000000E+00  0.74505805969E-08  0.10566000000E+00  0.10566000000E+00 0.  1.
     999900   -1    0    0    0    0 -0.00000000000E+00 -0.00000000000E+00 -0.74505805969E-08  0.93827000000E+00  0.93827000000E+00 0. -1.
     999902    2    1    2    0    0  0.23027664430E-01 -0.57356082784E-02 -0.88298558830E-02  0.10186093190E+01  0.10182945585E+01 0.  0.
     999903    2    3    3    0    0 -0.11271108896E+00 -0.49964381590E-01  0.20732343874E-01  0.12661429815E+00  0.20028015705E-01 0.  0.
         14    1    1    2    0    0 -0.23027664430E-01  0.57356082784E-02  0.88298558830E-02  0.25320681001E-01  0.00000000000E+00 0.  1.
     999901    1    3    3    0    0  0.13573875339E+00  0.44228773312E-01 -0.29562199757E-01  0.89199502085E+00  0.88000000000E+00 0.  1.
        -11    1    4    4    0    0 -0.73658672885E-01 -0.23970727304E-01  0.18527260872E-01  0.79647450525E-01  0.51100000000E-03 0. -1.
         11    1    4    4    0    0 -0.39052416070E-01 -0.25993654286E-01  0.22050830021E-02  0.46966847628E-01  0.51100000000E-03 0.  1.
</event>
<event>
 8    1  0.1082757E+005  0.1043930E+01  0.7957747E-01            NaN
         13   -1    0    0    0    0  0.00000000000E+00  0.00000000000E+00  0.74505805969E-08  0.10566000000E+00  0.10566000000E+00 0.  1.
     999900   -1    0    0    0    0 -0.00000000000E+00 -0.00000000000E+00 -0.74505805969E-08  0.93827000000E+00  0.93827000000E+00 0. -1.
     999902    2    1    2    0    0 -0.16342667466E-01  0.55521845469E-02  0.15579684007E-01  0.10206784175E+01  0.10204135416E+01 0.  0.
     999903    2    3    3    0    0  0.87415835401E-01 -0.65750125178E-01  0.68423793232E-01  0.13014916694E+00  0.17099208630E-01 0.  0.
         14    1    1    2    0    0  0.16342667466E-01 -0.55521845469E-02 -0.15579684007E-01  0.23251582460E-01  0.00000000000E+00 0. -1.
     999901    1    3    3    0    0 -0.10375850287E+00  0.71302309725E-01 -0.52844109225E-01  0.89052925060E+00  0.88000000000E+00 0. -1.
        -11    1    4    4    0    0  0.42159410573E-01 -0.42242891094E-01  0.35443987226E-01  0.69414804612E-01  0.51100000000E-03 0.  1.
         11    1    4    4    0    0  0.45256424828E-01 -0.23507234084E-01  0.32979806006E-01  0.60734362330E-01  0.51100000000E-03 0. -1.
</event>
<event>
 8    1  0.1082757E+005  0.1043930E+01  0.7957747E-01            NaN
         13   -1    0    0    0    0  0.00000000000E+00  0.00000000000E+00  0.74505805969E-08  0.10566000000E+00  0.10566000000E+00 0. -1.
     999900   -1    0    0    0    0 -0.00000000000E+00 -0.00000000000E+00 -0.74505805969E-08  0.93827000000E+00  0.93827000000E+00 0. -1.
     999902    2    1    2    0    0 -0.21399982469E-01 -0.85579933355E-02 -0.53383395932E-02  0.10202720971E+01  0.10199977724E+01 0.  0.
     999903    2    3    3    0    0 -0.53435874364E-01 -0.67677338209E-01  0.97629726813E-01  0.13172056905E+00  0.19573706301E-01 0.  0.
         14    1    1    2    0    0  0.21399982469E-01  0.85579933355E-02  0.53383395932E-02  0.23657902891E-01  0.00000000000E+00 0.  1.
     999901    1    3    3    0    0  0.32035891896E-01  0.59119344874E-01 -0.10296806641E+00  0.88855152805E+00  0.88000000000E+00 0. -1.
        -11    1    4    4    0    0 -0.18446565818E-01 -0.30480503994E-01  0.53195691651E-01  0.64026398036E-01  0.51100000000E-03 0.  1.
         11    1    4    4    0    0 -0.34989308546E-01 -0.37196834215E-01  0.44434035162E-01  0.67694171019E-01  0.51100000000E-03 0. -1.
</event>
<event>
 8    1  0.1082757E+005  0.1043930E+01  0.7957747E-01            NaN
         13   -1    0    0    0    0  0.00000000000E+00  0.00000000000E+00  0.74505805969E-08  0.10566000000E+00  0.10566000000E+00 0.  1.
     999900   -1    0    0    0    0 -0.00000000000E+00 -0.00000000000E+00 -0.74505805969E-08  0.93827000000E+00  0.93827000000E+00 0. -1.
     999902    2    1    2    0    0 -0.34524816638E-02  0.20900428671E-01  0.96099170050E-02  0.10206684856E+01  0.10204033807E+01 0.  0.
     999903    2    3    3    0    0 -0.26753989842E-01 -0.10510951222E+00 -0.65452991296E-01  0.12822470265E+00  0.19841743065E-01 0.  0.
         14    1    1    2    0    0  0.34524816638E-02 -0.20900428671E-01 -0.96099170050E-02  0.23261514420E-01  0.00000000000E+00 0. -1.
     999901    1    3    3    0    0  0.23301508179E-01  0.12600994089E+00  0.75062908301E-01  0.89244378293E+00  0.88000000000E+00 0. -1.
        -11    1    4    4    0    0 -0.53768961320E-02 -0.49697422891E-01 -0.37993947766E-01  0.62789696941E-01  0.51100000000E-03 0. -1.
         11    1    4    4    0    0 -0.21377093710E-01 -0.55412089332E-01 -0.27459043530E-01  0.65435005710E-01  0.51100000000E-03 0.  1.
</event>
<event>
 8    1  0.1082757E+005  0.1043930E+01  0.7957747E-01            NaN
         13   -1    0    0    0    0  0.00000000000E+00  0.00000000000E+00  0.74505805969E-08  0.10566000000E+00  0.10566000000E+00 0. -1.
     999900   -1    0    0    0    0 -0.00000000000E+00 -0.00000000000E+00 -0.74505805969E-08  0.93827000000E+00  0.93827000000E+00 0. -1.
     999902    2    1    2    0    0 -0.11933058481E-01  0.11806814842E-01 -0.16072649060E-01  0.10206893286E+01  0.10204247040E+01 0.  0.
     999903    2    3    3    0    0  0.10797633847E+00  0.22936104145E-01  0.63635616424E-01  0.12891831975E+00  0.19633821535E-01 0.  0.
         14    1    1    2    0    0  0.11933058481E-01 -0.11806814842E-01  0.16072649060E-01  0.23240671445E-01  0.00000000000E+00 0. -1.
     999901    1    3    3    0    0 -0.11990939695E+00 -0.11129289302E-01 -0.79708265484E-01  0.89177100880E+00  0.88000000000E+00 0. -1.
        -11    1    4    4    0    0  0.91444861433E-01  0.19202560795E-01  0.61418177919E-01  0.11181840065E+00  0.51100000000E-03 0. -1.
         11    1    4    4    0    0  0.16531477033E-01  0.37335433497E-02  0.22174385055E-02  0.17099919104E-01  0.51100000000E-03 0.  1.
</event>
<event>
 8    1  0.1082757E+005  0.1043930E+01  0.7957747E-01            NaN
         13   -1    0    0    0    0  0.00000000000E+00  0.00000000000E+00  0.74505805969E-08  0.10566000000E+00  0.10566000000E+00 0.  1.
     999900   -1    0    0    0    0 -0.00000000000E+00 -0.00000000000E+00 -0.74505805969E-08  0.93827000000E+00  0.93827000000E+00 0. -1.
     999902    2    1    2    0    0  0.17476570656E-01 -0.13489682220E-01 -0.87802417217E-02  0.10201709029E+01  0.10198941987E+01 0.  0.
     999903    2    3    3    0    0 -0.81456178928E-01  0.91912081938E-01  0.28914764369E-01  0.12758021606E+00  0.18913171053E-01 0.  0.
         14    1    1    2    0    0 -0.17476570656E-01  0.13489682220E-01  0.87802417217E-02  0.23759097058E-01  0.00000000000E+00 0.  1.
     999901    1    3    3    0    0  0.98932749584E-01 -0.10540176416E+00 -0.37695006091E-01  0.89259068688E+00  0.88000000000E+00 0.  1.
        -11    1    4    4    0    0 -0.13830044647E-01  0.25535331510E-01  0.22055525242E-02  0.29128145722E-01  0.51100000000E-03 0. -1.
         11    1    4    4    0    0 -0.67626134281E-01  0.66376750428E-01  0.26709211845E-01  0.98452070336E-01  0.51100000000E-03 0.  1.
</event>
<event>
 8    1  0.1082757E+005  0.1043930E+01  0.7957747E-01            NaN
         13   -1    0    0    0    0  0.00000000000E+00  0.00000000000E+00  0.74505805969E-08  0.10566000000E+00  0.10566000000E+00 0.  1.
     999900   -1    0    0    0    0 -0.00000000000E+00 -0.00000000000E+00 -0.74505805969E-08  0.93827000000E+00  0.93827000000E+00 0.  1.
     999902    2    1    2    0    0  0.16256565092E-01  0.12032807658E-01  0.41814890066E-02  0.10232769320E+01  0.10230684876E+01 0.  0.
     999903    2    3    3    0    0 -0.90391671654E-01 -0.66735230718E-01 -0.64222637080E-01  0.13072028125E+00  0.18411938907E-01 0.  0.
         14    1    1    2    0    0 -0.16256565092E-01 -0.12032807658E-01 -0.41814890066E-02  0.20653068030E-01  0.00000000000E+00 0.  1.
     999901    1    3    3    0    0  0.10664823675E+00  0.78768038376E-01  0.68404126087E-01  0.89255665072E+00  0.88000000000E+00 0. -1.
        -11    1    4    4    0    0 -0.53874346246E-01 -0.48888620595E-01 -0.46738264457E-01  0.86471202677E-01  0.51100000000E-03 0.  1.
         11    1    4    4    0    0 -0.36517325409E-01 -0.17846610123E-01 -0.17484372624E-01  0.44249078577E-01  0.51100000000E-03 0. -1.
</event>
<event>
 8    1  0.1082757E+005  0.1043930E+01  0.7957747E-01            NaN
         13   -1    0    0    0    0  0.00000000000E+00  0.00000000000E+00  0.74505805969E-08  0.10566000000E+00  0.10566000000E+00 0.  1.
     999900   -1    0    0    0    0 -0.00000000000E+00 -0.00000000000E+00 -0.74505805969E-08  0.93827000000E+00  0.93827000000E+00 0. -1.
     999902    2    1    2    0    0 -0.19838607449E-01 -0.42739467358E-02 -0.11597484248E-01  0.10205561127E+01  0.10202884105E+01 0.  0.
     999903    2    3    3    0    0  0.89642241786E-01  0.73165409399E-01  0.50987479817E-01  0.12819980049E+00  0.21131897762E-01 0.  0.
         14    1    1    2    0    0  0.19838607449E-01  0.42739467358E-02  0.11597484248E-01  0.23373887291E-01  0.00000000000E+00 0. -1.
     999901    1    3    3    0    0 -0.10948084923E+00 -0.77439356135E-01 -0.62584964065E-01  0.89235631222E+00  0.88000000000E+00 0. -1.
        -11    1    4    4    0    0  0.16329563574E-01  0.19983633913E-01  0.19355296792E-01  0.32262809949E-01  0.51100000000E-03 0.  1.
         11    1    4    4    0    0  0.73312678212E-01  0.53181775486E-01  0.31632183025E-01  0.95936990542E-01  0.51100000000E-03 0. -1.
</event>
<event>
 8    1  0.1082757E+005  0.1043930E+01  0.7957747E-01            NaN
         13   -1    0    0    0    0  0.00000000000E+00  0.00000000000E+00  0.74505805969E-08  0.10566000000E+00  0.10566000000E+00 0. -1.
     999900   -1    0    0    0    0 -0.00000000000E+00 -0.00000000000E+00 -0.74505805969E-08  0.93827000000E+00  0.93827000000E+00 0. -1.
     999902    2    1    2    0    0 -0.12508079476E-01 -0.15676938350E-01  0.12200197557E-01  0.10204552632E+01  0.10201852189E+01 0.  0.
     999903    2    3    3    0    0 -0.79395507974E-01 -0.15690820012E-01 -0.10064530189E+00  0.13073169093E+00  0.20284222945E-01 0.  0.
         14    1    1    2    0    0  0.12508079476E-01  0.15676938350E-01 -0.12200197557E-01  0.23474736817E-01  0.00000000000E+00 0. -1.
     999901    1    3    3    0    0  0.66887428498E-01  0.13881661618E-04  0.11284549945E+00  0.88972357226E+00  0.88000000000E+00 0.  1.
        -11    1    4    4    0    0 -0.24028747357E-01 -0.10061520130E-02 -0.44139379942E-01  0.50268668414E-01  0.51100000000E-03 0.  1.
         11    1    4    4    0    0 -0.55366760618E-01 -0.14684667999E-01 -0.56505921949E-01  0.80463022512E-01  0.51100000000E-03 0. -1.
</event>
<event>
 8    1  0.1082757E+005  0.1043930E+01  0.7957747E-01            NaN
         13   -1    0    0    0    0  0.00000000000E+00  0.00000000000E+00  0.74505805969E-08  0.10566000000E+00  0.10566000000E+00 0.  1.
     999900   -1    0    0    0    0 -0.00000000000E+00 -0.00000000000E+00 -0.74505805969E-08  0.93827000000E+00  0.93827000000E+00 0. -1.
     999902    2    1    2    0    0 -0.15980076992E-01  0.11384323412E-01 -0.87585030098E-02  0.10224433284E+01  0.10222175320E+01 0.  0.
     999903    2    3    3    0    0 -0.62649603955E-01 -0.10524462282E+00 -0.46775434203E-01  0.13270986109E+00  0.20556324484E-01 0.  0.
         14    1    1    2    0    0  0.15980076992E-01 -0.11384323412E-01  0.87585030098E-02  0.21486671571E-01  0.00000000000E+00 0. -1.
     999901    1    3    3    0    0  0.46669526962E-01  0.11662894624E+00  0.38016931193E-01  0.88973346734E+00  0.88000000000E+00 0.  1.
        -11    1    4    4    0    0 -0.36769694699E-01 -0.45792803309E-01 -0.28858728697E-01  0.65437593371E-01  0.51100000000E-03 0. -1.
         11    1    4    4    0    0 -0.25879909255E-01 -0.59451819516E-01 -0.17916705506E-01  0.67272267718E-01  0.51100000000E-03 0.  1.
</event>
<event>
 8    1  0.1082757E+005  0.1043930E+01  0.7957747E-01            NaN
         13   -1    0    0    0    0  0.00000000000E+00  0.00000000000E+00  0.74505805969E-08  0.10566000000E+00  0.10566000000E+00 0.  1.
     999900   -1    0    0    0    0 -0.00000000000E+00 -0.00000000000E+00 -0.74505805969E-08  0.93827000000E+00  0.93827000000E+00 0.  1.
     999902    2    1    2    0    0 -0.54450671974E-02 -0.15455383918E-01  0.16908420608E-01  0.10203840378E+01  0.10201123331E+01 0.  0.
     999903    2    3    3    0    0 -0.25276704539E-01 -0.10393186445E+00  0.77684458293E-01  0.13363993254E+00  0.19596230991E-01 0.  0.
         14    1    1    2    0    0  0.54450671974E-02  0.15455383918E-01 -0.16908420608E-01  0.23545962208E-01  0.00000000000E+00 0.  1.
     999901    1    3    3    0    0  0.19831637342E-01  0.88476480527E-01 -0.60776037685E-01  0.88674410525E+00  0.88000000000E+00 0.  1.
        -11    1    4    4    0    0 -0.26659369680E-01 -0.81240122375E-01  0.55942159751E-01  0.10217859773E+00  0.51100000000E-03 0.  1.
         11    1    4    4    0    0  0.13826651409E-02 -0.22691742070E-01  0.21742298542E-01  0.31461334809E-01  0.51100000000E-03 0. -1.
</event>
<event>
 8    1  0.1082757E+005  0.1043930E+01  0.7957747E-01            NaN
         13   -1    0    0    0    0  0.00000000000E+00  0.00000000000E+00  0.74505805969E-08  0.10566000000E+00  0.10566000000E+00 0. -1.
     999900   -1    0    0    0    0 -0.00000000000E+00 -0.00000000000E+00 -0.74505805969E-08  0.93827000000E+00  0.93827000000E+00 0. -1.
     999902    2    1    2    0    0  0.23230873256E-01 -0.22159911974E-02 -0.15068201605E-02  0.10205450776E+01  0.10202771196E+01 0.  0.
     999903    2    3    3    0    0 -0.36829698165E-01  0.96283729085E-02 -0.12288426559E+00  0.13010695764E+00  0.19445962708E-01 0.  0.
         14    1    1    2    0    0 -0.23230873256E-01  0.22159911974E-02  0.15068201605E-02  0.23384922412E-01  0.00000000000E+00 0.  1.
     999901    1    3    3    0    0  0.60060571421E-01 -0.11844364106E-01  0.12137744543E+00  0.89043811995E+00  0.88000000000E+00 0. -1.
        -11    1    4    4    0    0 -0.16322768296E-01 -0.54062476680E-02 -0.45038071049E-01  0.48211505303E-01  0.51100000000E-03 0. -1.
         11    1    4    4    0    0 -0.20506929869E-01  0.15034620577E-01 -0.77846194536E-01  0.81895452336E-01  0.51100000000E-03 0.  1.
</event>
<event>
 8    1  0.1082757E+005  0.1043930E+01  0.7957747E-01            NaN
         13   -1    0    0    0    0  0.00000000000E+00  0.00000000000E+00  0.74505805969E-08  0.10566000000E+00  0.10566000000E+00 0. -1.
     999900   -1    0    0    0    0 -0.00000000000E+00 -0.00000000000E+00 -0.74505805969E-08  0.93827000000E+00  0.93827000000E+00 0. -1.
     999902    2    1    2    0    0  0.48229145788E-02  0.22366167694E-01  0.56090099427E-02  0.10203722634E+01  0.10201002838E+01 0.  0.
     999903    2    3    3    0    0  0.46183602627E-01  0.92126657028E-01  0.82163923060E-01  0.13333343271E+00  0.20165513596E-01 0.  0.
         14    1    1    2    0    0 -0.48229145788E-02 -0.22366167694E-01 -0.56090099427E-02  0.23557736625E-01  0.00000000000E+00 0.  1.
     999901    1    3    3    0    0 -0.41360688048E-01 -0.69760489334E-01 -0.76554913117E-01  0.88703883067E+00  0.88000000000E+00 0. -1.
        -11    1    4    4    0    0  0.28671032133E-01  0.38607835314E-01  0.30769800264E-01  0.57093211159E-01  0.51100000000E-03 0. -1.
         11    1    4    4    0    0  0.17512570494E-01  0.53518821714E-01  0.51394122797E-01  0.76240221550E-01  0.51100000000E-03 0.  1.
</event>
<event>
 8    1  0.1565986E+005  0.1043930E+01  0.7957747E-01            NaN
         13   -1    0    0    0    0  0.00000000000E+00  0.00000000000E+00  0.74505805969E-08  0.10566000000E+00  0.10566000000E+00 0.  1.
     999900   -1    0    0    0    0 -0.00000000000E+00 -0.00000000000E+00 -0.74505805969E-08  0.93827000000E+00  0.93827000000E+00 0.  1.
     999902    2    1    2    0    0  0.14191564069E-02 -0.27150027349E-02 -0.23285295894E-01  0.10204440414E+01  0.10201737359E+01 0.  0.
     999903    2    3    3    0    0 -0.23244755076E-01 -0.12521916598E+00 -0.27129804999E-01  0.13160752171E+00  0.19088092777E-01 0.  0.
         14    1    1    2    0    0 -0.14191564069E-02  0.27150027349E-02  0.23285295894E-01  0.23485958563E-01  0.00000000000E+00 0.  1.
     999901    1    3    3    0    0  0.24663911483E-01  0.12250416324E+00  0.38445091052E-02  0.88883651972E+00  0.88000000000E+00 0.  1.
        -11    1    4    4    0    0  0.57958765618E-03 -0.39475763591E-01 -0.41883891977E-02  0.39704855597E-01  0.51100000000E-03 0. -1.
         11    1    4    4    0    0 -0.23824342732E-01 -0.85743402387E-01 -0.22941415801E-01  0.91902666117E-01  0.51100000000E-03 0.  1.
</event>
<event>
 8    1  0.1082757E+005  0.1043930E+01  0.7957747E-01            NaN
         13   -1    0    0    0    0  0.00000000000E+00  0.00000000000E+00  0.74505805969E-08  0.10566000000E+00  0.10566000000E+00 0.  1.
     999900   -1    0    0    0    0 -0.00000000000E+00 -0.00000000000E+00 -0.74505805969E-08  0.93827000000E+00  0.93827000000E+00 0.  1.
     999902    2    1    2    0    0  0.12395413004E-01 -0.14020306430E-01  0.14083681314E-01  0.10205085283E+01  0.10202397223E+01 0.  0.
     999903    2    3    3    0    0 -0.83919750997E-01  0.40735438970E-01 -0.85414660279E-01  0.12799817968E+00  0.19646099212E-01 0.  0.
         14    1    1    2    0    0 -0.12395413004E-01  0.14020306430E-01 -0.14083681314E-01  0.23421471672E-01  0.00000000000E+00 0. -1.
     999901    1    3    3    0    0  0.96315164001E-01 -0.54755745401E-01  0.99498341593E-01  0.89251034865E+00  0.88000000000E+00 0. -1.
        -11    1    4    4    0    0 -0.14722787900E-01  0.15010837342E-01 -0.13873959542E-01  0.25195904342E-01  0.51100000000E-03 0. -1.
         11    1    4    4    0    0 -0.69196963097E-01  0.25724601628E-01 -0.71540700738E-01  0.10280227533E+00  0.51100000000E-03 0.  1.
</event>
<event>
 8    1  0.1082757E+005  0.1043930E+01  0.7957747E-01            NaN
         13   -1    0    0    0    0  0.00000000000E+00  0.00000000000E+00  0.74505805969E-08  0.10566000000E+00  0.10566000000E+00 0.  1.
     999900   -1    0    0    0    0 -0.00000000000E+00 -0.00000000000E+00 -0.74505805969E-08  0.93827000000E+00  0.93827000000E+00 0. -1.
     999902    2    1    2    0    0  0.19573029436E-01  0.76602114652E-02  0.11854595245E-01  0.10197988220E+01  0.10195132778E+01 0.  0.
     999903    2    3    3    0    0  0.12250073657E+00  0.22049344763E-01  0.42819133155E-01  0.13314220156E+00  0.20019081075E-01 0.  0.
         14    1    1    2    0    0 -0.19573029436E-01 -0.76602114652E-02 -0.11854595245E-01  0.24131177954E-01  0.00000000000E+00 0. -1.
     999901    1    3    3    0    0 -0.10292770713E+00 -0.14389133297E-01 -0.30964537911E-01  0.88665662049E+00  0.88000000000E+00 0.  1.
        -11    1    4    4    0    0  0.23129572484E-01  0.89705178966E-03  0.15741261123E-01  0.27996968549E-01  0.51100000000E-03 0.  1.
         11    1    4    4    0    0  0.99371164083E-01  0.21152292973E-01  0.27077872032E-01  0.10514523301E+00  0.51100000000E-03 0. -1.
</event>
<event>
 8    1  0.1082757E+005  0.1043930E+01  0.7957747E-01            NaN
         13   -1    0    0    0    0  0.00000000000E+00  0.00000000000E+00  0.74505805969E-08  0.10566000000E+00  0.10566000000E+00 0. -1.
     999900   -1    0    0    0    0 -0.00000000000E+00 -0.00000000000E+00 -0.74505805969E-08  0.93827000000E+00  0.93827000000E+00 0.  1.
     999902    2    1    2    0    0  0.17910061447E-01 -0.11595363060E-01  0.11764965108E-01  0.10195653299E+01  0.10192741657E+01 0.  0.
     999903    2    3    3    0    0  0.12523331799E+00 -0.38997691124E-01 -0.83894657647E-02  0.13239264655E+00  0.15913072531E-01 0.  0.
         14    1    1    2    0    0 -0.17910061447E-01  0.11595363060E-01 -0.11764965108E-01  0.24364670109E-01  0.00000000000E+00 0.  1.
     999901    1    3    3    0    0 -0.10732325654E+00  0.27402328064E-01  0.20154430872E-01  0.88717268334E+00  0.88000000000E+00 0. -1.
        -11    1    4    4    0    0  0.70753255504E-01 -0.29583830240E-01 -0.18040835627E-02  0.76712072157E-01  0.51100000000E-03 0. -1.
         11    1    4    4    0    0  0.54480062487E-01 -0.94138608845E-02 -0.65853822020E-02  0.55680574396E-01  0.51100000000E-03 0.  1.
</event>
<event>
 8    1  0.1082757E+005  0.1043930E+01  0.7957747E-01            NaN
         13   -1    0    0    0    0  0.00000000000E+00  0.00000000000E+00  0.74505805969E-08  0.10566000000E+00  0.10566000000E+00 0.  1.
     999900   -1    0    0    0    0 -0.00000000000E+00 -0.00000000000E+00 -0.74505805969E-08  0.93827000000E+00  0.93827000000E+00 0.  1.
     999902    2    1    2    0    0  0.13065094311E-01 -0.19146352986E-01 -0.53803467092E-02  0.10201344615E+01  0.10198568977E+01 0.  0.
     999903    2    3    3    0    0 -0.72799465283E-01  0.97959477083E-01  0.30896204165E-01  0.12749652472E+00  0.20123794062E-01 0.  0.
         14    1    1    2    0    0 -0.13065094311E-01  0.19146352986E-01  0.53803467092E-02  0.23795538505E-01  0.00000000000E+00 0. -1.
     999901    1    3    3    0    0  0.85864559595E-01 -0.11710583007E+00 -0.36276550874E-01  0.89263793678E+00  0.88000000000E+00 0.  1.
        -11    1    4    4    0    0 -0.78173735130E-02  0.22155165011E-01  0.21651477005E-02  0.23598975631E-01  0.51100000000E-03 0.  1.
         11    1    4    4    0    0 -0.64982091770E-01  0.75804312073E-01  0.28731056464E-01  0.10389754909E+00  0.51100000000E-03 0. -1.
</event>
<event>
 8    1  0.1115301E+005  0.1043930E+01  0.7957747E-01            NaN
         13   -1    0    0    0    0  0.00000000000E+00  0.00000000000E+00  0.74505805969E-08  0.10566000000E+00  0.10566000000E+00 0.  1.
     999900   -1    0    0    0    0 -0.00000000000E+00 -0.00000000000E+00 -0.74505805969E-08  0.93827000000E+00  0.93827000000E+00 0. -1.
     999902    2    1    2    0    0  0.17519634758E-02  0.14648264614E-01  0.19436371291E-01  0.10195289025E+01  0.10192368564E+01 0.  0.
     999903    2    3    3    0    0 -0.13829937763E-01  0.12004733099E+00 -0.45532254803E-01  0.13072482888E+00  0.20326480308E-01 0.  0.
         14    1    1    2    0    0 -0.17519634758E-02 -0.14648264614E-01 -0.19436371291E-01  0.24401097540E-01  0.00000000000E+00 0. -1.
     999901    1    3    3    0    0  0.15581901239E-01 -0.10539906638E+00  0.64968626094E-01  0.88880407358E+00  0.88000000000E+00 0.  1.
        -11    1    4    4    0    0  0.12504591180E-02  0.74864347019E-01 -0.29151024941E-01  0.80350964392E-01  0.51100000000E-03 0. -1.
         11    1    4    4    0    0 -0.15080396881E-01  0.45182983970E-01 -0.16381229862E-01  0.50373864486E-01  0.51100000000E-03 0.  1.
</event>
<event>
 8    1  0.1082757E+005  0.1043930E+01  0.7957747E-01            NaN
         13   -1    0    0    0    0  0.00000000000E+00  0.00000000000E+00  0.74505805969E-08  0.10566000000E+00  0.10566000000E+00 0.  1.
     999900   -1    0    0    0    0 -0.00000000000E+00 -0.00000000000E+00 -0.74505805969E-08  0.93827000000E+00  0.93827000000E+00 0. -1.
     999902    2    1    2    0    0  0.16351271825E-01 -0.13474289095E-01 -0.11566601247E-01  0.10197906789E+01  0.10195049397E+01 0.  0.
     999903    2    3    3    0    0  0.14904338679E-01 -0.11663421315E+00 -0.57975698129E-01  0.13254896000E+00  0.19554187159E-01 0.  0.
         14    1    1    2    0    0 -0.16351271825E-01  0.13474289095E-01  0.11566601247E-01  0.24139321062E-01  0.00000000000E+00 0.  1.
     999901    1    3    3    0    0  0.14469331459E-02  0.10315992406E+00  0.46409096882E-01  0.88724171894E+00  0.88000000000E+00 0.  1.
        -11    1    4    4    0    0  0.16606579210E-01 -0.84702813991E-01 -0.34867915520E-01  0.93093382283E-01  0.51100000000E-03 0.  1.
         11    1    4    4    0    0 -0.17022405312E-02 -0.31931399159E-01 -0.23107782609E-01  0.39455577720E-01  0.51100000000E-03 0. -1.
</event>
<event>
 8    1  0.1082757E+005  0.1043930E+01  0.7957747E-01            NaN
         13   -1    0    0    0    0  0.00000000000E+00  0.00000000000E+00  0.74505805969E-08  0.10566000000E+00  0.10566000000E+00 0.  1.
     999900   -1    0    0    0    0 -0.00000000000E+00 -0.00000000000E+00 -0.74505805969E-08  0.93827000000E+00  0.93827000000E+00 0. -1.
     999902    2    1    2    0    0 -0.18675296954E-01 -0.13080621451E-01  0.83980060603E-02  0.10196319367E+01  0.10193423814E+01 0.  0.
     999903    2    3    3    0    0 -0.12356979376E+00  0.38898149885E-01  0.14785672830E-01  0.13185637362E+00  0.19619560407E-01 0.  0.
         14    1    1    2    0    0  0.18675296954E-01  0.13080621451E-01 -0.83980060603E-02  0.24298063290E-01  0.00000000000E+00 0. -1.
     999901    1    3    3    0    0  0.10489449680E+00 -0.51978771336E-01 -0.63876667694E-02  0.88777556309E+00  0.88000000000E+00 0.  1.
        -11    1    4    4    0    0 -0.97559750822E-01  0.24702531547E-01  0.17291439444E-01  0.10211451926E+00  0.51100000000E-03 0. -1.
         11    1    4    4    0    0 -0.26010042934E-01  0.14195618338E-01 -0.25057666145E-02  0.29741854360E-01  0.51100000000E-03 0.  1.
</event>
<event>
 8    1  0.1082757E+005  0.1043930E+01  0.7957747E-01            NaN
         13   -1    0    0    0    0  0.00000000000E+00  0.00000000000E+00  0.74505805969E-08  0.10566000000E+00  0.10566000000E+00 0. -1.
     999900   -1    0    0    0    0 -0.00000000000E+00 -0.00000000000E+00 -0.74505805969E-08  0.93827000000E+00  0.93827000000E+00 0.  1.
     999902    2    1    2    0    0  0.21215748239E-01 -0.51322026629E-02  0.10420008637E-01  0.10197427294E+01  0.10194558402E+01 0.  0.
     999903    2    3    3    0    0  0.12458166115E+00  0.15766717356E-01  0.38806791390E-01  0.13299187026E+00  0.20290165735E-01 0.  0.
         14    1    1    2    0    0 -0.21215748239E-01  0.51322026629E-02 -0.10420008637E-01  0.24187270568E-01  0.00000000000E+00 0.  1.
     999901    1    3    3    0    0 -0.10336591291E+00 -0.20898920019E-01 -0.28386782753E-01  0.88675085917E+00  0.88000000000E+00 0.  1.
        -11    1    4    4    0    0  0.64239542829E-01  0.17724600636E-01  0.16766273804E-01  0.68718624760E-01  0.51100000000E-03 0. -1.
         11    1    4    4    0    0  0.60342118322E-01 -0.19578832799E-02  0.22040517585E-01  0.64273245499E-01  0.51100000000E-03 0.  1.
</event>
<event>
 8    1  0.1082757E+005  0.1043930E+01  0.7957747E-01            NaN
         13   -1    0    0    0    0  0.00000000000E+00  0.00000000000E+00  0.74505805969E-08  0.10566000000E+00  0.10566000000E+00 0.  1.
     999900   -1    0    0    0    0 -0.00000000000E+00 -0.00000000000E+00 -0.74505805969E-08  0.93827000000E+00  0.93827000000E+00 0. -1.
     999902    2    1    2    0    0  0.37853393950E-02  0.19503721055E-01  0.12705829509E-01  0.10203469121E+01  0.10200743400E+01 0.  0.
     999903    2    3    3    0    0  0.12760125796E+00  0.10930303136E-01 -0.12410139162E-01  0.13128296784E+00  0.26070165536E-01 0.  0.
         14    1    1    2    0    0 -0.37853393950E-02 -0.19503721055E-01 -0.12705829509E-01  0.23583087856E-01  0.00000000000E+00 0. -1.
     999901    1    3    3    0    0 -0.12381591856E+00  0.85734179185E-02  0.25115968671E-01  0.88906394431E+00  0.88000000000E+00 0.  1.
        -11    1    4    4    0    0  0.72810981809E-01 -0.63162511702E-02 -0.10230770856E-01  0.73798806861E-01  0.51100000000E-03 0. -1.
         11    1    4    4    0    0  0.54790276149E-01  0.17246554306E-01 -0.21793683063E-02  0.57484160976E-01  0.51100000000E-03 0.  1.
</event>
<event>
 8    1  0.1082757E+005  0.1043930E+01  0.7957747E-01            NaN
         13   -1    0    0    0    0  0.00000000000E+00  0.00000000000E+00  0.74505805969E-08  0.10566000000E+00  0.10566000000E+00 0. -1.
     999900   -1    0    0    0    0 -0.00000000000E+00 -0.00000000000E+00 -0.74505805969E-08  0.93827000000E+00  0.93827000000E+00 0.  1.
     999902    2    1    2    0    0  0.77091687463E-02 -0.16584499777E-01 -0.15415346851E-01  0.10200111824E+01  0.10197307009E+01 0.  0.
     999903    2    3    3    0    0 -0.80084872079E-01  0.35927077357E-01  0.90569845572E-01  0.12776787461E+00  0.20430154942E-01 0.  0.
         14    1    1    2    0    0 -0.77091687463E-02  0.16584499777E-01  0.15415346851E-01  0.23918817574E-01  0.00000000000E+00 0.  1.
     999901    1    3    3    0    0  0.87794040825E-01 -0.52511577134E-01 -0.10598519242E+00  0.89224330782E+00  0.88000000000E+00 0.  1.
        -11    1    4    4    0    0 -0.17322322377E-01  0.20860017440E-02  0.27495971823E-01  0.32568448586E-01  0.51100000000E-03 0. -1.
         11    1    4    4    0    0 -0.62762549702E-01  0.33841075613E-01  0.63073873750E-01  0.95199426020E-01  0.51100000000E-03 0.  1.
</event>
<event>
 8    1  0.1082757E+005  0.1043930E+01  0.7957747E-01            NaN
         13   -1    0    0    0    0  0.00000000000E+00  0.00000000000E+00  0.74505805969E-08  0.10566000000E+00  0.10566000000E+00 0.  1.
     999900   -1    0    0    0    0 -0.00000000000E+00 -0.00000000000E+00 -0.74505805969E-08  0.93827000000E+00  0.93827000000E+00 0.  1.
     999902    2    1    2    0    0  0.39417675830E-02 -0.20681959631E-01 -0.10478423059E-01  0.10204123824E+01  0.10201413392E+01 0.  0.
     999903    2    3    3    0    0 -0.53171567405E-01  0.10557568548E+00 -0.47134465655E-01  0.12881460797E+00  0.19952554457E-01 0.  0.
         14    1    1    2    0    0 -0.39417675830E-02  0.20681959631E-01  0.10478423059E-01  0.23517617559E-01  0.00000000000E+00 0.  1.
     999901    1    3    3    0    0  0.57113334988E-01 -0.12625764511E+00  0.36656042596E-01  0.89159777447E+00  0.88000000000E+00 0. -1.
        -11    1    4    4    0    0 -0.74075673049E-02  0.16196962882E-01 -0.15267938322E-01  0.23464541794E-01  0.51100000000E-03 0.  1.
         11    1    4    4    0    0 -0.45764000100E-01  0.89378722596E-01 -0.31866527333E-01  0.10535006618E+00  0.51100000000E-03 0. -1.
</event>
<event>
 8    1  0.1082757E+005  0.1043930E+01  0.7957747E-01            NaN
         13   -1    0    0    0    0  0.00000000000E+00  0.00000000000E+00  0.74505805969E-08  0.10566000000E+00  0.10566000000E+00 0. -1.
     999900   -1    0    0    0    0 -0.00000000000E+00 -0.00000000000E+00 -0.74505805969E-08  0.93827000000E+00  0.93827000000E+00 0. -1.
     999902    2    1    2    0    0  0.83469104911E-02  0.20417621812E-01 -0.88669667462E-02  0.10201566264E+01  0.10198795855E+01 0.  0.
     999903    2    3    3    0    0 -0.12805964899E-02 -0.32562083102E-02 -0.12874190053E+00  0.13166175362E+00  0.27351372822E-01 0.  0.
         14    1    1    2    0    0 -0.83469104911E-02 -0.20417621812E-01  0.88669667462E-02  0.23773373645E-01  0.00000000000E+00 0.  1.
     999901    1    3    3    0    0  0.96275069810E-02  0.23673830122E-01  0.11987493378E+00  0.88849487273E+00  0.88000000000E+00 0.  1.
        -11    1    4    4    0    0 -0.61144527408E-02 -0.11999812377E-01 -0.37039924068E-01  0.39415721804E-01  0.51100000000E-03 0.  1.
         11    1    4    4    0    0  0.48338562509E-02  0.87436040671E-02 -0.91701976461E-01  0.92246031818E-01  0.51100000000E-03 0. -1.
</event>
<event>
 8    1  0.1082757E+005  0.1043930E+01  0.7957747E-01            NaN
         13   -1    0    0    0    0  0.00000000000E+00  0.00000000000E+00  0.74505805969E-08  0.10566000000E+00  0.10566000000E+00 0.  1.
     999900   -1    0    0    0    0 -0.00000000000E+00 -0.00000000000E+00 -0.74505805969E-08  0.93827000000E+00  0.93827000000E+00 0. -1.
     999902    2    1    2    0    0  0.10424797658E-01 -0.84995114110E-02 -0.18250015097E-01  0.10212588476E+01  0.10210071756E+01 0.  0.
     999903    2    3    3    0    0 -0.26862339389E-01 -0.24749944075E-01 -0.12693015892E+00  0.13364080991E+00  0.20358188111E-01 0.  0.
         14    1    1    2    0    0 -0.10424797658E-01  0.84995114110E-02  0.18250015097E-01  0.22671152407E-01  0.00000000000E+00 0.  1.
     999901    1    3    3    0    0  0.37287137047E-01  0.16250432664E-01  0.10868014382E+00  0.88761803768E+00  0.88000000000E+00 0.  1.
        -11    1    4    4    0    0 -0.23754346139E-01 -0.97500798227E-02 -0.66223582922E-01  0.71029269130E-01  0.51100000000E-03 0. -1.
         11    1    4    4    0    0 -0.31079932500E-02 -0.14999864252E-01 -0.60706575993E-01  0.62611540785E-01  0.51100000000E-03 0.  1.
</event>
<event>
 8    1  0.1082757E+005  0.1043930E+01  0.7957747E-01            NaN
         13   -1    0    0    0    0  0.00000000000E+00  0.00000000000E+00  0.74505805969E-08  0.10566000000E+00  0.10566000000E+00 0. -1.
     999900   -1    0    0    0    0 -0.00000000000E+00 -0.00000000000E+00 -0.74505805969E-08  0.93827000000E+00  0.93827000000E+00 0. -1.
     999902    2    1    2    0    0  0.90824634616E-02  0.21009060778E-01  0.61978687003E-02  0.10202174431E+01  0.10199418346E+01 0.  0.
     999903    2    3    3    0    0 -0.83768202897E-01 -0.70124763227E-01  0.65202656308E-01  0.12869728907E+00  0.19416786291E-01 0.  0.
         14    1    1    2    0    0 -0.90824634616E-02 -0.21009060778E-01 -0.61978687003E-02  0.23712556878E-01  0.00000000000E+00 0.  1.
     999901    1    3    3    0    0  0.92850666359E-01  0.91133824005E-01 -0.59004787607E-01  0.89152015405E+00  0.88000000000E+00 0.  1.
        -11    1    4    4    0    0 -0.62601654123E-01 -0.62407836246E-01  0.53065700859E-01  0.10310157541E+00  0.51100000000E-03 0. -1.
         11    1    4    4    0    0 -0.21166548774E-01 -0.77169269814E-02  0.12136955448E-01  0.25595713657E-01  0.51100000000E-03 0.  1.
</event>
<event>
 8    1  0.1082757E+005  0.1043930E+01  0.7957747E-01            NaN
         13   -1    0    0    0    0  0.00000000000E+00  0.00000000000E+00  0.74505805969E-08  0.10566000000E+00  0.10566000000E+00 0.  1.
     999900   -1    0    0    0    0 -0.00000000000E+00 -0.00000000000E+00 -0.74505805969E-08  0.93827000000E+00  0.93827000000E+00 0.  1.
     999902    2    1    2    0    0 -0.47111890800E-03  0.38523834415E-02  0.21178121426E-01  0.10223991933E+01  0.10221724584E+01 0.  0.
     999903    2    3    3    0    0  0.15958999655E-01 -0.37513470524E-01 -0.12152502005E+00  0.12979330641E+00  0.20396611261E-01 0.  0.
         14    1    1    2    0    0  0.47111890800E-03 -0.38523834415E-02 -0.21178121426E-01  0.21530806728E-01  0.00000000000E+00 0. -1.
     999901    1    3    3    0    0 -0.16430118563E-01  0.41365853966E-01  0.14270314147E+00  0.89260588686E+00  0.88000000000E+00 0. -1.
        -11    1    4    4    0    0  0.12976254703E-01 -0.28772711930E-01 -0.62205913150E-01  0.69757357245E-01  0.51100000000E-03 0.  1.
         11    1    4    4    0    0  0.29827449521E-02 -0.87407585942E-02 -0.59319106898E-01  0.60035949168E-01  0.51100000000E-03 0. -1.
</event>
<event>
 8    1  0.1082757E+005  0.1043930E+01  0.7957747E-01            NaN
         13   -1    0    0    0    0  0.00000000000E+00  0.00000000000E+00  0.74505805969E-08  0.10566000000E+00  0.10566000000E+00 0. -1.
     999900   -1    0    0    0    0 -0.00000000000E+00 -0.00000000000E+00 -0.74505805969E-08  0.93827000000E+00  0.93827000000E+00 0. -1.
     999902    2    1    2    0    0 -0.19681079876E-01 -0.12895378696E-01  0.13066820978E-01  0.10170157378E+01  0.10166595465E+01 0.  0.
     999903    2    3    3    0    0 -0.56643121907E-02 -0.72044194805E-01  0.10624092669E+00  0.13001152918E+00  0.19834635789E-01 0.  0.
         14    1    1    2    0    0  0.19681079876E-01  0.12895378696E-01 -0.13066820978E-01  0.26914262154E-01  0.00000000000E+00 0.  1.
     999901    1    3    3    0    0 -0.14016767685E-01  0.59148816109E-01 -0.93174105712E-01  0.88700420867E+00  0.88000000000E+00 0. -1.
        -11    1    4    4    0    0  0.74447260075E-02 -0.25484486513E-01  0.38763143299E-01  0.46986438443E-01  0.51100000000E-03 0.  1.
         11    1    4    4    0    0 -0.13109038198E-01 -0.46559708292E-01  0.67477783392E-01  0.83025090733E-01  0.51100000000E-03 0. -1.
</event>
<event>
 8    1  0.1082757E+005  0.1043930E+01  0.7957747E-01            NaN
         13   -1    0    0    0    0  0.00000000000E+00  0.00000000000E+00  0.74505805969E-08  0.10566000000E+00  0.10566000000E+00 0. -1.
     999900   -1    0    0    0    0 -0.00000000000E+00 -0.00000000000E+00 -0.74505805969E-08  0.93827000000E+00  0.93827000000E+00 0. -1.
     999902    2    1    2    0    0  0.30412979491E-02 -0.18640732042E-01 -0.14452345760E-01  0.10201477234E+01  0.10198704726E+01 0.  0.
     999903    2    3    3    0    0 -0.89946231597E-01  0.89246844912E-01 -0.76847112374E-02  0.12867017973E+00  0.21015148361E-01 0.  0.
         14    1    1    2    0    0 -0.30412979491E-02  0.18640732042E-01  0.14452345760E-01  0.23782276641E-01  0.00000000000E+00 0. -1.
     999901    1    3    3    0    0  0.92987529546E-01 -0.10788757695E+00 -0.67676345224E-02  0.89147754363E+00  0.88000000000E+00 0. -1.
        -11    1    4    4    0    0 -0.18896427342E-01  0.82083618978E-02  0.16376806574E-03  0.20609223962E-01  0.51100000000E-03 0.  1.
         11    1    4    4    0    0 -0.71049804255E-01  0.81038483014E-01 -0.78484793031E-02  0.10806095577E+00  0.51100000000E-03 0. -1.
</event>
<event>
 8    1  0.1082757E+005  0.1043930E+01  0.7957747E-01            NaN
         13   -1    0    0    0    0  0.00000000000E+00  0.00000000000E+00  0.74505805969E-08  0.10566000000E+00  0.10566000000E+00 0. -1.
     999900   -1    0    0    0    0 -0.00000000000E+00 -0.00000000000E+00 -0.74505805969E-08  0.93827000000E+00  0.93827000000E+00 0. -1.
     999902    2    1    2    0    0 -0.12914845846E-01  0.20119247802E-01 -0.41747746746E-03  0.10200186708E+01  0.10197383670E+01 0.  0.
     999903    2    3    3    0    0  0.10374426875E+00  0.75684301288E-01 -0.10900131236E-01  0.13052066059E+00  0.20635969053E-01 0.  0.
         14    1    1    2    0    0  0.12914845846E-01 -0.20119247802E-01  0.41747746746E-03  0.23911329172E-01  0.00000000000E+00 0. -1.
     999901    1    3    3    0    0 -0.11665911460E+00 -0.55565053486E-01  0.10482653769E-01  0.88949801024E+00  0.88000000000E+00 0. -1.
        -11    1    4    4    0    0  0.53042648088E-01  0.43645345816E-01  0.36946466632E-02  0.68792079941E-01  0.51100000000E-03 0.  1.
         11    1    4    4    0    0  0.50701620666E-01  0.32038955473E-01 -0.14594777900E-01  0.61728580649E-01  0.51100000000E-03 0. -1.
</event>
<event>
 8    1  0.1082757E+005  0.1043930E+01  0.7957747E-01            NaN
         13   -1    0    0    0    0  0.00000000000E+00  0.00000000000E+00  0.74505805969E-08  0.10566000000E+00  0.10566000000E+00 0.  1.
     999900   -1    0    0    0    0 -0.00000000000E+00 -0.00000000000E+00 -0.74505805969E-08  0.93827000000E+00  0.93827000000E+00 0. -1.
     999902    2    1    2    0    0  0.24477382790E-01 -0.44999868874E-02  0.35354924762E-02  0.10187925408E+01  0.10184823755E+01 0.  0.
     999903    2    3    3    0    0  0.54064208524E-01 -0.77833206119E-01 -0.87550947940E-01  0.13056403360E+00  0.20021282824E-01 0.  0.
         14    1    1    2    0    0 -0.24477382790E-01  0.44999868874E-02 -0.35354924762E-02  0.25137459245E-01  0.00000000000E+00 0.  1.
     999901    1    3    3    0    0 -0.29586825734E-01  0.73333219231E-01  0.91086440416E-01  0.88822850716E+00  0.88000000000E+00 0.  1.
        -11    1    4    4    0    0  0.22256815352E-01 -0.45224571115E-01 -0.54800990371E-01  0.74458292546E-01  0.51100000000E-03 0.  1.
         11    1    4    4    0    0  0.31807393172E-01 -0.32608635003E-01 -0.32749957569E-01  0.56105741052E-01  0.51100000000E-03 0. -1.
</event>
<event>
 8    1  0.1082757E+005  0.1043930E+01  0.7957747E-01            NaN
         13   -1    0    0    0    0  0.00000000000E+00  0.00000000000E+00  0.74505805969E-08  0.10566000000E+00  0.10566000000E+00 0.  1.
     999900   -1    0    0    0    0 -0.00000000000E+00 -0.00000000000E+00 -0.74505805969E-08  0.93827000000E+00  0.93827000000E+00 0. -1.
     999902    2    1    2    0    0 -0.21291553485E-01  0.79711062774E-02 -0.59186607968E-02  0.10204374622E+01  0.10201670035E+01 0.  0.
     999903    2    3    3    0    0 -0.97575662301E-01  0.76576576972E-01  0.43699687462E-01  0.13308862646E+00  0.20443526952E-01 0.  0.
         14    1    1    2    0    0  0.21291553485E-01 -0.79711062774E-02  0.59186607968E-02  0.23492537766E-01  0.00000000000E+00 0.  1.
     999901    1    3    3    0    0  0.76284108817E-01 -0.68605470694E-01 -0.49618348258E-01  0.88734883577E+00  0.88000000000E+00 0. -1.
        -11    1    4    4    0    0 -0.95572665269E-01  0.77607124184E-01  0.41560781136E-01  0.12994060074E+00  0.51100000000E-03 0. -1.
         11    1    4    4    0    0 -0.20029970323E-02 -0.10305472118E-02  0.21389063255E-02  0.31480257204E-02  0.51100000000E-03 0.  1.
</event>
<event>
 8    1  0.1082757E+005  0.1043930E+01  0.7957747E-01            NaN
         13   -1    0    0    0    0  0.00000000000E+00  0.00000000000E+00  0.74505805969E-08  0.10566000000E+00  0.10566000000E+00 0.  1.
     999900   -1    0    0    0    0 -0.00000000000E+00 -0.00000000000E+00 -0.74505805969E-08  0.93827000000E+00  0.93827000000E+00 0. -1.
     999902    2    1    2    0    0  0.45404267140E-02  0.79303221625E-03 -0.23697855643E-01  0.10197880710E+01  0.10195022692E+01 0.  0.
     999903    2    3    3    0    0  0.56537389420E-01 -0.91264532130E-01 -0.74191765664E-01  0.13202238442E+00  0.19995016074E-01 0.  0.
         14    1    1    2    0    0 -0.45404267140E-02 -0.79303221625E-03  0.23697855643E-01  0.24141929022E-01  0.00000000000E+00 0.  1.
     999901    1    3    3    0    0 -0.51996962706E-01  0.92057564346E-01  0.50493910021E-01  0.88776568656E+00  0.88000000000E+00 0. -1.
        -11    1    4    4    0    0  0.93995753082E-02 -0.15763840123E-01 -0.43128948491E-02  0.18860351386E-01  0.51100000000E-03 0.  1.
         11    1    4    4    0    0  0.47137814112E-01 -0.75500692007E-01 -0.69878870814E-01  0.11316203303E+00  0.51100000000E-03 0. -1.
</event>
<event>
 8    1  0.1164274E+005  0.1043930E+01  0.7957747E-01            NaN
         13   -1    0    0    0    0  0.00000000000E+00  0.00000000000E+00  0.74505805969E-08  0.10566000000E+00  0.10566000000E+00 0.  1.
     999900   -1    0    0    0    0 -0.00000000000E+00 -0.00000000000E+00 -0.74505805969E-08  0.93827000000E+00  0.93827000000E+00 0. -1.
     999902    2    1    2    0    0  0.23371765956E-01 -0.36171311623E-02 -0.40184312322E-02  0.10199410260E+01  0.10196588771E+01 0.  0.
     999903    2    3    3    0    0 -0.39565097923E-01 -0.11290889563E+00  0.45338485299E-01  0.12958051265E+00  0.20535708463E-01 0.  0.
         14    1    1    2    0    0 -0.23371765956E-01  0.36171311623E-02  0.40184312322E-02  0.23988973953E-01  0.00000000000E+00 0.  1.
     999901    1    3    3    0    0  0.62936863879E-01  0.10929176447E+00 -0.49356916531E-01  0.89036051340E+00  0.88000000000E+00 0.  1.
        -11    1    4    4    0    0 -0.48484186969E-02 -0.39726119416E-01  0.19762056950E-01  0.44637111730E-01  0.51100000000E-03 0.  1.
         11    1    4    4    0    0 -0.34716679226E-01 -0.73182776214E-01  0.25576428349E-01  0.84943400915E-01  0.51100000000E-03 0. -1.
</event>
<event>
 8    1  0.1082757E+005  0.1043930E+01  0.7957747E-01            NaN
         13   -1    0    0    0    0  0.00000000000E+00  0.00000000000E+00  0.74505805969E-08  0.10566000000E+00  0.10566000000E+00 0. -1.
     999900   -1    0    0    0    0 -0.00000000000E+00 -0.00000000000E+00 -0.74505805969E-08  0.93827000000E+00  0.93827000000E+00 0.  1.
     999902    2    1    2    0    0 -0.66154430671E-02  0.21750559748E-01 -0.69122386614E-02  0.10201680561E+01  0.10198912847E+01 0.  0.
     999903    2    3    3    0    0  0.51858302771E-01  0.12036264773E+00 -0.58948862001E-02  0.13273098345E+00  0.20157225743E-01 0.  0.
         14    1    1    2    0    0  0.66154430671E-02 -0.21750559748E-01  0.69122386614E-02  0.23761943937E-01  0.00000000000E+00 0. -1.
     999901    1    3    3    0    0 -0.58473745839E-01 -0.98612087977E-01 -0.10173524612E-02  0.88743707262E+00  0.88000000000E+00 0. -1.
        -11    1    4    4    0    0  0.23719958233E-01  0.78760822882E-01 -0.96054057017E-03  0.82262308494E-01  0.51100000000E-03 0.  1.
         11    1    4    4    0    0  0.28138344539E-01  0.41601824844E-01 -0.49343456300E-02  0.50468674953E-01  0.51100000000E-03 0. -1.
</event>
<event>
 8    1  0.1082757E+005  0.1043930E+01  0.7957747E-01            NaN
         13   -1    0    0    0    0  0.00000000000E+00  0.00000000000E+00  0.74505805969E-08  0.10566000000E+00  0.10566000000E+00 0.  1.
     999900   -1    0    0    0    0 -0.00000000000E+00 -0.00000000000E+00 -0.74505805969E-08  0.93827000000E+00  0.93827000000E+00 0. -1.
     999902    2    1    2    0    0  0.23228772122E-01 -0.36075053676E-02 -0.12592739210E-02  0.10203890629E+01  0.10201174756E+01 0.  0.
     999903    2    3    3    0    0  0.55024863047E-03 -0.72717907575E-01  0.10687799296E+00  0.13079127084E+00  0.19881003352E-01 0.  0.
         14    1    1    2    0    0 -0.23228772122E-01  0.36075053676E-02  0.12592739210E-02  0.23540937111E-01  0.00000000000E+00 0. -1.
     999901    1    3    3    0    0  0.22678523491E-01  0.69110402207E-01 -0.10813726688E+00  0.88959779204E+00  0.88000000000E+00 0. -1.
        -11    1    4    4    0    0 -0.79278471845E-02 -0.14492793440E-01  0.22206539547E-01  0.27681823320E-01  0.51100000000E-03 0. -1.
         11    1    4    4    0    0  0.84780958149E-02 -0.58225114135E-01  0.84671453414E-01  0.10310944752E+00  0.51100000000E-03 0.  1.
</event>
<event>
 8    1  0.1082757E+005  0.1043930E+01  0.7957747E-01            NaN
         13   -1    0    0    0    0  0.00000000000E+00  0.00000000000E+00  0.74505805969E-08  0.10566000000E+00  0.10566000000E+00 0. -1.
     999900   -1    0    0    0    0 -0.00000000000E+00 -0.00000000000E+00 -0.74505805969E-08  0.93827000000E+00  0.93827000000E+00 0.  1.
     999902    2    1    2    0    0 -0.68336420515E-02 -0.20974975811E-01 -0.81102856054E-02  0.10204262768E+01  0.10201555574E+01 0.  0.
     999903    2    3    3    0    0  0.28829643127E-01  0.87411497252E-01  0.86627241055E-01  0.12801678755E+00  0.20300266696E-01 0.  0.
         14    1    1    2    0    0  0.68336420515E-02  0.20974975811E-01  0.81102856054E-02  0.23503723249E-01  0.00000000000E+00 0. -1.
     999901    1    3    3    0    0 -0.35663285178E-01 -0.10838647306E+00 -0.94737526661E-01  0.89240948920E+00  0.88000000000E+00 0. -1.
        -11    1    4    4    0    0  0.20793179808E-01  0.72859144022E-01  0.60119816902E-01  0.96723651190E-01  0.51100000000E-03 0.  1.
         11    1    4    4    0    0  0.80364633189E-02  0.14552353229E-01  0.26507424154E-01  0.31293136363E-01  0.51100000000E-03 0. -1.
</event>
<event>
 8    1  0.1082757E+005  0.1043930E+01  0.7957747E-01            NaN
         13   -1    0    0    0    0  0.00000000000E+00  0.00000000000E+00  0.74505805969E-08  0.10566000000E+00  0.10566000000E+00 0.  1.
     999900   -1    0    0    0    0 -0.00000000000E+00 -0.00000000000E+00 -0.74505805969E-08  0.93827000000E+00  0.93827000000E+00 0.  1.
     999902    2    1    2    0    0  0.94342651322E-02  0.31372198129E-02  0.20897863582E-01  0.10207876533E+01  0.10205252888E+01 0.  0.
     999903    2    3    3    0    0  0.56316308407E-01 -0.78782824645E-02  0.11958284365E+00  0.13396298489E+00  0.20308394790E-01 0.  0.
         14    1    1    2    0    0 -0.94342651322E-02 -0.31372198129E-02 -0.20897863582E-01  0.23142346663E-01  0.00000000000E+00 0. -1.
     999901    1    3    3    0    0 -0.46882043274E-01  0.11015502277E-01 -0.98684980067E-01  0.88682466845E+00  0.88000000000E+00 0.  1.
        -11    1    4    4    0    0  0.54408647952E-02 -0.44385026473E-02  0.30642445942E-01  0.31440800400E-01  0.51100000000E-03 0.  1.
         11    1    4    4    0    0  0.50875443611E-01 -0.34397798171E-02  0.88940397707E-01  0.10252218449E+00  0.51100000000E-03 0. -1.
</event>
<event>
 8    1  0.1082757E+005  0.1043930E+01  0.7957747E-01            NaN
         13   -1    0    0    0    0  0.00000000000E+00  0.00000000000E+00  0.74505805969E-08  0.10566000000E+00  0.10566000000E+00 0.  1.
     999900   -1    0    0    0    0 -0.00000000000E+00 -0.00000000000E+00 -0.74505805969E-08  0.93827000000E+00  0.93827000000E+00 0.  1.
     999902    2    1    2    0    0  0.12080957593E-01 -0.19915182326E-01 -0.67073479096E-02  0.10196905169E+01  0.10194023729E+01 0.  0.
     999903    2    3    3    0    0 -0.55703620229E-01  0.60298576984E-01  0.95602500343E-01  0.12756031274E+00  0.19823814539E-01 0.  0.
         14    1    1    2    0    0 -0.12080957593E-01  0.19915182326E-01  0.67073479096E-02  0.24239483068E-01  0.00000000000E+00 0.  1.
     999901    1    3    3    0    0  0.67784577822E-01 -0.80213759310E-01 -0.10230984825E+00  0.89213020419E+00  0.88000000000E+00 0.  1.
        -11    1    4    4    0    0 -0.43300827905E-01  0.34834082197E-01  0.56273528883E-01  0.79090746322E-01  0.51100000000E-03 0. -1.
         11    1    4    4    0    0 -0.12402792324E-01  0.25464494787E-01  0.39328971459E-01  0.48469566423E-01  0.51100000000E-03 0.  1.
</event>
<event>
 8    1  0.1082757E+005  0.1043930E+01  0.7957747E-01            NaN
         13   -1    0    0    0    0  0.00000000000E+00  0.00000000000E+00  0.74505805969E-08  0.10566000000E+00  0.10566000000E+00 0. -1.
     999900   -1    0    0    0    0 -0.00000000000E+00 -0.00000000000E+00 -0.74505805969E-08  0.93827000000E+00  0.93827000000E+00 0. -1.
     999902    2    1    2    0    0  0.66364537292E-02 -0.96598245132E-02 -0.19269808455E-01  0.10213760592E+01  0.10211270117E+01 0.  0.
     999903    2    3    3    0    0 -0.83018945448E-01 -0.22493015191E-01  0.94540471468E-01  0.12943684535E+00  0.20442973204E-01 0.  0.
         14    1    1    2    0    0 -0.66364537292E-02  0.96598245132E-02  0.19269808455E-01  0.22553940800E-01  0.00000000000E+00 0. -1.
     999901    1    3    3    0    0  0.89655399177E-01  0.12833190678E-01 -0.11381027992E+00  0.89193921385E+00  0.88000000000E+00 0. -1.
        -11    1    4    4    0    0 -0.63591284407E-01 -0.23910512306E-01  0.64842883867E-01  0.93917116440E-01  0.51100000000E-03 0. -1.
         11    1    4    4    0    0 -0.19427661041E-01  0.14174971146E-02  0.29697587601E-01  0.35519728911E-01  0.51100000000E-03 0.  1.
</event>
<event>
 8    1  0.1082757E+005  0.1043930E+01  0.7957747E-01            NaN
         13   -1    0    0    0    0  0.00000000000E+00  0.00000000000E+00  0.74505805969E-08  0.10566000000E+00  0.10566000000E+00 0. -1.
     999900   -1    0    0    0    0 -0.00000000000E+00 -0.00000000000E+00 -0.74505805969E-08  0.93827000000E+00  0.93827000000E+00 0. -1.
     999902    2    1    2    0    0  0.90155869381E-02 -0.11356684906E-01  0.18798197366E-01  0.10201891634E+01  0.10199128893E+01 0.  0.
     999903    2    3    3    0    0  0.44081512040E-01 -0.10154732005E+00 -0.66831510640E-01  0.13075315293E+00  0.19362289958E-01 0.  0.
         14    1    1    2    0    0 -0.90155869381E-02  0.11356684906E-01 -0.18798197366E-01  0.23740836634E-01  0.00000000000E+00 0.  1.
     999901    1    3    3    0    0 -0.35065925102E-01  0.90190635147E-01  0.85629708006E-01  0.88943601044E+00  0.88000000000E+00 0.  1.
        -11    1    4    4    0    0  0.36348502855E-01 -0.95888496786E-01 -0.58599592228E-01  0.11811007919E+00  0.51100000000E-03 0.  1.
         11    1    4    4    0    0  0.77330091849E-02 -0.56588232666E-02 -0.82319184117E-02  0.12643073738E-01  0.51100000000E-03 0. -1.
</event>
<event>
 8    1  0.1082757E+005  0.1043930E+01  0.7957747E-01            NaN
         13   -1    0    0    0    0  0.00000000000E+00  0.00000000000E+00  0.74505805969E-08  0.10566000000E+00  0.10566000000E+00 0.  1.
     999900   -1    0    0    0    0 -0.00000000000E+00 -0.00000000000E+00 -0.74505805969E-08  0.93827000000E+00  0.93827000000E+00 0. -1.
     999902    2    1    2    0    0 -0.43851955448E-02  0.82610032745E-02  0.21780032066E-01  0.10202267531E+01  0.10199513635E+01 0.  0.
     999903    2    3    3    0    0 -0.10342668290E+00 -0.70128215966E-01  0.34298325414E-01  0.13112001400E+00  0.20025921578E-01 0.  0.
         14    1    1    2    0    0  0.43851955448E-02 -0.82610032745E-02 -0.21780032066E-01  0.23703246863E-01  0.00000000000E+00 0. -1.
     999901    1    3    3    0    0  0.99041487354E-01  0.78389219241E-01 -0.12518293349E-01  0.88910673914E+00  0.88000000000E+00 0. -1.
        -11    1    4    4    0    0 -0.24138254315E-01 -0.27252805736E-01  0.10419476013E-01  0.37870798027E-01  0.51100000000E-03 0.  1.
         11    1    4    4    0    0 -0.79288428584E-01 -0.42875410230E-01  0.23878849402E-01  0.93249215973E-01  0.51100000000E-03 0. -1.
</event>
<event>
 8    1  0.1082757E+005  0.1043930E+01  0.7957747E-01            NaN
         13   -1    0    0    0    0  0.00000000000E+00  0.00000000000E+00  0.74505805969E-08  0.10566000000E+00  0.10566000000E+00 0.  1.
     999900   -1    0    0    0    0 -0.00000000000E+00 -0.00000000000E+00 -0.74505805969E-08  0.93827000000E+00  0.93827000000E+00 0. -1.
     999902    2    1    2    0    0 -0.13448515905E-01 -0.77765541833E-02  0.17166003375E-01  0.10207781308E+01  0.10205155478E+01 0.  0.
     999903    2    3    3    0    0 -0.71691032690E-01 -0.64133292000E-01 -0.86543297249E-01  0.13098945270E+00  0.20391446961E-01 0.  0.
         14    1    1    2    0    0  0.13448515905E-01  0.77765541833E-02 -0.17166003375E-01  0.23151869188E-01  0.00000000000E+00 0. -1.
     999901    1    3    3    0    0  0.58242516785E-01  0.56356737816E-01  0.10370930062E+00  0.88978867811E+00  0.88000000000E+00 0.  1.
        -11    1    4    4    0    0 -0.28141640287E-01 -0.33116513486E-01 -0.27980544238E-01  0.51689721999E-01  0.51100000000E-03 0. -1.
         11    1    4    4    0    0 -0.43549392403E-01 -0.31016778514E-01 -0.58562753012E-01  0.79299730702E-01  0.51100000000E-03 0.  1.
</event>
<event>
 8    1  0.1082757E+005  0.1043930E+01  0.7957747E-01            NaN
         13   -1    0    0    0    0  0.00000000000E+00  0.00000000000E+00  0.74505805969E-08  0.10566000000E+00  0.10566000000E+00 0.  1.
     999900   -1    0    0    0    0 -0.00000000000E+00 -0.00000000000E+00 -0.74505805969E-08  0.93827000000E+00  0.93827000000E+00 0. -1.
     999902    2    1    2    0    0  0.11326448824E-01  0.19828570278E-01 -0.77926494748E-02  0.10198014686E+01  0.10195159878E+01 0.  0.
     999903    2    3    3    0    0  0.12250341856E+00  0.46390675749E-01 -0.73863892057E-02  0.13240864177E+00  0.17841169095E-01 0.  0.
         14    1    1    2    0    0 -0.11326448824E-01 -0.19828570278E-01  0.77926494748E-02  0.24128531411E-01  0.00000000000E+00 0.  1.
     999901    1    3    3    0    0 -0.11117696973E+00 -0.26562105471E-01 -0.40626026909E-03  0.88739282682E+00  0.88000000000E+00 0.  1.
        -11    1    4    4    0    0  0.64220419780E-01  0.22095263323E-01  0.48417828786E-02  0.68089404172E-01  0.51100000000E-03 0. -1.
         11    1    4    4    0    0  0.58282998776E-01  0.24295412426E-01 -0.12228172084E-01  0.64319237595E-01  0.51100000000E-03 0.  1.
</event>
<event>
 8    1  0.1082757E+005  0.1043930E+01  0.7957747E-01            NaN
         13   -1    0    0    0    0  0.00000000000E+00  0.00000000000E+00  0.74505805969E-08  0.10566000000E+00  0.10566000000E+00 0.  1.
     999900   -1    0    0    0    0 -0.00000000000E+00 -0.00000000000E+00 -0.74505805969E-08  0.93827000000E+00  0.93827000000E+00 0. -1.
     999902    2    1    2    0    0 -0.77156019333E-03  0.19275593972E-02  0.24683365081E-01  0.10191594671E+01  0.10188584004E+01 0.  0.
     999903    2    3    3    0    0 -0.32246089200E-01  0.77718342958E-01  0.99963645895E-01  0.13214085986E+00  0.19711043656E-01 0.  0.
         14    1    1    2    0    0  0.77156019333E-03 -0.19275593972E-02 -0.24683365081E-01  0.24770532939E-01  0.00000000000E+00 0. -1.
     999901    1    3    3    0    0  0.31474529006E-01 -0.75790783561E-01 -0.75280280814E-01  0.88701860721E+00  0.88000000000E+00 0. -1.
        -11    1    4    4    0    0 -0.14447538013E-01  0.13563685484E-01  0.24053082928E-01  0.31169164857E-01  0.51100000000E-03 0. -1.
         11    1    4    4    0    0 -0.17798551187E-01  0.64154657474E-01  0.75910562967E-01  0.10097169500E+00  0.51100000000E-03 0.  1.
</event>
<event>
 8    1  0.1082757E+005  0.1043930E+01  0.7957747E-01            NaN
         13   -1    0    0    0    0  0.00000000000E+00  0.00000000000E+00  0.74505805969E-08  0.10566000000E+00  0.10566000000E+00 0.  1.
     999900   -1    0    0    0    0 -0.00000000000E+00 -0.00000000000E+00 -0.74505805969E-08  0.93827000000E+00  0.93827000000E+00 0.  1.
     999902    2    1    2    0    0 -0.21883787732E-01  0.41408583722E-02 -0.82555017138E-02  0.10201771016E+01  0.10199005434E+01 0.  0.
     999903    2    3    3    0    0  0.11844759875E+00 -0.21667030647E-01 -0.39114570137E-01  0.12815062931E+00  0.19832809455E-01 0.  0.
         14    1    1    2    0    0  0.21883787732E-01 -0.41408583722E-02  0.82555017138E-02  0.23752898394E-01  0.00000000000E+00 0.  1.
     999901    1    3    3    0    0 -0.14033138648E+00  0.25807889020E-01  0.30859068423E-01  0.89202647229E+00  0.88000000000E+00 0.  1.
        -11    1    4    4    0    0  0.81483248446E-02 -0.58713667049E-02  0.79910598136E-05  0.10056307951E-01  0.51100000000E-03 0.  1.
         11    1    4    4    0    0  0.11029927390E+00 -0.15795663943E-01 -0.39122561197E-01  0.11809432136E+00  0.51100000000E-03 0. -1.
</event>
<event>
 8    1  0.1082757E+005  0.1043930E+01  0.7957747E-01            NaN
         13   -1    0    0    0    0  0.00000000000E+00  0.00000000000E+00  0.74505805969E-08  0.10566000000E+00  0.10566000000E+00 0.  1.
     999900   -1    0    0    0    0 -0.00000000000E+00 -0.00000000000E+00 -0.74505805969E-08  0.93827000000E+00  0.93827000000E+00 0. -1.
     999902    2    1    2    0    0 -0.23130983078E-01 -0.33119672642E-02 -0.28569596695E-02  0.10203891053E+01  0.10201175189E+01 0.  0.
     999903    2    3    3    0    0  0.64580895772E-01  0.93951049079E-01 -0.56747470814E-01  0.12906556401E+00  0.20979815259E-01 0.  0.
         14    1    1    2    0    0  0.23130983078E-01  0.33119672642E-02  0.28569596695E-02  0.23540894712E-01  0.00000000000E+00 0. -1.
     999901    1    3    3    0    0 -0.87711878850E-01 -0.97263016343E-01  0.53890511145E-01  0.89132354128E+00  0.88000000000E+00 0.  1.
        -11    1    4    4    0    0  0.18912679369E-01  0.40090416299E-01 -0.30119801027E-01  0.53594724133E-01  0.51100000000E-03 0.  1.
         11    1    4    4    0    0  0.45668216403E-01  0.53860632780E-01 -0.26627669787E-01  0.75470839880E-01  0.51100000000E-03 0. -1.
</event>
<event>
 8    1  0.1176002E+005  0.1043930E+01  0.7957747E-01            NaN
         13   -1    0    0    0    0  0.00000000000E+00  0.00000000000E+00  0.74505805969E-08  0.10566000000E+00  0.10566000000E+00 0. -1.
     999900   -1    0    0    0    0 -0.00000000000E+00 -0.00000000000E+00 -0.74505805969E-08  0.93827000000E+00  0.93827000000E+00 0.  1.
     999902    2    1    2    0    0 -0.10364419961E-01 -0.10219805006E-01 -0.20049405167E-01  0.10191541193E+01  0.10188529210E+01 0.  0.
     999903    2    3    3    0    0 -0.53687593749E-02 -0.12851536463E+00 -0.16078565915E-01  0.13121574105E+00  0.20347675422E-01 0.  0.
         14    1    1    2    0    0  0.10364419961E-01  0.10219805006E-01  0.20049405167E-01  0.24775880672E-01  0.00000000000E+00 0. -1.
     999901    1    3    3    0    0 -0.49956605863E-02  0.11829555962E+00 -0.39708392526E-02  0.88793837828E+00  0.88000000000E+00 0.  1.
        -11    1    4    4    0    0  0.78159448143E-02 -0.48472623999E-01 -0.64613045735E-02  0.49524679186E-01  0.51100000000E-03 0. -1.
         11    1    4    4    0    0 -0.13184704189E-01 -0.80042740630E-01 -0.96172613413E-02  0.81691061866E-01  0.51100000000E-03 0.  1.
</event>
<event>
 8    1  0.1082757E+005  0.1043930E+01  0.7957747E-01            NaN
         13   -1    0    0    0    0  0.00000000000E+00  0.00000000000E+00  0.74505805969E-08  0.10566000000E+00  0.10566000000E+00 0.  1.
     999900   -1    0    0    0    0 -0.00000000000E+00 -0.00000000000E+00 -0.74505805969E-08  0.93827000000E+00  0.93827000000E+00 0.  1.
     999902    2    1    2    0    0  0.22260350273E-01  0.72124404577E-02 -0.40762142262E-03  0.10205268240E+01  0.10202584427E+01 0.  0.
     999903    2    3    3    0    0 -0.12151240270E+00 -0.30239303991E-01 -0.16864400264E-01  0.12792161271E+00  0.19996286821E-01 0.  0.
         14    1    1    2    0    0 -0.22260350273E-01 -0.72124404577E-02  0.40762142262E-03  0.23403175999E-01  0.00000000000E+00 0. -1.
     999901    1    3    3    0    0  0.14377275297E+00  0.37451744448E-01  0.16456778842E-01  0.89260521129E+00  0.88000000000E+00 0. -1.
        -11    1    4    4    0    0 -0.83605747262E-01 -0.15905832761E-01 -0.32575469729E-02  0.85169180014E-01  0.51100000000E-03 0.  1.
         11    1    4    4    0    0 -0.37906655434E-01 -0.14333471229E-01 -0.13606853292E-01  0.42752432693E-01  0.51100000000E-03 0. -1.
</event>
<event>
 8    1  0.1082757E+005  0.1043930E+01  0.7957747E-01            NaN
         13   -1    0    0    0    0  0.00000000000E+00  0.00000000000E+00  0.74505805969E-08  0.10566000000E+00  0.10566000000E+00 0.  1.
     999900   -1    0    0    0    0 -0.00000000000E+00 -0.00000000000E+00 -0.74505805969E-08  0.93827000000E+00  0.93827000000E+00 0. -1.
     999902    2    1    2    0    0 -0.17380491004E-01  0.15837798217E-01 -0.77591463685E-02  0.10191687062E+01  0.10188678668E+01 0.  0.
     999903    2    3    3    0    0 -0.42869994272E-01  0.12289430139E+00  0.11130373131E-01  0.13211311400E+00  0.19726732137E-01 0.  0.
         14    1    1    2    0    0  0.17380491004E-01 -0.15837798217E-01  0.77591463685E-02  0.24761293833E-01  0.00000000000E+00 0.  1.
     999901    1    3    3    0    0  0.25489503268E-01 -0.10705650318E+00 -0.18889519499E-01  0.88705559217E+00  0.88000000000E+00 0. -1.
        -11    1    4    4    0    0 -0.28731753403E-01  0.65860634552E-01  0.14298678225E-01  0.73265613743E-01  0.51100000000E-03 0. -1.
         11    1    4    4    0    0 -0.14138240869E-01  0.57033666842E-01 -0.31683050941E-02  0.58847500257E-01  0.51100000000E-03 0.  1.
</event>
<event>
 8    1  0.1082757E+005  0.1043930E+01  0.7957747E-01            NaN
         13   -1    0    0    0    0  0.00000000000E+00  0.00000000000E+00  0.74505805969E-08  0.10566000000E+00  0.10566000000E+00 0. -1.
     999900   -1    0    0    0    0 -0.00000000000E+00 -0.00000000000E+00 -0.74505805969E-08  0.93827000000E+00  0.93827000000E+00 0.  1.
     999902    2    1    2    0    0  0.53188477738E-02 -0.21889093042E-01  0.54689004765E-02  0.10207495900E+01  0.10204863517E+01 0.  0.
     999903    2    3    3    0    0  0.10342180872E+00 -0.80323147254E-01  0.14271618658E-01  0.13332848505E+00  0.20613765388E-01 0.  0.
         14    1    1    2    0    0 -0.53188477738E-02  0.21889093042E-01 -0.54689004765E-02  0.23180410011E-01  0.00000000000E+00 0. -1.
     999901    1    3    3    0    0 -0.98102960947E-01  0.58434054212E-01 -0.88027181819E-02  0.88742110494E+00  0.88000000000E+00 0.  1.
        -11    1    4    4    0    0  0.16553752322E-01 -0.20275278094E-01  0.86651038051E-02  0.27576416785E-01  0.51100000000E-03 0.  1.
         11    1    4    4    0    0  0.86868056399E-01 -0.60047869160E-01  0.56065148533E-02  0.10575206827E+00  0.51100000000E-03 0. -1.
</event>
<event>
 8    1  0.1082757E+005  0.1043930E+01  0.7957747E-01            NaN
         13   -1    0    0    0    0  0.00000000000E+00  0.00000000000E+00  0.74505805969E-08  0.10566000000E+00  0.10566000000E+00 0. -1.
     999900   -1    0    0    0    0 -0.00000000000E+00 -0.00000000000E+00 -0.74505805969E-08  0.93827000000E+00  0.93827000000E+00 0.  1.
     999902    2    1    2    0    0  0.12196224077E-01 -0.19021922934E-01 -0.84448566853E-02  0.10198074579E+01  0.10195221205E+01 0.  0.
     999903    2    3    3    0    0 -0.61488582861E-01  0.10446934142E+00  0.33617409364E-01  0.12714359204E+00  0.18457347195E-01 0.  0.
         14    1    1    2    0    0 -0.12196224077E-01  0.19021922934E-01  0.84448566853E-02  0.24122542119E-01  0.00000000000E+00 0.  1.
     999901    1    3    3    0    0  0.73684806938E-01 -0.12349126436E+00 -0.42062266049E-01  0.89266386584E+00  0.88000000000E+00 0.  1.
        -11    1    4    4    0    0 -0.60154259133E-01  0.91567048014E-01  0.28643041311E-01  0.11324197151E+00  0.51100000000E-03 0.  1.
         11    1    4    4    0    0 -0.13343237277E-02  0.12902293411E-01  0.49743680529E-02  0.13901620538E-01  0.51100000000E-03 0. -1.
</event>
<event>
 8    1  0.1082757E+005  0.1043930E+01  0.7957747E-01            NaN
         13   -1    0    0    0    0  0.00000000000E+00  0.00000000000E+00  0.74505805969E-08  0.10566000000E+00  0.10566000000E+00 0. -1.
     999900   -1    0    0    0    0 -0.00000000000E+00 -0.00000000000E+00 -0.74505805969E-08  0.93827000000E+00  0.93827000000E+00 0.  1.
     999902    2    1    2    0    0  0.21943390541E-01  0.10761848573E-01 -0.54375891851E-02  0.10188920858E+01  0.10185844026E+01 0.  0.
     999903    2    3    3    0    0 -0.66388656137E-01  0.50790431693E-01 -0.95988308182E-01  0.12894586792E+00  0.20643641437E-01 0.  0.
         14    1    1    2    0    0 -0.21943390541E-01 -0.10761848573E-01  0.54375891851E-02  0.25037914236E-01  0.00000000000E+00 0. -1.
     999901    1    3    3    0    0  0.88332046678E-01 -0.40028583120E-01  0.90550718997E-01  0.88994621784E+00  0.88000000000E+00 0. -1.
        -11    1    4    4    0    0 -0.16260883266E-01  0.23224914978E-01 -0.38770911608E-01  0.48033922474E-01  0.51100000000E-03 0. -1.
         11    1    4    4    0    0 -0.50127772871E-01  0.27565516715E-01 -0.57217396575E-01  0.80911945451E-01  0.51100000000E-03 0.  1.
</event>
<event>
 8    1  0.1082757E+005  0.1043930E+01  0.7957747E-01            NaN
         13   -1    0    0    0    0  0.00000000000E+00  0.00000000000E+00  0.74505805969E-08  0.10566000000E+00  0.10566000000E+00 0. -1.
     999900   -1    0    0    0    0 -0.00000000000E+00 -0.00000000000E+00 -0.74505805969E-08  0.93827000000E+00  0.93827000000E+00 0. -1.
     999902    2    1    2    0    0 -0.13989666043E-01  0.12822600813E-01 -0.12772377676E-01  0.10210550469E+01  0.10207987781E+01 0.  0.
     999903    2    3    3    0    0  0.13461625162E-01  0.13040173201E+00 -0.68161123257E-02  0.13279050153E+00  0.20025754542E-01 0.  0.
         14    1    1    2    0    0  0.13989666043E-01 -0.12822600813E-01  0.12772377676E-01  0.22874953095E-01  0.00000000000E+00 0. -1.
     999901    1    3    3    0    0 -0.27451291205E-01 -0.11757913120E+00 -0.59562653504E-02  0.88826454538E+00  0.88000000000E+00 0.  1.
        -11    1    4    4    0    0  0.56004853150E-03  0.28928427932E-01 -0.95177769809E-02  0.30463368111E-01  0.51100000000E-03 0. -1.
         11    1    4    4    0    0  0.12901576631E-01  0.10147330408E+00  0.27016646552E-02  0.10232713341E+00  0.51100000000E-03 0.  1.
</event>
<event>
 8    1  0.1082757E+005  0.1043930E+01  0.7957747E-01            NaN
         13   -1    0    0    0    0  0.00000000000E+00  0.00000000000E+00  0.74505805969E-08  0.10566000000E+00  0.10566000000E+00 0.  1.
     999900   -1    0    0    0    0 -0.00000000000E+00 -0.00000000000E+00 -0.74505805969E-08  0.93827000000E+00  0.93827000000E+00 0. -1.
     999902    2    1    2    0    0 -0.15126921942E-01  0.19026361146E-02  0.18527891987E-01  0.10199356971E+01  0.10196534213E+01 0.  0.
     999903    2    3    3    0    0  0.24447593250E-01  0.11962600515E+00 -0.38008357893E-01  0.12941827365E+00  0.19909504266E-01 0.  0.
         14    1    1    2    0    0  0.15126921942E-01 -0.19026361146E-02 -0.18527891987E-01  0.23994302930E-01  0.00000000000E+00 0. -1.
     999901    1    3    3    0    0 -0.39574515192E-01 -0.11772336904E+00  0.56536249880E-01  0.89051742342E+00  0.88000000000E+00 0.  1.
        -11    1    4    4    0    0  0.23980735947E-01  0.68459064165E-01 -0.22339251603E-01  0.75901399500E-01  0.51100000000E-03 0. -1.
         11    1    4    4    0    0  0.46685730336E-03  0.51166940985E-01 -0.15669106289E-01  0.53516874147E-01  0.51100000000E-03 0.  1.
</event>
<event>
 8    1  0.1082757E+005  0.1043930E+01  0.7957747E-01            NaN
         13   -1    0    0    0    0  0.00000000000E+00  0.00000000000E+00  0.74505805969E-08  0.10566000000E+00  0.10566000000E+00 0.  1.
     999900   -1    0    0    0    0 -0.00000000000E+00 -0.00000000000E+00 -0.74505805969E-08  0.93827000000E+00  0.93827000000E+00 0. -1.
     999902    2    1    2    0    0  0.13538813941E-01  0.18660690639E-01  0.45301874812E-02  0.10204343949E+01  0.10201638647E+01 0.  0.
     999903    2    3    3    0    0 -0.61930195711E-01  0.11528106825E+00  0.62007927940E-02  0.13193348909E+00  0.15585951228E-01 0.  0.
         14    1    1    2    0    0 -0.13538813941E-01 -0.18660690639E-01 -0.45301874812E-02  0.23495605050E-01  0.00000000000E+00 0. -1.
     999901    1    3    3    0    0  0.75469009652E-01 -0.96620377609E-01 -0.16706053128E-02  0.88850090586E+00  0.88000000000E+00 0.  1.
        -11    1    4    4    0    0 -0.41516735379E-01  0.61435345901E-01  0.16833038434E-02  0.74168967064E-01  0.51100000000E-03 0. -1.
         11    1    4    4    0    0 -0.20413460332E-01  0.53845722347E-01  0.45174889507E-02  0.57764522029E-01  0.51100000000E-03 0.  1.
</event>
<event>
 8    1  0.1082757E+005  0.1043930E+01  0.7957747E-01            NaN
         13   -1    0    0    0    0  0.00000000000E+00  0.00000000000E+00  0.74505805969E-08  0.10566000000E+00  0.10566000000E+00 0.  1.
     999900   -1    0    0    0    0 -0.00000000000E+00 -0.00000000000E+00 -0.74505805969E-08  0.93827000000E+00  0.93827000000E+00 0.  1.
     999902    2    1    2    0    0  0.17132237289E-02 -0.18757299739E-01 -0.11484761978E-01  0.10218693747E+01  0.10216312191E+01 0.  0.
     999903    2    3    3    0    0  0.63162417049E-01 -0.57844405808E-01 -0.99629700415E-01  0.13447243121E+00  0.28658181028E-01 0.  0.
         14    1    1    2    0    0 -0.17132237289E-02  0.18757299739E-01  0.11484761978E-01  0.22060625257E-01  0.00000000000E+00 0.  1.
     999901    1    3    3    0    0 -0.61449193320E-01  0.39087106069E-01  0.88144938436E-01  0.88739694353E+00  0.88000000000E+00 0. -1.
        -11    1    4    4    0    0  0.35029947190E-01 -0.42740450246E-01 -0.79153508551E-01  0.96536947975E-01  0.51100000000E-03 0. -1.
         11    1    4    4    0    0  0.28132469859E-01 -0.15103955562E-01 -0.20476191864E-01  0.37935483234E-01  0.51100000000E-03 0.  1.
</event>
<event>
 8    1  0.1082757E+005  0.1043930E+01  0.7957747E-01            NaN
         13   -1    0    0    0    0  0.00000000000E+00  0.00000000000E+00  0.74505805969E-08  0.10566000000E+00  0.10566000000E+00 0. -1.
     999900   -1    0    0    0    0 -0.00000000000E+00 -0.00000000000E+00 -0.74505805969E-08  0.93827000000E+00  0.93827000000E+00 0.  1.
     999902    2    1    2    0    0  0.20847526543E-01 -0.59978614436E-02 -0.45855385941E-02  0.10217574749E+01  0.10215168705E+01 0.  0.
     999903    2    3    3    0    0 -0.12512727780E+00 -0.40327728632E-02  0.25731020718E-01  0.12921526367E+00  0.19010524200E-01 0.  0.
         14    1    1    2    0    0 -0.20847526543E-01  0.59978614436E-02  0.45855385941E-02  0.22172525095E-01  0.00000000000E+00 0.  1.
     999901    1    3    3    0    0  0.14597480434E+00 -0.19650885804E-02 -0.30316559312E-01  0.89254221124E+00  0.88000000000E+00 0.  1.
        -11    1    4    4    0    0 -0.52268301543E-01  0.76579731590E-02  0.10120827320E-01  0.53789517248E-01  0.51100000000E-03 0. -1.
         11    1    4    4    0    0 -0.72858976257E-01 -0.11690746022E-01  0.15610193398E-01  0.75425746418E-01  0.51100000000E-03 0.  1.
</event>
<event>
 8    1  0.1082757E+005  0.1043930E+01  0.7957747E-01            NaN
         13   -1    0    0    0    0  0.00000000000E+00  0.00000000000E+00  0.74505805969E-08  0.10566000000E+00  0.10566000000E+00 0. -1.
     999900   -1    0    0    0    0 -0.00000000000E+00 -0.00000000000E+00 -0.74505805969E-08  0.93827000000E+00  0.93827000000E+00 0. -1.
     999902    2    1    2    0    0 -0.21572452951E-01  0.90208504274E-02  0.35399290187E-02  0.10202809500E+01  0.10200068330E+01 0.  0.
     999903    2    3    3    0    0  0.25546144665E-01 -0.25161589964E-01 -0.12267683329E+00  0.12937171075E+00  0.20043028716E-01 0.  0.
         14    1    1    2    0    0  0.21572452951E-01 -0.90208504274E-02 -0.35399290187E-02  0.23649050007E-01  0.00000000000E+00 0.  1.
     999901    1    3    3    0    0 -0.47118597617E-01  0.34182440391E-01  0.12621676231E+00  0.89090923924E+00  0.88000000000E+00 0.  1.
        -11    1    4    4    0    0  0.70331850252E-02 -0.10285036027E-02 -0.51159699376E-01  0.51653649169E-01  0.51100000000E-03 0.  1.
         11    1    4    4    0    0  0.18512959640E-01 -0.24133086361E-01 -0.71517133916E-01  0.77718061585E-01  0.51100000000E-03 0. -1.
</event>
<event>
 8    1  0.1082757E+005  0.1043930E+01  0.7957747E-01            NaN
         13   -1    0    0    0    0  0.00000000000E+00  0.00000000000E+00  0.74505805969E-08  0.10566000000E+00  0.10566000000E+00 0. -1.
     999900   -1    0    0    0    0 -0.00000000000E+00 -0.00000000000E+00 -0.74505805969E-08  0.93827000000E+00  0.93827000000E+00 0.  1.
     999902    2    1    2    0    0 -0.11224097874E-01  0.59690961760E-02 -0.20082690444E-01  0.10201618504E+01  0.10198849327E+01 0.  0.
     999903    2    3    3    0    0  0.12029569394E-01 -0.12747895661E+00  0.15608132318E-02  0.12953423059E+00  0.19521419969E-01 0.  0.
         14    1    1    2    0    0  0.11224097874E-01 -0.59690961760E-02  0.20082690444E-01  0.23768149649E-01  0.00000000000E+00 0. -1.
     999901    1    3    3    0    0 -0.23253667269E-01  0.13344805279E+00 -0.21643503676E-01  0.89062761976E+00  0.88000000000E+00 0.  1.
        -11    1    4    4    0    0  0.16694041972E-01 -0.10487096776E+00 -0.17576933320E-02  0.10620716324E+00  0.51100000000E-03 0.  1.
         11    1    4    4    0    0 -0.46644725778E-02 -0.22607988849E-01  0.33185065638E-02  0.23327067348E-01  0.51100000000E-03 0. -1.
</event>
<event>
 8    1  0.1082757E+005  0.1043930E+01  0.7957747E-01            NaN
         13   -1    0    0    0    0  0.00000000000E+00  0.00000000000E+00  0.74505805969E-08  0.10566000000E+00  0.10566000000E+00 0. -1.
     999900   -1    0    0    0    0 -0.00000000000E+00 -0.00000000000E+00 -0.74505805969E-08  0.93827000000E+00  0.93827000000E+00 0.  1.
     999902    2    1    2    0    0  0.11247041021E-01 -0.10143144984E-01  0.18084008198E-01  0.10203416411E+01  0.10200689457E+01 0.  0.
     999903    2    3    3    0    0 -0.23252996976E-01  0.56875703718E-01 -0.11018612328E+00  0.12785354298E+00  0.20736420757E-01 0.  0.
         14    1    1    2    0    0 -0.11247041021E-01  0.10143144984E-01 -0.18084008198E-01  0.23588358875E-01  0.00000000000E+00 0.  1.
     999901    1    3    3    0    0  0.34500037997E-01 -0.67018848703E-01  0.12827013148E+00  0.89248809815E+00  0.88000000000E+00 0. -1.
        -11    1    4    4    0    0 -0.13136414476E-01  0.15456311883E-01 -0.51159743047E-01  0.55036745833E-01  0.51100000000E-03 0.  1.
         11    1    4    4    0    0 -0.10116582501E-01  0.41419391836E-01 -0.59026380238E-01  0.72816797145E-01  0.51100000000E-03 0. -1.
</event>
<event>
 8    1  0.1082757E+005  0.1043930E+01  0.7957747E-01            NaN
         13   -1    0    0    0    0  0.00000000000E+00  0.00000000000E+00  0.74505805969E-08  0.10566000000E+00  0.10566000000E+00 0.  1.
     999900   -1    0    0    0    0 -0.00000000000E+00 -0.00000000000E+00 -0.74505805969E-08  0.93827000000E+00  0.93827000000E+00 0.  1.
     999902    2    1    2    0    0  0.88216450856E-02 -0.92479995864E-02  0.18415059800E-01  0.10215143504E+01  0.10212683814E+01 0.  0.
     999903    2    3    3    0    0 -0.12574855389E+00 -0.26815919116E-01  0.12290731764E-01  0.13109013824E+00  0.22400221737E-01 0.  0.
         14    1    1    2    0    0 -0.88216450856E-02  0.92479995864E-02 -0.18415059800E-01  0.22415649573E-01  0.00000000000E+00 0. -1.
     999901    1    3    3    0    0  0.13457019898E+00  0.17567919530E-01  0.61243280360E-02  0.89042421218E+00  0.88000000000E+00 0.  1.
        -11    1    4    4    0    0 -0.65736343590E-01 -0.80409930323E-02  0.15878814901E-01  0.68105229764E-01  0.51100000000E-03 0. -1.
         11    1    4    4    0    0 -0.60012210300E-01 -0.18774926084E-01 -0.35880831375E-02  0.62984908479E-01  0.51100000000E-03 0.  1.
</event>
<event>
 8    1  0.1082757E+005  0.1043930E+01  0.7957747E-01            NaN
         13   -1    0    0    0    0  0.00000000000E+00  0.00000000000E+00  0.74505805969E-08  0.10566000000E+00  0.10566000000E+00 0. -1.
     999900   -1    0    0    0    0 -0.00000000000E+00 -0.00000000000E+00 -0.74505805969E-08  0.93827000000E+00  0.93827000000E+00 0. -1.
     999902    2    1    2    0    0 -0.69392657414E-02 -0.11422653222E-01  0.11229872429E-01  0.10264731833E+01  0.10263247320E+01 0.  0.
     999903    2    3    3    0    0  0.12109164339E+00 -0.24347422675E-01  0.54140037288E-01  0.13607987377E+00  0.18182555279E-01 0.  0.
         14    1    1    2    0    0  0.69392657414E-02  0.11422653222E-01 -0.11229872429E-01  0.17456816732E-01  0.00000000000E+00 0.  1.
     999901    1    3    3    0    0 -0.12803090913E+00  0.12924769452E-01 -0.42910164859E-01  0.89039330950E+00  0.88000000000E+00 0.  1.
        -11    1    4    4    0    0  0.40474411500E-02 -0.21686361156E-02 -0.11276176981E-02  0.47557759764E-02  0.51100000000E-03 0.  1.
         11    1    4    4    0    0  0.11704420224E+00 -0.22178786559E-01  0.55267654986E-01  0.13132409779E+00  0.51100000000E-03 0. -1.
</event>
<event>
 8    1  0.1082757E+005  0.1043930E+01  0.7957747E-01            NaN
         13   -1    0    0    0    0  0.00000000000E+00  0.00000000000E+00  0.74505805969E-08  0.10566000000E+00  0.10566000000E+00 0. -1.
     999900   -1    0    0    0    0 -0.00000000000E+00 -0.00000000000E+00 -0.74505805969E-08  0.93827000000E+00  0.93827000000E+00 0. -1.
     999902    2    1    2    0    0  0.22105606282E-01 -0.48961515492E-02 -0.66822689146E-02  0.10203231610E+01  0.10200500331E+01 0.  0.
     999903    2    3    3    0    0 -0.30772610925E-01 -0.59200265653E-01  0.10947306409E+00  0.12946003794E+00  0.17997906147E-01 0.  0.
         14    1    1    2    0    0 -0.22105606282E-01  0.48961515492E-02  0.66822689146E-02  0.23606838986E-01  0.00000000000E+00 0.  1.
     999901    1    3    3    0    0  0.52878217206E-01  0.54304114104E-01 -0.11615533301E+00  0.89086312307E+00  0.88000000000E+00 0. -1.
        -11    1    4    4    0    0 -0.86270169914E-02 -0.64856986245E-02  0.99928727678E-02  0.14717619915E-01  0.51100000000E-03 0. -1.
         11    1    4    4    0    0 -0.22145593933E-01 -0.52714567029E-01  0.99480191324E-01  0.11474241803E+00  0.51100000000E-03 0.  1.
</event>
<event>
 8    1  0.1082757E+005  0.1043930E+01  0.7957747E-01            NaN
         13   -1    0    0    0    0  0.00000000000E+00  0.00000000000E+00  0.74505805969E-08  0.10566000000E+00  0.10566000000E+00 0.  1.
     999900   -1    0    0    0    0 -0.00000000000E+00 -0.00000000000E+00 -0.74505805969E-08  0.93827000000E+00  0.93827000000E+00 0. -1.
     999902    2    1    2    0    0  0.45041572558E-02 -0.84149349590E-02 -0.18647696456E-01  0.10229816076E+01  0.10227670968E+01 0.  0.
     999903    2    3    3    0    0 -0.52681020370E-02  0.10470110339E+00 -0.80367402529E-01  0.13354355052E+00  0.19618525571E-01 0.  0.
         14    1    1    2    0    0 -0.45041572558E-02  0.84149349590E-02  0.18647696456E-01  0.20948392446E-01  0.00000000000E+00 0.  1.
     999901    1    3    3    0    0  0.97722592928E-02 -0.11311603835E+00  0.61719706073E-01  0.88943805703E+00  0.88000000000E+00 0. -1.
        -11    1    4    4    0    0  0.32612393921E-02  0.85911637912E-01 -0.63394597645E-01  0.10682032270E+00  0.51100000000E-03 0.  1.
         11    1    4    4    0    0 -0.85293414291E-02  0.18789465479E-01 -0.16972804884E-01  0.26723227815E-01  0.51100000000E-03 0. -1.
</event>
<event>
 8    1  0.1082757E+005  0.1043930E+01  0.7957747E-01            NaN
         13   -1    0    0    0    0  0.00000000000E+00  0.00000000000E+00  0.74505805969E-08  0.10566000000E+00  0.10566000000E+00 0. -1.
     999900   -1    0    0    0    0 -0.00000000000E+00 -0.00000000000E+00 -0.74505805969E-08  0.93827000000E+00  0.93827000000E+00 0.  1.
     999902    2    1    2    0    0  0.22888419432E-01 -0.94629937491E-03  0.69600895506E-02  0.10199880270E+01  0.10197069957E+01 0.  0.
     999903    2    3    3    0    0  0.43021367395E-02  0.12744254977E+00 -0.19902126505E-01  0.13007189319E+00  0.16201570531E-01 0.  0.
         14    1    1    2    0    0 -0.22888419432E-01  0.94629937491E-03 -0.69600895506E-02  0.23941973042E-01  0.00000000000E+00 0.  1.
     999901    1    3    3    0    0  0.18586282692E-01 -0.12838884914E+00  0.26862216055E-01  0.88991613377E+00  0.88000000000E+00 0.  1.
        -11    1    4    4    0    0  0.41536307582E-02  0.11335954847E+00 -0.12416804882E-01  0.11411432006E+00  0.51100000000E-03 0. -1.
         11    1    4    4    0    0  0.14850598125E-03  0.14083001298E-01 -0.74853216229E-02  0.15957573135E-01  0.51100000000E-03 0.  1.
</event>
<event>
 8    1  0.1082757E+005  0.1043930E+01  0.7957747E-01            NaN
         13   -1    0    0    0    0  0.00000000000E+00  0.00000000000E+00  0.74505805969E-08  0.10566000000E+00  0.10566000000E+00 0. -1.
     999900   -1    0    0    0    0 -0.00000000000E+00 -0.00000000000E+00 -0.74505805969E-08  0.93827000000E+00  0.93827000000E+00 0. -1.
     999902    2    1    2    0    0  0.22291689380E-01  0.12139714339E-01 -0.74430033064E-02  0.10174783388E+01  0.10171344452E+01 0.  0.
     999903    2    3    3    0    0  0.95883655552E-01  0.50576081028E-01 -0.71315045552E-01  0.13126574045E+00  0.19830368636E-01 0.  0.
         14    1    1    2    0    0 -0.22291689380E-01 -0.12139714339E-01  0.74430033064E-02  0.26451661155E-01  0.00000000000E+00 0. -1.
     999901    1    3    3    0    0 -0.73591966171E-01 -0.38436366690E-01  0.63872042245E-01  0.88621259839E+00  0.88000000000E+00 0.  1.
        -11    1    4    4    0    0  0.44924743454E-01  0.17346023178E-01 -0.21983544823E-01  0.52940102555E-01  0.51100000000E-03 0.  1.
         11    1    4    4    0    0  0.50958912098E-01  0.33230057850E-01 -0.49331500728E-01  0.78325637897E-01  0.51100000000E-03 0. -1.
</event>
<event>
 8    1  0.1082757E+005  0.1043930E+01  0.7957747E-01            NaN
         13   -1    0    0    0    0  0.00000000000E+00  0.00000000000E+00  0.74505805969E-08  0.10566000000E+00  0.10566000000E+00 0.  1.
     999900   -1    0    0    0    0 -0.00000000000E+00 -0.00000000000E+00 -0.74505805969E-08  0.93827000000E+00  0.93827000000E+00 0.  1.
     999902    2    1    2    0    0 -0.24324076125E-01  0.15720368567E-02  0.55695971648E-02  0.10189269523E+01  0.10186201362E+01 0.  0.
     999903    2    3    3    0    0  0.18835431134E-01  0.69735316935E-01 -0.10422891165E+00  0.12844130488E+00  0.20389087265E-01 0.  0.
         14    1    1    2    0    0  0.24324076125E-01 -0.15720368567E-02 -0.55695971648E-02  0.25003047651E-01  0.00000000000E+00 0. -1.
     999901    1    3    3    0    0 -0.43159507260E-01 -0.68163280079E-01  0.10979850882E+00  0.89048564747E+00  0.88000000000E+00 0.  1.
        -11    1    4    4    0    0  0.12614068656E-01  0.29151121140E-01 -0.61264007488E-01  0.69010450848E-01  0.51100000000E-03 0. -1.
         11    1    4    4    0    0  0.62213624787E-02  0.40584195796E-01 -0.42964904166E-01  0.59430854028E-01  0.51100000000E-03 0.  1.
</event>
<event>
 8    1  0.1082757E+005  0.1043930E+01  0.7957747E-01            NaN
         13   -1    0    0    0    0  0.00000000000E+00  0.00000000000E+00  0.74505805969E-08  0.10566000000E+00  0.10566000000E+00 0. -1.
     999900   -1    0    0    0    0 -0.00000000000E+00 -0.00000000000E+00 -0.74505805969E-08  0.93827000000E+00  0.93827000000E+00 0.  1.
     999902    2    1    2    0    0  0.16851207954E-01  0.13723116185E-01  0.68611557499E-02  0.10211404720E+01  0.10208861352E+01 0.  0.
     999903    2    3    3    0    0  0.10783767040E+00  0.25560473135E-01 -0.70689376499E-01  0.13297790558E+00  0.20095633354E-01 0.  0.
         14    1    1    2    0    0 -0.16851207954E-01 -0.13723116185E-01 -0.68611557499E-02  0.22789527980E-01  0.00000000000E+00 0.  1.
     999901    1    3    3    0    0 -0.90986462443E-01 -0.11837356950E-01  0.77550532249E-01  0.88816256644E+00  0.88000000000E+00 0. -1.
        -11    1    4    4    0    0  0.64696351180E-01  0.20052462326E-01 -0.32637785458E-01  0.75187799954E-01  0.51100000000E-03 0.  1.
         11    1    4    4    0    0  0.43141319217E-01  0.55080108087E-02 -0.38051591041E-01  0.57790105629E-01  0.51100000000E-03 0. -1.
</event>
<event>
 8    1  0.1082757E+005  0.1043930E+01  0.7957747E-01            NaN
         13   -1    0    0    0    0  0.00000000000E+00  0.00000000000E+00  0.74505805969E-08  0.10566000000E+00  0.10566000000E+00 0. -1.
     999900   -1    0    0    0    0 -0.00000000000E+00 -0.00000000000E+00 -0.74505805969E-08  0.93827000000E+00  0.93827000000E+00 0. -1.
     999902    2    1    2    0    0  0.39708366493E-02  0.74985189711E-02 -0.22565632036E-01  0.10198218462E+01  0.10195368531E+01 0.  0.
     999903    2    3    3    0    0  0.11901579040E+00 -0.36990149812E-01  0.29732345949E-01  0.12968159796E+00  0.20006871502E-01 0.  0.
         14    1    1    2    0    0 -0.39708366493E-02 -0.74985189711E-02  0.22565632036E-01  0.24108153800E-01  0.00000000000E+00 0. -1.
     999901    1    3    3    0    0 -0.11504495375E+00  0.44488668783E-01 -0.52297977985E-01  0.89014024824E+00  0.88000000000E+00 0. -1.
        -11    1    4    4    0    0  0.73455374910E-01 -0.31701772238E-01  0.14216249134E-01  0.81259198413E-01  0.51100000000E-03 0. -1.
         11    1    4    4    0    0  0.45560415487E-01 -0.52883775738E-02  0.15516096815E-01  0.48422399549E-01  0.51100000000E-03 0.  1.
</event>
<event>
 8    1  0.1082757E+005  0.1043930E+01  0.7957747E-01            NaN
         13   -1    0    0    0    0  0.00000000000E+00  0.00000000000E+00  0.74505805969E-08  0.10566000000E+00  0.10566000000E+00 0.  1.
     999900   -1    0    0    0    0 -0.00000000000E+00 -0.00000000000E+00 -0.74505805969E-08  0.93827000000E+00  0.93827000000E+00 0. -1.
     999902    2    1    2    0    0  0.17185243721E-01 -0.20137778109E-01 -0.56623111042E-02  0.10168574221E+01  0.10164969711E+01 0.  0.
     999903    2    3    3    0    0  0.14469505041E-01  0.10420057002E+00  0.65169324904E-01  0.12529445698E+00  0.19609555673E-01 0.  0.
         14    1    1    2    0    0 -0.17185243721E-01  0.20137778109E-01  0.56623111042E-02  0.27072577933E-01  0.00000000000E+00 0. -1.
     999901    1    3    3    0    0  0.27157386796E-02 -0.12433834813E+00 -0.70831636008E-01  0.89156296508E+00  0.88000000000E+00 0. -1.
        -11    1    4    4    0    0  0.14253089936E-01  0.36106785269E-01  0.21142195597E-01  0.44205249358E-01  0.51100000000E-03 0. -1.
         11    1    4    4    0    0  0.21641510514E-03  0.68093784749E-01  0.44027129307E-01  0.81089207623E-01  0.51100000000E-03 0.  1.
</event>
<event>
 8    1  0.1082757E+005  0.1043930E+01  0.7957747E-01            NaN
         13   -1    0    0    0    0  0.00000000000E+00  0.00000000000E+00  0.74505805969E-08  0.10566000000E+00  0.10566000000E+00 0.  1.
     999900   -1    0    0    0    0 -0.00000000000E+00 -0.00000000000E+00 -0.74505805969E-08  0.93827000000E+00  0.93827000000E+00 0.  1.
     999902    2    1    2    0    0  0.91928364347E-02  0.19024831943E-01 -0.92410076754E-02  0.10208681550E+01  0.10206076333E+01 0.  0.
     999903    2    3    3    0    0  0.94960589510E-01  0.78995554224E-01  0.44946394333E-01  0.13301182116E+00  0.20350799908E-01 0.  0.
         14    1    1    2    0    0 -0.91928364347E-02 -0.19024831943E-01  0.92410076754E-02  0.23061845005E-01  0.00000000000E+00 0.  1.
     999901    1    3    3    0    0 -0.85767753075E-01 -0.59970722281E-01 -0.54187402009E-01  0.88785633384E+00  0.88000000000E+00 0.  1.
        -11    1    4    4    0    0  0.48404336934E-01  0.53220100286E-01  0.24436139606E-01  0.75978582169E-01  0.51100000000E-03 0.  1.
         11    1    4    4    0    0  0.46556252576E-01  0.25775453938E-01  0.20510254727E-01  0.57033238989E-01  0.51100000000E-03 0. -1.
</event>
<event>
 8    1  0.1082757E+005  0.1043930E+01  0.7957747E-01            NaN
         13   -1    0    0    0    0  0.00000000000E+00  0.00000000000E+00  0.74505805969E-08  0.10566000000E+00  0.10566000000E+00 0.  1.
     999900   -1    0    0    0    0 -0.00000000000E+00 -0.00000000000E+00 -0.74505805969E-08  0.93827000000E+00  0.93827000000E+00 0. -1.
     999902    2    1    2    0    0  0.18203977355E-01 -0.13897502921E-01  0.52131523751E-02  0.10204416553E+01  0.10201712942E+01 0.  0.
     999903    2    3    3    0    0  0.12089731777E+00 -0.10933983297E-01  0.51431051485E-01  0.13326027655E+00  0.19427681624E-01 0.  0.
         14    1    1    2    0    0 -0.18203977355E-01  0.13897502921E-01 -0.52131523751E-02  0.23488344698E-01  0.00000000000E+00 0.  1.
     999901    1    3    3    0    0 -0.10269334041E+00 -0.29635196243E-02 -0.46217899110E-01  0.88718137876E+00  0.88000000000E+00 0.  1.
        -11    1    4    4    0    0  0.52866504319E-01  0.20084957666E-02  0.29724107225E-01  0.60685130020E-01  0.51100000000E-03 0.  1.
         11    1    4    4    0    0  0.68030813451E-01 -0.12942479063E-01  0.21706944261E-01  0.72575146526E-01  0.51100000000E-03 0. -1.
</event>
<event>
 8    1  0.1082757E+005  0.1043930E+01  0.7957747E-01            NaN
         13   -1    0    0    0    0  0.00000000000E+00  0.00000000000E+00  0.74505805969E-08  0.10566000000E+00  0.10566000000E+00 0.  1.
     999900   -1    0    0    0    0 -0.00000000000E+00 -0.00000000000E+00 -0.74505805969E-08  0.93827000000E+00  0.93827000000E+00 0.  1.
     999902    2    1    2    0    0 -0.12688634001E-01  0.18764670948E-01 -0.95680925708E-02  0.10193401097E+01  0.10190434714E+01 0.  0.
     999903    2    3    3    0    0  0.30810795059E-02  0.11093337723E+00 -0.70787530320E-01  0.13227101780E+00  0.13001556300E-01 0.  0.
         14    1    1    2    0    0  0.12688634001E-01 -0.18764670948E-01  0.95680925708E-02  0.24589890281E-01  0.00000000000E+00 0.  1.
     999901    1    3    3    0    0 -0.15769713507E-01 -0.92168706282E-01  0.61219437749E-01  0.88706909192E+00  0.88000000000E+00 0. -1.
        -11    1    4    4    0    0  0.39763134636E-02  0.60928127782E-01 -0.31732090788E-01  0.68813040411E-01  0.51100000000E-03 0. -1.
         11    1    4    4    0    0 -0.89523395773E-03  0.50005249448E-01 -0.39055439531E-01  0.63457977388E-01  0.51100000000E-03 0.  1.
</event>
<event>
 8    1  0.1082757E+005  0.1043930E+01  0.7957747E-01            NaN
         13   -1    0    0    0    0  0.00000000000E+00  0.00000000000E+00  0.74505805969E-08  0.10566000000E+00  0.10566000000E+00 0.  1.
     999900   -1    0    0    0    0 -0.00000000000E+00 -0.00000000000E+00 -0.74505805969E-08  0.93827000000E+00  0.93827000000E+00 0. -1.
     999902    2    1    2    0    0 -0.14739669342E-01  0.58853108983E-02 -0.22562990403E-01  0.10163440747E+01  0.10159696329E+01 0.  0.
     999903    2    3    3    0    0 -0.25944982090E-01  0.78543892985E-01 -0.98446405441E-01  0.13002408666E+00  0.19294640368E-01 0.  0.
         14    1    1    2    0    0  0.14739669342E-01 -0.58853108983E-02  0.22562990403E-01  0.27585925263E-01  0.00000000000E+00 0. -1.
     999901    1    3    3    0    0  0.11205312747E-01 -0.72658582087E-01  0.75883415039E-01  0.88631998808E+00  0.88000000000E+00 0.  1.
        -11    1    4    4    0    0 -0.24409985630E-01  0.64196446220E-01 -0.69691458406E-01  0.97847798143E-01  0.51100000000E-03 0. -1.
         11    1    4    4    0    0 -0.15349964600E-02  0.14347446765E-01 -0.28754947035E-01  0.32176288518E-01  0.51100000000E-03 0.  1.
</event>
<event>
 8    1  0.1082757E+005  0.1043930E+01  0.7957747E-01            NaN
         13   -1    0    0    0    0  0.00000000000E+00  0.00000000000E+00  0.74505805969E-08  0.10566000000E+00  0.10566000000E+00 0.  1.
     999900   -1    0    0    0    0 -0.00000000000E+00 -0.00000000000E+00 -0.74505805969E-08  0.93827000000E+00  0.93827000000E+00 0.  1.
     999902    2    1    2    0    0 -0.18443325192E-01  0.95996931619E-02  0.96499796865E-02  0.10210076864E+01  0.10207503432E+01 0.  0.
     999903    2    3    3    0    0 -0.12372622982E+00 -0.35273568646E-01 -0.27236227971E-01  0.13283051266E+00  0.18701026432E-01 0.  0.
         14    1    1    2    0    0  0.18443325192E-01 -0.95996931619E-02 -0.96499796865E-02  0.22922313603E-01  0.00000000000E+00 0. -1.
     999901    1    3    3    0    0  0.10528290463E+00  0.44873261807E-01  0.36886207657E-01  0.88817717374E+00  0.88000000000E+00 0.  1.
        -11    1    4    4    0    0 -0.61751748121E-01 -0.12874587833E-01 -0.49975412878E-02  0.63279301101E-01  0.51100000000E-03 0.  1.
         11    1    4    4    0    0 -0.61974481697E-01 -0.22398980812E-01 -0.22238686683E-01  0.69551211560E-01  0.51100000000E-03 0. -1.
</event>
