<event>
 8    1  0.2039519E+004  0.1043930E+01  0.7957747E-01            NaN
         13   -1    0    0    0    0  0.00000000000E+00  0.00000000000E+00  0.74505805969E-08  0.10566000000E+00  0.10566000000E+00 0. -1.
     999900   -1    0    0    0    0 -0.00000000000E+00 -0.00000000000E+00 -0.74505805969E-08  0.93827000000E+00  0.93827000000E+00 0. -1.
     999902    2    1    2    0    0 -0.10434567042E-01 -0.68528333641E-02 -0.37754515345E-02  0.10308879316E+01  0.10308054287E+01 0.  0.
     999903    2    3    3    0    0  0.94300568610E-01 -0.58595979258E-02  0.92063121553E-01  0.13950952302E+00  0.45391150393E-01 0.  0.
         14    1    1    2    0    0  0.10434567042E-01  0.68528333641E-02  0.37754515345E-02  0.13042068424E-01  0.00000000000E+00 0.  1.
     999901    1    3    3    0    0 -0.10473513565E+00 -0.99323543826E-03 -0.95838573088E-01  0.89137840856E+00  0.88000000000E+00 0.  1.
        -11    1    4    4    0    0  0.17687219329E-01 -0.13813488890E-01  0.45107081360E-02  0.22896676872E-01  0.51100000000E-03 0. -1.
         11    1    4    4    0    0  0.76613349280E-01  0.79538909641E-02  0.87552413417E-01  0.11661284614E+00  0.51100000000E-03 0.  1.
</event>
<event>
 8    1  0.2039519E+004  0.1043930E+01  0.7957747E-01            NaN
         13   -1    0    0    0    0  0.00000000000E+00  0.00000000000E+00  0.74505805969E-08  0.10566000000E+00  0.10566000000E+00 0. -1.
     999900   -1    0    0    0    0 -0.00000000000E+00 -0.00000000000E+00 -0.74505805969E-08  0.93827000000E+00  0.93827000000E+00 0. -1.
     999902    2    1    2    0    0  0.11094422618E-01 -0.39834229221E-02 -0.70489327709E-02  0.10301953240E+01  0.10301037638E+01 0.  0.
     999903    2    3    3    0    0  0.79223872965E-01 -0.10485288288E+00 -0.28724319850E-01  0.14155248666E+00  0.44062124705E-01 0.  0.
         14    1    1    2    0    0 -0.11094422618E-01  0.39834229221E-02  0.70489327709E-02  0.13734675992E-01  0.00000000000E+00 0. -1.
     999901    1    3    3    0    0 -0.68129450347E-01  0.10086945996E+00  0.21675387079E-01  0.88864283734E+00  0.88000000000E+00 0.  1.
        -11    1    4    4    0    0  0.18684014024E-01 -0.16697576878E-02 -0.12625127514E-02  0.18807858204E-01  0.51100000000E-03 0.  1.
         11    1    4    4    0    0  0.60539858941E-01 -0.10318312519E+00 -0.27461807099E-01  0.12274462846E+00  0.51100000000E-03 0. -1.
</event>
<event>
 8    1  0.2039519E+004  0.1043930E+01  0.7957747E-01            NaN
         13   -1    0    0    0    0  0.00000000000E+00  0.00000000000E+00  0.74505805969E-08  0.10566000000E+00  0.10566000000E+00 0.  1.
     999900   -1    0    0    0    0 -0.00000000000E+00 -0.00000000000E+00 -0.74505805969E-08  0.93827000000E+00  0.93827000000E+00 0.  1.
     999902    2    1    2    0    0  0.36210741494E-02 -0.13287965283E-01 -0.35450313674E-02  0.10297085568E+01  0.10296103450E+01 0.  0.
     999903    2    3    3    0    0  0.11041966105E+00  0.38195676801E-01 -0.62284559337E-01  0.13981708268E+00  0.44922589019E-01 0.  0.
         14    1    1    2    0    0 -0.36210741494E-02  0.13287965283E-01  0.35450313674E-02  0.14221443202E-01  0.00000000000E+00 0.  1.
     999901    1    3    3    0    0 -0.10679858690E+00 -0.51483642084E-01  0.58739527970E-01  0.88989147412E+00  0.88000000000E+00 0. -1.
        -11    1    4    4    0    0  0.60557112673E-01  0.43951933181E-01 -0.33868448796E-01  0.82135675990E-01  0.51100000000E-03 0.  1.
         11    1    4    4    0    0  0.49862548376E-01 -0.57562563796E-02 -0.28416110541E-01  0.57681406687E-01  0.51100000000E-03 0. -1.
</event>
<event>
 8    1  0.2039519E+004  0.1043930E+01  0.7957747E-01            NaN
         13   -1    0    0    0    0  0.00000000000E+00  0.00000000000E+00  0.74505805969E-08  0.10566000000E+00  0.10566000000E+00 0.  1.
     999900   -1    0    0    0    0 -0.00000000000E+00 -0.00000000000E+00 -0.74505805969E-08  0.93827000000E+00  0.93827000000E+00 0.  1.
     999902    2    1    2    0    0  0.73485465354E-02 -0.17044986763E-01 -0.16163692054E-01  0.10193170430E+01  0.10190198411E+01 0.  0.
     999903    2    3    3    0    0 -0.84156673140E-01  0.55234124156E-01  0.65911084195E-01  0.12783863948E+00  0.43189033549E-01 0.  0.
         14    1    1    2    0    0 -0.73485465354E-02  0.17044986763E-01  0.16163692054E-01  0.24612956968E-01  0.00000000000E+00 0.  1.
     999901    1    3    3    0    0  0.91505219675E-01 -0.72279110919E-01 -0.82074776249E-01  0.89147840355E+00  0.88000000000E+00 0.  1.
        -11    1    4    4    0    0 -0.81019860306E-01  0.35464430185E-01  0.46377075176E-01  0.99865097983E-01  0.51100000000E-03 0. -1.
         11    1    4    4    0    0 -0.31368128340E-02  0.19769693971E-01  0.19534009020E-01  0.27973541496E-01  0.51100000000E-03 0.  1.
</event>
<event>
 7    1  0.2039519E+004  0.1043930E+01  0.7957747E-01            NaN
         13   -1    0    0    0    0  0.00000000000E+00  0.00000000000E+00  0.74505805969E-08  0.10566000000E+00  0.10566000000E+00 0. -1.
     999900   -1    0    0    0    0 -0.00000000000E+00 -0.00000000000E+00 -0.74505805969E-08  0.93827000000E+00  0.93827000000E+00 0. -1.
     999903    2    1    2    0    0  0.54845172223E-01  0.28586203529E-01 -0.91699938026E-01  0.12097277754E+00  0.48993574304E-01 0.  0.
         14    1    1    2    0    0 -0.31546303067E-02 -0.31515613757E-01 -0.14919622965E-01  0.35011151827E-01  0.00000000000E+00 0.  1.
     999901    1    1    2    0    0 -0.51690541916E-01  0.29294102285E-02  0.10661956099E+00  0.88794607063E+00  0.88000000000E+00 0.  1.
        -11    1    3    3    0    0  0.36760304659E-01 -0.83831384293E-02 -0.45660628484E-01  0.59217827747E-01  0.51100000000E-03 0.  1.
         11    1    3    3    0    0  0.18084867564E-01  0.36969341958E-01 -0.46039309543E-01  0.61754949792E-01  0.51100000000E-03 0. -1.
</event>
<event>
 8    1  0.2039519E+004  0.1043930E+01  0.7957747E-01            NaN
         13   -1    0    0    0    0  0.00000000000E+00  0.00000000000E+00  0.74505805969E-08  0.10566000000E+00  0.10566000000E+00 0. -1.
     999900   -1    0    0    0    0 -0.00000000000E+00 -0.00000000000E+00 -0.74505805969E-08  0.93827000000E+00  0.93827000000E+00 0.  1.
     999902    2    1    2    0    0 -0.15749297414E-01  0.15810946191E-02  0.35183834761E-02  0.10277152150E+01  0.10275872926E+01 0.  0.
     999903    2    3    3    0    0 -0.89729166430E-01  0.94358056467E-01 -0.24911652002E-01  0.13929591505E+00  0.42755063035E-01 0.  0.
         14    1    1    2    0    0  0.15749297414E-01 -0.15810946191E-02 -0.35183834761E-02  0.16214784966E-01  0.00000000000E+00 0.  1.
     999901    1    3    3    0    0  0.73979869017E-01 -0.92776961848E-01  0.28430035478E-01  0.88841929999E+00  0.88000000000E+00 0.  1.
        -11    1    4    4    0    0 -0.86733779668E-01  0.72214421828E-01 -0.12038547870E-01  0.11350268284E+00  0.51100000000E-03 0. -1.
         11    1    4    4    0    0 -0.29953867620E-02  0.22143634639E-01 -0.12873104132E-01  0.25793232211E-01  0.51100000000E-03 0.  1.
</event>
<event>
 8    1  0.2039519E+004  0.1043930E+01  0.7957747E-01            NaN
         13   -1    0    0    0    0  0.00000000000E+00  0.00000000000E+00  0.74505805969E-08  0.10566000000E+00  0.10566000000E+00 0.  1.
     999900   -1    0    0    0    0 -0.00000000000E+00 -0.00000000000E+00 -0.74505805969E-08  0.93827000000E+00  0.93827000000E+00 0.  1.
     999902    2    1    2    0    0  0.10267604418E-01  0.67810451942E-02  0.39825267464E-02  0.10309968336E+01  0.10309157114E+01 0.  0.
     999903    2    3    3    0    0 -0.16725076661E-01 -0.81818448892E-02 -0.13118786317E+00  0.14014133058E+00  0.45636239086E-01 0.  0.
         14    1    1    2    0    0 -0.10267604418E-01 -0.67810451942E-02 -0.39825267464E-02  0.12933166422E-01  0.00000000000E+00 0. -1.
     999901    1    3    3    0    0  0.26992681079E-01  0.14962890083E-01  0.13517038992E+00  0.89085550300E+00  0.88000000000E+00 0. -1.
        -11    1    4    4    0    0  0.15877775163E-01 -0.11267543303E-02 -0.41968092357E-01  0.44888252545E-01  0.51100000000E-03 0.  1.
         11    1    4    4    0    0 -0.32602851824E-01 -0.70550905590E-02 -0.89219770815E-01  0.95253078034E-01  0.51100000000E-03 0. -1.
</event>
<event>
 7    1  0.2039519E+004  0.1043930E+01  0.7957747E-01            NaN
         13   -1    0    0    0    0  0.00000000000E+00  0.00000000000E+00  0.74505805969E-08  0.10566000000E+00  0.10566000000E+00 0.  1.
     999900   -1    0    0    0    0 -0.00000000000E+00 -0.00000000000E+00 -0.74505805969E-08  0.93827000000E+00  0.93827000000E+00 0.  1.
     999903    2    1    2    0    0  0.75107018487E-02 -0.26581514976E-01 -0.94677143103E-01  0.10862305065E+00  0.45521622622E-01 0.  0.
         14    1    1    2    0    0  0.15554697023E-01 -0.40647163209E-01  0.23791546806E-01  0.49600183224E-01  0.00000000000E+00 0. -1.
     999901    1    1    2    0    0 -0.23065398872E-01  0.67228678185E-01  0.70885596297E-01  0.88570676612E+00  0.88000000000E+00 0. -1.
        -11    1    3    3    0    0 -0.27035855971E-02 -0.19051128109E-01 -0.93950291533E-01  0.95901893920E-01  0.51100000000E-03 0. -1.
         11    1    3    3    0    0  0.10214287446E-01 -0.75303868672E-02 -0.72685156987E-03  0.12721156732E-01  0.51100000000E-03 0.  1.
</event>
<event>
 8    1  0.2039519E+004  0.1043930E+01  0.7957747E-01            NaN
         13   -1    0    0    0    0  0.00000000000E+00  0.00000000000E+00  0.74505805969E-08  0.10566000000E+00  0.10566000000E+00 0. -1.
     999900   -1    0    0    0    0 -0.00000000000E+00 -0.00000000000E+00 -0.74505805969E-08  0.93827000000E+00  0.93827000000E+00 0.  1.
     999902    2    1    2    0    0  0.12110637951E-02 -0.13168245465E-01 -0.37987059282E-02  0.10301713834E+01  0.10300795016E+01 0.  0.
     999903    2    3    3    0    0  0.66024443368E-01 -0.11354707557E+00 -0.29175965260E-01  0.14173416615E+00  0.44555262451E-01 0.  0.
         14    1    1    2    0    0 -0.12110637951E-02  0.13168245465E-01  0.37987059282E-02  0.13758616605E-01  0.00000000000E+00 0.  1.
     999901    1    3    3    0    0 -0.64813379573E-01  0.10037883010E+00  0.25377259332E-01  0.88843721725E+00  0.88000000000E+00 0. -1.
        -11    1    4    4    0    0  0.57504016261E-01 -0.73598935745E-01 -0.36413129405E-01  0.10024815381E+00  0.51100000000E-03 0. -1.
         11    1    4    4    0    0  0.85204271075E-02 -0.39948139822E-01  0.72371641450E-02  0.41486012332E-01  0.51100000000E-03 0.  1.
</event>
<event>
 8    1  0.2039519E+004  0.1043930E+01  0.7957747E-01            NaN
         13   -1    0    0    0    0  0.00000000000E+00  0.00000000000E+00  0.74505805969E-08  0.10566000000E+00  0.10566000000E+00 0.  1.
     999900   -1    0    0    0    0 -0.00000000000E+00 -0.00000000000E+00 -0.74505805969E-08  0.93827000000E+00  0.93827000000E+00 0.  1.
     999902    2    1    2    0    0 -0.66831933002E-02  0.80476089512E-02  0.87510328549E-02  0.10302914642E+01  0.10302011898E+01 0.  0.
     999903    2    3    3    0    0  0.70395697955E-01  0.31016567794E-01 -0.10687505328E+00  0.13909108251E+00  0.44793642993E-01 0.  0.
         14    1    1    2    0    0  0.66831933002E-02 -0.80476089512E-02 -0.87510328549E-02  0.13638535792E-01  0.00000000000E+00 0. -1.
     999901    1    3    3    0    0 -0.77078891255E-01 -0.22968958843E-01  0.11562608613E+00  0.89120038170E+00  0.88000000000E+00 0. -1.
        -11    1    4    4    0    0  0.50103458183E-01  0.27914461199E-02 -0.41802650521E-01  0.65313638736E-01  0.51100000000E-03 0.  1.
         11    1    4    4    0    0  0.20292239772E-01  0.28225121674E-01 -0.65072402754E-01  0.73777443773E-01  0.51100000000E-03 0. -1.
</event>
<event>
 8    1  0.2039519E+004  0.1043930E+01  0.7957747E-01            NaN
         13   -1    0    0    0    0  0.00000000000E+00  0.00000000000E+00  0.74505805969E-08  0.10566000000E+00  0.10566000000E+00 0. -1.
     999900   -1    0    0    0    0 -0.00000000000E+00 -0.00000000000E+00 -0.74505805969E-08  0.93827000000E+00  0.93827000000E+00 0. -1.
     999902    2    1    2    0    0 -0.85751788112E-02  0.41807693351E-02  0.18436699810E-01  0.10231712808E+01  0.10229606764E+01 0.  0.
     999903    2    3    3    0    0  0.64994789321E-01 -0.10375526148E+00 -0.23044006890E-01  0.13256285055E+00  0.45303489581E-01 0.  0.
         14    1    1    2    0    0  0.85751788112E-02 -0.41807693351E-02 -0.18436699810E-01  0.20758719223E-01  0.00000000000E+00 0.  1.
     999901    1    3    3    0    0 -0.73569968133E-01  0.10793603082E+00  0.41480706701E-01  0.89060843023E+00  0.88000000000E+00 0.  1.
        -11    1    4    4    0    0  0.51996961516E-01 -0.61919465467E-01 -0.33497343208E-01  0.87521639231E-01  0.51100000000E-03 0. -1.
         11    1    4    4    0    0  0.12997827805E-01 -0.41835796018E-01  0.10453336318E-01  0.45041211321E-01  0.51100000000E-03 0.  1.
</event>
<event>
 8    1  0.2039519E+004  0.1043930E+01  0.7957747E-01            NaN
         13   -1    0    0    0    0  0.00000000000E+00  0.00000000000E+00  0.74505805969E-08  0.10566000000E+00  0.10566000000E+00 0. -1.
     999900   -1    0    0    0    0 -0.00000000000E+00 -0.00000000000E+00 -0.74505805969E-08  0.93827000000E+00  0.93827000000E+00 0.  1.
     999902    2    1    2    0    0  0.48936452373E-02  0.53996590295E-02  0.11612183874E-01  0.10302206275E+01  0.10301294066E+01 0.  0.
     999903    2    3    3    0    0  0.90364014901E-01  0.11812348235E-01  0.99073452118E-01  0.14174115098E+00  0.44382634058E-01 0.  0.
         14    1    1    2    0    0 -0.48936452373E-02 -0.53996590295E-02 -0.11612183874E-01  0.13709372548E-01  0.00000000000E+00 0.  1.
     999901    1    3    3    0    0 -0.85470369664E-01 -0.64126892058E-02 -0.87461268244E-01  0.88847947647E+00  0.88000000000E+00 0.  1.
        -11    1    4    4    0    0  0.64584948089E-01  0.17081554090E-01  0.42054747708E-01  0.78942117628E-01  0.51100000000E-03 0.  1.
         11    1    4    4    0    0  0.25779066812E-01 -0.52692058548E-02  0.57018704409E-01  0.62799033349E-01  0.51100000000E-03 0. -1.
</event>
<event>
 8    1  0.2039519E+004  0.1043930E+01  0.7957747E-01            NaN
         13   -1    0    0    0    0  0.00000000000E+00  0.00000000000E+00  0.74505805969E-08  0.10566000000E+00  0.10566000000E+00 0. -1.
     999900   -1    0    0    0    0 -0.00000000000E+00 -0.00000000000E+00 -0.74505805969E-08  0.93827000000E+00  0.93827000000E+00 0. -1.
     999902    2    1    2    0    0  0.14068790423E-01  0.14966480568E-02 -0.34285894466E-02  0.10293723201E+01  0.10292693755E+01 0.  0.
     999903    2    3    3    0    0  0.43639669905E-02  0.79355517595E-01  0.10465449297E+00  0.13929471679E+00  0.46196459231E-01 0.  0.
         14    1    1    2    0    0 -0.14068790423E-01 -0.14966480568E-02  0.34285894466E-02  0.14557679931E-01  0.00000000000E+00 0. -1.
     999901    1    3    3    0    0  0.97048234328E-02 -0.77858869539E-01 -0.10808308241E+00  0.89007760328E+00  0.88000000000E+00 0.  1.
        -11    1    4    4    0    0  0.12439493042E-01  0.78061901510E-01  0.76621800329E-01  0.11008888618E+00  0.51100000000E-03 0.  1.
         11    1    4    4    0    0 -0.80755260519E-02  0.12936160849E-02  0.28032692638E-01  0.29205830601E-01  0.51100000000E-03 0. -1.
</event>
<event>
 8    1  0.2039519E+004  0.1043930E+01  0.7957747E-01            NaN
         13   -1    0    0    0    0  0.00000000000E+00  0.00000000000E+00  0.74505805969E-08  0.10566000000E+00  0.10566000000E+00 0.  1.
     999900   -1    0    0    0    0 -0.00000000000E+00 -0.00000000000E+00 -0.74505805969E-08  0.93827000000E+00  0.93827000000E+00 0.  1.
     999902    2    1    2    0    0 -0.12311209648E-01  0.20977104785E-02 -0.62153255004E-02  0.10299802135E+01  0.10298857430E+01 0.  0.
     999903    2    3    3    0    0  0.11803796296E+00  0.53116316514E-01  0.22022946753E-01  0.13846958262E+00  0.43983080244E-01 0.  0.
         14    1    1    2    0    0  0.12311209648E-01 -0.20977104785E-02  0.62153255004E-02  0.13949786498E-01  0.00000000000E+00 0. -1.
     999901    1    3    3    0    0 -0.13034917260E+00 -0.51018606035E-01 -0.28238272254E-01  0.89151063088E+00  0.88000000000E+00 0.  1.
        -11    1    4    4    0    0  0.11400585094E+00  0.54637272273E-01  0.11330353598E-01  0.12692991611E+00  0.51100000000E-03 0.  1.
         11    1    4    4    0    0  0.40321120168E-02 -0.15209557595E-02  0.10692593155E-01  0.11539666508E-01  0.51100000000E-03 0. -1.
</event>
<event>
 8    1  0.2039519E+004  0.1043930E+01  0.7957747E-01            NaN
         13   -1    0    0    0    0  0.00000000000E+00  0.00000000000E+00  0.74505805969E-08  0.10566000000E+00  0.10566000000E+00 0.  1.
     999900   -1    0    0    0    0 -0.00000000000E+00 -0.00000000000E+00 -0.74505805969E-08  0.93827000000E+00  0.93827000000E+00 0.  1.
     999902    2    1    2    0    0  0.13220534815E-01  0.15568488849E-02  0.60283733332E-02  0.10293167319E+01  0.10292129940E+01 0.  0.
     999903    2    3    3    0    0 -0.10988143183E+00 -0.64079565496E-01 -0.26437827247E-01  0.13773595191E+00  0.45739632316E-01 0.  0.
         14    1    1    2    0    0 -0.13220534815E-01 -0.15568488849E-02 -0.60283733332E-02  0.14613268091E-01  0.00000000000E+00 0. -1.
     999901    1    3    3    0    0  0.12310196664E+00  0.65636414381E-01  0.32466200580E-01  0.89158078000E+00  0.88000000000E+00 0.  1.
        -11    1    4    4    0    0 -0.54332252702E-01 -0.48302057535E-01 -0.32569914641E-01  0.79662682019E-01  0.51100000000E-03 0.  1.
         11    1    4    4    0    0 -0.55549179126E-01 -0.15777507961E-01  0.61320873936E-02  0.58073269891E-01  0.51100000000E-03 0. -1.
</event>
<event>
 8    1  0.2039519E+004  0.1043930E+01  0.7957747E-01            NaN
         13   -1    0    0    0    0  0.00000000000E+00  0.00000000000E+00  0.74505805969E-08  0.10566000000E+00  0.10566000000E+00 0. -1.
     999900   -1    0    0    0    0 -0.00000000000E+00 -0.00000000000E+00 -0.74505805969E-08  0.93827000000E+00  0.93827000000E+00 0.  1.
     999902    2    1    2    0    0 -0.64365904688E-02  0.23542110092E-02  0.11299213637E-01  0.10307146969E+01  0.10306299735E+01 0.  0.
     999903    2    3    3    0    0  0.31537516708E-01  0.10050383173E-01  0.13051838010E+00  0.14183086114E+00  0.44556935097E-01 0.  0.
         14    1    1    2    0    0  0.64365904688E-02 -0.23542110092E-02 -0.11299213637E-01  0.13215303067E-01  0.00000000000E+00 0.  1.
     999901    1    3    3    0    0 -0.37974107176E-01 -0.76961721640E-02 -0.11921916646E+00  0.88888383579E+00  0.88000000000E+00 0.  1.
        -11    1    4    4    0    0  0.16297627908E-01 -0.17528765329E-01  0.53316410012E-01  0.58444597586E-01  0.51100000000E-03 0. -1.
         11    1    4    4    0    0  0.15239888800E-01  0.27579148502E-01  0.77201970090E-01  0.83386263554E-01  0.51100000000E-03 0.  1.
</event>
<event>
 8    1  0.2039519E+004  0.1043930E+01  0.7957747E-01            NaN
         13   -1    0    0    0    0  0.00000000000E+00  0.00000000000E+00  0.74505805969E-08  0.10566000000E+00  0.10566000000E+00 0.  1.
     999900   -1    0    0    0    0 -0.00000000000E+00 -0.00000000000E+00 -0.74505805969E-08  0.93827000000E+00  0.93827000000E+00 0. -1.
     999902    2    1    2    0    0  0.81167580870E-02  0.15444123181E-02  0.10953465210E-01  0.10302097459E+01  0.10301183792E+01 0.  0.
     999903    2    3    3    0    0  0.11808917971E+00  0.62089474443E-01  0.31866701427E-02  0.14126657500E+00  0.46324217689E-01 0.  0.
         14    1    1    2    0    0 -0.81167580870E-02 -0.15444123181E-02 -0.10953465210E-01  0.13720254056E-01  0.00000000000E+00 0. -1.
     999901    1    3    3    0    0 -0.10997242162E+00 -0.60545062125E-01  0.77667950672E-02  0.88894317095E+00  0.88000000000E+00 0. -1.
        -11    1    4    4    0    0  0.47956294829E-01  0.23668882127E-01 -0.21398786083E-01  0.57603744338E-01  0.51100000000E-03 0.  1.
         11    1    4    4    0    0  0.70132884879E-01  0.38420592316E-01  0.24585456226E-01  0.83662830661E-01  0.51100000000E-03 0. -1.
</event>
<event>
 8    1  0.2039519E+004  0.1043930E+01  0.7957747E-01            NaN
         13   -1    0    0    0    0  0.00000000000E+00  0.00000000000E+00  0.74505805969E-08  0.10566000000E+00  0.10566000000E+00 0.  1.
     999900   -1    0    0    0    0 -0.00000000000E+00 -0.00000000000E+00 -0.74505805969E-08  0.93827000000E+00  0.93827000000E+00 0.  1.
     999902    2    1    2    0    0  0.13387360905E-01  0.22340234069E-02  0.14516204105E-03  0.10303567408E+01  0.10302673342E+01 0.  0.
     999903    2    3    3    0    0 -0.83236424422E-01  0.95639949981E-01  0.36820970814E-01  0.13939886418E+00  0.44732058524E-01 0.  0.
         14    1    1    2    0    0 -0.13387360905E-01 -0.22340234069E-02 -0.14516204105E-03  0.13573259174E-01  0.00000000000E+00 0.  1.
     999901    1    3    3    0    0  0.96623785327E-01 -0.93405926575E-01 -0.36675808773E-01  0.89095787665E+00  0.88000000000E+00 0. -1.
        -11    1    4    4    0    0 -0.23999019663E-02  0.17546350009E-01  0.18324130469E-01  0.25488601502E-01  0.51100000000E-03 0. -1.
         11    1    4    4    0    0 -0.80836522456E-01  0.78093599972E-01  0.18496840345E-01  0.11391026268E+00  0.51100000000E-03 0.  1.
</event>
<event>
 8    1  0.2039519E+004  0.1043930E+01  0.7957747E-01            NaN
         13   -1    0    0    0    0  0.00000000000E+00  0.00000000000E+00  0.74505805969E-08  0.10566000000E+00  0.10566000000E+00 0. -1.
     999900   -1    0    0    0    0 -0.00000000000E+00 -0.00000000000E+00 -0.74505805969E-08  0.93827000000E+00  0.93827000000E+00 0.  1.
     999902    2    1    2    0    0 -0.30548369986E-02  0.11662517897E-01 -0.45274503197E-02  0.10310519505E+01  0.10309715226E+01 0.  0.
     999903    2    3    3    0    0 -0.76813770405E-01 -0.10715664552E+00  0.11945494785E-01  0.13985627513E+00  0.45101894026E-01 0.  0.
         14    1    1    2    0    0  0.30548369986E-02 -0.11662517897E-01  0.45274503197E-02  0.12878049510E-01  0.00000000000E+00 0. -1.
     999901    1    3    3    0    0  0.73758933406E-01  0.11881916342E+00 -0.16472945105E-01  0.89119567536E+00  0.88000000000E+00 0.  1.
        -11    1    4    4    0    0 -0.20554187571E-01 -0.43353046089E-01 -0.15579637874E-01  0.50447472377E-01  0.51100000000E-03 0.  1.
         11    1    4    4    0    0 -0.56259582834E-01 -0.63803599436E-01  0.27525132659E-01  0.89408802757E-01  0.51100000000E-03 0. -1.
</event>
<event>
 8    1  0.2039519E+004  0.1043930E+01  0.7957747E-01            NaN
         13   -1    0    0    0    0  0.00000000000E+00  0.00000000000E+00  0.74505805969E-08  0.10566000000E+00  0.10566000000E+00 0. -1.
     999900   -1    0    0    0    0 -0.00000000000E+00 -0.00000000000E+00 -0.74505805969E-08  0.93827000000E+00  0.93827000000E+00 0. -1.
     999902    2    1    2    0    0 -0.48768190725E-02  0.10298381342E-01 -0.64794795837E-02  0.10308218469E+01  0.10307385005E+01 0.  0.
     999903    2    3    3    0    0  0.46578753543E-01  0.15695529751E-01 -0.12538652387E+00  0.14131878879E+00  0.42816933140E-01 0.  0.
         14    1    1    2    0    0  0.48768190725E-02 -0.10298381342E-01  0.64794795837E-02  0.13108153120E-01  0.00000000000E+00 0. -1.
     999901    1    3    3    0    0 -0.51455572615E-01 -0.53971484091E-02  0.11890704428E+00  0.88950305809E+00  0.88000000000E+00 0.  1.
        -11    1    4    4    0    0  0.29902244194E-01  0.30554583771E-01 -0.78789390429E-01  0.89642378162E-01  0.51100000000E-03 0. -1.
         11    1    4    4    0    0  0.16676509349E-01 -0.14859054020E-01 -0.46597133436E-01  0.51676410633E-01  0.51100000000E-03 0.  1.
</event>
<event>
 8    1  0.2039519E+004  0.1043930E+01  0.7957747E-01            NaN
         13   -1    0    0    0    0  0.00000000000E+00  0.00000000000E+00  0.74505805969E-08  0.10566000000E+00  0.10566000000E+00 0. -1.
     999900   -1    0    0    0    0 -0.00000000000E+00 -0.00000000000E+00 -0.74505805969E-08  0.93827000000E+00  0.93827000000E+00 0. -1.
     999902    2    1    2    0    0  0.12602817792E-01 -0.59588990131E-02  0.31388765158E-02  0.10296404220E+01  0.10295412603E+01 0.  0.
     999903    2    3    3    0    0  0.10340321215E+00 -0.39145429722E-01  0.75414158728E-01  0.14140071682E+00  0.45631989094E-01 0.  0.
         14    1    1    2    0    0 -0.12602817792E-01  0.59588990131E-02 -0.31388765158E-02  0.14289578004E-01  0.00000000000E+00 0.  1.
     999901    1    3    3    0    0 -0.90800394360E-01  0.33186530709E-01 -0.72275282212E-01  0.88823970518E+00  0.88000000000E+00 0. -1.
        -11    1    4    4    0    0  0.39409723252E-02  0.74254209049E-03  0.20674120101E-01  0.21065682865E-01  0.51100000000E-03 0. -1.
         11    1    4    4    0    0  0.99462239826E-01 -0.39887971812E-01  0.54740038627E-01  0.12033503395E+00  0.51100000000E-03 0.  1.
</event>
<event>
 8    1  0.2039519E+004  0.1043930E+01  0.7957747E-01            NaN
         13   -1    0    0    0    0  0.00000000000E+00  0.00000000000E+00  0.74505805969E-08  0.10566000000E+00  0.10566000000E+00 0.  1.
     999900   -1    0    0    0    0 -0.00000000000E+00 -0.00000000000E+00 -0.74505805969E-08  0.93827000000E+00  0.93827000000E+00 0.  1.
     999902    2    1    2    0    0 -0.12913924883E-01  0.53964588815E-02  0.24053036802E-02  0.10297287074E+01  0.10296307757E+01 0.  0.
     999903    2    3    3    0    0  0.81029725293E-01 -0.16998891384E-01 -0.10221468957E+00  0.13828476411E+00  0.42662097129E-01 0.  0.
         14    1    1    2    0    0  0.12913924883E-01 -0.53964588815E-02 -0.24053036802E-02  0.14201292552E-01  0.00000000000E+00 0. -1.
     999901    1    3    3    0    0 -0.93943650176E-01  0.22395350266E-01  0.10461999325E+00  0.89144394334E+00  0.88000000000E+00 0. -1.
        -11    1    4    4    0    0  0.72211222165E-01  0.80658091531E-03 -0.70962464180E-01  0.10124743761E+00  0.51100000000E-03 0.  1.
         11    1    4    4    0    0  0.88185031276E-02 -0.17805472300E-01 -0.31252225394E-01  0.37037326501E-01  0.51100000000E-03 0. -1.
</event>
<event>
 8    1  0.2039519E+004  0.1043930E+01  0.7957747E-01            NaN
         13   -1    0    0    0    0  0.00000000000E+00  0.00000000000E+00  0.74505805969E-08  0.10566000000E+00  0.10566000000E+00 0.  1.
     999900   -1    0    0    0    0 -0.00000000000E+00 -0.00000000000E+00 -0.74505805969E-08  0.93827000000E+00  0.93827000000E+00 0. -1.
     999902    2    1    2    0    0  0.12943804769E-01  0.46099370111E-02 -0.38947620232E-02  0.10296484464E+01  0.10295493968E+01 0.  0.
     999903    2    3    3    0    0  0.52671073528E-03  0.80483671139E-01  0.10482987193E+00  0.13963043887E+00  0.45049513501E-01 0.  0.
         14    1    1    2    0    0 -0.12943804769E-01 -0.46099370111E-02  0.38947620232E-02  0.14281553570E-01  0.00000000000E+00 0. -1.
     999901    1    3    3    0    0  0.12417094034E-01 -0.75873734128E-01 -0.10872463395E+00  0.89001800756E+00  0.88000000000E+00 0. -1.
        -11    1    4    4    0    0  0.59353150844E-02  0.34333315931E-01  0.13903028388E-01  0.37517460833E-01  0.51100000000E-03 0. -1.
         11    1    4    4    0    0 -0.54086043492E-02  0.46150355209E-01  0.90926843538E-01  0.10211297804E+00  0.51100000000E-03 0.  1.
</event>
<event>
 8    1  0.2039519E+004  0.1043930E+01  0.7957747E-01            NaN
         13   -1    0    0    0    0  0.00000000000E+00  0.00000000000E+00  0.74505805969E-08  0.10566000000E+00  0.10566000000E+00 0. -1.
     999900   -1    0    0    0    0 -0.00000000000E+00 -0.00000000000E+00 -0.74505805969E-08  0.93827000000E+00  0.93827000000E+00 0.  1.
     999902    2    1    2    0    0  0.11874836535E-01 -0.63002297180E-02  0.26064663698E-02  0.10302369980E+01  0.10301459963E+01 0.  0.
     999903    2    3    3    0    0  0.24399437709E-01 -0.12177192661E+00  0.47329433345E-01  0.14147903195E+00  0.48502644781E-01 0.  0.
         14    1    1    2    0    0 -0.11874836535E-01  0.63002297180E-02 -0.26064663698E-02  0.13693002015E-01  0.00000000000E+00 0.  1.
     999901    1    3    3    0    0 -0.12524601173E-01  0.11547169689E+00 -0.44722966975E-01  0.88875796604E+00  0.88000000000E+00 0.  1.
        -11    1    4    4    0    0  0.14020429753E-02 -0.41312368377E-01 -0.66868267121E-02  0.41876631645E-01  0.51100000000E-03 0.  1.
         11    1    4    4    0    0  0.22997394733E-01 -0.80459558229E-01  0.54016260057E-01  0.99602400305E-01  0.51100000000E-03 0. -1.
</event>
<event>
 8    1  0.2039519E+004  0.1043930E+01  0.7957747E-01            NaN
         13   -1    0    0    0    0  0.00000000000E+00  0.00000000000E+00  0.74505805969E-08  0.10566000000E+00  0.10566000000E+00 0. -1.
     999900   -1    0    0    0    0 -0.00000000000E+00 -0.00000000000E+00 -0.74505805969E-08  0.93827000000E+00  0.93827000000E+00 0. -1.
     999902    2    1    2    0    0  0.61753745523E-02 -0.95714309196E-02 -0.72773746058E-02  0.10304130580E+01  0.10303243966E+01 0.  0.
     999903    2    3    3    0    0 -0.23629321997E-02 -0.12796847050E+00 -0.40703233201E-01  0.14181413287E+00  0.45530014256E-01 0.  0.
         14    1    1    2    0    0 -0.61753745523E-02  0.95714309196E-02  0.72773746058E-02  0.13516942031E-01  0.00000000000E+00 0. -1.
     999901    1    3    3    0    0  0.85383067520E-02  0.11839703958E+00  0.33425858596E-01  0.88859892510E+00  0.88000000000E+00 0.  1.
        -11    1    4    4    0    0  0.18567528827E-01 -0.94297170798E-01 -0.26477856826E-01  0.99689756597E-01  0.51100000000E-03 0.  1.
         11    1    4    4    0    0 -0.20930461027E-01 -0.33671299702E-01 -0.14225376376E-01  0.42124376273E-01  0.51100000000E-03 0. -1.
</event>
<event>
 8    1  0.2039519E+004  0.1043930E+01  0.7957747E-01            NaN
         13   -1    0    0    0    0  0.00000000000E+00  0.00000000000E+00  0.74505805969E-08  0.10566000000E+00  0.10566000000E+00 0.  1.
     999900   -1    0    0    0    0 -0.00000000000E+00 -0.00000000000E+00 -0.74505805969E-08  0.93827000000E+00  0.93827000000E+00 0. -1.
     999902    2    1    2    0    0 -0.47749982285E-02  0.12980825314E-01  0.30800783290E-03  0.10300953586E+01  0.10300024517E+01 0.  0.
     999903    2    3    3    0    0 -0.91355841378E-01  0.57607519529E-02  0.96641135201E-01  0.14058513196E+00  0.45228246693E-01 0.  0.
         14    1    1    2    0    0  0.47749982285E-02 -0.12980825314E-01 -0.30800783290E-03  0.13834641403E-01  0.00000000000E+00 0. -1.
     999901    1    3    3    0    0  0.86580843150E-01  0.72200733613E-02 -0.96333127368E-01  0.88951022664E+00  0.88000000000E+00 0.  1.
        -11    1    4    4    0    0 -0.10041194431E-01  0.25947660989E-02 -0.40281818699E-02  0.11137583530E-01  0.51100000000E-03 0. -1.
         11    1    4    4    0    0 -0.81314646947E-01  0.31659858539E-02  0.10066931707E+00  0.12944754843E+00  0.51100000000E-03 0.  1.
</event>
<event>
 8    1  0.2039519E+004  0.1043930E+01  0.7957747E-01            NaN
         13   -1    0    0    0    0  0.00000000000E+00  0.00000000000E+00  0.74505805969E-08  0.10566000000E+00  0.10566000000E+00 0.  1.
     999900   -1    0    0    0    0 -0.00000000000E+00 -0.00000000000E+00 -0.74505805969E-08  0.93827000000E+00  0.93827000000E+00 0.  1.
     999902    2    1    2    0    0  0.84320870588E-02  0.63907615213E-02  0.87783277554E-02  0.10301822379E+01  0.10300905020E+01 0.  0.
     999903    2    3    3    0    0 -0.15188088602E-01  0.12963226653E+00  0.28773840922E-01  0.14105558673E+00  0.45094811935E-01 0.  0.
         14    1    1    2    0    0 -0.84320870588E-02 -0.63907615213E-02 -0.87783277554E-02  0.13747762115E-01  0.00000000000E+00 0.  1.
     999901    1    3    3    0    0  0.23620175661E-01 -0.12324150501E+00 -0.19995513166E-01  0.88912665116E+00  0.88000000000E+00 0. -1.
        -11    1    4    4    0    0 -0.17503587543E-01  0.40307851070E-01  0.27204316016E-01  0.51685920381E-01  0.51100000000E-03 0. -1.
         11    1    4    4    0    0  0.23154989417E-02  0.89324415462E-01  0.15695249055E-02  0.89369666344E-01  0.51100000000E-03 0.  1.
</event>
<event>
 8    1  0.2039519E+004  0.1043930E+01  0.7957747E-01            NaN
         13   -1    0    0    0    0  0.00000000000E+00  0.00000000000E+00  0.74505805969E-08  0.10566000000E+00  0.10566000000E+00 0. -1.
     999900   -1    0    0    0    0 -0.00000000000E+00 -0.00000000000E+00 -0.74505805969E-08  0.93827000000E+00  0.93827000000E+00 0. -1.
     999902    2    1    2    0    0 -0.21083106547E-02 -0.37002807002E-02  0.13964024180E-01  0.10293309924E+01  0.10292274583E+01 0.  0.
     999903    2    3    3    0    0 -0.15676144936E-01  0.13016977258E+00 -0.74655234155E-02  0.13884544913E+00  0.45082296866E-01 0.  0.
         14    1    1    2    0    0  0.21083106547E-02  0.37002807002E-02 -0.13964024180E-01  0.14599007582E-01  0.00000000000E+00 0.  1.
     999901    1    3    3    0    0  0.13567834281E-01 -0.13387005328E+00  0.21429547596E-01  0.89048554329E+00  0.88000000000E+00 0.  1.
        -11    1    4    4    0    0 -0.70871340189E-02  0.98602358344E-01  0.13809275208E-01  0.99817882878E-01  0.51100000000E-03 0.  1.
         11    1    4    4    0    0 -0.85890109170E-02  0.31567414237E-01 -0.21274798623E-01  0.39027566253E-01  0.51100000000E-03 0. -1.
</event>
<event>
 8    1  0.2039519E+004  0.1043930E+01  0.7957747E-01            NaN
         13   -1    0    0    0    0  0.00000000000E+00  0.00000000000E+00  0.74505805969E-08  0.10566000000E+00  0.10566000000E+00 0. -1.
     999900   -1    0    0    0    0 -0.00000000000E+00 -0.00000000000E+00 -0.74505805969E-08  0.93827000000E+00  0.93827000000E+00 0. -1.
     999902    2    1    2    0    0 -0.99563351524E-02 -0.16420319695E-02 -0.89253192584E-02  0.10304583185E+01  0.10303702538E+01 0.  0.
     999903    2    3    3    0    0  0.10006104182E+00 -0.54437820941E-01  0.65613825090E-01  0.13891622605E+00  0.44909413024E-01 0.  0.
         14    1    1    2    0    0  0.99563351524E-02  0.16420319695E-02  0.89253192584E-02  0.13471681503E-01  0.00000000000E+00 0. -1.
     999901    1    3    3    0    0 -0.11001737697E+00  0.52795788972E-01 -0.74539144349E-01  0.89154209245E+00  0.88000000000E+00 0. -1.
        -11    1    4    4    0    0  0.59967680730E-01 -0.42917777097E-01  0.18586526234E-01  0.76051156477E-01  0.51100000000E-03 0. -1.
         11    1    4    4    0    0  0.40093361086E-01 -0.11520043844E-01  0.47027298857E-01  0.62865069570E-01  0.51100000000E-03 0.  1.
</event>
<event>
 8    1  0.2039519E+004  0.1043930E+01  0.7957747E-01            NaN
         13   -1    0    0    0    0  0.00000000000E+00  0.00000000000E+00  0.74505805969E-08  0.10566000000E+00  0.10566000000E+00 0.  1.
     999900   -1    0    0    0    0 -0.00000000000E+00 -0.00000000000E+00 -0.74505805969E-08  0.93827000000E+00  0.93827000000E+00 0. -1.
     999902    2    1    2    0    0 -0.67752481251E-02  0.99782583183E-02 -0.71971698776E-02  0.10298847559E+01  0.10297889792E+01 0.  0.
     999903    2    3    3    0    0 -0.67621771043E-01  0.10952595183E+00 -0.37924683233E-01  0.14165267889E+00  0.45371376401E-01 0.  0.
         14    1    1    2    0    0  0.67752481251E-02 -0.99782583183E-02  0.71971698776E-02  0.14045244052E-01  0.00000000000E+00 0.  1.
     999901    1    3    3    0    0  0.60846522918E-01 -0.99547693508E-01  0.30727513356E-01  0.88823207706E+00  0.88000000000E+00 0.  1.
        -11    1    4    4    0    0 -0.20588753428E-01  0.63770828110E-01 -0.35849779920E-01  0.76000546885E-01  0.51100000000E-03 0.  1.
         11    1    4    4    0    0 -0.47033017616E-01  0.45755123717E-01 -0.20749033132E-02  0.65652132007E-01  0.51100000000E-03 0. -1.
</event>
<event>
 8    1  0.2039519E+004  0.1043930E+01  0.7957747E-01            NaN
         13   -1    0    0    0    0  0.00000000000E+00  0.00000000000E+00  0.74505805969E-08  0.10566000000E+00  0.10566000000E+00 0.  1.
     999900   -1    0    0    0    0 -0.00000000000E+00 -0.00000000000E+00 -0.74505805969E-08  0.93827000000E+00  0.93827000000E+00 0. -1.
     999902    2    1    2    0    0  0.35484509549E-02  0.38372861979E-02  0.10654182431E-01  0.10320629080E+01  0.10319946793E+01 0.  0.
     999903    2    3    3    0    0  0.75807631555E-01 -0.56808863614E-01  0.97105355853E-01  0.14280864173E+00  0.44618539096E-01 0.  0.
         14    1    1    2    0    0 -0.35484509549E-02 -0.38372861979E-02 -0.10654182431E-01  0.11867092012E-01  0.00000000000E+00 0. -1.
     999901    1    3    3    0    0 -0.72259180600E-01  0.60646149812E-01 -0.86451173422E-01  0.88925426626E+00  0.88000000000E+00 0. -1.
        -11    1    4    4    0    0  0.51496471222E-01 -0.12827571915E-01  0.61411710216E-01  0.81167064886E-01  0.51100000000E-03 0.  1.
         11    1    4    4    0    0  0.24311160333E-01 -0.43981291699E-01  0.35693645637E-01  0.61641576846E-01  0.51100000000E-03 0. -1.
</event>
<event>
 8    1  0.2039519E+004  0.1043930E+01  0.7957747E-01            NaN
         13   -1    0    0    0    0  0.00000000000E+00  0.00000000000E+00  0.74505805969E-08  0.10566000000E+00  0.10566000000E+00 0. -1.
     999900   -1    0    0    0    0 -0.00000000000E+00 -0.00000000000E+00 -0.74505805969E-08  0.93827000000E+00  0.93827000000E+00 0. -1.
     999902    2    1    2    0    0 -0.11318400564E-01  0.46553887669E-02 -0.41042883292E-02  0.10310217074E+01  0.10309408989E+01 0.  0.
     999903    2    3    3    0    0 -0.42648020486E-01  0.74549277653E-01  0.10296377058E+00  0.14122944508E+00  0.44359549789E-01 0.  0.
         14    1    1    2    0    0  0.11318400564E-01 -0.46553887669E-02  0.41042883292E-02  0.12908292629E-01  0.00000000000E+00 0. -1.
     999901    1    3    3    0    0  0.31329619922E-01 -0.69893888887E-01 -0.10706805891E+00  0.88979226229E+00  0.88000000000E+00 0. -1.
        -11    1    4    4    0    0 -0.48629763878E-02  0.37085772577E-01  0.67843891886E-01  0.77472949177E-01  0.51100000000E-03 0. -1.
         11    1    4    4    0    0 -0.37785044098E-01  0.37463505077E-01  0.35119878690E-01  0.63756495907E-01  0.51100000000E-03 0.  1.
</event>
<event>
 7    1  0.2510721E+004  0.1043930E+01  0.7957747E-01            NaN
         13   -1    0    0    0    0  0.00000000000E+00  0.00000000000E+00  0.74505805969E-08  0.10566000000E+00  0.10566000000E+00 0. -1.
     999900   -1    0    0    0    0 -0.00000000000E+00 -0.00000000000E+00 -0.74505805969E-08  0.93827000000E+00  0.93827000000E+00 0.  1.
     999903    2    1    2    0    0  0.11604155745E+00  0.83035213264E-02  0.17415336182E-01  0.12645805053E+00  0.46408545398E-01 0.  0.
         14    1    1    2    0    0 -0.63116600227E-02  0.20158395383E-01 -0.21570375470E-01  0.30190711396E-01  0.00000000000E+00 0.  1.
     999901    1    1    2    0    0 -0.10972989743E+00 -0.28461916710E-01  0.41550392875E-02  0.88728123808E+00  0.88000000000E+00 0.  1.
        -11    1    3    3    0    0  0.37025494980E-01  0.36518691091E-02  0.28043550756E-01  0.46593189272E-01  0.51100000000E-03 0.  1.
         11    1    3    3    0    0  0.79016062474E-01  0.46516522173E-02 -0.10628214574E-01  0.79864861255E-01  0.51100000000E-03 0. -1.
</event>
<event>
 8    1  0.2039519E+004  0.1043930E+01  0.7957747E-01            NaN
         13   -1    0    0    0    0  0.00000000000E+00  0.00000000000E+00  0.74505805969E-08  0.10566000000E+00  0.10566000000E+00 0. -1.
     999900   -1    0    0    0    0 -0.00000000000E+00 -0.00000000000E+00 -0.74505805969E-08  0.93827000000E+00  0.93827000000E+00 0.  1.
     999902    2    1    2    0    0  0.61257797092E-02 -0.96701288664E-02 -0.78775856195E-02  0.10300342120E+01  0.10299404764E+01 0.  0.
     999903    2    3    3    0    0 -0.88356341179E-01 -0.95294327025E-01 -0.21928692295E-01  0.14073347091E+00  0.49367909609E-01 0.  0.
         14    1    1    2    0    0 -0.61257797092E-02  0.96701288664E-02  0.78775856195E-02  0.13895788014E-01  0.00000000000E+00 0.  1.
     999901    1    3    3    0    0  0.94482120888E-01  0.85624198158E-01  0.14051106676E-01  0.88930074108E+00  0.88000000000E+00 0. -1.
        -11    1    4    4    0    0 -0.72497626406E-01 -0.91820736778E-01 -0.47457091212E-02  0.11708858362E+00  0.51100000000E-03 0.  1.
         11    1    4    4    0    0 -0.15858714773E-01 -0.34735902467E-02 -0.17182983174E-01  0.23644887296E-01  0.51100000000E-03 0. -1.
</event>
<event>
 8    1  0.2039519E+004  0.1043930E+01  0.7957747E-01            NaN
         13   -1    0    0    0    0  0.00000000000E+00  0.00000000000E+00  0.74505805969E-08  0.10566000000E+00  0.10566000000E+00 0. -1.
     999900   -1    0    0    0    0 -0.00000000000E+00 -0.00000000000E+00 -0.74505805969E-08  0.93827000000E+00  0.93827000000E+00 0.  1.
     999902    2    1    2    0    0  0.35851256178E-03  0.10839556551E-01  0.10148308465E-01  0.10290769639E+01  0.10289697687E+01 0.  0.
     999903    2    3    3    0    0  0.60994439627E-01  0.12887169149E-01 -0.11499170335E+00  0.13815556951E+00  0.44468739077E-01 0.  0.
         14    1    1    2    0    0 -0.35851256178E-03 -0.10839556551E-01 -0.10148308465E-01  0.14853036127E-01  0.00000000000E+00 0.  1.
     999901    1    3    3    0    0 -0.60635927065E-01 -0.20476125977E-02  0.12514001181E+00  0.89092139436E+00  0.88000000000E+00 0. -1.
        -11    1    4    4    0    0  0.20945931841E-01 -0.48857424669E-02 -0.77679174005E-01  0.80603459822E-01  0.51100000000E-03 0.  1.
         11    1    4    4    0    0  0.40048507785E-01  0.17772911616E-01 -0.37312529343E-01  0.57552109693E-01  0.51100000000E-03 0. -1.
</event>
<event>
 8    1  0.2039519E+004  0.1043930E+01  0.7957747E-01            NaN
         13   -1    0    0    0    0  0.00000000000E+00  0.00000000000E+00  0.74505805969E-08  0.10566000000E+00  0.10566000000E+00 0.  1.
     999900   -1    0    0    0    0 -0.00000000000E+00 -0.00000000000E+00 -0.74505805969E-08  0.93827000000E+00  0.93827000000E+00 0.  1.
     999902    2    1    2    0    0  0.13407851639E-01 -0.69429003350E-03  0.36338383901E-02  0.10300211070E+01  0.10299271933E+01 0.  0.
     999903    2    3    3    0    0 -0.43068565145E-01  0.92940466992E-01  0.83812508768E-01  0.13963598098E+00  0.44506615802E-01 0.  0.
         14    1    1    2    0    0 -0.13407851639E-01  0.69429003350E-03 -0.36338383901E-02  0.13908893043E-01  0.00000000000E+00 0.  1.
     999901    1    3    3    0    0  0.56476416784E-01 -0.93634757026E-01 -0.80178670378E-01  0.89038512598E+00  0.88000000000E+00 0.  1.
        -11    1    4    4    0    0 -0.44298305653E-02  0.47364137375E-01  0.56714784069E-01  0.74025757417E-01  0.51100000000E-03 0.  1.
         11    1    4    4    0    0 -0.38638734580E-01  0.45576329617E-01  0.27097724700E-01  0.65610223564E-01  0.51100000000E-03 0. -1.
</event>
<event>
 8    1  0.2039519E+004  0.1043930E+01  0.7957747E-01            NaN
         13   -1    0    0    0    0  0.00000000000E+00  0.00000000000E+00  0.74505805969E-08  0.10566000000E+00  0.10566000000E+00 0. -1.
     999900   -1    0    0    0    0 -0.00000000000E+00 -0.00000000000E+00 -0.74505805969E-08  0.93827000000E+00  0.93827000000E+00 0.  1.
     999902    2    1    2    0    0 -0.11804598867E-01 -0.16783841983E-03 -0.79845517646E-02  0.10296776391E+01  0.10295789968E+01 0.  0.
     999903    2    3    3    0    0 -0.10766841897E+00 -0.78018306270E-01  0.11661383842E-01  0.14083764781E+00  0.44943415644E-01 0.  0.
         14    1    1    2    0    0  0.11804598867E-01  0.16783841983E-03  0.79845517646E-02  0.14252360893E-01  0.00000000000E+00 0.  1.
     999901    1    3    3    0    0  0.95863820102E-01  0.77850467850E-01 -0.19645935607E-01  0.88883999130E+00  0.88000000000E+00 0.  1.
        -11    1    4    4    0    0 -0.82203408661E-01 -0.33921965226E-01  0.13128953267E-01  0.89892884341E-01  0.51100000000E-03 0. -1.
         11    1    4    4    0    0 -0.25465010309E-01 -0.44096341044E-01 -0.14675694255E-02  0.50944763465E-01  0.51100000000E-03 0.  1.
</event>
<event>
 8    1  0.2039519E+004  0.1043930E+01  0.7957747E-01            NaN
         13   -1    0    0    0    0  0.00000000000E+00  0.00000000000E+00  0.74505805969E-08  0.10566000000E+00  0.10566000000E+00 0. -1.
     999900   -1    0    0    0    0 -0.00000000000E+00 -0.00000000000E+00 -0.74505805969E-08  0.93827000000E+00  0.93827000000E+00 0.  1.
     999902    2    1    2    0    0  0.72373086597E-02 -0.10261275914E-01 -0.67166737663E-02  0.10296897006E+01  0.10295912264E+01 0.  0.
     999903    2    3    3    0    0 -0.40718247615E-01 -0.10548287793E+00  0.69675701777E-01  0.13996913555E+00  0.44181922349E-01 0.  0.
         14    1    1    2    0    0 -0.72373086597E-02  0.10261275914E-01  0.67166737663E-02  0.14240299382E-01  0.00000000000E+00 0. -1.
     999901    1    3    3    0    0  0.47955556275E-01  0.95221602016E-01 -0.76392375543E-01  0.88972056507E+00  0.88000000000E+00 0.  1.
        -11    1    4    4    0    0 -0.17994739161E-01 -0.69891786335E-01  0.65621250545E-01  0.97545282196E-01  0.51100000000E-03 0. -1.
         11    1    4    4    0    0 -0.22723508454E-01 -0.35591091595E-01  0.40544512319E-02  0.42423853351E-01  0.51100000000E-03 0.  1.
</event>
<event>
 8    1  0.2039519E+004  0.1043930E+01  0.7957747E-01            NaN
         13   -1    0    0    0    0  0.00000000000E+00  0.00000000000E+00  0.74505805969E-08  0.10566000000E+00  0.10566000000E+00 0.  1.
     999900   -1    0    0    0    0 -0.00000000000E+00 -0.00000000000E+00 -0.74505805969E-08  0.93827000000E+00  0.93827000000E+00 0. -1.
     999902    2    1    2    0    0 -0.12699576675E-01 -0.57710490791E-02  0.82141693245E-03  0.10299564900E+01  0.10298616957E+01 0.  0.
     999903    2    3    3    0    0 -0.11117780986E+00 -0.70655215081E-01 -0.25168032459E-01  0.14170913209E+00  0.45775358377E-01 0.  0.
         14    1    1    2    0    0  0.12699576675E-01  0.57710490791E-02 -0.82141693245E-03  0.13973509973E-01  0.00000000000E+00 0. -1.
     999901    1    3    3    0    0  0.98478233188E-01  0.64884166002E-01  0.25989449392E-01  0.88824735794E+00  0.88000000000E+00 0. -1.
        -11    1    4    4    0    0 -0.73667576180E-01 -0.55332080696E-01 -0.37316249894E-01  0.99404801501E-01  0.51100000000E-03 0. -1.
         11    1    4    4    0    0 -0.37510233683E-01 -0.15323134385E-01  0.12148217435E-01  0.42304330584E-01  0.51100000000E-03 0.  1.
</event>
<event>
 8    1  0.2039519E+004  0.1043930E+01  0.7957747E-01            NaN
         13   -1    0    0    0    0  0.00000000000E+00  0.00000000000E+00  0.74505805969E-08  0.10566000000E+00  0.10566000000E+00 0. -1.
     999900   -1    0    0    0    0 -0.00000000000E+00 -0.00000000000E+00 -0.74505805969E-08  0.93827000000E+00  0.93827000000E+00 0. -1.
     999902    2    1    2    0    0  0.22255173122E-02  0.13754280943E-01  0.15529497362E-02  0.10299105555E+01  0.10298151327E+01 0.  0.
     999903    2    3    3    0    0 -0.39701919812E-01  0.77963180434E-01  0.10107572477E+00  0.14098678175E+00  0.44793644099E-01 0.  0.
         14    1    1    2    0    0 -0.22255173122E-02 -0.13754280943E-01 -0.15529497362E-02  0.14019444513E-01  0.00000000000E+00 0. -1.
     999901    1    3    3    0    0  0.41927437124E-01 -0.64208899491E-01 -0.99522775033E-01  0.88892377373E+00  0.88000000000E+00 0. -1.
        -11    1    4    4    0    0 -0.17702192038E-01  0.15383114877E-01  0.45988996504E-02  0.23904368330E-01  0.51100000000E-03 0. -1.
         11    1    4    4    0    0 -0.21999727774E-01  0.62580065557E-01  0.96476825119E-01  0.11708241342E+00  0.51100000000E-03 0.  1.
</event>
<event>
 8    1  0.2039519E+004  0.1043930E+01  0.7957747E-01            NaN
         13   -1    0    0    0    0  0.00000000000E+00  0.00000000000E+00  0.74505805969E-08  0.10566000000E+00  0.10566000000E+00 0.  1.
     999900   -1    0    0    0    0 -0.00000000000E+00 -0.00000000000E+00 -0.74505805969E-08  0.93827000000E+00  0.93827000000E+00 0. -1.
     999902    2    1    2    0    0  0.98032589480E-02 -0.55234268577E-02  0.80655130801E-02  0.10300857004E+01  0.10299926629E+01 0.  0.
     999903    2    3    3    0    0  0.18069416101E-01  0.13320995772E+00  0.86336837969E-02  0.13917851995E+00  0.34996046731E-01 0.  0.
         14    1    1    2    0    0 -0.98032589480E-02  0.55234268577E-02 -0.80655130801E-02  0.13844299603E-01  0.00000000000E+00 0. -1.
     999901    1    3    3    0    0 -0.82661571531E-02 -0.13873338458E+00 -0.56817071678E-03  0.89090718044E+00  0.88000000000E+00 0. -1.
        -11    1    4    4    0    0  0.44143032994E-02  0.10611103155E+00 -0.40600603081E-02  0.10628161788E+00  0.51100000000E-03 0. -1.
         11    1    4    4    0    0  0.13655112802E-01  0.27098926172E-01  0.12693744105E-01  0.32896902069E-01  0.51100000000E-03 0.  1.
</event>
<event>
 8    1  0.2039519E+004  0.1043930E+01  0.7957747E-01            NaN
         13   -1    0    0    0    0  0.00000000000E+00  0.00000000000E+00  0.74505805969E-08  0.10566000000E+00  0.10566000000E+00 0. -1.
     999900   -1    0    0    0    0 -0.00000000000E+00 -0.00000000000E+00 -0.74505805969E-08  0.93827000000E+00  0.93827000000E+00 0.  1.
     999902    2    1    2    0    0  0.46882905661E-02  0.38238932443E-02  0.12289124272E-01  0.10302323796E+01  0.10301413162E+01 0.  0.
     999903    2    3    3    0    0 -0.76457390331E-01 -0.78399124432E-01 -0.72453166577E-01  0.13864587121E+00  0.44509111531E-01 0.  0.
         14    1    1    2    0    0 -0.46882905661E-02 -0.38238932443E-02 -0.12289124272E-01  0.13697620354E-01  0.00000000000E+00 0.  1.
     999901    1    3    3    0    0  0.81145680897E-01  0.82223017676E-01  0.84742290849E-01  0.89158650843E+00  0.88000000000E+00 0. -1.
        -11    1    4    4    0    0 -0.39684303262E-01 -0.48387186248E-01 -0.65638554839E-01  0.90690929650E-01  0.51100000000E-03 0. -1.
         11    1    4    4    0    0 -0.36773087069E-01 -0.30011938184E-01 -0.68146117377E-02  0.47954941562E-01  0.51100000000E-03 0.  1.
</event>
<event>
 8    1  0.2039519E+004  0.1043930E+01  0.7957747E-01            NaN
         13   -1    0    0    0    0  0.00000000000E+00  0.00000000000E+00  0.74505805969E-08  0.10566000000E+00  0.10566000000E+00 0.  1.
     999900   -1    0    0    0    0 -0.00000000000E+00 -0.00000000000E+00 -0.74505805969E-08  0.93827000000E+00  0.93827000000E+00 0.  1.
     999902    2    1    2    0    0 -0.64669918524E-03 -0.10376764713E-01  0.95813545733E-02  0.10297914774E+01  0.10296944154E+01 0.  0.
     999903    2    3    3    0    0 -0.49491320474E-01  0.70996443192E-01 -0.98247524147E-01  0.13814442667E+00  0.44061557747E-01 0.  0.
         14    1    1    2    0    0  0.64669918524E-03  0.10376764713E-01 -0.95813545733E-02  0.14138522596E-01  0.00000000000E+00 0. -1.
     999901    1    3    3    0    0  0.48844621289E-01 -0.81373207905E-01  0.10782887872E+00  0.89164705073E+00  0.88000000000E+00 0. -1.
        -11    1    4    4    0    0 -0.77250510884E-02  0.44365785924E-01 -0.62590474414E-01  0.77109195193E-01  0.51100000000E-03 0. -1.
         11    1    4    4    0    0 -0.41766269386E-01  0.26630657268E-01 -0.35657049734E-01  0.61035231479E-01  0.51100000000E-03 0.  1.
</event>
<event>
 8    1  0.2039519E+004  0.1043930E+01  0.7957747E-01            NaN
         13   -1    0    0    0    0  0.00000000000E+00  0.00000000000E+00  0.74505805969E-08  0.10566000000E+00  0.10566000000E+00 0. -1.
     999900   -1    0    0    0    0 -0.00000000000E+00 -0.00000000000E+00 -0.74505805969E-08  0.93827000000E+00  0.93827000000E+00 0.  1.
     999902    2    1    2    0    0 -0.77809680208E-02 -0.67393511642E-02  0.86863624509E-02  0.10304609536E+01  0.10303729236E+01 0.  0.
     999903    2    3    3    0    0  0.61232857223E-01  0.29357440453E-01  0.11471787012E+00  0.14068088695E+00  0.44939961221E-01 0.  0.
         14    1    1    2    0    0  0.77809680208E-02  0.67393511642E-02 -0.86863624509E-02  0.13469046369E-01  0.00000000000E+00 0.  1.
     999901    1    3    3    0    0 -0.69013825243E-01 -0.36096791617E-01 -0.10603150767E+00  0.88978006668E+00  0.88000000000E+00 0.  1.
        -11    1    4    4    0    0  0.50296276705E-01  0.26434186190E-01  0.52249389307E-01  0.77192884736E-01  0.51100000000E-03 0. -1.
         11    1    4    4    0    0  0.10936580517E-01  0.29232542622E-02  0.62468480816E-01  0.63488002216E-01  0.51100000000E-03 0.  1.
</event>
<event>
 8    1  0.2039519E+004  0.1043930E+01  0.7957747E-01            NaN
         13   -1    0    0    0    0  0.00000000000E+00  0.00000000000E+00  0.74505805969E-08  0.10566000000E+00  0.10566000000E+00 0.  1.
     999900   -1    0    0    0    0 -0.00000000000E+00 -0.00000000000E+00 -0.74505805969E-08  0.93827000000E+00  0.93827000000E+00 0.  1.
     999902    2    1    2    0    0  0.10091497715E-01 -0.90786827058E-02  0.78928937120E-03  0.10303328024E+01  0.10302430780E+01 0.  0.
     999903    2    3    3    0    0 -0.10658066238E+00 -0.24092391330E-03  0.77807387124E-01  0.13925352065E+00  0.44475362672E-01 0.  0.
         14    1    1    2    0    0 -0.10091497715E-01  0.90786827058E-02 -0.78928937120E-03  0.13597197634E-01  0.00000000000E+00 0.  1.
     999901    1    3    3    0    0  0.11667216009E+00 -0.88377587925E-02 -0.77018097753E-01  0.89107928172E+00  0.88000000000E+00 0.  1.
        -11    1    4    4    0    0 -0.81849881791E-01 -0.16969410966E-01  0.68202780627E-01  0.10788533016E+00  0.51100000000E-03 0.  1.
         11    1    4    4    0    0 -0.24730780588E-01  0.16728487053E-01  0.96046064969E-02  0.31368190488E-01  0.51100000000E-03 0. -1.
</event>
<event>
 8    1  0.2039519E+004  0.1043930E+01  0.7957747E-01            NaN
         13   -1    0    0    0    0  0.00000000000E+00  0.00000000000E+00  0.74505805969E-08  0.10566000000E+00  0.10566000000E+00 0. -1.
     999900   -1    0    0    0    0 -0.00000000000E+00 -0.00000000000E+00 -0.74505805969E-08  0.93827000000E+00  0.93827000000E+00 0. -1.
     999902    2    1    2    0    0  0.10179633195E-01  0.60079234653E-02 -0.36168711342E-02  0.10315686961E+01  0.10314946306E+01 0.  0.
     999903    2    3    3    0    0 -0.87922059315E-01 -0.60721089513E-01 -0.78738617728E-01  0.14043459845E+00  0.45877742918E-01 0.  0.
         14    1    1    2    0    0 -0.10179633195E-01 -0.60079234653E-02  0.36168711342E-02  0.12361303861E-01  0.00000000000E+00 0.  1.
     999901    1    3    3    0    0  0.98101692509E-01  0.66729012978E-01  0.75121746594E-01  0.89113409769E+00  0.88000000000E+00 0.  1.
        -11    1    4    4    0    0 -0.43346424014E-01 -0.84110909536E-02 -0.14822911912E-01  0.46579381323E-01  0.51100000000E-03 0.  1.
         11    1    4    4    0    0 -0.44575635301E-01 -0.52309998559E-01 -0.63915705816E-01  0.93855217131E-01  0.51100000000E-03 0. -1.
</event>
<event>
 8    1  0.2039519E+004  0.1043930E+01  0.7957747E-01            NaN
         13   -1    0    0    0    0  0.00000000000E+00  0.00000000000E+00  0.74505805969E-08  0.10566000000E+00  0.10566000000E+00 0. -1.
     999900   -1    0    0    0    0 -0.00000000000E+00 -0.00000000000E+00 -0.74505805969E-08  0.93827000000E+00  0.93827000000E+00 0.  1.
     999902    2    1    2    0    0 -0.15564507741E-01 -0.12993853783E-01  0.25098864686E-02  0.10234997854E+01  0.10232958600E+01 0.  0.
     999903    2    3    3    0    0  0.80428663927E-01 -0.26335310601E-01 -0.93655669946E-01  0.13297157267E+00  0.41805933312E-01 0.  0.
         14    1    1    2    0    0  0.15564507741E-01  0.12993853783E-01 -0.25098864686E-02  0.20430214571E-01  0.00000000000E+00 0.  1.
     999901    1    3    3    0    0 -0.95993171668E-01  0.13341456819E-01  0.96165556414E-01  0.89052821276E+00  0.88000000000E+00 0. -1.
        -11    1    4    4    0    0  0.46676448914E-01 -0.34411901743E-01 -0.46027952252E-01  0.74038526284E-01  0.51100000000E-03 0. -1.
         11    1    4    4    0    0  0.33752215013E-01  0.80765911416E-02 -0.47627717694E-01  0.58933046387E-01  0.51100000000E-03 0.  1.
</event>
<event>
 8    1  0.2039519E+004  0.1043930E+01  0.7957747E-01            NaN
         13   -1    0    0    0    0  0.00000000000E+00  0.00000000000E+00  0.74505805969E-08  0.10566000000E+00  0.10566000000E+00 0.  1.
     999900   -1    0    0    0    0 -0.00000000000E+00 -0.00000000000E+00 -0.74505805969E-08  0.93827000000E+00  0.93827000000E+00 0. -1.
     999902    2    1    2    0    0  0.12893746995E-02 -0.74798864012E-02 -0.13215003327E-01  0.10286903313E+01  0.10285774401E+01 0.  0.
     999903    2    3    3    0    0 -0.51360492059E-01  0.72590704784E-01 -0.97092661648E-01  0.13952287265E+00  0.46177229031E-01 0.  0.
         14    1    1    2    0    0 -0.12893746995E-02  0.74798864012E-02  0.13215003327E-01  0.15239668652E-01  0.00000000000E+00 0.  1.
     999901    1    3    3    0    0  0.52649866758E-01 -0.80070591185E-01  0.83877658321E-01  0.88916745870E+00  0.88000000000E+00 0.  1.
        -11    1    4    4    0    0  0.73116177799E-04  0.23758996318E-01 -0.68247004799E-02  0.24725147313E-01  0.51100000000E-03 0.  1.
         11    1    4    4    0    0 -0.51433608237E-01  0.48831708466E-01 -0.90267961168E-01  0.11479772534E+00  0.51100000000E-03 0. -1.
</event>
<event>
 8    1  0.2039519E+004  0.1043930E+01  0.7957747E-01            NaN
         13   -1    0    0    0    0  0.00000000000E+00  0.00000000000E+00  0.74505805969E-08  0.10566000000E+00  0.10566000000E+00 0.  1.
     999900   -1    0    0    0    0 -0.00000000000E+00 -0.00000000000E+00 -0.74505805969E-08  0.93827000000E+00  0.93827000000E+00 0.  1.
     999902    2    1    2    0    0 -0.47661091859E-02  0.80107891412E-02 -0.10284868854E-01  0.10300495437E+01  0.10299560163E+01 0.  0.
     999903    2    3    3    0    0  0.10842733733E+00  0.63199655210E-01 -0.44117555617E-01  0.14044108042E+00  0.45018379100E-01 0.  0.
         14    1    1    2    0    0  0.47661091859E-02 -0.80107891412E-02  0.10284868854E-01  0.13880456289E-01  0.00000000000E+00 0.  1.
     999901    1    3    3    0    0 -0.11319344651E+00 -0.55188866069E-01  0.33832686763E-01  0.88960846329E+00  0.88000000000E+00 0. -1.
        -11    1    4    4    0    0  0.62971313270E-01  0.22601629911E-01 -0.42903116375E-01  0.79480554133E-01  0.51100000000E-03 0. -1.
         11    1    4    4    0    0  0.45456024057E-01  0.40598025299E-01 -0.12144392416E-02  0.60960526284E-01  0.51100000000E-03 0.  1.
</event>
<event>
 8    1  0.2039519E+004  0.1043930E+01  0.7957747E-01            NaN
         13   -1    0    0    0    0  0.00000000000E+00  0.00000000000E+00  0.74505805969E-08  0.10566000000E+00  0.10566000000E+00 0.  1.
     999900   -1    0    0    0    0 -0.00000000000E+00 -0.00000000000E+00 -0.74505805969E-08  0.93827000000E+00  0.93827000000E+00 0.  1.
     999902    2    1    2    0    0 -0.11757827263E-01  0.49110293685E-02  0.75572775612E-02  0.10291152386E+01  0.10290085992E+01 0.  0.
     999903    2    3    3    0    0 -0.37182362086E-01 -0.47580884402E-01  0.11825308033E+00  0.14026465006E+00  0.45209649847E-01 0.  0.
         14    1    1    2    0    0  0.11757827263E-01 -0.49110293685E-02 -0.75572775612E-02  0.14814761407E-01  0.00000000000E+00 0. -1.
     999901    1    3    3    0    0  0.25424534823E-01  0.52491913770E-01 -0.11069580277E+00  0.88885058853E+00  0.88000000000E+00 0.  1.
        -11    1    4    4    0    0 -0.26669972273E-01 -0.30058138757E-01  0.11184070676E+00  0.11884184422E+00  0.51100000000E-03 0.  1.
         11    1    4    4    0    0 -0.10512389813E-01 -0.17522745645E-01  0.64123735636E-02  0.21422805844E-01  0.51100000000E-03 0. -1.
</event>
<event>
 8    1  0.2039519E+004  0.1043930E+01  0.7957747E-01            NaN
         13   -1    0    0    0    0  0.00000000000E+00  0.00000000000E+00  0.74505805969E-08  0.10566000000E+00  0.10566000000E+00 0.  1.
     999900   -1    0    0    0    0 -0.00000000000E+00 -0.00000000000E+00 -0.74505805969E-08  0.93827000000E+00  0.93827000000E+00 0.  1.
     999902    2    1    2    0    0 -0.11292446128E-01 -0.68417171721E-02 -0.56694180939E-02  0.10295609104E+01  0.10294606343E+01 0.  0.
     999903    2    3    3    0    0 -0.99990277755E-01 -0.87611071026E-01 -0.15276435530E-01  0.14136989008E+00  0.45588605227E-01 0.  0.
         14    1    1    2    0    0  0.11292446128E-01  0.68417171721E-02  0.56694180939E-02  0.14369089565E-01  0.00000000000E+00 0. -1.
     999901    1    3    3    0    0  0.88697831627E-01  0.80769353854E-01  0.96070174357E-02  0.88819102036E+00  0.88000000000E+00 0. -1.
        -11    1    4    4    0    0 -0.70132508637E-01 -0.51906050001E-01 -0.30448193016E-01  0.92412988120E-01  0.51100000000E-03 0.  1.
         11    1    4    4    0    0 -0.29857769118E-01 -0.35705021025E-01  0.15171757487E-01  0.48956901958E-01  0.51100000000E-03 0. -1.
</event>
<event>
 8    1  0.2039519E+004  0.1043930E+01  0.7957747E-01            NaN
         13   -1    0    0    0    0  0.00000000000E+00  0.00000000000E+00  0.74505805969E-08  0.10566000000E+00  0.10566000000E+00 0.  1.
     999900   -1    0    0    0    0 -0.00000000000E+00 -0.00000000000E+00 -0.74505805969E-08  0.93827000000E+00  0.93827000000E+00 0.  1.
     999902    2    1    2    0    0 -0.67903240506E-02  0.11180784508E-01  0.33440592792E-02  0.10304281047E+01  0.10303396420E+01 0.  0.
     999903    2    3    3    0    0 -0.25929980934E-01 -0.90137555019E-01  0.93763466080E-01  0.13980618636E+00  0.44238438452E-01 0.  0.
         14    1    1    2    0    0  0.67903240506E-02 -0.11180784508E-01 -0.33440592792E-02  0.13501895252E-01  0.00000000000E+00 0. -1.
     999901    1    3    3    0    0  0.19139656883E-01  0.10131833953E+00 -0.90419406800E-01  0.89062191839E+00  0.88000000000E+00 0.  1.
        -11    1    4    4    0    0 -0.11036680451E-01 -0.18619333356E-01  0.50394771419E-01  0.54848719195E-01  0.51100000000E-03 0.  1.
         11    1    4    4    0    0 -0.14893300483E-01 -0.71518221663E-01  0.43368694661E-01  0.84957467163E-01  0.51100000000E-03 0. -1.
</event>
<event>
 8    1  0.2039519E+004  0.1043930E+01  0.7957747E-01            NaN
         13   -1    0    0    0    0  0.00000000000E+00  0.00000000000E+00  0.74505805969E-08  0.10566000000E+00  0.10566000000E+00 0.  1.
     999900   -1    0    0    0    0 -0.00000000000E+00 -0.00000000000E+00 -0.74505805969E-08  0.93827000000E+00  0.93827000000E+00 0. -1.
     999902    2    1    2    0    0  0.17828430510E-03  0.15896022829E-01  0.56258066151E-02  0.10270668737E+01  0.10269284289E+01 0.  0.
     999903    2    3    3    0    0 -0.95233086714E-01 -0.24500312412E-01 -0.84745448784E-01  0.13639176046E+00  0.41848717046E-01 0.  0.
         14    1    1    2    0    0 -0.17828430510E-03 -0.15896022829E-01 -0.56258066151E-02  0.16863126256E-01  0.00000000000E+00 0. -1.
     999901    1    3    3    0    0  0.95411371019E-01  0.40396335241E-01  0.90371255399E-01  0.89067511328E+00  0.88000000000E+00 0.  1.
        -11    1    4    4    0    0 -0.23122839387E-01 -0.25199185682E-01 -0.33873517472E-01  0.48138767820E-01  0.51100000000E-03 0. -1.
         11    1    4    4    0    0 -0.72110247327E-01  0.69887326995E-03 -0.50871931312E-01  0.88252992640E-01  0.51100000000E-03 0.  1.
</event>
<event>
 8    1  0.2039519E+004  0.1043930E+01  0.7957747E-01            NaN
         13   -1    0    0    0    0  0.00000000000E+00  0.00000000000E+00  0.74505805969E-08  0.10566000000E+00  0.10566000000E+00 0.  1.
     999900   -1    0    0    0    0 -0.00000000000E+00 -0.00000000000E+00 -0.74505805969E-08  0.93827000000E+00  0.93827000000E+00 0. -1.
     999902    2    1    2    0    0  0.27271404776E-02 -0.92953839387E-02 -0.74674309766E-02  0.10316987293E+01  0.10316262230E+01 0.  0.
     999903    2    3    3    0    0  0.61517660383E-01  0.11491259093E+00 -0.30156581933E-01  0.14074488996E+00  0.43707877132E-01 0.  0.
         14    1    1    2    0    0 -0.27271404776E-02  0.92953839387E-02  0.74674309766E-02  0.12231270708E-01  0.00000000000E+00 0. -1.
     999901    1    3    3    0    0 -0.58790519905E-01 -0.12420797486E+00  0.22689150957E-01  0.89095383933E+00  0.88000000000E+00 0. -1.
        -11    1    4    4    0    0  0.15340551482E-02  0.45254997110E-01 -0.58574948164E-02  0.45661137252E-01  0.51100000000E-03 0. -1.
         11    1    4    4    0    0  0.59983605234E-01  0.69657593816E-01 -0.24299087117E-01  0.95083752707E-01  0.51100000000E-03 0.  1.
</event>
<event>
 8    1  0.2039519E+004  0.1043930E+01  0.7957747E-01            NaN
         13   -1    0    0    0    0  0.00000000000E+00  0.00000000000E+00  0.74505805969E-08  0.10566000000E+00  0.10566000000E+00 0.  1.
     999900   -1    0    0    0    0 -0.00000000000E+00 -0.00000000000E+00 -0.74505805969E-08  0.93827000000E+00  0.93827000000E+00 0. -1.
     999902    2    1    2    0    0 -0.96788104223E-02  0.76369907696E-02  0.66226323821E-02  0.10299349202E+01  0.10298398310E+01 0.  0.
     999903    2    3    3    0    0  0.93448563319E-01 -0.84128543076E-03  0.96448724753E-01  0.13933070773E+00  0.37112637504E-01 0.  0.
         14    1    1    2    0    0  0.96788104223E-02 -0.76369907696E-02 -0.66226323821E-02  0.13995079809E-01  0.00000000000E+00 0. -1.
     999901    1    3    3    0    0 -0.10312737374E+00  0.84782762003E-02 -0.89826092371E-01  0.89060421246E+00  0.88000000000E+00 0. -1.
        -11    1    4    4    0    0  0.71171489035E-01  0.29671175813E-02  0.48087504331E-01  0.85946808155E-01  0.51100000000E-03 0. -1.
         11    1    4    4    0    0  0.22277074284E-01 -0.38084030121E-02  0.48361220422E-01  0.53383899575E-01  0.51100000000E-03 0.  1.
</event>
<event>
 8    1  0.2039519E+004  0.1043930E+01  0.7957747E-01            NaN
         13   -1    0    0    0    0  0.00000000000E+00  0.00000000000E+00  0.74505805969E-08  0.10566000000E+00  0.10566000000E+00 0.  1.
     999900   -1    0    0    0    0 -0.00000000000E+00 -0.00000000000E+00 -0.74505805969E-08  0.93827000000E+00  0.93827000000E+00 0.  1.
     999902    2    1    2    0    0 -0.95489904323E-02 -0.28785519387E-03  0.10787348108E-01  0.10295205254E+01  0.10294196808E+01 0.  0.
     999903    2    3    3    0    0  0.74471511471E-01 -0.79479303024E-01 -0.71871492192E-01  0.13813777146E+00  0.45316298223E-01 0.  0.
         14    1    1    2    0    0  0.95489904323E-02  0.28785519387E-03 -0.10787348108E-01  0.14409474594E-01  0.00000000000E+00 0. -1.
     999901    1    3    3    0    0 -0.84020501903E-01  0.79191447830E-01  0.82658840299E-01  0.89138275394E+00  0.88000000000E+00 0. -1.
        -11    1    4    4    0    0  0.10715848630E-01 -0.34975711930E-01 -0.39715338191E-01  0.53997213312E-01  0.51100000000E-03 0.  1.
         11    1    4    4    0    0  0.63755662841E-01 -0.44503591094E-01 -0.32156154000E-01  0.84140558149E-01  0.51100000000E-03 0. -1.
</event>
<event>
 7    1  0.2698410E+004  0.1043930E+01  0.7957747E-01            NaN
         13   -1    0    0    0    0  0.00000000000E+00  0.00000000000E+00  0.74505805969E-08  0.10566000000E+00  0.10566000000E+00 0. -1.
     999900   -1    0    0    0    0 -0.00000000000E+00 -0.00000000000E+00 -0.74505805969E-08  0.93827000000E+00  0.93827000000E+00 0. -1.
     999903    2    1    2    0    0 -0.86095558896E-01  0.13601630952E-01 -0.39048074914E-02  0.98721049623E-01  0.46186020515E-01 0.  0.
         14    1    1    2    0    0  0.85410990565E-02 -0.53647521238E-01  0.26843288780E-01  0.60593473747E-01  0.00000000000E+00 0. -1.
     999901    1    1    2    0    0  0.77554459839E-01  0.40045890286E-01 -0.22938481289E-01  0.88461547663E+00  0.88000000000E+00 0. -1.
        -11    1    3    3    0    0 -0.38970409341E-01  0.83441355166E-02  0.21115544688E-01  0.45104819590E-01  0.51100000000E-03 0. -1.
         11    1    3    3    0    0 -0.47125149555E-01  0.52574954357E-02 -0.25020352180E-01  0.53616230033E-01  0.51100000000E-03 0.  1.
</event>
<event>
 8    1  0.2039519E+004  0.1043930E+01  0.7957747E-01            NaN
         13   -1    0    0    0    0  0.00000000000E+00  0.00000000000E+00  0.74505805969E-08  0.10566000000E+00  0.10566000000E+00 0.  1.
     999900   -1    0    0    0    0 -0.00000000000E+00 -0.00000000000E+00 -0.74505805969E-08  0.93827000000E+00  0.93827000000E+00 0.  1.
     999902    2    1    2    0    0 -0.35976096906E-02  0.74071244111E-02 -0.10792940733E-01  0.10303544390E+01  0.10302650019E+01 0.  0.
     999903    2    3    3    0    0  0.11961609642E-01 -0.66159269300E-01 -0.11530075873E+00  0.14098613078E+00  0.45416903143E-01 0.  0.
         14    1    1    2    0    0  0.35976096906E-02 -0.74071244111E-02  0.10792940733E-01  0.13575561027E-01  0.00000000000E+00 0.  1.
     999901    1    3    3    0    0 -0.15559219333E-01  0.73566393712E-01  0.10450781799E+00  0.88936830819E+00  0.88000000000E+00 0. -1.
        -11    1    4    4    0    0  0.79236219974E-02 -0.23982712399E-01 -0.85576309406E-01  0.89227350808E-01  0.51100000000E-03 0.  1.
         11    1    4    4    0    0  0.40379876447E-02 -0.42176556901E-01 -0.29724449319E-01  0.51758779976E-01  0.51100000000E-03 0. -1.
</event>
<event>
 8    1  0.2039519E+004  0.1043930E+01  0.7957747E-01            NaN
         13   -1    0    0    0    0  0.00000000000E+00  0.00000000000E+00  0.74505805969E-08  0.10566000000E+00  0.10566000000E+00 0. -1.
     999900   -1    0    0    0    0 -0.00000000000E+00 -0.00000000000E+00 -0.74505805969E-08  0.93827000000E+00  0.93827000000E+00 0. -1.
     999902    2    1    2    0    0  0.83156141176E-02  0.98973420889E-02  0.14942893973E-03  0.10310021561E+01  0.10309211011E+01 0.  0.
     999903    2    3    3    0    0  0.30415136397E-01  0.10776335121E+00 -0.75033263882E-01  0.14211600934E+00  0.45043856791E-01 0.  0.
         14    1    1    2    0    0 -0.83156141176E-02 -0.98973420889E-02 -0.14942893973E-03  0.12927843888E-01  0.00000000000E+00 0.  1.
     999901    1    3    3    0    0 -0.22099522279E-01 -0.97866009125E-01  0.75182692821E-01  0.88888614677E+00  0.88000000000E+00 0.  1.
        -11    1    4    4    0    0  0.27044272095E-01  0.64766501274E-01 -0.21578737026E-01  0.73430207361E-01  0.51100000000E-03 0. -1.
         11    1    4    4    0    0  0.33708643019E-02  0.42996849940E-01 -0.53454526856E-01  0.68685801977E-01  0.51100000000E-03 0.  1.
</event>
<event>
 8    1  0.2039519E+004  0.1043930E+01  0.7957747E-01            NaN
         13   -1    0    0    0    0  0.00000000000E+00  0.00000000000E+00  0.74505805969E-08  0.10566000000E+00  0.10566000000E+00 0.  1.
     999900   -1    0    0    0    0 -0.00000000000E+00 -0.00000000000E+00 -0.74505805969E-08  0.93827000000E+00  0.93827000000E+00 0.  1.
     999902    2    1    2    0    0  0.30901023409E-02  0.12322108542E-01  0.58414081177E-02  0.10299476847E+01  0.10298527701E+01 0.  0.
     999903    2    3    3    0    0 -0.44525981561E-01  0.79429281900E-01  0.98148417160E-01  0.14130194650E+00  0.45183563791E-01 0.  0.
         14    1    1    2    0    0 -0.30901023409E-02 -0.12322108542E-01 -0.58414081177E-02  0.13982315266E-01  0.00000000000E+00 0. -1.
     999901    1    3    3    0    0  0.47616083902E-01 -0.67107173358E-01 -0.92307009042E-01  0.88864573823E+00  0.88000000000E+00 0.  1.
        -11    1    4    4    0    0 -0.25462652957E-01  0.78782496239E-02  0.34910042897E-01  0.43924773521E-01  0.51100000000E-03 0. -1.
         11    1    4    4    0    0 -0.19063328604E-01  0.71551032276E-01  0.63238374262E-01  0.97377172980E-01  0.51100000000E-03 0.  1.
</event>
<event>
 7    1  0.2039519E+004  0.1043930E+01  0.7957747E-01            NaN
         13   -1    0    0    0    0  0.00000000000E+00  0.00000000000E+00  0.74505805969E-08  0.10566000000E+00  0.10566000000E+00 0.  1.
     999900   -1    0    0    0    0 -0.00000000000E+00 -0.00000000000E+00 -0.74505805969E-08  0.93827000000E+00  0.93827000000E+00 0.  1.
     999902    2    1    2    0    0 -0.12092921843E-01  0.31676782536E-02  0.10781456526E-01  0.10274220398E+01  0.10272894116E+01 0.  0.
         14    1    1    2    0    0  0.12092921843E-01 -0.31676782536E-02 -0.10781456526E-01  0.16507960172E-01  0.00000000000E+00 0. -1.
     999901    1    3    3    0    0  0.75781514843E-02 -0.88158354463E-01 -0.54206592165E-01  0.88609687872E+00  0.88000000000E+00 0.  1.
        -11    1    3    3    0    0  0.20710574026E-01  0.41667477102E-01  0.61637391131E-01  0.77230406130E-01  0.51100000000E-03 0.  1.
         11    1    3    3    0    0 -0.40381647354E-01  0.49658555615E-01  0.33506575599E-02  0.64094754979E-01  0.51100000000E-03 0. -1.
</event>
<event>
 8    1  0.2039519E+004  0.1043930E+01  0.7957747E-01            NaN
         13   -1    0    0    0    0  0.00000000000E+00  0.00000000000E+00  0.74505805969E-08  0.10566000000E+00  0.10566000000E+00 0. -1.
     999900   -1    0    0    0    0 -0.00000000000E+00 -0.00000000000E+00 -0.74505805969E-08  0.93827000000E+00  0.93827000000E+00 0. -1.
     999902    2    1    2    0    0 -0.96911618468E-02 -0.10109051941E-01  0.81500759135E-03  0.10299023207E+01  0.10298067850E+01 0.  0.
     999903    2    3    3    0    0 -0.10663635057E-01  0.12738973326E+00  0.30858328838E-01  0.13871801721E+00  0.44142888313E-01 0.  0.
         14    1    1    2    0    0  0.96911618468E-02  0.10109051941E-01 -0.81500759135E-03  0.14027679297E-01  0.00000000000E+00 0. -1.
     999901    1    3    3    0    0  0.97247321044E-03 -0.13749878520E+00 -0.30043321247E-01  0.89118430349E+00  0.88000000000E+00 0. -1.
        -11    1    4    4    0    0 -0.25704522042E-01  0.10590214859E+00  0.26028631723E-01  0.11204346620E+00  0.51100000000E-03 0.  1.
         11    1    4    4    0    0  0.15040886985E-01  0.21487584672E-01  0.48296971147E-02  0.26674551010E-01  0.51100000000E-03 0. -1.
</event>
<event>
 8    1  0.2039519E+004  0.1043930E+01  0.7957747E-01            NaN
         13   -1    0    0    0    0  0.00000000000E+00  0.00000000000E+00  0.74505805969E-08  0.10566000000E+00  0.10566000000E+00 0. -1.
     999900   -1    0    0    0    0 -0.00000000000E+00 -0.00000000000E+00 -0.74505805969E-08  0.93827000000E+00  0.93827000000E+00 0.  1.
     999902    2    1    2    0    0  0.91943171736E-02 -0.10381414945E-01 -0.75127406536E-03  0.10300421039E+01  0.10299484755E+01 0.  0.
     999903    2    3    3    0    0  0.33018325497E-01 -0.91440593085E-01  0.92145821177E-01  0.14112813507E+00  0.44437667184E-01 0.  0.
         14    1    1    2    0    0 -0.91943171736E-02  0.10381414945E-01  0.75127406536E-03  0.13887896070E-01  0.00000000000E+00 0. -1.
     999901    1    3    3    0    0 -0.23824008323E-01  0.81059178141E-01 -0.92897095243E-01  0.88891396886E+00  0.88000000000E+00 0.  1.
        -11    1    4    4    0    0 -0.22636934248E-03 -0.23295658616E-01  0.20797880822E-02  0.23394990766E-01  0.51100000000E-03 0.  1.
         11    1    4    4    0    0  0.33244694839E-01 -0.68144934469E-01  0.90066033095E-01  0.11773314430E+00  0.51100000000E-03 0. -1.
</event>
<event>
 8    1  0.2048938E+004  0.1043930E+01  0.7957747E-01            NaN
         13   -1    0    0    0    0  0.00000000000E+00  0.00000000000E+00  0.74505805969E-08  0.10566000000E+00  0.10566000000E+00 0. -1.
     999900   -1    0    0    0    0 -0.00000000000E+00 -0.00000000000E+00 -0.74505805969E-08  0.93827000000E+00  0.93827000000E+00 0.  1.
     999902    2    1    2    0    0  0.87383568614E-02 -0.82266242812E-02 -0.60966175844E-02  0.10304687603E+01  0.10303808330E+01 0.  0.
     999903    2    3    3    0    0 -0.11989968433E-01  0.13091961556E+00  0.69164134761E-02  0.13919962111E+00  0.45221595069E-01 0.  0.
         14    1    1    2    0    0 -0.87383568614E-02  0.82266242812E-02  0.60966175844E-02  0.13461239678E-01  0.00000000000E+00 0.  1.
     999901    1    3    3    0    0  0.20728325295E-01 -0.13914623984E+00 -0.13013031061E-01  0.89126913921E+00  0.88000000000E+00 0. -1.
        -11    1    4    4    0    0  0.17236161062E-01  0.43695535142E-01  0.42903872265E-02  0.47170473636E-01  0.51100000000E-03 0. -1.
         11    1    4    4    0    0 -0.29226129495E-01  0.87224080418E-01  0.26260262497E-02  0.92029147475E-01  0.51100000000E-03 0.  1.
</event>
<event>
 8    1  0.2039519E+004  0.1043930E+01  0.7957747E-01            NaN
         13   -1    0    0    0    0  0.00000000000E+00  0.00000000000E+00  0.74505805969E-08  0.10566000000E+00  0.10566000000E+00 0. -1.
     999900   -1    0    0    0    0 -0.00000000000E+00 -0.00000000000E+00 -0.74505805969E-08  0.93827000000E+00  0.93827000000E+00 0. -1.
     999902    2    1    2    0    0  0.13644182535E-02 -0.12046705044E-01  0.38101923233E-02  0.10312216443E+01  0.10311433350E+01 0.  0.
     999903    2    3    3    0    0  0.48436124273E-01 -0.93938902913E-01  0.83152880451E-01  0.14261749184E+00  0.47484437820E-01 0.  0.
         14    1    1    2    0    0 -0.13644182535E-02  0.12046705044E-01 -0.38101923233E-02  0.12708355721E-01  0.00000000000E+00 0.  1.
     999901    1    3    3    0    0 -0.47071706020E-01  0.81892197869E-01 -0.79342688128E-01  0.88860415244E+00  0.88000000000E+00 0. -1.
        -11    1    4    4    0    0  0.59891702326E-02 -0.38474839213E-02  0.27749522201E-01  0.28652580966E-01  0.51100000000E-03 0. -1.
         11    1    4    4    0    0  0.42446954041E-01 -0.90091418992E-01  0.55403358250E-01  0.11396491087E+00  0.51100000000E-03 0.  1.
</event>
<event>
 8    1  0.2039519E+004  0.1043930E+01  0.7957747E-01            NaN
         13   -1    0    0    0    0  0.00000000000E+00  0.00000000000E+00  0.74505805969E-08  0.10566000000E+00  0.10566000000E+00 0.  1.
     999900   -1    0    0    0    0 -0.00000000000E+00 -0.00000000000E+00 -0.74505805969E-08  0.93827000000E+00  0.93827000000E+00 0. -1.
     999902    2    1    2    0    0  0.47181570031E-02  0.13062445250E-01 -0.38881802991E-02  0.10295075721E+01  0.10294065448E+01 0.  0.
     999903    2    3    3    0    0  0.67539424637E-01  0.46577491351E-01  0.10376422778E+00  0.14009270209E+00  0.46129314221E-01 0.  0.
         14    1    1    2    0    0 -0.47181570031E-02 -0.13062445250E-01  0.38881802991E-02  0.14422427932E-01  0.00000000000E+00 0.  1.
     999901    1    3    3    0    0 -0.62821267634E-01 -0.33515046102E-01 -0.10765240808E+00  0.88941486998E+00  0.88000000000E+00 0. -1.
        -11    1    4    4    0    0  0.36220605326E-01 -0.19836961169E-02  0.37667232727E-01  0.52296738357E-01  0.51100000000E-03 0. -1.
         11    1    4    4    0    0  0.31318819311E-01  0.48561187468E-01  0.66096995050E-01  0.87795963728E-01  0.51100000000E-03 0.  1.
</event>
<event>
 8    1  0.2039519E+004  0.1043930E+01  0.7957747E-01            NaN
         13   -1    0    0    0    0  0.00000000000E+00  0.00000000000E+00  0.74505805969E-08  0.10566000000E+00  0.10566000000E+00 0. -1.
     999900   -1    0    0    0    0 -0.00000000000E+00 -0.00000000000E+00 -0.74505805969E-08  0.93827000000E+00  0.93827000000E+00 0.  1.
     999902    2    1    2    0    0  0.87679277631E-02 -0.87896013358E-02  0.70687978413E-02  0.10296435886E+01  0.10295444711E+01 0.  0.
     999903    2    3    3    0    0 -0.87218820663E-01  0.39588503283E-01  0.90300962324E-01  0.13920465742E+00  0.45269201249E-01 0.  0.
         14    1    1    2    0    0 -0.87679277631E-02  0.87896013358E-02 -0.70687978413E-02  0.14286411440E-01  0.00000000000E+00 0.  1.
     999901    1    3    3    0    0  0.95986748426E-01 -0.48378104618E-01 -0.83232164483E-01  0.89043893114E+00  0.88000000000E+00 0.  1.
        -11    1    4    4    0    0 -0.33826436825E-01  0.28938413601E-01  0.65928800733E-01  0.79552042696E-01  0.51100000000E-03 0.  1.
         11    1    4    4    0    0 -0.53392383838E-01  0.10650089681E-01  0.24372161591E-01  0.59652614727E-01  0.51100000000E-03 0. -1.
</event>
<event>
 8    1  0.2039519E+004  0.1043930E+01  0.7957747E-01            NaN
         13   -1    0    0    0    0  0.00000000000E+00  0.00000000000E+00  0.74505805969E-08  0.10566000000E+00  0.10566000000E+00 0.  1.
     999900   -1    0    0    0    0 -0.00000000000E+00 -0.00000000000E+00 -0.74505805969E-08  0.93827000000E+00  0.93827000000E+00 0.  1.
     999902    2    1    2    0    0 -0.12282944582E-01 -0.62095799140E-03 -0.13204935170E-03  0.10316306604E+01  0.10315573401E+01 0.  0.
     999903    2    3    3    0    0  0.39357582653E-01 -0.10080502530E-01  0.12720798253E+00  0.14091650273E+00  0.44999489756E-01 0.  0.
         14    1    1    2    0    0  0.12282944582E-01  0.62095799140E-03  0.13204935170E-03  0.12299339554E-01  0.00000000000E+00 0. -1.
     999901    1    3    3    0    0 -0.51640527234E-01  0.94595445387E-02 -0.12734003188E+00  0.89071415772E+00  0.88000000000E+00 0.  1.
        -11    1    4    4    0    0  0.24758917993E-01 -0.27275977428E-01  0.64594577211E-01  0.74361976110E-01  0.51100000000E-03 0.  1.
         11    1    4    4    0    0  0.14598664660E-01  0.17195474898E-01  0.62613405321E-01  0.66554526621E-01  0.51100000000E-03 0. -1.
</event>
<event>
 8    1  0.2039519E+004  0.1043930E+01  0.7957747E-01            NaN
         13   -1    0    0    0    0  0.00000000000E+00  0.00000000000E+00  0.74505805969E-08  0.10566000000E+00  0.10566000000E+00 0.  1.
     999900   -1    0    0    0    0 -0.00000000000E+00 -0.00000000000E+00 -0.74505805969E-08  0.93827000000E+00  0.93827000000E+00 0. -1.
     999902    2    1    2    0    0  0.92473281786E-02 -0.10817241562E-01  0.13258079348E-02  0.10296372200E+01  0.10295380135E+01 0.  0.
     999903    2    3    3    0    0 -0.40171312562E-01  0.58784799390E-01 -0.11211845171E+00  0.13825837450E+00  0.38411507573E-01 0.  0.
         14    1    1    2    0    0 -0.92473281786E-02  0.10817241562E-01 -0.13258079348E-02  0.14292780000E-01  0.00000000000E+00 0.  1.
     999901    1    3    3    0    0  0.49418640741E-01 -0.69602040952E-01  0.11344425964E+00  0.89137884550E+00  0.88000000000E+00 0.  1.
        -11    1    4    4    0    0 -0.34780919776E-01  0.25825329978E-01 -0.40823659272E-01  0.59527240204E-01  0.51100000000E-03 0.  1.
         11    1    4    4    0    0 -0.53903927868E-02  0.32959469412E-01 -0.71294792435E-01  0.78731134297E-01  0.51100000000E-03 0. -1.
</event>
<event>
 8    1  0.2510860E+004  0.1043930E+01  0.7957747E-01            NaN
         13   -1    0    0    0    0  0.00000000000E+00  0.00000000000E+00  0.74505805969E-08  0.10566000000E+00  0.10566000000E+00 0. -1.
     999900   -1    0    0    0    0 -0.00000000000E+00 -0.00000000000E+00 -0.74505805969E-08  0.93827000000E+00  0.93827000000E+00 0. -1.
     999902    2    1    2    0    0  0.10490136891E-01  0.12680222766E-02  0.97645286246E-02  0.10295426141E+01  0.10294420807E+01 0.  0.
     999903    2    3    3    0    0 -0.14259335810E-01 -0.66215583161E-01 -0.11189993699E+00  0.13826891006E+00  0.44820346726E-01 0.  0.
         14    1    1    2    0    0 -0.10490136891E-01 -0.12680222766E-02 -0.97645286246E-02  0.14387385855E-01  0.00000000000E+00 0.  1.
     999901    1    3    3    0    0  0.24749472700E-01  0.67483605438E-01  0.12166446561E+00  0.89127370409E+00  0.88000000000E+00 0. -1.
        -11    1    4    4    0    0 -0.28599569020E-01 -0.30002469630E-01 -0.67417964560E-01  0.79142444987E-01  0.51100000000E-03 0.  1.
         11    1    4    4    0    0  0.14340233211E-01 -0.36213113531E-01 -0.44481972426E-01  0.59126465073E-01  0.51100000000E-03 0. -1.
</event>
<event>
 8    1  0.2039519E+004  0.1043930E+01  0.7957747E-01            NaN
         13   -1    0    0    0    0  0.00000000000E+00  0.00000000000E+00  0.74505805969E-08  0.10566000000E+00  0.10566000000E+00 0.  1.
     999900   -1    0    0    0    0 -0.00000000000E+00 -0.00000000000E+00 -0.74505805969E-08  0.93827000000E+00  0.93827000000E+00 0. -1.
     999902    2    1    2    0    0 -0.86043452155E-02  0.11183052284E-01 -0.97647885429E-02  0.10267705562E+01  0.10266271615E+01 0.  0.
     999903    2    3    3    0    0  0.62344843820E-01  0.25923137828E-01  0.10906967979E+00  0.13583133923E+00  0.44666195731E-01 0.  0.
         14    1    1    2    0    0  0.86043452155E-02 -0.11183052284E-01  0.97647885429E-02  0.17159443763E-01  0.00000000000E+00 0.  1.
     999901    1    3    3    0    0 -0.70949189036E-01 -0.14740085545E-01 -0.11883446833E+00  0.89093921701E+00  0.88000000000E+00 0. -1.
        -11    1    4    4    0    0  0.48423730086E-01  0.42072969124E-02  0.94330220603E-01  0.10611790906E+00  0.51100000000E-03 0. -1.
         11    1    4    4    0    0  0.13921113734E-01  0.21715840916E-01  0.14739459183E-01  0.29713430167E-01  0.51100000000E-03 0.  1.
</event>
<event>
 8    1  0.2039519E+004  0.1043930E+01  0.7957747E-01            NaN
         13   -1    0    0    0    0  0.00000000000E+00  0.00000000000E+00  0.74505805969E-08  0.10566000000E+00  0.10566000000E+00 0.  1.
     999900   -1    0    0    0    0 -0.00000000000E+00 -0.00000000000E+00 -0.74505805969E-08  0.93827000000E+00  0.93827000000E+00 0.  1.
     999902    2    1    2    0    0 -0.22997918855E-02 -0.13970563972E-01 -0.18181692826E-02  0.10296551466E+01  0.10295561905E+01 0.  0.
     999903    2    3    3    0    0 -0.51920946660E-01  0.93530358711E-01 -0.75363879084E-01  0.13868506919E+00  0.45936058213E-01 0.  0.
         14    1    1    2    0    0  0.22997918855E-02  0.13970563972E-01  0.18181692826E-02  0.14274853413E-01  0.00000000000E+00 0.  1.
     999901    1    3    3    0    0  0.49621154774E-01 -0.10750092268E+00  0.73545709801E-01  0.89097007739E+00  0.88000000000E+00 0. -1.
        -11    1    4    4    0    0 -0.10755680899E-01  0.59519376759E-01 -0.54290649288E-01  0.81277159169E-01  0.51100000000E-03 0. -1.
         11    1    4    4    0    0 -0.41165265761E-01  0.34010981952E-01 -0.21073229796E-01  0.57407910026E-01  0.51100000000E-03 0.  1.
</event>
<event>
 8    1  0.2039519E+004  0.1043930E+01  0.7957747E-01            NaN
         13   -1    0    0    0    0  0.00000000000E+00  0.00000000000E+00  0.74505805969E-08  0.10566000000E+00  0.10566000000E+00 0.  1.
     999900   -1    0    0    0    0 -0.00000000000E+00 -0.00000000000E+00 -0.74505805969E-08  0.93827000000E+00  0.93827000000E+00 0.  1.
     999902    2    1    2    0    0  0.55225067118E-03  0.29734850888E-02  0.13117016436E-01  0.10304688442E+01  0.10303809180E+01 0.  0.
     999903    2    3    3    0    0  0.43394546467E-01  0.73434204320E-01  0.10331108857E+00  0.14202349087E+00  0.47136205938E-01 0.  0.
         14    1    1    2    0    0 -0.55225067118E-03 -0.29734850888E-02 -0.13117016436E-01  0.13461155766E-01  0.00000000000E+00 0. -1.
     999901    1    3    3    0    0 -0.42842295796E-01 -0.70460719231E-01 -0.90194072135E-01  0.88844535336E+00  0.88000000000E+00 0.  1.
        -11    1    4    4    0    0  0.43634460133E-01  0.47158518222E-01  0.46142224641E-01  0.79102831604E-01  0.51100000000E-03 0.  1.
         11    1    4    4    0    0 -0.23991366578E-03  0.26275686098E-01  0.57168863931E-01  0.62920659267E-01  0.51100000000E-03 0. -1.
</event>
<event>
 8    1  0.2039519E+004  0.1043930E+01  0.7957747E-01            NaN
         13   -1    0    0    0    0  0.00000000000E+00  0.00000000000E+00  0.74505805969E-08  0.10566000000E+00  0.10566000000E+00 0. -1.
     999900   -1    0    0    0    0 -0.00000000000E+00 -0.00000000000E+00 -0.74505805969E-08  0.93827000000E+00  0.93827000000E+00 0.  1.
     999902    2    1    2    0    0  0.41932353203E-02 -0.39596925192E-02  0.13587628015E-01  0.10291690372E+01  0.10290631765E+01 0.  0.
     999903    2    3    3    0    0 -0.98853967417E-01  0.85740939957E-01  0.46256280164E-02  0.13858201345E+00  0.45386808189E-01 0.  0.
         14    1    1    2    0    0 -0.41932353203E-02  0.39596925192E-02 -0.13587628015E-01  0.14760962786E-01  0.00000000000E+00 0.  1.
     999901    1    3    3    0    0  0.10304720274E+00 -0.89700632476E-01  0.89619999986E-02  0.89058702377E+00  0.88000000000E+00 0.  1.
        -11    1    4    4    0    0 -0.57193719910E-01  0.24727867920E-01 -0.10438208779E-01  0.63180743684E-01  0.51100000000E-03 0. -1.
         11    1    4    4    0    0 -0.41660247507E-01  0.61013072037E-01  0.15063836796E-01  0.75401269762E-01  0.51100000000E-03 0.  1.
</event>
<event>
 8    1  0.2039519E+004  0.1043930E+01  0.7957747E-01            NaN
         13   -1    0    0    0    0  0.00000000000E+00  0.00000000000E+00  0.74505805969E-08  0.10566000000E+00  0.10566000000E+00 0.  1.
     999900   -1    0    0    0    0 -0.00000000000E+00 -0.00000000000E+00 -0.74505805969E-08  0.93827000000E+00  0.93827000000E+00 0. -1.
     999902    2    1    2    0    0 -0.33518049326E-02 -0.12589964749E-02  0.12263177226E-01  0.10311548216E+01  0.10310756814E+01 0.  0.
     999903    2    3    3    0    0 -0.65786057665E-01  0.93199180903E-01  0.70693890517E-01  0.14197849965E+00  0.46328992039E-01 0.  0.
         14    1    1    2    0    0  0.33518049326E-02  0.12589964749E-02 -0.12263177226E-01  0.12775178437E-01  0.00000000000E+00 0. -1.
     999901    1    3    3    0    0  0.62434252732E-01 -0.94458177378E-01 -0.58430713291E-01  0.88917632191E+00  0.88000000000E+00 0. -1.
        -11    1    4    4    0    0 -0.17854223705E-01  0.37866393536E-01  0.25207789981E-02  0.41943444199E-01  0.51100000000E-03 0. -1.
         11    1    4    4    0    0 -0.47931833960E-01  0.55332787367E-01  0.68173111519E-01  0.10003505545E+00  0.51100000000E-03 0.  1.
</event>
<event>
 8    1  0.2039519E+004  0.1043930E+01  0.7957747E-01            NaN
         13   -1    0    0    0    0  0.00000000000E+00  0.00000000000E+00  0.74505805969E-08  0.10566000000E+00  0.10566000000E+00 0.  1.
     999900   -1    0    0    0    0 -0.00000000000E+00 -0.00000000000E+00 -0.74505805969E-08  0.93827000000E+00  0.93827000000E+00 0. -1.
     999902    2    1    2    0    0  0.79198174075E-02 -0.78403821142E-02  0.83295270324E-02  0.10300168364E+01  0.10299228647E+01 0.  0.
     999903    2    3    3    0    0 -0.11112527272E+00 -0.47015316918E-01 -0.51899075918E-01  0.13909939155E+00  0.45780567790E-01 0.  0.
         14    1    1    2    0    0 -0.79198174075E-02  0.78403821142E-02 -0.83295270324E-02  0.13913163553E-01  0.00000000000E+00 0.  1.
     999901    1    3    3    0    0  0.11904509013E+00  0.39174934804E-01  0.60228602951E-01  0.89091744489E+00  0.88000000000E+00 0.  1.
        -11    1    4    4    0    0 -0.10619206725E+00 -0.28841118467E-01 -0.41694693799E-01  0.11767444019E+00  0.51100000000E-03 0. -1.
         11    1    4    4    0    0 -0.49332054688E-02 -0.18174198452E-01 -0.10204382119E-01  0.21424951365E-01  0.51100000000E-03 0.  1.
</event>
<event>
 8    1  0.2039519E+004  0.1043930E+01  0.7957747E-01            NaN
         13   -1    0    0    0    0  0.00000000000E+00  0.00000000000E+00  0.74505805969E-08  0.10566000000E+00  0.10566000000E+00 0. -1.
     999900   -1    0    0    0    0 -0.00000000000E+00 -0.00000000000E+00 -0.74505805969E-08  0.93827000000E+00  0.93827000000E+00 0. -1.
     999902    2    1    2    0    0  0.59905670139E-02  0.62398812784E-02  0.10148905974E-01  0.10305949595E+01  0.10305086838E+01 0.  0.
     999903    2    3    3    0    0 -0.12763379393E+00  0.34534335181E-01 -0.53309922458E-02  0.13992348632E+00  0.45465997034E-01 0.  0.
         14    1    1    2    0    0 -0.59905670139E-02 -0.62398812784E-02 -0.10148905974E-01  0.13335040457E-01  0.00000000000E+00 0.  1.
     999901    1    3    3    0    0  0.13362436095E+00 -0.28294453903E-01  0.15479898220E-01  0.89067147322E+00  0.88000000000E+00 0.  1.
        -11    1    4    4    0    0 -0.48890888621E-01 -0.22638325127E-02  0.13944183259E-01  0.50893470068E-01  0.51100000000E-03 0.  1.
         11    1    4    4    0    0 -0.78742905311E-01  0.36798167694E-01 -0.19275175505E-01  0.89030016254E-01  0.51100000000E-03 0. -1.
</event>
<event>
 8    1  0.2039519E+004  0.1043930E+01  0.7957747E-01            NaN
         13   -1    0    0    0    0  0.00000000000E+00  0.00000000000E+00  0.74505805969E-08  0.10566000000E+00  0.10566000000E+00 0. -1.
     999900   -1    0    0    0    0 -0.00000000000E+00 -0.00000000000E+00 -0.74505805969E-08  0.93827000000E+00  0.93827000000E+00 0.  1.
     999902    2    1    2    0    0  0.70045360277E-02  0.66284009868E-02  0.14513774510E-01  0.10265044763E+01  0.10263565614E+01 0.  0.
     999903    2    3    3    0    0  0.68010318279E-01 -0.10039431275E+00 -0.42332136399E-01  0.13610736026E+00  0.45042006171E-01 0.  0.
         14    1    1    2    0    0 -0.70045360277E-02 -0.66284009868E-02 -0.14513774510E-01  0.17425523669E-01  0.00000000000E+00 0.  1.
     999901    1    3    3    0    0 -0.61005782251E-01  0.10702271373E+00  0.56845910909E-01  0.89039711607E+00  0.88000000000E+00 0. -1.
        -11    1    4    4    0    0  0.37667224664E-01 -0.18417828321E-01 -0.14570416929E-01  0.44391377366E-01  0.51100000000E-03 0.  1.
         11    1    4    4    0    0  0.30343093615E-01 -0.81976484427E-01 -0.27761719471E-01  0.91715982893E-01  0.51100000000E-03 0. -1.
</event>
<event>
 8    1  0.2039519E+004  0.1043930E+01  0.7957747E-01            NaN
         13   -1    0    0    0    0  0.00000000000E+00  0.00000000000E+00  0.74505805969E-08  0.10566000000E+00  0.10566000000E+00 0.  1.
     999900   -1    0    0    0    0 -0.00000000000E+00 -0.00000000000E+00 -0.74505805969E-08  0.93827000000E+00  0.93827000000E+00 0.  1.
     999902    2    1    2    0    0  0.10823404006E-01  0.35005501176E-02  0.76297900204E-02  0.10302327878E+01  0.10301417298E+01 0.  0.
     999903    2    3    3    0    0  0.87543296497E-01  0.90230058592E-01 -0.45858717781E-01  0.14103710070E+00  0.44532567217E-01 0.  0.
         14    1    1    2    0    0 -0.10823404006E-01 -0.35005501176E-02 -0.76297900204E-02  0.13697212167E-01  0.00000000000E+00 0. -1.
     999901    1    3    3    0    0 -0.76719892491E-01 -0.86729508474E-01  0.53488507801E-01  0.88919568713E+00  0.88000000000E+00 0. -1.
        -11    1    4    4    0    0  0.26274261658E-01  0.67148193481E-02  0.14538386742E-02  0.27162481338E-01  0.51100000000E-03 0. -1.
         11    1    4    4    0    0  0.61269034839E-01  0.83515239244E-01 -0.47312556455E-01  0.11387461936E+00  0.51100000000E-03 0.  1.
</event>
<event>
 8    1  0.2039519E+004  0.1043930E+01  0.7957747E-01            NaN
         13   -1    0    0    0    0  0.00000000000E+00  0.00000000000E+00  0.74505805969E-08  0.10566000000E+00  0.10566000000E+00 0. -1.
     999900   -1    0    0    0    0 -0.00000000000E+00 -0.00000000000E+00 -0.74505805969E-08  0.93827000000E+00  0.93827000000E+00 0. -1.
     999902    2    1    2    0    0  0.18569101785E-02  0.12214703186E-01 -0.76388777265E-02  0.10294041767E+01  0.10293016854E+01 0.  0.
     999903    2    3    3    0    0 -0.51307783223E-01  0.11417064454E+00  0.44759725914E-01  0.14037824218E+00  0.45113114715E-01 0.  0.
         14    1    1    2    0    0 -0.18569101785E-02 -0.12214703186E-01  0.76388777265E-02  0.14525823290E-01  0.00000000000E+00 0. -1.
     999901    1    3    3    0    0  0.53164693402E-01 -0.10195594136E+00 -0.52398603641E-01  0.88902593453E+00  0.88000000000E+00 0. -1.
        -11    1    4    4    0    0  0.15983166800E-02  0.24036666112E-02  0.12142508742E-01  0.12491351766E-01  0.51100000000E-03 0.  1.
         11    1    4    4    0    0 -0.52906099903E-01  0.11176697793E+00  0.32617217172E-01  0.12788689041E+00  0.51100000000E-03 0. -1.
</event>
<event>
 8    1  0.2039519E+004  0.1043930E+01  0.7957747E-01            NaN
         13   -1    0    0    0    0  0.00000000000E+00  0.00000000000E+00  0.74505805969E-08  0.10566000000E+00  0.10566000000E+00 0. -1.
     999900   -1    0    0    0    0 -0.00000000000E+00 -0.00000000000E+00 -0.74505805969E-08  0.93827000000E+00  0.93827000000E+00 0. -1.
     999902    2    1    2    0    0  0.80527059744E-03  0.10401714770E-01 -0.10211164949E-01  0.10293316432E+01  0.10292281184E+01 0.  0.
     999903    2    3    3    0    0  0.20026338876E-01 -0.12213698332E+00  0.41516345352E-01  0.13769736210E+00  0.43800224376E-01 0.  0.
         14    1    1    2    0    0 -0.80527059744E-03 -0.10401714770E-01  0.10211164949E-01  0.14598356774E-01  0.00000000000E+00 0. -1.
     999901    1    3    3    0    0 -0.19221068278E-01  0.13253869809E+00 -0.51727510301E-01  0.89163428113E+00  0.88000000000E+00 0. -1.
        -11    1    4    4    0    0 -0.11029237956E-01 -0.66798391173E-01  0.24438818407E-01  0.71980456510E-01  0.51100000000E-03 0. -1.
         11    1    4    4    0    0  0.31055576832E-01 -0.55338592144E-01  0.17077526945E-01  0.65716905590E-01  0.51100000000E-03 0.  1.
</event>
<event>
 8    1  0.2039519E+004  0.1043930E+01  0.7957747E-01            NaN
         13   -1    0    0    0    0  0.00000000000E+00  0.00000000000E+00  0.74505805969E-08  0.10566000000E+00  0.10566000000E+00 0. -1.
     999900   -1    0    0    0    0 -0.00000000000E+00 -0.00000000000E+00 -0.74505805969E-08  0.93827000000E+00  0.93827000000E+00 0. -1.
     999902    2    1    2    0    0 -0.12325697576E-01  0.21504895331E-02  0.44489289665E-02  0.10306506779E+01  0.10305651263E+01 0.  0.
     999903    2    3    3    0    0  0.83680799792E-01  0.10026822871E+00  0.21137750834E-01  0.13985167980E+00  0.45337554966E-01 0.  0.
         14    1    1    2    0    0  0.12325697576E-01 -0.21504895331E-02 -0.44489289665E-02  0.13279322080E-01  0.00000000000E+00 0.  1.
     999901    1    3    3    0    0 -0.96006497368E-01 -0.98117739174E-01 -0.16688821867E-01  0.89079899812E+00  0.88000000000E+00 0.  1.
        -11    1    4    4    0    0  0.25747308806E-01  0.31472594253E-01 -0.14405940656E-01  0.43142094837E-01  0.51100000000E-03 0.  1.
         11    1    4    4    0    0  0.57933490986E-01  0.68795634455E-01  0.35543691489E-01  0.96709584962E-01  0.51100000000E-03 0. -1.
</event>
<event>
 8    1  0.2039519E+004  0.1043930E+01  0.7957747E-01            NaN
         13   -1    0    0    0    0  0.00000000000E+00  0.00000000000E+00  0.74505805969E-08  0.10566000000E+00  0.10566000000E+00 0. -1.
     999900   -1    0    0    0    0 -0.00000000000E+00 -0.00000000000E+00 -0.74505805969E-08  0.93827000000E+00  0.93827000000E+00 0.  1.
     999902    2    1    2    0    0 -0.11748151592E-02 -0.10264137334E-01 -0.85433935432E-02  0.10305239462E+01  0.10304367430E+01 0.  0.
     999903    2    3    3    0    0  0.63999618801E-01  0.20249741026E-01  0.11309434172E+00  0.13924702947E+00  0.45753708786E-01 0.  0.
         14    1    1    2    0    0  0.11748151592E-02  0.10264137334E-01  0.85433935432E-02  0.13406053823E-01  0.00000000000E+00 0. -1.
     999901    1    3    3    0    0 -0.65174433960E-01 -0.30513878360E-01 -0.12163773527E+00  0.89127691671E+00  0.88000000000E+00 0.  1.
        -11    1    4    4    0    0  0.26320718985E-01  0.14182400602E-01  0.13924645925E-01  0.32986021583E-01  0.51100000000E-03 0. -1.
         11    1    4    4    0    0  0.37678899816E-01  0.60673404238E-02  0.99169695800E-01  0.10626100789E+00  0.51100000000E-03 0.  1.
</event>
<event>
 8    1  0.2039519E+004  0.1043930E+01  0.7957747E-01            NaN
         13   -1    0    0    0    0  0.00000000000E+00  0.00000000000E+00  0.74505805969E-08  0.10566000000E+00  0.10566000000E+00 0.  1.
     999900   -1    0    0    0    0 -0.00000000000E+00 -0.00000000000E+00 -0.74505805969E-08  0.93827000000E+00  0.93827000000E+00 0.  1.
     999902    2    1    2    0    0  0.21152998804E-01 -0.66198036234E-03  0.84616161183E-02  0.10211377530E+01  0.10208833548E+01 0.  0.
     999903    2    3    3    0    0  0.96898825205E-01 -0.35915609705E-01  0.73717746153E-01  0.13477517983E+00  0.45284982641E-01 0.  0.
         14    1    1    2    0    0 -0.21152998804E-01  0.66198036234E-03 -0.84616161183E-02  0.22792247009E-01  0.00000000000E+00 0. -1.
     999901    1    3    3    0    0 -0.75745826401E-01  0.35253629343E-01 -0.65256130035E-01  0.88636257316E+00  0.88000000000E+00 0.  1.
        -11    1    4    4    0    0  0.68850674483E-01 -0.11132208455E-01  0.26714274091E-01  0.74687716547E-01  0.51100000000E-03 0.  1.
         11    1    4    4    0    0  0.28048150722E-01 -0.24783401250E-01  0.47003472062E-01  0.60087463279E-01  0.51100000000E-03 0. -1.
</event>
<event>
 8    1  0.2039519E+004  0.1043930E+01  0.7957747E-01            NaN
         13   -1    0    0    0    0  0.00000000000E+00  0.00000000000E+00  0.74505805969E-08  0.10566000000E+00  0.10566000000E+00 0. -1.
     999900   -1    0    0    0    0 -0.00000000000E+00 -0.00000000000E+00 -0.74505805969E-08  0.93827000000E+00  0.93827000000E+00 0. -1.
     999902    2    1    2    0    0  0.12494802544E-01 -0.20515723873E-03 -0.57156357287E-02  0.10301884327E+01  0.10300967800E+01 0.  0.
     999903    2    3    3    0    0  0.11510724573E+00 -0.27385718791E-01  0.62839768841E-01  0.14116203269E+00  0.44477267357E-01 0.  0.
         14    1    1    2    0    0 -0.12494802544E-01  0.20515723873E-03  0.57156357287E-02  0.13741567301E-01  0.00000000000E+00 0.  1.
     999901    1    3    3    0    0 -0.10261244318E+00  0.27180561553E-01 -0.68555404569E-01  0.88902640001E+00  0.88000000000E+00 0.  1.
        -11    1    4    4    0    0  0.46472156753E-01  0.82233834160E-02  0.35828674949E-01  0.59255720886E-01  0.51100000000E-03 0.  1.
         11    1    4    4    0    0  0.68635088975E-01 -0.35609102208E-01  0.27011093891E-01  0.81906311801E-01  0.51100000000E-03 0. -1.
</event>
<event>
 8    1  0.2039519E+004  0.1043930E+01  0.7957747E-01            NaN
         13   -1    0    0    0    0  0.00000000000E+00  0.00000000000E+00  0.74505805969E-08  0.10566000000E+00  0.10566000000E+00 0. -1.
     999900   -1    0    0    0    0 -0.00000000000E+00 -0.00000000000E+00 -0.74505805969E-08  0.93827000000E+00  0.93827000000E+00 0. -1.
     999902    2    1    2    0    0  0.12772062682E-01  0.52932125311E-02  0.18045181539E-02  0.10299872610E+01  0.10298928866E+01 0.  0.
     999903    2    3    3    0    0 -0.10123787966E+00  0.77601203470E-01 -0.33027005395E-01  0.13901029863E+00  0.44294751180E-01 0.  0.
         14    1    1    2    0    0 -0.12772062682E-01 -0.52932125311E-02 -0.18045181539E-02  0.13942738964E-01  0.00000000000E+00 0.  1.
     999901    1    3    3    0    0  0.11400994234E+00 -0.72307990939E-01  0.34831523549E-01  0.89097696241E+00  0.88000000000E+00 0.  1.
        -11    1    4    4    0    0 -0.45405229567E-01  0.25901498676E-01 -0.34964067187E-01  0.62890934330E-01  0.51100000000E-03 0.  1.
         11    1    4    4    0    0 -0.55832650091E-01  0.51699704794E-01  0.19370617917E-02  0.76119364300E-01  0.51100000000E-03 0. -1.
</event>
<event>
 8    1  0.2039519E+004  0.1043930E+01  0.7957747E-01            NaN
         13   -1    0    0    0    0  0.00000000000E+00  0.00000000000E+00  0.74505805969E-08  0.10566000000E+00  0.10566000000E+00 0. -1.
     999900   -1    0    0    0    0 -0.00000000000E+00 -0.00000000000E+00 -0.74505805969E-08  0.93827000000E+00  0.93827000000E+00 0.  1.
     999902    2    1    2    0    0 -0.37755077255E-02 -0.80476584692E-03 -0.12536997087E-01  0.10308121342E+01  0.10307286634E+01 0.  0.
     999903    2    3    3    0    0  0.83676477027E-01  0.55539965550E-01 -0.88961155090E-01  0.14139477981E+00  0.44631334984E-01 0.  0.
         14    1    1    2    0    0  0.37755077255E-02  0.80476584692E-03  0.12536997087E-01  0.13117865780E-01  0.00000000000E+00 0. -1.
     999901    1    3    3    0    0 -0.87451984753E-01 -0.56344731397E-01  0.76424158003E-01  0.88941735441E+00  0.88000000000E+00 0. -1.
        -11    1    4    4    0    0  0.17292030001E-01 -0.30960928679E-02 -0.27436341140E-02  0.17787319690E-01  0.51100000000E-03 0. -1.
         11    1    4    4    0    0  0.66384447026E-01  0.58636058418E-01 -0.86217520976E-01  0.12360746012E+00  0.51100000000E-03 0.  1.
</event>
<event>
 8    1  0.2039519E+004  0.1043930E+01  0.7957747E-01            NaN
         13   -1    0    0    0    0  0.00000000000E+00  0.00000000000E+00  0.74505805969E-08  0.10566000000E+00  0.10566000000E+00 0. -1.
     999900   -1    0    0    0    0 -0.00000000000E+00 -0.00000000000E+00 -0.74505805969E-08  0.93827000000E+00  0.93827000000E+00 0. -1.
     999902    2    1    2    0    0 -0.29674141996E-02 -0.14513927011E-01  0.42231620952E-02  0.10285256265E+01  0.10284102633E+01 0.  0.
     999903    2    3    3    0    0 -0.94918424396E-01  0.89196438787E-01  0.13887808388E-02  0.13767274194E+00  0.44568410089E-01 0.  0.
         14    1    1    2    0    0  0.29674141996E-02  0.14513927011E-01 -0.42231620952E-02  0.15404373482E-01  0.00000000000E+00 0.  1.
     999901    1    3    3    0    0  0.91951010197E-01 -0.10371036580E+00  0.28343812564E-02  0.89085288458E+00  0.88000000000E+00 0. -1.
        -11    1    4    4    0    0 -0.77911002373E-01  0.51168687706E-01 -0.11840775258E-01  0.93961821886E-01  0.51100000000E-03 0.  1.
         11    1    4    4    0    0 -0.17007422023E-01  0.38027751081E-01  0.13229556097E-01  0.43710920050E-01  0.51100000000E-03 0. -1.
</event>
<event>
 8    1  0.2039519E+004  0.1043930E+01  0.7957747E-01            NaN
         13   -1    0    0    0    0  0.00000000000E+00  0.00000000000E+00  0.74505805969E-08  0.10566000000E+00  0.10566000000E+00 0.  1.
     999900   -1    0    0    0    0 -0.00000000000E+00 -0.00000000000E+00 -0.74505805969E-08  0.93827000000E+00  0.93827000000E+00 0.  1.
     999902    2    1    2    0    0 -0.11069615015E-01 -0.10054023652E-01 -0.23848542972E-02  0.10287871040E+01  0.10286756525E+01 0.  0.
     999903    2    3    3    0    0 -0.74602553176E-01  0.10769802217E+00 -0.52764232561E-02  0.13866894351E+00  0.45131256721E-01 0.  0.
         14    1    1    2    0    0  0.11069615015E-01  0.10054023652E-01  0.23848542972E-02  0.15142895964E-01  0.00000000000E+00 0. -1.
     999901    1    3    3    0    0  0.63532938161E-01 -0.11775204582E+00  0.28915689589E-02  0.89011816053E+00  0.88000000000E+00 0. -1.
        -11    1    4    4    0    0 -0.21961101556E-01  0.50312789431E-01  0.17347087838E-01  0.57574728304E-01  0.51100000000E-03 0.  1.
         11    1    4    4    0    0 -0.52641451620E-01  0.57385232735E-01 -0.22623511094E-01  0.81094215206E-01  0.51100000000E-03 0. -1.
</event>
<event>
 7    1  0.2039519E+004  0.1043930E+01  0.7957747E-01            NaN
         13   -1    0    0    0    0  0.00000000000E+00  0.00000000000E+00  0.74505805969E-08  0.10566000000E+00  0.10566000000E+00 0.  1.
     999900   -1    0    0    0    0 -0.00000000000E+00 -0.00000000000E+00 -0.74505805969E-08  0.93827000000E+00  0.93827000000E+00 0. -1.
     999903    2    1    2    0    0  0.61622558067E-01 -0.94226820860E-01  0.19767467611E-01  0.12313246061E+00  0.45769166991E-01 0.  0.
         14    1    1    2    0    0 -0.33141125430E-01 -0.61325531223E-02 -0.76094596446E-02  0.34552080670E-01  0.00000000000E+00 0.  1.
     999901    1    1    2    0    0 -0.28481432638E-01  0.10035937398E+00 -0.12158007966E-01  0.88624545872E+00  0.88000000000E+00 0.  1.
        -11    1    3    3    0    0  0.33037300907E-01 -0.41783742630E-01 -0.13238960657E-01  0.54889667513E-01  0.51100000000E-03 0.  1.
         11    1    3    3    0    0  0.28585257160E-01 -0.52443078230E-01  0.33006428268E-01  0.68242793093E-01  0.51100000000E-03 0. -1.
</event>
<event>
 8    1  0.2039519E+004  0.1043930E+01  0.7957747E-01            NaN
         13   -1    0    0    0    0  0.00000000000E+00  0.00000000000E+00  0.74505805969E-08  0.10566000000E+00  0.10566000000E+00 0. -1.
     999900   -1    0    0    0    0 -0.00000000000E+00 -0.00000000000E+00 -0.74505805969E-08  0.93827000000E+00  0.93827000000E+00 0.  1.
     999902    2    1    2    0    0  0.13986963157E-01  0.11121710108E-01  0.60969657044E-02  0.10250487775E+01  0.10248748683E+01 0.  0.
     999903    2    3    3    0    0  0.37480300364E-01  0.10067953890E+00  0.73278929137E-01  0.13764472191E+00  0.45112365749E-01 0.  0.
         14    1    1    2    0    0 -0.13986963157E-01 -0.11121710108E-01 -0.60969657044E-02  0.18881222547E-01  0.00000000000E+00 0. -1.
     999901    1    3    3    0    0 -0.23493337207E-01 -0.89557828796E-01 -0.67181963433E-01  0.88740405555E+00  0.88000000000E+00 0. -1.
        -11    1    4    4    0    0  0.19209576333E-01  0.45930951511E-01  0.78640460203E-02  0.50405996373E-01  0.51100000000E-03 0. -1.
         11    1    4    4    0    0  0.18270724031E-01  0.54748587393E-01  0.65414883117E-01  0.87238725532E-01  0.51100000000E-03 0.  1.
</event>
<event>
 8    1  0.2039519E+004  0.1043930E+01  0.7957747E-01            NaN
         13   -1    0    0    0    0  0.00000000000E+00  0.00000000000E+00  0.74505805969E-08  0.10566000000E+00  0.10566000000E+00 0. -1.
     999900   -1    0    0    0    0 -0.00000000000E+00 -0.00000000000E+00 -0.74505805969E-08  0.93827000000E+00  0.93827000000E+00 0. -1.
     999902    2    1    2    0    0  0.28799260830E-03 -0.50844106260E-03 -0.13917277651E-01  0.10300004606E+01  0.10299062660E+01 0.  0.
     999903    2    3    3    0    0 -0.46911746082E-01  0.12399905465E+00 -0.20561456954E-02  0.13990461275E+00  0.44638497492E-01 0.  0.
         14    1    1    2    0    0 -0.28799260830E-03  0.50844106260E-03  0.13917277651E-01  0.13929539449E-01  0.00000000000E+00 0. -1.
     999901    1    3    3    0    0  0.47199738691E-01 -0.12450749571E+00 -0.11861131955E-01  0.89009584780E+00  0.88000000000E+00 0.  1.
        -11    1    4    4    0    0 -0.45014038586E-01  0.65267133903E-01  0.10004212931E-01  0.79915003817E-01  0.51100000000E-03 0.  1.
         11    1    4    4    0    0 -0.18977074959E-02  0.58731920749E-01 -0.12060358627E-01  0.59989608932E-01  0.51100000000E-03 0. -1.
</event>
<event>
 7    1  0.2039519E+004  0.1043930E+01  0.7957747E-01            NaN
         13   -1    0    0    0    0  0.00000000000E+00  0.00000000000E+00  0.74505805969E-08  0.10566000000E+00  0.10566000000E+00 0. -1.
     999900   -1    0    0    0    0 -0.00000000000E+00 -0.00000000000E+00 -0.74505805969E-08  0.93827000000E+00  0.93827000000E+00 0.  1.
     999903    2    1    2    0    0  0.75542266107E-02  0.67141097487E-01 -0.22620208672E-01  0.84130193172E-01  0.44735022648E-01 0.  0.
         14    1    1    2    0    0 -0.41785471444E-01 -0.64969750583E-01  0.17086986309E-01  0.79114216268E-01  0.00000000000E+00 0. -1.
     999901    1    1    2    0    0  0.34231244833E-01 -0.21713469041E-02  0.55332223631E-02  0.88068559056E+00  0.88000000000E+00 0. -1.
        -11    1    3    3    0    0  0.21257717760E-01  0.19254427576E-01 -0.18531654291E-01  0.34151235371E-01  0.51100000000E-03 0. -1.
         11    1    3    3    0    0 -0.13703491149E-01  0.47886669912E-01 -0.40885543806E-02  0.49978957801E-01  0.51100000000E-03 0.  1.
</event>
<event>
 8    1  0.2447351E+004  0.1043930E+01  0.7957747E-01            NaN
         13   -1    0    0    0    0  0.00000000000E+00  0.00000000000E+00  0.74505805969E-08  0.10566000000E+00  0.10566000000E+00 0.  1.
     999900   -1    0    0    0    0 -0.00000000000E+00 -0.00000000000E+00 -0.74505805969E-08  0.93827000000E+00  0.93827000000E+00 0. -1.
     999902    2    1    2    0    0 -0.87934227717E-02 -0.25438513559E-02 -0.10114522547E-01  0.10302881882E+01  0.10301978701E+01 0.  0.
     999903    2    3    3    0    0 -0.12581976867E-01 -0.13170481742E+00  0.18091989271E-01  0.14040476007E+00  0.43378698691E-01 0.  0.
         14    1    1    2    0    0  0.87934227717E-02  0.25438513559E-02  0.10114522547E-01  0.13641811834E-01  0.00000000000E+00 0.  1.
     999901    1    3    3    0    0  0.37885540953E-02  0.12916096606E+00 -0.28206511818E-01  0.88988342810E+00  0.88000000000E+00 0. -1.
        -11    1    4    4    0    0  0.13726287069E-01 -0.73292515255E-01  0.32322352083E-02  0.74638543759E-01  0.51100000000E-03 0.  1.
         11    1    4    4    0    0 -0.26308263936E-01 -0.58412302165E-01  0.14859754063E-01  0.65766216307E-01  0.51100000000E-03 0. -1.
</event>
<event>
 8    1  0.2039519E+004  0.1043930E+01  0.7957747E-01            NaN
         13   -1    0    0    0    0  0.00000000000E+00  0.00000000000E+00  0.74505805969E-08  0.10566000000E+00  0.10566000000E+00 0. -1.
     999900   -1    0    0    0    0 -0.00000000000E+00 -0.00000000000E+00 -0.74505805969E-08  0.93827000000E+00  0.93827000000E+00 0. -1.
     999902    2    1    2    0    0  0.12534824813E-01  0.33916548791E-03  0.37774844123E-02  0.10308339603E+01  0.10307507689E+01 0.  0.
     999903    2    3    3    0    0  0.10911165759E+00 -0.25648059412E-01 -0.74058466992E-01  0.14175530475E+00  0.45240834640E-01 0.  0.
         14    1    1    2    0    0 -0.12534824813E-01 -0.33916548791E-03 -0.37774844123E-02  0.13096039661E-01  0.00000000000E+00 0.  1.
     999901    1    3    3    0    0 -0.96576832777E-01  0.25987224900E-01  0.77835951404E-01  0.88907865559E+00  0.88000000000E+00 0.  1.
        -11    1    4    4    0    0  0.12909926664E-01  0.11711370157E-01 -0.77193648726E-02  0.19070189104E-01  0.51100000000E-03 0.  1.
         11    1    4    4    0    0  0.96201730925E-01 -0.37359429569E-01 -0.66339102119E-01  0.12268511565E+00  0.51100000000E-03 0. -1.
</event>
<event>
 8    1  0.2039519E+004  0.1043930E+01  0.7957747E-01            NaN
         13   -1    0    0    0    0  0.00000000000E+00  0.00000000000E+00  0.74505805969E-08  0.10566000000E+00  0.10566000000E+00 0. -1.
     999900   -1    0    0    0    0 -0.00000000000E+00 -0.00000000000E+00 -0.74505805969E-08  0.93827000000E+00  0.93827000000E+00 0. -1.
     999902    2    1    2    0    0  0.68609695419E-03 -0.12139669961E-01 -0.17083194821E-02  0.10316515363E+01  0.10315784661E+01 0.  0.
     999903    2    3    3    0    0  0.12880956640E+00 -0.25234900290E-01 -0.28539587116E-01  0.14187233592E+00  0.45656840426E-01 0.  0.
         14    1    1    2    0    0 -0.68609695419E-03  0.12139669961E-01  0.17083194821E-02  0.12278463717E-01  0.00000000000E+00 0. -1.
     999901    1    3    3    0    0 -0.12812346944E+00  0.13095230328E-01  0.26831267634E-01  0.88977920037E+00  0.88000000000E+00 0.  1.
        -11    1    4    4    0    0  0.10954974374E+00 -0.33437577450E-01 -0.11959305929E-01  0.11516294568E+00  0.51100000000E-03 0. -1.
         11    1    4    4    0    0  0.19259822658E-01  0.82026771605E-02 -0.16580281187E-01  0.26709390234E-01  0.51100000000E-03 0.  1.
</event>
<event>
 8    1  0.2039519E+004  0.1043930E+01  0.7957747E-01            NaN
         13   -1    0    0    0    0  0.00000000000E+00  0.00000000000E+00  0.74505805969E-08  0.10566000000E+00  0.10566000000E+00 0.  1.
     999900   -1    0    0    0    0 -0.00000000000E+00 -0.00000000000E+00 -0.74505805969E-08  0.93827000000E+00  0.93827000000E+00 0.  1.
     999902    2    1    2    0    0  0.16045714437E-02 -0.12090215586E-01  0.58259519985E-02  0.10304137254E+01  0.10303250729E+01 0.  0.
     999903    2    3    3    0    0 -0.12601634331E+00 -0.35640424632E-01  0.24689173015E-01  0.14069605595E+00  0.45116141742E-01 0.  0.
         14    1    1    2    0    0 -0.16045714437E-02  0.12090215586E-01 -0.58259519985E-02  0.13516274602E-01  0.00000000000E+00 0. -1.
     999901    1    3    3    0    0  0.12762091475E+00  0.23550209046E-01 -0.18863221016E-01  0.88971766945E+00  0.88000000000E+00 0. -1.
        -11    1    4    4    0    0 -0.24096333390E-01 -0.15480616807E-01  0.23082240821E-01  0.36787684650E-01  0.51100000000E-03 0. -1.
         11    1    4    4    0    0 -0.10192000992E+00 -0.20159807825E-01  0.16069321940E-02  0.10390837130E+00  0.51100000000E-03 0.  1.
</event>
<event>
 8    1  0.2039519E+004  0.1043930E+01  0.7957747E-01            NaN
         13   -1    0    0    0    0  0.00000000000E+00  0.00000000000E+00  0.74505805969E-08  0.10566000000E+00  0.10566000000E+00 0. -1.
     999900   -1    0    0    0    0 -0.00000000000E+00 -0.00000000000E+00 -0.74505805969E-08  0.93827000000E+00  0.93827000000E+00 0.  1.
     999902    2    1    2    0    0  0.55285682405E-02 -0.13472777068E-01  0.11355457764E-01  0.10254630780E+01  0.10252967849E+01 0.  0.
     999903    2    3    3    0    0 -0.45120862444E-01 -0.11817042012E+00  0.21780317875E-01  0.13774936341E+00  0.50003644397E-01 0.  0.
         14    1    1    2    0    0 -0.55285682405E-02  0.13472777068E-01 -0.11355457764E-01  0.18466922043E-01  0.00000000000E+00 0.  1.
     999901    1    3    3    0    0  0.50649430685E-01  0.10469764305E+00 -0.10424860110E-01  0.88771371455E+00  0.88000000000E+00 0.  1.
        -11    1    4    4    0    0 -0.13468570361E-01 -0.96729068690E-01  0.13056620354E-01  0.98532489937E-01  0.51100000000E-03 0. -1.
         11    1    4    4    0    0 -0.31652292084E-01 -0.21441351432E-01  0.87236975210E-02  0.39216873471E-01  0.51100000000E-03 0.  1.
</event>
<event>
 8    1  0.2039519E+004  0.1043930E+01  0.7957747E-01            NaN
         13   -1    0    0    0    0  0.00000000000E+00  0.00000000000E+00  0.74505805969E-08  0.10566000000E+00  0.10566000000E+00 0. -1.
     999900   -1    0    0    0    0 -0.00000000000E+00 -0.00000000000E+00 -0.74505805969E-08  0.93827000000E+00  0.93827000000E+00 0.  1.
     999902    2    1    2    0    0 -0.27687405225E-02 -0.12705130149E-01  0.30411937493E-02  0.10305757829E+01  0.10304892571E+01 0.  0.
     999903    2    3    3    0    0  0.11188352715E+00  0.50977957905E-01  0.48750233388E-01  0.13968297533E+00  0.44922961860E-01 0.  0.
         14    1    1    2    0    0  0.27687405225E-02  0.12705130149E-01 -0.30411937493E-02  0.13354217146E-01  0.00000000000E+00 0.  1.
     999901    1    3    3    0    0 -0.11465226767E+00 -0.63683088054E-01 -0.45709039639E-01  0.89089280752E+00  0.88000000000E+00 0.  1.
        -11    1    4    4    0    0  0.38701036947E-01  0.74497058145E-02  0.36380763419E-01  0.53638507114E-01  0.51100000000E-03 0. -1.
         11    1    4    4    0    0  0.73182490206E-01  0.43528252091E-01  0.12369469969E-01  0.86044468219E-01  0.51100000000E-03 0.  1.
</event>
<event>
 8    1  0.2039519E+004  0.1043930E+01  0.7957747E-01            NaN
         13   -1    0    0    0    0  0.00000000000E+00  0.00000000000E+00  0.74505805969E-08  0.10566000000E+00  0.10566000000E+00 0.  1.
     999900   -1    0    0    0    0 -0.00000000000E+00 -0.00000000000E+00 -0.74505805969E-08  0.93827000000E+00  0.93827000000E+00 0.  1.
     999902    2    1    2    0    0  0.73772983222E-02  0.17808687657E-02 -0.10439226540E-01  0.10310236653E+01  0.10309428815E+01 0.  0.
     999903    2    3    3    0    0 -0.12718938291E+00  0.21374498592E-01  0.29421242451E-01  0.13968705157E+00  0.44864847646E-01 0.  0.
         14    1    1    2    0    0 -0.73772983222E-02 -0.17808687657E-02  0.10439226540E-01  0.12906334679E-01  0.00000000000E+00 0.  1.
     999901    1    3    3    0    0  0.13456668123E+00 -0.19593629826E-01 -0.39860468992E-01  0.89133661375E+00  0.88000000000E+00 0. -1.
        -11    1    4    4    0    0 -0.54642169529E-01  0.18340445398E-01  0.34016731259E-01  0.66929348979E-01  0.51100000000E-03 0.  1.
         11    1    4    4    0    0 -0.72547213378E-01  0.30340531941E-02 -0.45954888080E-02  0.72757702590E-01  0.51100000000E-03 0. -1.
</event>
<event>
 8    1  0.2039519E+004  0.1043930E+01  0.7957747E-01            NaN
         13   -1    0    0    0    0  0.00000000000E+00  0.00000000000E+00  0.74505805969E-08  0.10566000000E+00  0.10566000000E+00 0. -1.
     999900   -1    0    0    0    0 -0.00000000000E+00 -0.00000000000E+00 -0.74505805969E-08  0.93827000000E+00  0.93827000000E+00 0.  1.
     999902    2    1    2    0    0 -0.14122364865E-01 -0.33300771686E-02  0.30696945117E-02  0.10290991663E+01  0.10289922937E+01 0.  0.
     999903    2    3    3    0    0  0.92404269465E-02  0.98287534517E-01 -0.85961804884E-01  0.13848220773E+00  0.45189213602E-01 0.  0.
         14    1    1    2    0    0  0.14122364865E-01  0.33300771686E-02 -0.30696945117E-02  0.14830833683E-01  0.00000000000E+00 0. -1.
     999901    1    3    3    0    0 -0.23362791812E-01 -0.10161761169E+00  0.89031499396E-01  0.89061695859E+00  0.88000000000E+00 0.  1.
        -11    1    4    4    0    0 -0.12529907160E-01  0.42927537812E-01 -0.56617056901E-01  0.72149319672E-01  0.51100000000E-03 0. -1.
         11    1    4    4    0    0  0.21770334106E-01  0.55359996706E-01 -0.29344747983E-01  0.66332888054E-01  0.51100000000E-03 0.  1.
</event>
<event>
 8    1  0.2039519E+004  0.1043930E+01  0.7957747E-01            NaN
         13   -1    0    0    0    0  0.00000000000E+00  0.00000000000E+00  0.74505805969E-08  0.10566000000E+00  0.10566000000E+00 0.  1.
     999900   -1    0    0    0    0 -0.00000000000E+00 -0.00000000000E+00 -0.74505805969E-08  0.93827000000E+00  0.93827000000E+00 0.  1.
     999902    2    1    2    0    0  0.10416134647E-01 -0.29336842451E-02 -0.29989460488E-02  0.10327007506E+01  0.10326396972E+01 0.  0.
     999903    2    3    3    0    0 -0.63805784792E-01  0.52154933711E-01  0.10462238920E+00  0.14133887071E+00  0.47323532936E-01 0.  0.
         14    1    1    2    0    0 -0.10416134647E-01  0.29336842451E-02  0.29989460488E-02  0.11229249380E-01  0.00000000000E+00 0.  1.
     999901    1    3    3    0    0  0.74221919440E-01 -0.55088617956E-01 -0.10762133525E+00  0.89136187991E+00  0.88000000000E+00 0.  1.
        -11    1    4    4    0    0  0.28038826335E-02  0.79055596200E-02  0.32773047175E-01  0.33833317497E-01  0.51100000000E-03 0.  1.
         11    1    4    4    0    0 -0.66609667426E-01  0.44249374091E-01  0.71849342021E-01  0.10750555321E+00  0.51100000000E-03 0. -1.
</event>
<event>
 8    1  0.2039519E+004  0.1043930E+01  0.7957747E-01            NaN
         13   -1    0    0    0    0  0.00000000000E+00  0.00000000000E+00  0.74505805969E-08  0.10566000000E+00  0.10566000000E+00 0.  1.
     999900   -1    0    0    0    0 -0.00000000000E+00 -0.00000000000E+00 -0.74505805969E-08  0.93827000000E+00  0.93827000000E+00 0.  1.
     999902    2    1    2    0    0  0.79067457911E-02 -0.11585240600E-01  0.19007687335E-03  0.10299025071E+01  0.10298069739E+01 0.  0.
     999903    2    3    3    0    0 -0.10897641447E+00 -0.55218088082E-01 -0.50578168034E-01  0.13965371419E+00  0.44945663234E-01 0.  0.
         14    1    1    2    0    0 -0.79067457911E-02  0.11585240600E-01 -0.19007687335E-03  0.14027492933E-01  0.00000000000E+00 0. -1.
     999901    1    3    3    0    0  0.11688316026E+00  0.43632847482E-01  0.50768244908E-01  0.89024879288E+00  0.88000000000E+00 0.  1.
        -11    1    4    4    0    0 -0.71268678414E-01 -0.11650939725E-01 -0.33091997195E-01  0.79437461684E-01  0.51100000000E-03 0.  1.
         11    1    4    4    0    0 -0.37707736052E-01 -0.43567148356E-01 -0.17486170839E-01  0.60216252505E-01  0.51100000000E-03 0. -1.
</event>
<event>
 8    1  0.2039519E+004  0.1043930E+01  0.7957747E-01            NaN
         13   -1    0    0    0    0  0.00000000000E+00  0.00000000000E+00  0.74505805969E-08  0.10566000000E+00  0.10566000000E+00 0. -1.
     999900   -1    0    0    0    0 -0.00000000000E+00 -0.00000000000E+00 -0.74505805969E-08  0.93827000000E+00  0.93827000000E+00 0. -1.
     999902    2    1    2    0    0 -0.14060608121E-02 -0.66195332076E-02  0.11103004291E-01  0.10309272337E+01  0.10308452305E+01 0.  0.
     999903    2    3    3    0    0  0.85994916612E-01  0.10098267551E+00 -0.72674747934E-02  0.13988590993E+00  0.43847749918E-01 0.  0.
         14    1    1    2    0    0  0.14060608121E-02  0.66195332076E-02 -0.11103004291E-01  0.13002766289E-01  0.00000000000E+00 0.  1.
     999901    1    3    3    0    0 -0.87400977424E-01 -0.10760220871E+00  0.18370479084E-01  0.89104132378E+00  0.88000000000E+00 0. -1.
        -11    1    4    4    0    0  0.12932131983E-01  0.25841723078E-01  0.15262974963E-01  0.32684158471E-01  0.51100000000E-03 0.  1.
         11    1    4    4    0    0  0.73062784629E-01  0.75140952429E-01 -0.22530449756E-01  0.10720175146E+00  0.51100000000E-03 0. -1.
</event>
<event>
 8    1  0.2039519E+004  0.1043930E+01  0.7957747E-01            NaN
         13   -1    0    0    0    0  0.00000000000E+00  0.00000000000E+00  0.74505805969E-08  0.10566000000E+00  0.10566000000E+00 0. -1.
     999900   -1    0    0    0    0 -0.00000000000E+00 -0.00000000000E+00 -0.74505805969E-08  0.93827000000E+00  0.93827000000E+00 0.  1.
     999902    2    1    2    0    0 -0.90060308537E-02 -0.92060096758E-02  0.40021900808E-02  0.10304438319E+01  0.10303555764E+01 0.  0.
     999903    2    3    3    0    0 -0.54454505593E-01 -0.10086027510E+00 -0.69152161215E-01  0.14150197361E+00  0.45855194488E-01 0.  0.
         14    1    1    2    0    0  0.90060308537E-02  0.92060096758E-02 -0.40021900808E-02  0.13486168149E-01  0.00000000000E+00 0.  1.
     999901    1    3    3    0    0  0.45448474740E-01  0.91654265422E-01  0.73154351296E-01  0.88894185824E+00  0.88000000000E+00 0. -1.
        -11    1    4    4    0    0 -0.13489293401E-01 -0.32511661066E-01 -0.47134997723E-01  0.58829739699E-01  0.51100000000E-03 0. -1.
         11    1    4    4    0    0 -0.40965212192E-01 -0.68348614032E-01 -0.22017163493E-01  0.82672233907E-01  0.51100000000E-03 0.  1.
</event>
<event>
 8    1  0.2039519E+004  0.1043930E+01  0.7957747E-01            NaN
         13   -1    0    0    0    0  0.00000000000E+00  0.00000000000E+00  0.74505805969E-08  0.10566000000E+00  0.10566000000E+00 0. -1.
     999900   -1    0    0    0    0 -0.00000000000E+00 -0.00000000000E+00 -0.74505805969E-08  0.93827000000E+00  0.93827000000E+00 0. -1.
     999902    2    1    2    0    0  0.78160892455E-02  0.13579477496E-02  0.98156859800E-02  0.10313092645E+01  0.10312320379E+01 0.  0.
     999903    2    3    3    0    0  0.88281376142E-01 -0.67472820632E-01  0.76276547602E-01  0.14247329359E+00  0.46198969400E-01 0.  0.
         14    1    1    2    0    0 -0.78160892455E-02 -0.13579477496E-02 -0.98156859800E-02  0.12620735495E-01  0.00000000000E+00 0.  1.
     999901    1    3    3    0    0 -0.80465286896E-01  0.68830768381E-01 -0.66460861623E-01  0.88883597092E+00  0.88000000000E+00 0.  1.
        -11    1    4    4    0    0  0.70848102584E-02 -0.29608134941E-01  0.23772733895E-01  0.38629524834E-01  0.51100000000E-03 0. -1.
         11    1    4    4    0    0  0.81196565884E-01 -0.37864685691E-01  0.52503813708E-01  0.10384376875E+00  0.51100000000E-03 0.  1.
</event>
<event>
 8    1  0.2039519E+004  0.1043930E+01  0.7957747E-01            NaN
         13   -1    0    0    0    0  0.00000000000E+00  0.00000000000E+00  0.74505805969E-08  0.10566000000E+00  0.10566000000E+00 0. -1.
     999900   -1    0    0    0    0 -0.00000000000E+00 -0.00000000000E+00 -0.74505805969E-08  0.93827000000E+00  0.93827000000E+00 0.  1.
     999902    2    1    2    0    0  0.11347214731E-01 -0.52610124624E-02 -0.35338639969E-02  0.10309328569E+01  0.10308509251E+01 0.  0.
     999903    2    3    3    0    0  0.10031446735E+00 -0.33529876267E-01 -0.83356559577E-01  0.14240263038E+00  0.46291987977E-01 0.  0.
         14    1    1    2    0    0 -0.11347214731E-01  0.52610124624E-02  0.35338639969E-02  0.12997143110E-01  0.00000000000E+00 0. -1.
     999901    1    3    3    0    0 -0.88967252621E-01  0.28268863805E-01  0.79822695580E-01  0.88853022651E+00  0.88000000000E+00 0. -1.
        -11    1    4    4    0    0  0.52809116498E-01 -0.14950840774E-01 -0.71310864955E-01  0.89987949231E-01  0.51100000000E-03 0. -1.
         11    1    4    4    0    0  0.47505350854E-01 -0.18579035494E-01 -0.12045694622E-01  0.52414681145E-01  0.51100000000E-03 0.  1.
</event>
<event>
 8    1  0.2039519E+004  0.1043930E+01  0.7957747E-01            NaN
         13   -1    0    0    0    0  0.00000000000E+00  0.00000000000E+00  0.74505805969E-08  0.10566000000E+00  0.10566000000E+00 0.  1.
     999900   -1    0    0    0    0 -0.00000000000E+00 -0.00000000000E+00 -0.74505805969E-08  0.93827000000E+00  0.93827000000E+00 0. -1.
     999902    2    1    2    0    0 -0.14792520207E-01  0.42678877164E-03 -0.20444485865E-02  0.10289907707E+01  0.10288823186E+01 0.  0.
     999903    2    3    3    0    0  0.77917002953E-02  0.13078527821E+00  0.10889517407E-01  0.13900724821E+00  0.45154555435E-01 0.  0.
         14    1    1    2    0    0  0.14792520207E-01 -0.42678877164E-03  0.20444485865E-02  0.14939229323E-01  0.00000000000E+00 0. -1.
     999901    1    3    3    0    0 -0.22584220502E-01 -0.13035848944E+00 -0.12933965993E-01  0.88998352247E+00  0.88000000000E+00 0.  1.
        -11    1    4    4    0    0  0.79626126304E-02  0.59640940059E-01  0.27169714873E-01  0.66021961940E-01  0.51100000000E-03 0. -1.
         11    1    4    4    0    0 -0.17091233509E-03  0.71144338149E-01 -0.16280197467E-01  0.72985286272E-01  0.51100000000E-03 0.  1.
</event>
<event>
 8    1  0.2039519E+004  0.1043930E+01  0.7957747E-01            NaN
         13   -1    0    0    0    0  0.00000000000E+00  0.00000000000E+00  0.74505805969E-08  0.10566000000E+00  0.10566000000E+00 0. -1.
     999900   -1    0    0    0    0 -0.00000000000E+00 -0.00000000000E+00 -0.74505805969E-08  0.93827000000E+00  0.93827000000E+00 0.  1.
     999902    2    1    2    0    0 -0.13852682333E-02 -0.39978732006E-02  0.12153331533E-01  0.10310612228E+01  0.10309809115E+01 0.  0.
     999903    2    3    3    0    0  0.32201730568E-01  0.12663914180E+00 -0.22100001193E-01  0.14012496980E+00  0.45521131608E-01 0.  0.
         14    1    1    2    0    0  0.13852682333E-02  0.39978732006E-02 -0.12153331533E-01  0.12868777158E-01  0.00000000000E+00 0.  1.
     999901    1    3    3    0    0 -0.33586998801E-01 -0.13063701500E+00  0.34253332726E-01  0.89093625304E+00  0.88000000000E+00 0. -1.
        -11    1    4    4    0    0  0.20727359757E-02  0.75670305888E-01  0.31264318473E-02  0.75764946543E-01  0.51100000000E-03 0. -1.
         11    1    4    4    0    0  0.30128994592E-01  0.50968835909E-01 -0.25226433040E-01  0.64360023260E-01  0.51100000000E-03 0.  1.
</event>
<event>
 8    1  0.2039519E+004  0.1043930E+01  0.7957747E-01            NaN
         13   -1    0    0    0    0  0.00000000000E+00  0.00000000000E+00  0.74505805969E-08  0.10566000000E+00  0.10566000000E+00 0. -1.
     999900   -1    0    0    0    0 -0.00000000000E+00 -0.00000000000E+00 -0.74505805969E-08  0.93827000000E+00  0.93827000000E+00 0. -1.
     999902    2    1    2    0    0  0.42830390808E-02 -0.10009086587E-01  0.71960543710E-02  0.10308797342E+01  0.10307971270E+01 0.  0.
     999903    2    3    3    0    0 -0.31815274021E-01  0.96767356194E-01 -0.83206797563E-01  0.13909670424E+00  0.45259132610E-01 0.  0.
         14    1    1    2    0    0 -0.42830390808E-02  0.10009086587E-01 -0.71960543710E-02  0.13050265767E-01  0.00000000000E+00 0.  1.
     999901    1    3    3    0    0  0.36098313102E-01 -0.10677644278E+00  0.90402851934E-01  0.89178302999E+00  0.88000000000E+00 0.  1.
        -11    1    4    4    0    0  0.48405488915E-02  0.27407426736E-01 -0.42254005428E-01  0.50599012338E-01  0.51100000000E-03 0. -1.
         11    1    4    4    0    0 -0.36655822912E-01  0.69359929458E-01 -0.40952792135E-01  0.88497691905E-01  0.51100000000E-03 0.  1.
</event>
<event>
 8    1  0.2039519E+004  0.1043930E+01  0.7957747E-01            NaN
         13   -1    0    0    0    0  0.00000000000E+00  0.00000000000E+00  0.74505805969E-08  0.10566000000E+00  0.10566000000E+00 0.  1.
     999900   -1    0    0    0    0 -0.00000000000E+00 -0.00000000000E+00 -0.74505805969E-08  0.93827000000E+00  0.93827000000E+00 0. -1.
     999902    2    1    2    0    0 -0.15674305435E-02  0.98142003674E-02  0.96694255096E-02  0.10300637403E+01  0.10299704054E+01 0.  0.
     999903    2    3    3    0    0  0.55174752164E-01 -0.68085215866E-01  0.10002021315E+00  0.14020349335E+00  0.44419889828E-01 0.  0.
         14    1    1    2    0    0  0.15674305435E-02 -0.98142003674E-02 -0.96694255096E-02  0.13866259663E-01  0.00000000000E+00 0. -1.
     999901    1    3    3    0    0 -0.56742182708E-01  0.77899416234E-01 -0.90350787638E-01  0.88986024699E+00  0.88000000000E+00 0. -1.
        -11    1    4    4    0    0 -0.51608817628E-02 -0.17158406209E-01  0.28510967446E-01  0.33677618531E-01  0.51100000000E-03 0.  1.
         11    1    4    4    0    0  0.60335633927E-01 -0.50926809658E-01  0.71509245702E-01  0.10652587482E+00  0.51100000000E-03 0. -1.
</event>
<event>
 8    1  0.2039519E+004  0.1043930E+01  0.7957747E-01            NaN
         13   -1    0    0    0    0  0.00000000000E+00  0.00000000000E+00  0.74505805969E-08  0.10566000000E+00  0.10566000000E+00 0. -1.
     999900   -1    0    0    0    0 -0.00000000000E+00 -0.00000000000E+00 -0.74505805969E-08  0.93827000000E+00  0.93827000000E+00 0.  1.
     999902    2    1    2    0    0 -0.68609997982E-02 -0.10048576055E-01  0.58324756219E-02  0.10304368547E+01  0.10303485073E+01 0.  0.
     999903    2    3    3    0    0  0.11697023307E+00  0.49977268136E-01 -0.32929858113E-01  0.13889897285E+00  0.45042050886E-01 0.  0.
         14    1    1    2    0    0  0.68609997982E-02  0.10048576055E-01 -0.58324756219E-02  0.13493145328E-01  0.00000000000E+00 0.  1.
     999901    1    3    3    0    0 -0.12383123287E+00 -0.60025844190E-01  0.38762333735E-01  0.89153788182E+00  0.88000000000E+00 0. -1.
        -11    1    4    4    0    0  0.12925343859E-01 -0.72380201042E-02 -0.10225881115E-01  0.18007865350E-01  0.51100000000E-03 0. -1.
         11    1    4    4    0    0  0.10404488922E+00  0.57215288240E-01 -0.22703976998E-01  0.12089110750E+00  0.51100000000E-03 0.  1.
</event>
<event>
 8    1  0.2039519E+004  0.1043930E+01  0.7957747E-01            NaN
         13   -1    0    0    0    0  0.00000000000E+00  0.00000000000E+00  0.74505805969E-08  0.10566000000E+00  0.10566000000E+00 0.  1.
     999900   -1    0    0    0    0 -0.00000000000E+00 -0.00000000000E+00 -0.74505805969E-08  0.93827000000E+00  0.93827000000E+00 0. -1.
     999902    2    1    2    0    0 -0.11295987157E-01  0.10672604618E-02  0.31431100867E-02  0.10321564062E+01  0.10320892545E+01 0.  0.
     999903    2    3    3    0    0 -0.42632955543E-01  0.73552151221E-01 -0.10669435939E+00  0.14181920337E+00  0.38749351879E-01 0.  0.
         14    1    1    2    0    0  0.11295987157E-01 -0.10672604618E-02 -0.31431100867E-02  0.11773593834E-01  0.00000000000E+00 0. -1.
     999901    1    3    3    0    0  0.31336968385E-01 -0.72484890760E-01  0.10983746948E+00  0.89033720279E+00  0.88000000000E+00 0. -1.
        -11    1    4    4    0    0 -0.26967236056E-01  0.34183710421E-01 -0.26105783740E-01  0.50769389836E-01  0.51100000000E-03 0.  1.
         11    1    4    4    0    0 -0.15665719487E-01  0.39368440801E-01 -0.80588575654E-01  0.91049813537E-01  0.51100000000E-03 0. -1.
</event>
<event>
 8    1  0.2039519E+004  0.1043930E+01  0.7957747E-01            NaN
         13   -1    0    0    0    0  0.00000000000E+00  0.00000000000E+00  0.74505805969E-08  0.10566000000E+00  0.10566000000E+00 0.  1.
     999900   -1    0    0    0    0 -0.00000000000E+00 -0.00000000000E+00 -0.74505805969E-08  0.93827000000E+00  0.93827000000E+00 0.  1.
     999902    2    1    2    0    0  0.41235661097E-02  0.15088396104E-01 -0.83544207416E-02  0.10261969845E+01  0.10260437569E+01 0.  0.
     999903    2    3    3    0    0  0.63562253536E-01  0.91235592327E-01  0.68248960967E-01  0.13760290888E+00  0.43732670594E-01 0.  0.
         14    1    1    2    0    0 -0.41235661097E-02 -0.15088396104E-01  0.83544207416E-02  0.17733015546E-01  0.00000000000E+00 0.  1.
     999901    1    3    3    0    0 -0.59438687426E-01 -0.76147196223E-01 -0.76603381709E-01  0.88859407557E+00  0.88000000000E+00 0.  1.
        -11    1    4    4    0    0  0.20920635031E-01  0.56547373348E-01  0.53693086441E-01  0.80737147926E-01  0.51100000000E-03 0. -1.
         11    1    4    4    0    0  0.42641618505E-01  0.34688218979E-01  0.14555874526E-01  0.56865760954E-01  0.51100000000E-03 0.  1.
</event>
<event>
 8    1  0.2039519E+004  0.1043930E+01  0.7957747E-01            NaN
         13   -1    0    0    0    0  0.00000000000E+00  0.00000000000E+00  0.74505805969E-08  0.10566000000E+00  0.10566000000E+00 0. -1.
     999900   -1    0    0    0    0 -0.00000000000E+00 -0.00000000000E+00 -0.74505805969E-08  0.93827000000E+00  0.93827000000E+00 0.  1.
     999902    2    1    2    0    0  0.80445631630E-02 -0.10794508151E-01  0.21095115336E-01  0.10189052064E+01  0.10185978497E+01 0.  0.
     999903    2    3    3    0    0  0.62270011301E-01 -0.10681977592E+00 -0.27799622921E-02  0.13170101876E+00  0.45270424308E-01 0.  0.
         14    1    1    2    0    0 -0.80445631630E-02  0.10794508151E-01 -0.21095115336E-01  0.25024793581E-01  0.00000000000E+00 0.  1.
     999901    1    3    3    0    0 -0.54225448138E-01  0.96025267764E-01  0.23875077628E-01  0.88720418766E+00  0.88000000000E+00 0. -1.
        -11    1    4    4    0    0  0.46812640829E-02 -0.21298769337E-01  0.15801854174E-01  0.26935321142E-01  0.51100000000E-03 0.  1.
         11    1    4    4    0    0  0.57588747218E-01 -0.85521006578E-01 -0.18581816467E-01  0.10476569761E+00  0.51100000000E-03 0. -1.
</event>
<event>
 8    1  0.2039519E+004  0.1043930E+01  0.7957747E-01            NaN
         13   -1    0    0    0    0  0.00000000000E+00  0.00000000000E+00  0.74505805969E-08  0.10566000000E+00  0.10566000000E+00 0. -1.
     999900   -1    0    0    0    0 -0.00000000000E+00 -0.00000000000E+00 -0.74505805969E-08  0.93827000000E+00  0.93827000000E+00 0.  1.
     999902    2    1    2    0    0  0.11040956947E-01  0.43317974899E-02 -0.70042052451E-02  0.10301558906E+01  0.10300638003E+01 0.  0.
     999903    2    3    3    0    0 -0.10962906122E+00 -0.71251103941E-01  0.78296020310E-02  0.13858757006E+00  0.45276495341E-01 0.  0.
         14    1    1    2    0    0 -0.11040956947E-01 -0.43317974899E-02  0.70042052451E-02  0.13774109442E-01  0.00000000000E+00 0. -1.
     999901    1    3    3    0    0  0.12067001817E+00  0.75582901431E-01 -0.14833807276E-01  0.89156832050E+00  0.88000000000E+00 0.  1.
        -11    1    4    4    0    0 -0.42658894700E-01 -0.45155932846E-01 -0.13583257693E-01  0.63589351143E-01  0.51100000000E-03 0. -1.
         11    1    4    4    0    0 -0.66970166522E-01 -0.26095171096E-01  0.21412859724E-01  0.74998218919E-01  0.51100000000E-03 0.  1.
</event>
<event>
 8    1  0.2039519E+004  0.1043930E+01  0.7957747E-01            NaN
         13   -1    0    0    0    0  0.00000000000E+00  0.00000000000E+00  0.74505805969E-08  0.10566000000E+00  0.10566000000E+00 0.  1.
     999900   -1    0    0    0    0 -0.00000000000E+00 -0.00000000000E+00 -0.74505805969E-08  0.93827000000E+00  0.93827000000E+00 0. -1.
     999902    2    1    2    0    0 -0.11364988791E-01 -0.71006400808E-02 -0.35429484270E-02  0.10300687395E+01  0.10299754723E+01 0.  0.
     999903    2    3    3    0    0 -0.88768526905E-01  0.89098305252E-01  0.42740565406E-01  0.14024420146E+00  0.44981337743E-01 0.  0.
         14    1    1    2    0    0  0.11364988791E-01  0.71006400808E-02  0.35429484270E-02  0.13861260525E-01  0.00000000000E+00 0. -1.
     999901    1    3    3    0    0  0.77403538114E-01 -0.96198945333E-01 -0.46283513833E-01  0.88982453801E+00  0.88000000000E+00 0. -1.
        -11    1    4    4    0    0 -0.17044459448E-01 -0.14989759227E-02  0.22885878826E-03  0.17119404897E-01  0.51100000000E-03 0. -1.
         11    1    4    4    0    0 -0.71724067457E-01  0.90597281175E-01  0.42511706618E-01  0.12312479657E+00  0.51100000000E-03 0.  1.
</event>
<event>
 8    1  0.2039519E+004  0.1043930E+01  0.7957747E-01            NaN
         13   -1    0    0    0    0  0.00000000000E+00  0.00000000000E+00  0.74505805969E-08  0.10566000000E+00  0.10566000000E+00 0. -1.
     999900   -1    0    0    0    0 -0.00000000000E+00 -0.00000000000E+00 -0.74505805969E-08  0.93827000000E+00  0.93827000000E+00 0.  1.
     999902    2    1    2    0    0  0.29926437433E-02  0.13485733569E-01 -0.67253627224E-02  0.10285660347E+01  0.10284512805E+01 0.  0.
     999903    2    3    3    0    0  0.22306925075E-01 -0.47558226477E-01 -0.11890165587E+00  0.13913760740E+00  0.49621428954E-01 0.  0.
         14    1    1    2    0    0 -0.29926437433E-02 -0.13485733569E-01  0.67253627224E-02  0.15363965315E-01  0.00000000000E+00 0. -1.
     999901    1    3    3    0    0 -0.19314281331E-01  0.61043960046E-01  0.11217629315E+00  0.88942842729E+00  0.88000000000E+00 0. -1.
        -11    1    4    4    0    0  0.37803895660E-01 -0.32572149323E-01 -0.73049632838E-01  0.88468013527E-01  0.51100000000E-03 0.  1.
         11    1    4    4    0    0 -0.15496970585E-01 -0.14986077154E-01 -0.45852023034E-01  0.50669593871E-01  0.51100000000E-03 0. -1.
</event>
<event>
 8    1  0.2039519E+004  0.1043930E+01  0.7957747E-01            NaN
         13   -1    0    0    0    0  0.00000000000E+00  0.00000000000E+00  0.74505805969E-08  0.10566000000E+00  0.10566000000E+00 0.  1.
     999900   -1    0    0    0    0 -0.00000000000E+00 -0.00000000000E+00 -0.74505805969E-08  0.93827000000E+00  0.93827000000E+00 0.  1.
     999902    2    1    2    0    0 -0.33415785148E-02  0.12136686514E-01 -0.58771390650E-02  0.10300373375E+01  0.10299436444E+01 0.  0.
     999903    2    3    3    0    0  0.11902442765E+00 -0.49924360524E-01  0.21577961400E-01  0.13898245957E+00  0.46810890812E-01 0.  0.
         14    1    1    2    0    0  0.33415785148E-02 -0.12136686514E-01  0.58771390650E-02  0.13892662455E-01  0.00000000000E+00 0. -1.
     999901    1    3    3    0    0 -0.12236600616E+00  0.62061047038E-01 -0.27455100465E-01  0.89105487798E+00  0.88000000000E+00 0.  1.
        -11    1    4    4    0    0  0.10744256794E+00 -0.27057219065E-01  0.23533597848E-01  0.11326998657E+00  0.51100000000E-03 0. -1.
         11    1    4    4    0    0  0.11581859712E-01 -0.22867141459E-01 -0.19556364478E-02  0.25712473000E-01  0.51100000000E-03 0.  1.
</event>
<event>
 7    1  0.2039519E+004  0.1043930E+01  0.7957747E-01            NaN
         13   -1    0    0    0    0  0.00000000000E+00  0.00000000000E+00  0.74505805969E-08  0.10566000000E+00  0.10566000000E+00 0.  1.
     999900   -1    0    0    0    0 -0.00000000000E+00 -0.00000000000E+00 -0.74505805969E-08  0.93827000000E+00  0.93827000000E+00 0.  1.
     999902    2    1    2    0    0 -0.29627979755E-02  0.83110312104E-02 -0.11281815399E-01  0.10296076130E+01  0.10295079922E+01 0.  0.
         14    1    1    2    0    0  0.29627979755E-02 -0.83110312104E-02  0.11281815399E-01  0.14322387033E-01  0.00000000000E+00 0.  1.
     999901    1    3    3    0    0 -0.87751460015E-01  0.89557933035E-01  0.59991851544E-01  0.89090962749E+00  0.88000000000E+00 0. -1.
        -11    1    3    3    0    0  0.27422020343E-01 -0.16029904772E-01 -0.14424557979E-01  0.34889167955E-01  0.51100000000E-03 0. -1.
         11    1    3    3    0    0  0.57366641696E-01 -0.65216997053E-01 -0.56849108964E-01  0.10380881752E+00  0.51100000000E-03 0.  1.
</event>
<event>
 8    1  0.2039519E+004  0.1043930E+01  0.7957747E-01            NaN
         13   -1    0    0    0    0  0.00000000000E+00  0.00000000000E+00  0.74505805969E-08  0.10566000000E+00  0.10566000000E+00 0. -1.
     999900   -1    0    0    0    0 -0.00000000000E+00 -0.00000000000E+00 -0.74505805969E-08  0.93827000000E+00  0.93827000000E+00 0. -1.
     999902    2    1    2    0    0 -0.13909862604E-01 -0.13153849860E-03 -0.10931194607E-02  0.10299766316E+01  0.10298821122E+01 0.  0.
     999903    2    3    3    0    0 -0.10632834673E+00 -0.59562455844E-01  0.55664532106E-01  0.14132898422E+00  0.44965966953E-01 0.  0.
         14    1    1    2    0    0  0.13909862604E-01  0.13153849860E-03  0.10931194607E-02  0.13953368417E-01  0.00000000000E+00 0. -1.
     999901    1    3    3    0    0  0.92418484122E-01  0.59430917345E-01 -0.56757651566E-01  0.88864764736E+00  0.88000000000E+00 0. -1.
        -11    1    4    4    0    0 -0.44685924920E-02  0.51089552651E-02  0.10465022908E-01  0.12483892351E-01  0.51100000000E-03 0.  1.
         11    1    4    4    0    0 -0.10185975423E+00 -0.64671411109E-01  0.45199509197E-01  0.12884509187E+00  0.51100000000E-03 0. -1.
</event>
<event>
 8    1  0.2039519E+004  0.1043930E+01  0.7957747E-01            NaN
         13   -1    0    0    0    0  0.00000000000E+00  0.00000000000E+00  0.74505805969E-08  0.10566000000E+00  0.10566000000E+00 0.  1.
     999900   -1    0    0    0    0 -0.00000000000E+00 -0.00000000000E+00 -0.74505805969E-08  0.93827000000E+00  0.93827000000E+00 0. -1.
     999902    2    1    2    0    0  0.80751885527E-02 -0.10334972005E-01  0.37552123791E-02  0.10302873486E+01  0.10301970194E+01 0.  0.
     999903    2    3    3    0    0  0.11172194023E+00 -0.69447908530E-01 -0.28061566707E-01  0.14166521530E+00  0.44460969097E-01 0.  0.
         14    1    1    2    0    0 -0.80751885527E-02  0.10334972005E-01 -0.37552123791E-02  0.13642651374E-01  0.00000000000E+00 0. -1.
     999901    1    3    3    0    0 -0.10364675168E+00  0.59112936525E-01  0.31816779086E-01  0.88862213332E+00  0.88000000000E+00 0. -1.
        -11    1    4    4    0    0  0.34050206801E-01 -0.40346565486E-01 -0.25616125242E-01  0.58683122983E-01  0.51100000000E-03 0. -1.
         11    1    4    4    0    0  0.77671733430E-01 -0.29101343044E-01 -0.24454414651E-02  0.82982092321E-01  0.51100000000E-03 0.  1.
</event>
<event>
 7    1  0.2039519E+004  0.1043930E+01  0.7957747E-01            NaN
         13   -1    0    0    0    0  0.00000000000E+00  0.00000000000E+00  0.74505805969E-08  0.10566000000E+00  0.10566000000E+00 0. -1.
     999900   -1    0    0    0    0 -0.00000000000E+00 -0.00000000000E+00 -0.74505805969E-08  0.93827000000E+00  0.93827000000E+00 0.  1.
     999903    2    1    2    0    0  0.20974477758E-01  0.99192761363E-01  0.17861251178E-01  0.11645849620E+00  0.54446528072E-01 0.  0.
         14    1    1    2    0    0 -0.35988672494E-01 -0.25355826894E-01 -0.30124742697E-02  0.44126834314E-01  0.00000000000E+00 0.  1.
     999901    1    1    2    0    0  0.15014194736E-01 -0.73836934469E-01 -0.14848776908E-01  0.88334466949E+00  0.88000000000E+00 0. -1.
        -11    1    3    3    0    0  0.29256120216E-01  0.39763632278E-01 -0.98839838326E-02  0.50348994821E-01  0.51100000000E-03 0.  1.
         11    1    3    3    0    0 -0.82816424584E-02  0.59429129086E-01  0.27745235011E-01  0.66109501378E-01  0.51100000000E-03 0. -1.
</event>
<event>
 8    1  0.2039519E+004  0.1043930E+01  0.7957747E-01            NaN
         13   -1    0    0    0    0  0.00000000000E+00  0.00000000000E+00  0.74505805969E-08  0.10566000000E+00  0.10566000000E+00 0. -1.
     999900   -1    0    0    0    0 -0.00000000000E+00 -0.00000000000E+00 -0.74505805969E-08  0.93827000000E+00  0.93827000000E+00 0.  1.
     999902    2    1    2    0    0  0.51128243757E-02 -0.91680743063E-02 -0.10960501617E-01  0.10287534670E+01  0.10286415161E+01 0.  0.
     999903    2    3    3    0    0  0.63357112752E-01 -0.88583749363E-01  0.74281536917E-01  0.13916623025E+00  0.44590229062E-01 0.  0.
         14    1    1    2    0    0 -0.51128243757E-02  0.91680743063E-02  0.10960501617E-01  0.15176533045E-01  0.00000000000E+00 0. -1.
     999901    1    3    3    0    0 -0.58244288377E-01  0.79415675056E-01 -0.85242038534E-01  0.88958723670E+00  0.88000000000E+00 0.  1.
        -11    1    4    4    0    0  0.64812679232E-01 -0.59840166217E-01  0.62255593712E-01  0.10797012990E+00  0.51100000000E-03 0. -1.
         11    1    4    4    0    0 -0.14555664797E-02 -0.28743583145E-01  0.12025943205E-01  0.31196100346E-01  0.51100000000E-03 0.  1.
</event>
<event>
 8    1  0.2039519E+004  0.1043930E+01  0.7957747E-01            NaN
         13   -1    0    0    0    0  0.00000000000E+00  0.00000000000E+00  0.74505805969E-08  0.10566000000E+00  0.10566000000E+00 0. -1.
     999900   -1    0    0    0    0 -0.00000000000E+00 -0.00000000000E+00 -0.74505805969E-08  0.93827000000E+00  0.93827000000E+00 0. -1.
     999902    2    1    2    0    0 -0.75258654313E-02 -0.29548769672E-02 -0.10977899042E-01  0.10302960638E+01  0.10302058507E+01 0.  0.
     999903    2    3    3    0    0 -0.98625158627E-01 -0.48757348209E-01  0.74394643483E-01  0.14030425565E+00  0.45238482023E-01 0.  0.
         14    1    1    2    0    0  0.75258654313E-02  0.29548769672E-02  0.10977899042E-01  0.13633936180E-01  0.00000000000E+00 0. -1.
     999901    1    3    3    0    0  0.91099293196E-01  0.45802471242E-01 -0.85372542525E-01  0.88999180817E+00  0.88000000000E+00 0. -1.
        -11    1    4    4    0    0 -0.62808398826E-01 -0.22465050280E-01  0.68270807417E-01  0.95450184461E-01  0.51100000000E-03 0.  1.
         11    1    4    4    0    0 -0.35816759802E-01 -0.26292297929E-01  0.61238360658E-02  0.44854071189E-01  0.51100000000E-03 0. -1.
</event>
<event>
 8    1  0.2039519E+004  0.1043930E+01  0.7957747E-01            NaN
         13   -1    0    0    0    0  0.00000000000E+00  0.00000000000E+00  0.74505805969E-08  0.10566000000E+00  0.10566000000E+00 0.  1.
     999900   -1    0    0    0    0 -0.00000000000E+00 -0.00000000000E+00 -0.74505805969E-08  0.93827000000E+00  0.93827000000E+00 0.  1.
     999902    2    1    2    0    0  0.11284051919E-01 -0.70613683187E-02  0.39426405418E-02  0.10300470189E+01  0.10299534572E+01 0.  0.
     999903    2    3    3    0    0 -0.41874446566E-01 -0.15075707303E-01  0.12501108226E+00  0.14013262796E+00  0.45040387490E-01 0.  0.
         14    1    1    2    0    0 -0.11284051919E-01  0.70613683187E-02 -0.39426405418E-02  0.13882981116E-01  0.00000000000E+00 0. -1.
     999901    1    3    3    0    0  0.53158498485E-01  0.80143389846E-02 -0.12106844172E+00  0.88991439092E+00  0.88000000000E+00 0.  1.
        -11    1    4    4    0    0 -0.39888569938E-01  0.39117644080E-02  0.58359729485E-01  0.70799145892E-01  0.51100000000E-03 0.  1.
         11    1    4    4    0    0 -0.19858766288E-02 -0.18987471711E-01  0.66651352777E-01  0.69333482070E-01  0.51100000000E-03 0. -1.
</event>
<event>
 8    1  0.2039519E+004  0.1043930E+01  0.7957747E-01            NaN
         13   -1    0    0    0    0  0.00000000000E+00  0.00000000000E+00  0.74505805969E-08  0.10566000000E+00  0.10566000000E+00 0.  1.
     999900   -1    0    0    0    0 -0.00000000000E+00 -0.00000000000E+00 -0.74505805969E-08  0.93827000000E+00  0.93827000000E+00 0.  1.
     999902    2    1    2    0    0 -0.12447404913E-02  0.19906481080E-02 -0.14295718878E-01  0.10294427768E+01  0.10293408333E+01 0.  0.
     999903    2    3    3    0    0  0.52857601081E-02  0.13179680282E+00  0.74935028308E-02  0.13962984394E+00  0.45188541032E-01 0.  0.
         14    1    1    2    0    0  0.12447404913E-02 -0.19906481080E-02  0.14295718878E-01  0.14487223234E-01  0.00000000000E+00 0.  1.
     999901    1    3    3    0    0 -0.65305005994E-02 -0.12980615471E+00 -0.21789221709E-01  0.88981293282E+00  0.88000000000E+00 0.  1.
        -11    1    4    4    0    0 -0.12484351570E-02  0.44853162522E-01 -0.18664359118E-01  0.48600248979E-01  0.51100000000E-03 0.  1.
         11    1    4    4    0    0  0.65341952652E-02  0.86943640299E-01  0.26157861949E-01  0.91029594962E-01  0.51100000000E-03 0. -1.
</event>
<event>
 8    1  0.2039519E+004  0.1043930E+01  0.7957747E-01            NaN
         13   -1    0    0    0    0  0.00000000000E+00  0.00000000000E+00  0.74505805969E-08  0.10566000000E+00  0.10566000000E+00 0. -1.
     999900   -1    0    0    0    0 -0.00000000000E+00 -0.00000000000E+00 -0.74505805969E-08  0.93827000000E+00  0.93827000000E+00 0. -1.
     999902    2    1    2    0    0  0.11910270537E-01  0.61259206825E-02 -0.21424402656E-02  0.10303663906E+01  0.10302771120E+01 0.  0.
     999903    2    3    3    0    0  0.27585197907E-02  0.12551838646E+00  0.45208204455E-01  0.14099560240E+00  0.45535737352E-01 0.  0.
         14    1    1    2    0    0 -0.11910270537E-01 -0.61259206825E-02  0.21424402656E-02  0.13563609356E-01  0.00000000000E+00 0.  1.
     999901    1    3    3    0    0  0.91517507460E-02 -0.11939246577E+00 -0.47350644721E-01  0.88937078824E+00  0.88000000000E+00 0. -1.
        -11    1    4    4    0    0  0.23414366590E-01  0.59353732142E-01  0.27311766657E-01  0.69406712938E-01  0.51100000000E-03 0.  1.
         11    1    4    4    0    0 -0.20655846799E-01  0.66164654315E-01  0.17896437799E-01  0.71588889462E-01  0.51100000000E-03 0. -1.
</event>
<event>
 8    1  0.2039519E+004  0.1043930E+01  0.7957747E-01            NaN
         13   -1    0    0    0    0  0.00000000000E+00  0.00000000000E+00  0.74505805969E-08  0.10566000000E+00  0.10566000000E+00 0.  1.
     999900   -1    0    0    0    0 -0.00000000000E+00 -0.00000000000E+00 -0.74505805969E-08  0.93827000000E+00  0.93827000000E+00 0.  1.
     999902    2    1    2    0    0  0.12770757886E-01  0.26192615728E-02 -0.28113429936E-02  0.10305937172E+01  0.10305074253E+01 0.  0.
     999903    2    3    3    0    0 -0.11454430132E-01 -0.11970901974E+00  0.54789481215E-01  0.13993726098E+00  0.46033644032E-01 0.  0.
         14    1    1    2    0    0 -0.12770757886E-01 -0.26192615728E-02  0.28113429936E-02  0.13336282751E-01  0.00000000000E+00 0. -1.
     999901    1    3    3    0    0  0.24225188018E-01  0.12232828131E+00 -0.57600824208E-01  0.89065645627E+00  0.88000000000E+00 0.  1.
        -11    1    4    4    0    0 -0.26848181088E-01 -0.65669899563E-01  0.19482675184E-01  0.73574426873E-01  0.51100000000E-03 0.  1.
         11    1    4    4    0    0  0.15393750957E-01 -0.54039120175E-01  0.35306806030E-01  0.66362834108E-01  0.51100000000E-03 0. -1.
</event>
<event>
 8    1  0.2039519E+004  0.1043930E+01  0.7957747E-01            NaN
         13   -1    0    0    0    0  0.00000000000E+00  0.00000000000E+00  0.74505805969E-08  0.10566000000E+00  0.10566000000E+00 0.  1.
     999900   -1    0    0    0    0 -0.00000000000E+00 -0.00000000000E+00 -0.74505805969E-08  0.93827000000E+00  0.93827000000E+00 0.  1.
     999902    2    1    2    0    0  0.97953400401E-02  0.23937803851E-02 -0.44900788366E-03  0.10338364140E+01  0.10337871398E+01 0.  0.
     999903    2    3    3    0    0 -0.16579387996E-01 -0.93425674515E-01 -0.96804136710E-01  0.14301583435E+00  0.45598851133E-01 0.  0.
         14    1    1    2    0    0 -0.97953400401E-02 -0.23937803851E-02  0.44900788366E-03  0.10093586038E-01  0.00000000000E+00 0.  1.
     999901    1    3    3    0    0  0.26374728036E-01  0.95819454900E-01  0.96355128826E-01  0.89082057962E+00  0.88000000000E+00 0. -1.
        -11    1    4    4    0    0  0.10237538755E-01 -0.66360049871E-01 -0.60353288510E-01  0.90284239896E-01  0.51100000000E-03 0.  1.
         11    1    4    4    0    0 -0.26816926751E-01 -0.27065624644E-01 -0.36450848200E-01  0.52731594450E-01  0.51100000000E-03 0. -1.
</event>
<event>
 8    1  0.2039519E+004  0.1043930E+01  0.7957747E-01            NaN
         13   -1    0    0    0    0  0.00000000000E+00  0.00000000000E+00  0.74505805969E-08  0.10566000000E+00  0.10566000000E+00 0. -1.
     999900   -1    0    0    0    0 -0.00000000000E+00 -0.00000000000E+00 -0.74505805969E-08  0.93827000000E+00  0.93827000000E+00 0. -1.
     999902    2    1    2    0    0  0.53577174030E-02 -0.44767652876E-02  0.10137673481E-01  0.10316206951E+01  0.10315472551E+01 0.  0.
     999903    2    3    3    0    0  0.11719101375E+00 -0.26743623078E-01  0.62472065425E-01  0.14272172014E+00  0.44919654517E-01 0.  0.
         14    1    1    2    0    0 -0.53577174030E-02  0.44767652876E-02 -0.10137673481E-01  0.12309304888E-01  0.00000000000E+00 0.  1.
     999901    1    3    3    0    0 -0.11183329635E+00  0.22266857791E-01 -0.52334391945E-01  0.88889897497E+00  0.88000000000E+00 0.  1.
        -11    1    4    4    0    0  0.80364634502E-01 -0.23382944267E-01  0.64522726307E-01  0.10568197525E+00  0.51100000000E-03 0.  1.
         11    1    4    4    0    0  0.36826379248E-01 -0.33606788109E-02 -0.20506608811E-02  0.37039744891E-01  0.51100000000E-03 0. -1.
</event>
<event>
 8    1  0.2039519E+004  0.1043930E+01  0.7957747E-01            NaN
         13   -1    0    0    0    0  0.00000000000E+00  0.00000000000E+00  0.74505805969E-08  0.10566000000E+00  0.10566000000E+00 0.  1.
     999900   -1    0    0    0    0 -0.00000000000E+00 -0.00000000000E+00 -0.74505805969E-08  0.93827000000E+00  0.93827000000E+00 0.  1.
     999902    2    1    2    0    0  0.11680806297E-01 -0.78200222465E-02  0.16854356301E-02  0.10297725046E+01  0.10296751801E+01 0.  0.
     999903    2    3    3    0    0  0.10354532633E-01  0.12762259256E+00  0.30714924494E-01  0.13893628386E+00  0.44329921130E-01 0.  0.
         14    1    1    2    0    0 -0.11680806297E-01  0.78200222465E-02 -0.16854356301E-02  0.14157495433E-01  0.00000000000E+00 0. -1.
     999901    1    3    3    0    0  0.13262736640E-02 -0.13544261481E+00 -0.29029488864E-01  0.89083622071E+00  0.88000000000E+00 0.  1.
        -11    1    4    4    0    0  0.12379007316E-01  0.77717559562E-01 -0.28619082437E-02  0.78750939844E-01  0.51100000000E-03 0. -1.
         11    1    4    4    0    0 -0.20244746829E-02  0.49905032997E-01  0.33576832738E-01  0.60185344012E-01  0.51100000000E-03 0.  1.
</event>
<event>
 7    1  0.2039519E+004  0.1043930E+01  0.7957747E-01            NaN
         13   -1    0    0    0    0  0.00000000000E+00  0.00000000000E+00  0.74505805969E-08  0.10566000000E+00  0.10566000000E+00 0. -1.
     999900   -1    0    0    0    0 -0.00000000000E+00 -0.00000000000E+00 -0.74505805969E-08  0.93827000000E+00  0.93827000000E+00 0.  1.
     999902    2    1    2    0    0 -0.87511272689E-02 -0.41701195846E-02 -0.62335936164E-02  0.10324048182E+01  0.10323404859E+01 0.  0.
         14    1    1    2    0    0  0.87511272689E-02  0.41701195846E-02  0.62335936164E-02  0.11525181786E-01  0.00000000000E+00 0. -1.
     999901    1    3    3    0    0  0.38202043031E-01 -0.10863480737E+00 -0.87419847511E-01  0.89179770531E+00  0.88000000000E+00 0.  1.
        -11    1    3    3    0    0 -0.13127468780E-01  0.37092990131E-01  0.30042031230E-01  0.49507626835E-01  0.51100000000E-03 0.  1.
         11    1    3    3    0    0 -0.33825701520E-01  0.67371697656E-01  0.51144222665E-01  0.91099486065E-01  0.51100000000E-03 0. -1.
</event>
<event>
 8    1  0.2039519E+004  0.1043930E+01  0.7957747E-01            NaN
         13   -1    0    0    0    0  0.00000000000E+00  0.00000000000E+00  0.74505805969E-08  0.10566000000E+00  0.10566000000E+00 0. -1.
     999900   -1    0    0    0    0 -0.00000000000E+00 -0.00000000000E+00 -0.74505805969E-08  0.93827000000E+00  0.93827000000E+00 0. -1.
     999902    2    1    2    0    0 -0.51361879071E-02  0.10865426414E-01 -0.85670513969E-02  0.10291708575E+01  0.10290650230E+01 0.  0.
     999903    2    3    3    0    0 -0.10423063589E+00 -0.32921517059E-01 -0.75493540329E-01  0.14000486572E+00  0.44206742139E-01 0.  0.
         14    1    1    2    0    0  0.51361879071E-02 -0.10865426414E-01  0.85670513969E-02  0.14759142489E-01  0.00000000000E+00 0. -1.
     999901    1    3    3    0    0  0.99094447981E-01  0.43786943472E-01  0.66926488932E-01  0.88916599179E+00  0.88000000000E+00 0.  1.
        -11    1    4    4    0    0 -0.48392154216E-01 -0.20714906906E-01 -0.10911602456E-01  0.53760879336E-01  0.51100000000E-03 0.  1.
         11    1    4    4    0    0 -0.55838481672E-01 -0.12206610153E-01 -0.64581937873E-01  0.86243986383E-01  0.51100000000E-03 0. -1.
</event>
<event>
 8    1  0.2039519E+004  0.1043930E+01  0.7957747E-01            NaN
         13   -1    0    0    0    0  0.00000000000E+00  0.00000000000E+00  0.74505805969E-08  0.10566000000E+00  0.10566000000E+00 0.  1.
     999900   -1    0    0    0    0 -0.00000000000E+00 -0.00000000000E+00 -0.74505805969E-08  0.93827000000E+00  0.93827000000E+00 0. -1.
     999902    2    1    2    0    0  0.41157562310E-02 -0.12869306166E-01 -0.33939641079E-02  0.10299988305E+01  0.10299046137E+01 0.  0.
     999903    2    3    3    0    0 -0.17818749731E-01  0.11140754227E+00  0.66275851297E-01  0.13827031759E+00  0.44688297612E-01 0.  0.
         14    1    1    2    0    0 -0.41157562310E-02  0.12869306166E-01  0.33939641079E-02  0.13931169474E-01  0.00000000000E+00 0. -1.
     999901    1    3    3    0    0  0.21934505962E-01 -0.12427684844E+00 -0.69669815405E-01  0.89172851294E+00  0.88000000000E+00 0.  1.
        -11    1    4    4    0    0  0.50429717457E-02  0.72160605325E-01  0.23993928897E-01  0.76213871899E-01  0.51100000000E-03 0. -1.
         11    1    4    4    0    0 -0.22861721477E-01  0.39246936946E-01  0.42281922400E-01  0.62056445688E-01  0.51100000000E-03 0.  1.
</event>
<event>
 8    1  0.2039519E+004  0.1043930E+01  0.7957747E-01            NaN
         13   -1    0    0    0    0  0.00000000000E+00  0.00000000000E+00  0.74505805969E-08  0.10566000000E+00  0.10566000000E+00 0. -1.
     999900   -1    0    0    0    0 -0.00000000000E+00 -0.00000000000E+00 -0.74505805969E-08  0.93827000000E+00  0.93827000000E+00 0. -1.
     999902    2    1    2    0    0 -0.86368592979E-02  0.93628903020E-02  0.46023104895E-02  0.10303859860E+01  0.10302969668E+01 0.  0.
     999903    2    3    3    0    0  0.99813065057E-01  0.50686331770E-02 -0.84124385196E-01  0.13928988946E+00  0.48336550601E-01 0.  0.
         14    1    1    2    0    0  0.86368592979E-02 -0.93628903020E-02 -0.46023104895E-02  0.13544013998E-01  0.00000000000E+00 0.  1.
     999901    1    3    3    0    0 -0.10844992436E+00  0.42942571250E-02  0.88726695686E-01  0.89109609654E+00  0.88000000000E+00 0. -1.
        -11    1    4    4    0    0  0.64080374242E-01  0.24876750077E-01 -0.41757339395E-01  0.80430613399E-01  0.51100000000E-03 0.  1.
         11    1    4    4    0    0  0.35732690816E-01 -0.19808116900E-01 -0.42367045801E-01  0.58859276066E-01  0.51100000000E-03 0. -1.
</event>
<event>
 8    1  0.2039519E+004  0.1043930E+01  0.7957747E-01            NaN
         13   -1    0    0    0    0  0.00000000000E+00  0.00000000000E+00  0.74505805969E-08  0.10566000000E+00  0.10566000000E+00 0. -1.
     999900   -1    0    0    0    0 -0.00000000000E+00 -0.00000000000E+00 -0.74505805969E-08  0.93827000000E+00  0.93827000000E+00 0.  1.
     999902    2    1    2    0    0  0.21142896655E-02  0.67549462792E-03 -0.14498195746E-01  0.10292628873E+01  0.10291583780E+01 0.  0.
     999903    2    3    3    0    0 -0.13022184194E+00 -0.31827856423E-03 -0.28602496975E-01  0.13925571286E+00  0.40202255052E-01 0.  0.
         14    1    1    2    0    0 -0.21142896655E-02 -0.67549462792E-03  0.14498195746E-01  0.14667112657E-01  0.00000000000E+00 0. -1.
     999901    1    3    3    0    0  0.13233613161E+00  0.99377319215E-03  0.14104301228E-01  0.89000717448E+00  0.88000000000E+00 0.  1.
        -11    1    4    4    0    0 -0.75400417915E-01 -0.15243740090E-01 -0.31388056647E-02  0.76991608995E-01  0.51100000000E-03 0. -1.
         11    1    4    4    0    0 -0.54821424029E-01  0.14925461525E-01 -0.25463691310E-01  0.62264103868E-01  0.51100000000E-03 0.  1.
</event>
<event>
 7    1  0.2039519E+004  0.1043930E+01  0.7957747E-01            NaN
         13   -1    0    0    0    0  0.00000000000E+00  0.00000000000E+00  0.74505805969E-08  0.10566000000E+00  0.10566000000E+00 0. -1.
     999900   -1    0    0    0    0 -0.00000000000E+00 -0.00000000000E+00 -0.74505805969E-08  0.93827000000E+00  0.93827000000E+00 0.  1.
     999902    2    1    2    0    0  0.11572246317E-01 -0.71582174274E-02  0.12741644170E-02  0.10302632353E+01  0.10301725844E+01 0.  0.
         14    1    1    2    0    0 -0.11572246317E-01  0.71582174274E-02 -0.12741644170E-02  0.13666764669E-01  0.00000000000E+00 0. -1.
     999901    1    3    3    0    0 -0.11896212067E+00  0.17657143284E-01  0.40295496598E-01  0.88909363281E+00  0.88000000000E+00 0. -1.
        -11    1    3    3    0    0  0.27824881091E-01 -0.10499060516E-01 -0.19713430116E-01  0.35683816043E-01  0.51100000000E-03 0.  1.
         11    1    3    3    0    0  0.10270948590E+00 -0.14316300195E-01 -0.19307902064E-01  0.10548578647E+00  0.51100000000E-03 0. -1.
</event>
<event>
 8    1  0.2039519E+004  0.1043930E+01  0.7957747E-01            NaN
         13   -1    0    0    0    0  0.00000000000E+00  0.00000000000E+00  0.74505805969E-08  0.10566000000E+00  0.10566000000E+00 0.  1.
     999900   -1    0    0    0    0 -0.00000000000E+00 -0.00000000000E+00 -0.74505805969E-08  0.93827000000E+00  0.93827000000E+00 0. -1.
     999902    2    1    2    0    0 -0.12036149129E-01 -0.58264219558E-02  0.36251317881E-02  0.10300751215E+01  0.10299819407E+01 0.  0.
     999903    2    3    3    0    0 -0.86828803808E-01  0.30144771028E-01 -0.96509627411E-01  0.14051633312E+00  0.44528454957E-01 0.  0.
         14    1    1    2    0    0  0.12036149129E-01  0.58264219558E-02 -0.36251317881E-02  0.13854878532E-01  0.00000000000E+00 0.  1.
     999901    1    3    3    0    0  0.74792654679E-01 -0.35971192984E-01  0.10013475920E+00  0.88955878834E+00  0.88000000000E+00 0.  1.
        -11    1    4    4    0    0 -0.67986735915E-01  0.22025950357E-01 -0.43482064648E-01  0.83655781729E-01  0.51100000000E-03 0. -1.
         11    1    4    4    0    0 -0.18842067893E-01  0.81188206713E-02 -0.53027562762E-01  0.56860551396E-01  0.51100000000E-03 0.  1.
</event>
<event>
 8    1  0.2039519E+004  0.1043930E+01  0.7957747E-01            NaN
         13   -1    0    0    0    0  0.00000000000E+00  0.00000000000E+00  0.74505805969E-08  0.10566000000E+00  0.10566000000E+00 0. -1.
     999900   -1    0    0    0    0 -0.00000000000E+00 -0.00000000000E+00 -0.74505805969E-08  0.93827000000E+00  0.93827000000E+00 0.  1.
     999902    2    1    2    0    0  0.32553530746E-02 -0.93470534345E-02  0.58867380526E-02  0.10324139930E+01  0.10323497637E+01 0.  0.
     999903    2    3    3    0    0 -0.63107427865E-01  0.44713490571E-01  0.11014016404E+00  0.14213575678E+00  0.45715138967E-01 0.  0.
         14    1    1    2    0    0 -0.32553530746E-02  0.93470534345E-02 -0.58867380526E-02  0.11516006966E-01  0.00000000000E+00 0.  1.
     999901    1    3    3    0    0  0.66362780940E-01 -0.54060544006E-01 -0.10425342599E+00  0.89027823625E+00  0.88000000000E+00 0.  1.
        -11    1    4    4    0    0 -0.28709810860E-01  0.19860588018E-01  0.15077925391E-01  0.38030266251E-01  0.51100000000E-03 0. -1.
         11    1    4    4    0    0 -0.34397617005E-01  0.24852902553E-01  0.95062238648E-01  0.10410549053E+00  0.51100000000E-03 0.  1.
</event>
<event>
 8    1  0.2039519E+004  0.1043930E+01  0.7957747E-01            NaN
         13   -1    0    0    0    0  0.00000000000E+00  0.00000000000E+00  0.74505805969E-08  0.10566000000E+00  0.10566000000E+00 0.  1.
     999900   -1    0    0    0    0 -0.00000000000E+00 -0.00000000000E+00 -0.74505805969E-08  0.93827000000E+00  0.93827000000E+00 0.  1.
     999902    2    1    2    0    0  0.78486735518E-03 -0.14129606953E-01  0.31124874637E-03  0.10297751886E+01  0.10296779013E+01 0.  0.
     999903    2    3    3    0    0 -0.97302212494E-01 -0.58706396809E-01 -0.69124227544E-01  0.14048926677E+00  0.45220721605E-01 0.  0.
         14    1    1    2    0    0 -0.78486735518E-03  0.14129606953E-01 -0.31124874637E-03  0.14154811379E-01  0.00000000000E+00 0.  1.
     999901    1    3    3    0    0  0.98087079850E-01  0.44576789857E-01  0.69435476291E-01  0.88928592185E+00  0.88000000000E+00 0.  1.
        -11    1    4    4    0    0 -0.47269540455E-01 -0.49907279230E-01 -0.24831769123E-01  0.73089150041E-01  0.51100000000E-03 0. -1.
         11    1    4    4    0    0 -0.50032672039E-01 -0.87991175791E-02 -0.44292458422E-01  0.67400116733E-01  0.51100000000E-03 0.  1.
</event>
<event>
 8    1  0.2039519E+004  0.1043930E+01  0.7957747E-01            NaN
         13   -1    0    0    0    0  0.00000000000E+00  0.00000000000E+00  0.74505805969E-08  0.10566000000E+00  0.10566000000E+00 0. -1.
     999900   -1    0    0    0    0 -0.00000000000E+00 -0.00000000000E+00 -0.74505805969E-08  0.93827000000E+00  0.93827000000E+00 0. -1.
     999902    2    1    2    0    0  0.20985247746E-02  0.14112802948E-01 -0.61702656370E-03  0.10296486928E+01  0.10295496466E+01 0.  0.
     999903    2    3    3    0    0 -0.74875108806E-01 -0.70773592231E-02  0.10820981966E+00  0.13935815276E+00  0.45331652712E-01 0.  0.
         14    1    1    2    0    0 -0.20985247746E-02 -0.14112802948E-01  0.61702656370E-03  0.14281307190E-01  0.00000000000E+00 0. -1.
     999901    1    3    3    0    0  0.76973633581E-01  0.21190162171E-01 -0.10882684623E+00  0.89029054005E+00  0.88000000000E+00 0. -1.
        -11    1    4    4    0    0 -0.32828084952E-01 -0.25716668868E-01  0.54998689996E-01  0.69022802331E-01  0.51100000000E-03 0.  1.
         11    1    4    4    0    0 -0.42047023854E-01  0.18639309644E-01  0.53211129666E-01  0.70335350431E-01  0.51100000000E-03 0. -1.
</event>
<event>
 8    1  0.2039519E+004  0.1043930E+01  0.7957747E-01            NaN
         13   -1    0    0    0    0  0.00000000000E+00  0.00000000000E+00  0.74505805969E-08  0.10566000000E+00  0.10566000000E+00 0. -1.
     999900   -1    0    0    0    0 -0.00000000000E+00 -0.00000000000E+00 -0.74505805969E-08  0.93827000000E+00  0.93827000000E+00 0. -1.
     999902    2    1    2    0    0  0.87455717235E-02 -0.82408296085E-02 -0.49714639982E-02  0.10309257026E+01  0.10308436799E+01 0.  0.
     999903    2    3    3    0    0 -0.48234328586E-01 -0.11006953134E+00 -0.60026669405E-01  0.14151754588E+00  0.44521484362E-01 0.  0.
         14    1    1    2    0    0 -0.87455717235E-02  0.82408296085E-02  0.49714639982E-02  0.13004297432E-01  0.00000000000E+00 0. -1.
     999901    1    3    3    0    0  0.56979900310E-01  0.10182870173E+00  0.55055205407E-01  0.88940815668E+00  0.88000000000E+00 0.  1.
        -11    1    4    4    0    0 -0.39807969400E-01 -0.78690914424E-01 -0.20851752044E-01  0.90620037105E-01  0.51100000000E-03 0. -1.
         11    1    4    4    0    0 -0.84263591868E-02 -0.31378616914E-01 -0.39174917361E-01  0.50897508779E-01  0.51100000000E-03 0.  1.
</event>
<event>
 8    1  0.2039519E+004  0.1043930E+01  0.7957747E-01            NaN
         13   -1    0    0    0    0  0.00000000000E+00  0.00000000000E+00  0.74505805969E-08  0.10566000000E+00  0.10566000000E+00 0. -1.
     999900   -1    0    0    0    0 -0.00000000000E+00 -0.00000000000E+00 -0.74505805969E-08  0.93827000000E+00  0.93827000000E+00 0. -1.
     999902    2    1    2    0    0  0.50504557906E-02  0.12042189217E-01  0.16961409021E-02  0.10307619205E+01  0.10306778053E+01 0.  0.
     999903    2    3    3    0    0  0.96119230436E-01  0.90591893851E-01 -0.28740657033E-01  0.14206063404E+00  0.43696689647E-01 0.  0.
         14    1    1    2    0    0 -0.50504557906E-02 -0.12042189217E-01 -0.16961409021E-02  0.13168079541E-01  0.00000000000E+00 0.  1.
     999901    1    3    3    0    0 -0.91068774646E-01 -0.78549704634E-01  0.30436797935E-01  0.88870128642E+00  0.88000000000E+00 0. -1.
        -11    1    4    4    0    0  0.92502628419E-01  0.66138277355E-01 -0.18116505713E-01  0.11514980198E+00  0.51100000000E-03 0. -1.
         11    1    4    4    0    0  0.36166020171E-02  0.24453616496E-01 -0.10624151320E-01  0.26910832060E-01  0.51100000000E-03 0.  1.
</event>
<event>
 8    1  0.2039519E+004  0.1043930E+01  0.7957747E-01            NaN
         13   -1    0    0    0    0  0.00000000000E+00  0.00000000000E+00  0.74505805969E-08  0.10566000000E+00  0.10566000000E+00 0. -1.
     999900   -1    0    0    0    0 -0.00000000000E+00 -0.00000000000E+00 -0.74505805969E-08  0.93827000000E+00  0.93827000000E+00 0.  1.
     999902    2    1    2    0    0 -0.14187069359E-02  0.22936826857E-02 -0.11439016698E-01  0.10321773487E+01  0.10321104371E+01 0.  0.
     999903    2    3    3    0    0 -0.66939763358E-01 -0.26996698864E-01  0.11199591886E+00  0.14066900964E+00  0.45110206869E-01 0.  0.
         14    1    1    2    0    0  0.14187069359E-02 -0.22936826857E-02  0.11439016698E-01  0.11752651303E-01  0.00000000000E+00 0. -1.
     999901    1    3    3    0    0  0.65521056422E-01  0.29290381550E-01 -0.12343493556E+00  0.89150833905E+00  0.88000000000E+00 0.  1.
        -11    1    4    4    0    0 -0.34086004746E-01 -0.36197351180E-01  0.78014226398E-01  0.92512618563E-01  0.51100000000E-03 0.  1.
         11    1    4    4    0    0 -0.32853758612E-01  0.92006523156E-02  0.33981692467E-01  0.48156391080E-01  0.51100000000E-03 0. -1.
</event>
<event>
 8    1  0.2039519E+004  0.1043930E+01  0.7957747E-01            NaN
         13   -1    0    0    0    0  0.00000000000E+00  0.00000000000E+00  0.74505805969E-08  0.10566000000E+00  0.10566000000E+00 0. -1.
     999900   -1    0    0    0    0 -0.00000000000E+00 -0.00000000000E+00 -0.74505805969E-08  0.93827000000E+00  0.93827000000E+00 0. -1.
     999902    2    1    2    0    0  0.10683564022E-02  0.76584908278E-02  0.12029253941E-01  0.10296297616E+01  0.10295304508E+01 0.  0.
     999903    2    3    3    0    0 -0.38604885799E-02  0.54287662726E-01 -0.11991297954E+00  0.13855887434E+00  0.43097393192E-01 0.  0.
         14    1    1    2    0    0 -0.10683564022E-02 -0.76584908278E-02 -0.12029253941E-01  0.14300238374E-01  0.00000000000E+00 0.  1.
     999901    1    3    3    0    0  0.49288449821E-02 -0.46629171898E-01  0.13194223349E+00  0.89107088728E+00  0.88000000000E+00 0.  1.
        -11    1    4    4    0    0 -0.18461868994E-01  0.86308385655E-02 -0.47805998590E-01  0.51971209370E-01  0.51100000000E-03 0.  1.
         11    1    4    4    0    0  0.14601380414E-01  0.45656824160E-01 -0.72106980954E-01  0.86587664974E-01  0.51100000000E-03 0. -1.
</event>
<event>
 8    1  0.2039519E+004  0.1043930E+01  0.7957747E-01            NaN
         13   -1    0    0    0    0  0.00000000000E+00  0.00000000000E+00  0.74505805969E-08  0.10566000000E+00  0.10566000000E+00 0. -1.
     999900   -1    0    0    0    0 -0.00000000000E+00 -0.00000000000E+00 -0.74505805969E-08  0.93827000000E+00  0.93827000000E+00 0.  1.
     999902    2    1    2    0    0  0.56124026960E-02  0.12025226866E-01 -0.49736666730E-02  0.10297581086E+01  0.10296605847E+01 0.  0.
     999903    2    3    3    0    0 -0.52458595812E-01 -0.35196977223E-01 -0.11590317625E+00  0.13964152439E+00  0.45557409816E-01 0.  0.
         14    1    1    2    0    0 -0.56124026960E-02 -0.12025226866E-01  0.49736666730E-02  0.14171891383E-01  0.00000000000E+00 0. -1.
     999901    1    3    3    0    0  0.58070998508E-01  0.47222204089E-01  0.11092950957E+00  0.89011658423E+00  0.88000000000E+00 0. -1.
        -11    1    4    4    0    0 -0.60050703546E-02  0.92728565129E-02 -0.32458324887E-01  0.34290679687E-01  0.51100000000E-03 0. -1.
         11    1    4    4    0    0 -0.46453525457E-01 -0.44469833736E-01 -0.83444851358E-01  0.10535084470E+00  0.51100000000E-03 0.  1.
</event>
<event>
 8    1  0.2039519E+004  0.1043930E+01  0.7957747E-01            NaN
         13   -1    0    0    0    0  0.00000000000E+00  0.00000000000E+00  0.74505805969E-08  0.10566000000E+00  0.10566000000E+00 0. -1.
     999900   -1    0    0    0    0 -0.00000000000E+00 -0.00000000000E+00 -0.74505805969E-08  0.93827000000E+00  0.93827000000E+00 0.  1.
     999902    2    1    2    0    0  0.68704669554E-02  0.12031183089E-01  0.29279481500E-03  0.10300722076E+01  0.10299789873E+01 0.  0.
     999903    2    3    3    0    0 -0.93392574906E-01 -0.41338822053E-02 -0.92962801849E-01  0.13933622354E+00  0.45091447461E-01 0.  0.
         14    1    1    2    0    0 -0.68704669554E-02 -0.12031183089E-01 -0.29279481500E-03  0.13857792447E-01  0.00000000000E+00 0. -1.
     999901    1    3    3    0    0  0.10026304186E+00  0.16165065294E-01  0.93255596664E-01  0.89073598401E+00  0.88000000000E+00 0. -1.
        -11    1    4    4    0    0 -0.79107946434E-01  0.12347967334E-01 -0.61087785765E-01  0.10071006989E+00  0.51100000000E-03 0. -1.
         11    1    4    4    0    0 -0.14284628472E-01 -0.16481849540E-01 -0.31875016084E-01  0.38626153655E-01  0.51100000000E-03 0.  1.
</event>
<event>
 7    1  0.2039519E+004  0.1043930E+01  0.7957747E-01            NaN
         13   -1    0    0    0    0  0.00000000000E+00  0.00000000000E+00  0.74505805969E-08  0.10566000000E+00  0.10566000000E+00 0. -1.
     999900   -1    0    0    0    0 -0.00000000000E+00 -0.00000000000E+00 -0.74505805969E-08  0.93827000000E+00  0.93827000000E+00 0.  1.
     999903    2    1    2    0    0 -0.33363076947E-01  0.10664335618E+00  0.13933746584E-01  0.12103201769E+00  0.44370031449E-01 0.  0.
         14    1    1    2    0    0  0.30432752425E-01  0.11428874766E-01  0.11937587728E-01  0.34630587626E-01  0.00000000000E+00 0.  1.
     999901    1    1    2    0    0  0.29303245220E-02 -0.11807223095E+00 -0.25871334311E-01  0.88826739469E+00  0.88000000000E+00 0. -1.
        -11    1    3    3    0    0 -0.24266638453E-01  0.23766871451E-01  0.16177919889E-01  0.37626056574E-01  0.51100000000E-03 0.  1.
         11    1    3    3    0    0 -0.90964384938E-02  0.82876484730E-01 -0.22441733059E-02  0.83405961114E-01  0.51100000000E-03 0. -1.
</event>
<event>
 8    1  0.2039519E+004  0.1043930E+01  0.7957747E-01            NaN
         13   -1    0    0    0    0  0.00000000000E+00  0.00000000000E+00  0.74505805969E-08  0.10566000000E+00  0.10566000000E+00 0. -1.
     999900   -1    0    0    0    0 -0.00000000000E+00 -0.00000000000E+00 -0.74505805969E-08  0.93827000000E+00  0.93827000000E+00 0. -1.
     999902    2    1    2    0    0  0.81081433428E-02  0.88330146521E-02 -0.25344990959E-02  0.10316748859E+01  0.10316020950E+01 0.  0.
     999903    2    3    3    0    0  0.11295209985E+00  0.73144837382E-01  0.16033322685E-01  0.14292687336E+00  0.45416732572E-01 0.  0.
         14    1    1    2    0    0 -0.81081433428E-02 -0.88330146521E-02  0.25344990959E-02  0.12255114115E-01  0.00000000000E+00 0. -1.
     999901    1    3    3    0    0 -0.10484395650E+00 -0.64311822730E-01 -0.18567821781E-01  0.88874801252E+00  0.88000000000E+00 0. -1.
        -11    1    4    4    0    0  0.20138321289E-01  0.28685751980E-01  0.19195539449E-01  0.39964411753E-01  0.51100000000E-03 0. -1.
         11    1    4    4    0    0  0.92813778556E-01  0.44459085402E-01 -0.31622167644E-02  0.10296246161E+00  0.51100000000E-03 0.  1.
</event>
<event>
 8    1  0.2039519E+004  0.1043930E+01  0.7957747E-01            NaN
         13   -1    0    0    0    0  0.00000000000E+00  0.00000000000E+00  0.74505805969E-08  0.10566000000E+00  0.10566000000E+00 0. -1.
     999900   -1    0    0    0    0 -0.00000000000E+00 -0.00000000000E+00 -0.74505805969E-08  0.93827000000E+00  0.93827000000E+00 0. -1.
     999902    2    1    2    0    0 -0.48307802978E-02  0.81109225009E-02 -0.10164196129E-01  0.10300579279E+01  0.10299645141E+01 0.  0.
     999903    2    3    3    0    0  0.94968415749E-01 -0.71106567828E-01  0.55175165404E-01  0.13848374562E+00  0.45368545757E-01 0.  0.
         14    1    1    2    0    0  0.48307802978E-02 -0.81109225009E-02  0.10164196129E-01  0.13872072126E-01  0.00000000000E+00 0. -1.
     999901    1    3    3    0    0 -0.99799196047E-01  0.79217490329E-01 -0.65339361533E-01  0.89157418226E+00  0.88000000000E+00 0. -1.
        -11    1    4    4    0    0  0.44894121649E-01 -0.20710602897E-01  0.44730848217E-01  0.66674741351E-01  0.51100000000E-03 0. -1.
         11    1    4    4    0    0  0.50074294100E-01 -0.50395964931E-01  0.10444317187E-01  0.71809004265E-01  0.51100000000E-03 0.  1.
</event>
<event>
 8    1  0.2039519E+004  0.1043930E+01  0.7957747E-01            NaN
         13   -1    0    0    0    0  0.00000000000E+00  0.00000000000E+00  0.74505805969E-08  0.10566000000E+00  0.10566000000E+00 0. -1.
     999900   -1    0    0    0    0 -0.00000000000E+00 -0.00000000000E+00 -0.74505805969E-08  0.93827000000E+00  0.93827000000E+00 0. -1.
     999902    2    1    2    0    0  0.39167506079E-02  0.83268214156E-02 -0.10365665385E-01  0.10300691231E+01  0.10299758611E+01 0.  0.
     999903    2    3    3    0    0  0.79403736950E-01  0.10792907402E+00  0.75926732257E-03  0.14116943360E+00  0.44436404387E-01 0.  0.
         14    1    1    2    0    0 -0.39167506079E-02 -0.83268214156E-02  0.10365665385E-01  0.13860876923E-01  0.00000000000E+00 0. -1.
     999901    1    3    3    0    0 -0.75486986342E-01 -0.99602252603E-01 -0.11124932707E-01  0.88889968948E+00  0.88000000000E+00 0.  1.
        -11    1    4    4    0    0  0.82435113128E-01  0.92992271830E-01  0.74973048101E-02  0.12449731401E+00  0.51100000000E-03 0. -1.
         11    1    4    4    0    0 -0.30313761775E-02  0.14936802189E-01 -0.67380374875E-02  0.16672119582E-01  0.51100000000E-03 0.  1.
</event>
<event>
 8    1  0.2039519E+004  0.1043930E+01  0.7957747E-01            NaN
         13   -1    0    0    0    0  0.00000000000E+00  0.00000000000E+00  0.74505805969E-08  0.10566000000E+00  0.10566000000E+00 0.  1.
     999900   -1    0    0    0    0 -0.00000000000E+00 -0.00000000000E+00 -0.74505805969E-08  0.93827000000E+00  0.93827000000E+00 0.  1.
     999902    2    1    2    0    0 -0.31356563375E-02 -0.11819193856E-01 -0.67775486266E-02  0.10299492686E+01  0.10298543757E+01 0.  0.
     999903    2    3    3    0    0 -0.42263844759E-01 -0.12076177383E+00  0.39179178505E-01  0.14117960127E+00  0.45022585370E-01 0.  0.
         14    1    1    2    0    0  0.31356563375E-02  0.11819193856E-01  0.67775486266E-02  0.13980731363E-01  0.00000000000E+00 0.  1.
     999901    1    3    3    0    0  0.39128188422E-01  0.10894257998E+00 -0.45956727131E-01  0.88876966737E+00  0.88000000000E+00 0. -1.
        -11    1    4    4    0    0 -0.37476474984E-01 -0.62040454804E-01  0.40773592341E-02  0.72597453047E-01  0.51100000000E-03 0.  1.
         11    1    4    4    0    0 -0.47873697750E-02 -0.58721319029E-01  0.35101819271E-01  0.68582148224E-01  0.51100000000E-03 0. -1.
</event>
<event>
 8    1  0.2039519E+004  0.1043930E+01  0.7957747E-01            NaN
         13   -1    0    0    0    0  0.00000000000E+00  0.00000000000E+00  0.74505805969E-08  0.10566000000E+00  0.10566000000E+00 0.  1.
     999900   -1    0    0    0    0 -0.00000000000E+00 -0.00000000000E+00 -0.74505805969E-08  0.93827000000E+00  0.93827000000E+00 0.  1.
     999902    2    1    2    0    0 -0.14304918166E-01 -0.49831221368E-03 -0.23741640623E-04  0.10296163854E+01  0.10295168875E+01 0.  0.
     999903    2    3    3    0    0 -0.77536680235E-02 -0.11945154205E+00 -0.57353572369E-01  0.13974027086E+00  0.43693486596E-01 0.  0.
         14    1    1    2    0    0  0.14304918166E-01  0.49831221368E-03  0.23741640623E-04  0.14313614584E-01  0.00000000000E+00 0.  1.
     999901    1    3    3    0    0 -0.65512501424E-02  0.11895322983E+00  0.57329830728E-01  0.88987611456E+00  0.88000000000E+00 0. -1.
        -11    1    4    4    0    0 -0.70279799985E-02 -0.60103001335E-01 -0.52626622340E-01  0.80197168106E-01  0.51100000000E-03 0.  1.
         11    1    4    4    0    0 -0.72568802499E-03 -0.59348540713E-01 -0.47269500288E-02  0.59543102753E-01  0.51100000000E-03 0. -1.
</event>
<event>
 8    1  0.2039519E+004  0.1043930E+01  0.7957747E-01            NaN
         13   -1    0    0    0    0  0.00000000000E+00  0.00000000000E+00  0.74505805969E-08  0.10566000000E+00  0.10566000000E+00 0. -1.
     999900   -1    0    0    0    0 -0.00000000000E+00 -0.00000000000E+00 -0.74505805969E-08  0.93827000000E+00  0.93827000000E+00 0. -1.
     999902    2    1    2    0    0  0.49080047392E-02 -0.42810650794E-02 -0.12040581013E-01  0.10302408941E+01  0.10301499446E+01 0.  0.
     999903    2    3    3    0    0  0.47167695813E-01 -0.11865231582E+00  0.40428154734E-01  0.14028604542E+00  0.41744164454E-01 0.  0.
         14    1    1    2    0    0 -0.49080047392E-02  0.42810650794E-02  0.12040581013E-01  0.13689105882E-01  0.00000000000E+00 0. -1.
     999901    1    3    3    0    0 -0.42259691074E-01  0.11437125075E+00 -0.52468735747E-01  0.88995484870E+00  0.88000000000E+00 0. -1.
        -11    1    4    4    0    0  0.99962137203E-02 -0.54599132133E-01 -0.81902818230E-03  0.55515056035E-01  0.51100000000E-03 0. -1.
         11    1    4    4    0    0  0.37171482093E-01 -0.64053183692E-01  0.41247182917E-01  0.84770989386E-01  0.51100000000E-03 0.  1.
</event>
<event>
 8    1  0.2039519E+004  0.1043930E+01  0.7957747E-01            NaN
         13   -1    0    0    0    0  0.00000000000E+00  0.00000000000E+00  0.74505805969E-08  0.10566000000E+00  0.10566000000E+00 0.  1.
     999900   -1    0    0    0    0 -0.00000000000E+00 -0.00000000000E+00 -0.74505805969E-08  0.93827000000E+00  0.93827000000E+00 0.  1.
     999902    2    1    2    0    0 -0.66661594328E-02  0.11873925279E-01  0.82558930384E-03  0.10302878088E+01  0.10301974857E+01 0.  0.
     999903    2    3    3    0    0  0.10438666789E-01  0.12937700718E+00  0.35044360152E-01  0.14165375948E+00  0.44612830498E-01 0.  0.
         14    1    1    2    0    0  0.66661594328E-02 -0.11873925279E-01 -0.82558930384E-03  0.13642191203E-01  0.00000000000E+00 0. -1.
     999901    1    3    3    0    0 -0.17104826222E-01 -0.11750308190E+00 -0.34218770848E-01  0.88863404932E+00  0.88000000000E+00 0.  1.
        -11    1    4    4    0    0  0.16930353260E-01  0.54664503884E-01 -0.34947945965E-02  0.57335151144E-01  0.51100000000E-03 0. -1.
         11    1    4    4    0    0 -0.64916864708E-02  0.74712503292E-01  0.38539154748E-01  0.84318608332E-01  0.51100000000E-03 0.  1.
</event>
<event>
 8    1  0.2039519E+004  0.1043930E+01  0.7957747E-01            NaN
         13   -1    0    0    0    0  0.00000000000E+00  0.00000000000E+00  0.74505805969E-08  0.10566000000E+00  0.10566000000E+00 0. -1.
     999900   -1    0    0    0    0 -0.00000000000E+00 -0.00000000000E+00 -0.74505805969E-08  0.93827000000E+00  0.93827000000E+00 0. -1.
     999902    2    1    2    0    0 -0.56681517386E-02 -0.39898960731E-02 -0.78040807932E-02  0.10334920456E+01  0.10334393342E+01 0.  0.
     999903    2    3    3    0    0 -0.28794680286E-01 -0.93283337316E-01 -0.96232693523E-01  0.14426329297E+00  0.44947210845E-01 0.  0.
         14    1    1    2    0    0  0.56681517386E-02  0.39898960731E-02  0.78040807932E-02  0.10437954389E-01  0.00000000000E+00 0. -1.
     999901    1    3    3    0    0  0.23126528548E-01  0.89293441243E-01  0.88428612730E-01  0.88922875264E+00  0.88000000000E+00 0.  1.
        -11    1    4    4    0    0 -0.32291548024E-01 -0.33989925883E-01 -0.31938852386E-01  0.56731036903E-01  0.51100000000E-03 0.  1.
         11    1    4    4    0    0  0.34968677380E-02 -0.59293411433E-01 -0.64293841137E-01  0.87532256068E-01  0.51100000000E-03 0. -1.
</event>
<event>
 8    1  0.2039519E+004  0.1043930E+01  0.7957747E-01            NaN
         13   -1    0    0    0    0  0.00000000000E+00  0.00000000000E+00  0.74505805969E-08  0.10566000000E+00  0.10566000000E+00 0. -1.
     999900   -1    0    0    0    0 -0.00000000000E+00 -0.00000000000E+00 -0.74505805969E-08  0.93827000000E+00  0.93827000000E+00 0.  1.
     999902    2    1    2    0    0  0.18962197326E-02 -0.10968763005E-01  0.76956364158E-02  0.10303973642E+01  0.10303084955E+01 0.  0.
     999903    2    3    3    0    0  0.11196765649E-01  0.91556799910E-01  0.95492789158E-01  0.14005679386E+00  0.44598403057E-01 0.  0.
         14    1    1    2    0    0 -0.18962197326E-02  0.10968763005E-01 -0.76956364158E-02  0.13532635773E-01  0.00000000000E+00 0.  1.
     999901    1    3    3    0    0 -0.93005459164E-02 -0.10252556291E+00 -0.87797152743E-01  0.89034057036E+00  0.88000000000E+00 0.  1.
        -11    1    4    4    0    0 -0.74744296084E-02  0.54771910003E-01  0.30671242422E-01  0.63220372160E-01  0.51100000000E-03 0. -1.
         11    1    4    4    0    0  0.18671195257E-01  0.36784889907E-01  0.64821546737E-01  0.76836421703E-01  0.51100000000E-03 0.  1.
</event>
<event>
 8    1  0.2039519E+004  0.1043930E+01  0.7957747E-01            NaN
         13   -1    0    0    0    0  0.00000000000E+00  0.00000000000E+00  0.74505805969E-08  0.10566000000E+00  0.10566000000E+00 0. -1.
     999900   -1    0    0    0    0 -0.00000000000E+00 -0.00000000000E+00 -0.74505805969E-08  0.93827000000E+00  0.93827000000E+00 0.  1.
     999902    2    1    2    0    0 -0.59117387854E-03 -0.72230735379E-02 -0.11890594725E-01  0.10300048960E+01  0.10299107618E+01 0.  0.
     999903    2    3    3    0    0 -0.12084831119E+00 -0.49261654488E-01  0.24325765260E-01  0.14009442519E+00  0.44762486462E-01 0.  0.
         14    1    1    2    0    0  0.59117387854E-03  0.72230735379E-02  0.11890594725E-01  0.13925103978E-01  0.00000000000E+00 0. -1.
     999901    1    3    3    0    0  0.12025713731E+00  0.42038580950E-01 -0.36216359985E-01  0.88991047083E+00  0.88000000000E+00 0. -1.
        -11    1    4    4    0    0 -0.45142842127E-01  0.37306341949E-02  0.40095081317E-02  0.45476709460E-01  0.51100000000E-03 0.  1.
         11    1    4    4    0    0 -0.75705469062E-01 -0.52992288683E-01  0.20316257128E-01  0.94617715733E-01  0.51100000000E-03 0. -1.
</event>
<event>
 8    1  0.2039519E+004  0.1043930E+01  0.7957747E-01            NaN
         13   -1    0    0    0    0  0.00000000000E+00  0.00000000000E+00  0.74505805969E-08  0.10566000000E+00  0.10566000000E+00 0.  1.
     999900   -1    0    0    0    0 -0.00000000000E+00 -0.00000000000E+00 -0.74505805969E-08  0.93827000000E+00  0.93827000000E+00 0. -1.
     999902    2    1    2    0    0  0.11259630546E-01 -0.46567272844E-02 -0.66129974178E-02  0.10300665183E+01  0.10299732210E+01 0.  0.
     999903    2    3    3    0    0 -0.97558801378E-01 -0.72655800549E-01 -0.52220276609E-01  0.13959172981E+00  0.44297953240E-01 0.  0.
         14    1    1    2    0    0 -0.11259630546E-01  0.46567272844E-02  0.66129974178E-02  0.13863481666E-01  0.00000000000E+00 0. -1.
     999901    1    3    3    0    0  0.10881843192E+00  0.67999073265E-01  0.45607279191E-01  0.89047478853E+00  0.88000000000E+00 0.  1.
        -11    1    4    4    0    0 -0.52463494037E-01 -0.14083483709E-01 -0.31605310067E-01  0.62848384748E-01  0.51100000000E-03 0.  1.
         11    1    4    4    0    0 -0.45095307341E-01 -0.58572316840E-01 -0.20614966541E-01  0.76743345057E-01  0.51100000000E-03 0. -1.
</event>
<event>
 8    1  0.2039519E+004  0.1043930E+01  0.7957747E-01            NaN
         13   -1    0    0    0    0  0.00000000000E+00  0.00000000000E+00  0.74505805969E-08  0.10566000000E+00  0.10566000000E+00 0. -1.
     999900   -1    0    0    0    0 -0.00000000000E+00 -0.00000000000E+00 -0.74505805969E-08  0.93827000000E+00  0.93827000000E+00 0.  1.
     999902    2    1    2    0    0 -0.95724586953E-02  0.17456263757E-02  0.94834528290E-02  0.10303426877E+01  0.10302530947E+01 0.  0.
     999903    2    3    3    0    0 -0.60963388701E-01 -0.97634532322E-01  0.68402449493E-01  0.14130450420E+00  0.45155632493E-01 0.  0.
         14    1    1    2    0    0  0.95724586953E-02 -0.17456263757E-02 -0.94834528290E-02  0.13587312261E-01  0.00000000000E+00 0. -1.
     999901    1    3    3    0    0  0.51390930006E-01  0.99380158697E-01 -0.58918996664E-01  0.88903818354E+00  0.88000000000E+00 0.  1.
        -11    1    4    4    0    0 -0.30019810212E-01 -0.12167310604E-01  0.22753270150E-01  0.39587938517E-01  0.51100000000E-03 0.  1.
         11    1    4    4    0    0 -0.30943578489E-01 -0.85467221718E-01  0.45649179343E-01  0.10171656568E+00  0.51100000000E-03 0. -1.
</event>
<event>
 8    1  0.2039519E+004  0.1043930E+01  0.7957747E-01            NaN
         13   -1    0    0    0    0  0.00000000000E+00  0.00000000000E+00  0.74505805969E-08  0.10566000000E+00  0.10566000000E+00 0. -1.
     999900   -1    0    0    0    0 -0.00000000000E+00 -0.00000000000E+00 -0.74505805969E-08  0.93827000000E+00  0.93827000000E+00 0.  1.
     999902    2    1    2    0    0  0.25899799417E-02 -0.14439777308E-01  0.38626714743E-02  0.10287597859E+01  0.10286479289E+01 0.  0.
     999903    2    3    3    0    0 -0.80041171930E-01 -0.60796217566E-01 -0.85918048720E-01  0.13913210843E+00  0.43278900465E-01 0.  0.
         14    1    1    2    0    0 -0.25899799417E-02  0.14439777308E-01 -0.38626714743E-02  0.15170214096E-01  0.00000000000E+00 0.  1.
     999901    1    3    3    0    0  0.82631151872E-01  0.46356440258E-01  0.89780720195E-01  0.88962767748E+00  0.88000000000E+00 0. -1.
        -11    1    4    4    0    0 -0.71028785226E-01 -0.34586843547E-01 -0.49000379913E-01  0.92965780962E-01  0.51100000000E-03 0. -1.
         11    1    4    4    0    0 -0.90123867044E-02 -0.26209374018E-01 -0.36917668807E-01  0.46166327466E-01  0.51100000000E-03 0.  1.
</event>
<event>
 8    1  0.2039519E+004  0.1043930E+01  0.7957747E-01            NaN
         13   -1    0    0    0    0  0.00000000000E+00  0.00000000000E+00  0.74505805969E-08  0.10566000000E+00  0.10566000000E+00 0.  1.
     999900   -1    0    0    0    0 -0.00000000000E+00 -0.00000000000E+00 -0.74505805969E-08  0.93827000000E+00  0.93827000000E+00 0.  1.
     999902    2    1    2    0    0  0.22580938121E-01  0.63148515571E-02  0.78984183514E-02  0.10191881098E+01  0.10188877475E+01 0.  0.
     999903    2    3    3    0    0  0.57664956694E-01  0.50444689983E-01 -0.96178318292E-01  0.13126339562E+00  0.45933605804E-01 0.  0.
         14    1    1    2    0    0 -0.22580938121E-01 -0.63148515571E-02 -0.78984183514E-02  0.24741890168E-01  0.00000000000E+00 0. -1.
     999901    1    3    3    0    0 -0.35084018573E-01 -0.44129838426E-01  0.10407673664E+00  0.88792471421E+00  0.88000000000E+00 0. -1.
        -11    1    4    4    0    0  0.25698512366E-01  0.25985313089E-01 -0.79861778796E-01  0.87828326112E-01  0.51100000000E-03 0. -1.
         11    1    4    4    0    0  0.31966444328E-01  0.24459376894E-01 -0.16316539496E-01  0.43435069508E-01  0.51100000000E-03 0.  1.
</event>
<event>
 8    1  0.2039519E+004  0.1043930E+01  0.7957747E-01            NaN
         13   -1    0    0    0    0  0.00000000000E+00  0.00000000000E+00  0.74505805969E-08  0.10566000000E+00  0.10566000000E+00 0.  1.
     999900   -1    0    0    0    0 -0.00000000000E+00 -0.00000000000E+00 -0.74505805969E-08  0.93827000000E+00  0.93827000000E+00 0.  1.
     999902    2    1    2    0    0  0.83600775503E-02  0.31990650172E-02 -0.10070566847E-01  0.10304562763E+01  0.10303681847E+01 0.  0.
     999903    2    3    3    0    0  0.23545091603E-01  0.95874813756E-01 -0.91249425683E-01  0.14174406969E+00  0.44928524952E-01 0.  0.
         14    1    1    2    0    0 -0.83600775503E-02 -0.31990650172E-02  0.10070566847E-01  0.13473723697E-01  0.00000000000E+00 0.  1.
     999901    1    3    3    0    0 -0.15185014052E-01 -0.92675748739E-01  0.81178858836E-01  0.88871220661E+00  0.88000000000E+00 0. -1.
        -11    1    4    4    0    0 -0.42156630901E-02  0.23525273599E-01 -0.46428676350E-01  0.52221580040E-01  0.51100000000E-03 0.  1.
         11    1    4    4    0    0  0.27760754693E-01  0.72349540157E-01 -0.44820749332E-01  0.89522489653E-01  0.51100000000E-03 0. -1.
</event>
<event>
 8    1  0.2039519E+004  0.1043930E+01  0.7957747E-01            NaN
         13   -1    0    0    0    0  0.00000000000E+00  0.00000000000E+00  0.74505805969E-08  0.10566000000E+00  0.10566000000E+00 0. -1.
     999900   -1    0    0    0    0 -0.00000000000E+00 -0.00000000000E+00 -0.74505805969E-08  0.93827000000E+00  0.93827000000E+00 0. -1.
     999902    2    1    2    0    0  0.12627664853E-01 -0.18496988800E-02 -0.15177961232E-01  0.10240994727E+01  0.10239074568E+01 0.  0.
     999903    2    3    3    0    0 -0.39839518083E-01  0.93504601477E-01 -0.76844197011E-01  0.13525304474E+00  0.45365821908E-01 0.  0.
         14    1    1    2    0    0 -0.12627664853E-01  0.18496988800E-02  0.15177961232E-01  0.19830527294E-01  0.00000000000E+00 0. -1.
     999901    1    3    3    0    0  0.52467182936E-01 -0.95354300357E-01  0.61666235779E-01  0.88884642797E+00  0.88000000000E+00 0.  1.
        -11    1    4    4    0    0 -0.30989407394E-01  0.86337690046E-01 -0.46513569083E-01  0.10285092767E+00  0.51100000000E-03 0. -1.
         11    1    4    4    0    0 -0.88501106885E-02  0.71669114306E-02 -0.30330627928E-01  0.32402117063E-01  0.51100000000E-03 0.  1.
</event>
<event>
 8    1  0.2039519E+004  0.1043930E+01  0.7957747E-01            NaN
         13   -1    0    0    0    0  0.00000000000E+00  0.00000000000E+00  0.74505805969E-08  0.10566000000E+00  0.10566000000E+00 0.  1.
     999900   -1    0    0    0    0 -0.00000000000E+00 -0.00000000000E+00 -0.74505805969E-08  0.93827000000E+00  0.93827000000E+00 0. -1.
     999902    2    1    2    0    0 -0.58056335167E-02 -0.12837017029E-01 -0.16031386092E-02  0.10297502807E+01  0.10296526483E+01 0.  0.
     999903    2    3    3    0    0 -0.52446249147E-01 -0.10854742364E+00 -0.56154657703E-01  0.14165586160E+00  0.48784068262E-01 0.  0.
         14    1    1    2    0    0  0.58056335167E-02  0.12837017029E-01  0.16031386092E-02  0.14179719325E-01  0.00000000000E+00 0. -1.
     999901    1    3    3    0    0  0.46640615630E-01  0.95710406606E-01  0.54551519094E-01  0.88809441908E+00  0.88000000000E+00 0.  1.
        -11    1    4    4    0    0 -0.51361098968E-01 -0.10039117403E+00 -0.33638897723E-01  0.11767831946E+00  0.51100000000E-03 0. -1.
         11    1    4    4    0    0 -0.10851501782E-02 -0.81562496086E-02 -0.22515759980E-01  0.23977542140E-01  0.51100000000E-03 0.  1.
</event>
<event>
 8    1  0.2039519E+004  0.1043930E+01  0.7957747E-01            NaN
         13   -1    0    0    0    0  0.00000000000E+00  0.00000000000E+00  0.74505805969E-08  0.10566000000E+00  0.10566000000E+00 0.  1.
     999900   -1    0    0    0    0 -0.00000000000E+00 -0.00000000000E+00 -0.74505805969E-08  0.93827000000E+00  0.93827000000E+00 0. -1.
     999902    2    1    2    0    0 -0.72776604982E-03  0.78256331227E-02  0.11294501020E-01  0.10301700607E+01  0.10300781611E+01 0.  0.
     999903    2    3    3    0    0  0.62087431744E-01 -0.66265866203E-01  0.97289731251E-01  0.14065868976E+00  0.45536370016E-01 0.  0.
         14    1    1    2    0    0  0.72776604982E-03 -0.78256331227E-02 -0.11294501020E-01  0.13759939334E-01  0.00000000000E+00 0. -1.
     999901    1    3    3    0    0 -0.62815197794E-01  0.74091499325E-01 -0.85995230232E-01  0.88951137090E+00  0.88000000000E+00 0. -1.
        -11    1    4    4    0    0  0.42344100950E-01 -0.68651094776E-01  0.69441752617E-01  0.10643502162E+00  0.51100000000E-03 0.  1.
         11    1    4    4    0    0  0.19743330794E-01  0.23852285737E-02  0.27847978634E-01  0.34223668143E-01  0.51100000000E-03 0. -1.
</event>
<event>
 8    1  0.2039519E+004  0.1043930E+01  0.7957747E-01            NaN
         13   -1    0    0    0    0  0.00000000000E+00  0.00000000000E+00  0.74505805969E-08  0.10566000000E+00  0.10566000000E+00 0.  1.
     999900   -1    0    0    0    0 -0.00000000000E+00 -0.00000000000E+00 -0.74505805969E-08  0.93827000000E+00  0.93827000000E+00 0. -1.
     999902    2    1    2    0    0  0.19671223113E-02  0.23955628561E-02 -0.13332089766E-01  0.10302423081E+01  0.10301513775E+01 0.  0.
     999903    2    3    3    0    0 -0.12008005879E+00 -0.43232916044E-01 -0.37370015399E-01  0.14032360713E+00  0.44787175819E-01 0.  0.
         14    1    1    2    0    0 -0.19671223113E-02 -0.23955628561E-02  0.13332089766E-01  0.13687691884E-01  0.00000000000E+00 0.  1.
     999901    1    3    3    0    0  0.12204718110E+00  0.45628478900E-01  0.24037925633E-01  0.88991870099E+00  0.88000000000E+00 0.  1.
        -11    1    4    4    0    0 -0.23791707375E-01  0.93205719540E-02 -0.68499379089E-02  0.26459425008E-01  0.51100000000E-03 0. -1.
         11    1    4    4    0    0 -0.96288351413E-01 -0.52553487998E-01 -0.30520077490E-01  0.11386418212E+00  0.51100000000E-03 0.  1.
</event>
<event>
 8    1  0.2039519E+004  0.1043930E+01  0.7957747E-01            NaN
         13   -1    0    0    0    0  0.00000000000E+00  0.00000000000E+00  0.74505805969E-08  0.10566000000E+00  0.10566000000E+00 0.  1.
     999900   -1    0    0    0    0 -0.00000000000E+00 -0.00000000000E+00 -0.74505805969E-08  0.93827000000E+00  0.93827000000E+00 0.  1.
     999902    2    1    2    0    0  0.71415534578E-02 -0.10585038410E-01 -0.47320832606E-02  0.10303124585E+01  0.10302224637E+01 0.  0.
     999903    2    3    3    0    0 -0.16054024121E-01 -0.35183172434E-01 -0.12864581235E+00  0.14098815588E+00  0.42805697622E-01 0.  0.
         14    1    1    2    0    0 -0.71415534578E-02  0.10585038410E-01  0.47320832606E-02  0.13617541479E-01  0.00000000000E+00 0. -1.
     999901    1    3    3    0    0  0.23195577579E-01  0.24598134024E-01  0.12391372909E+00  0.88932430264E+00  0.88000000000E+00 0. -1.
        -11    1    4    4    0    0 -0.56220455807E-02 -0.41534680448E-01 -0.11626172209E+00  0.12358716042E+00  0.51100000000E-03 0. -1.
         11    1    4    4    0    0 -0.10431978540E-01  0.63515080133E-02 -0.12384090267E-01  0.17400995461E-01  0.51100000000E-03 0.  1.
</event>
<event>
 8    1  0.2039519E+004  0.1043930E+01  0.7957747E-01            NaN
         13   -1    0    0    0    0  0.00000000000E+00  0.00000000000E+00  0.74505805969E-08  0.10566000000E+00  0.10566000000E+00 0.  1.
     999900   -1    0    0    0    0 -0.00000000000E+00 -0.00000000000E+00 -0.74505805969E-08  0.93827000000E+00  0.93827000000E+00 0.  1.
     999902    2    1    2    0    0  0.32898210861E-02 -0.59234615152E-02 -0.12186566244E-01  0.10299864454E+01  0.10298920598E+01 0.  0.
     999903    2    3    3    0    0  0.26883498248E-01 -0.72628395272E-01 -0.10873511757E+00  0.14188294207E+00  0.48060765495E-01 0.  0.
         14    1    1    2    0    0 -0.32898210861E-02  0.59234615152E-02  0.12186566244E-01  0.13943554637E-01  0.00000000000E+00 0.  1.
     999901    1    3    3    0    0 -0.23593677162E-01  0.66704933756E-01  0.96548551331E-01  0.88810350329E+00  0.88000000000E+00 0. -1.
        -11    1    4    4    0    0  0.10087244132E-01  0.30198501292E-02 -0.28264926666E-01  0.30166855809E-01  0.51100000000E-03 0. -1.
         11    1    4    4    0    0  0.16796254116E-01 -0.75648245401E-01 -0.80470190908E-01  0.11171608627E+00  0.51100000000E-03 0.  1.
</event>
<event>
 8    1  0.2039519E+004  0.1043930E+01  0.7957747E-01            NaN
         13   -1    0    0    0    0  0.00000000000E+00  0.00000000000E+00  0.74505805969E-08  0.10566000000E+00  0.10566000000E+00 0.  1.
     999900   -1    0    0    0    0 -0.00000000000E+00 -0.00000000000E+00 -0.74505805969E-08  0.93827000000E+00  0.93827000000E+00 0.  1.
     999902    2    1    2    0    0 -0.12271010240E-02  0.13927350120E-01  0.56434446180E-03  0.10299373111E+01  0.10298422546E+01 0.  0.
     999903    2    3    3    0    0  0.55391665425E-01 -0.67333569638E-01  0.98558833156E-01  0.13897606524E+00  0.44704104028E-01 0.  0.
         14    1    1    2    0    0  0.12271010240E-02 -0.13927350120E-01 -0.56434446180E-03  0.13992688911E-01  0.00000000000E+00 0.  1.
     999901    1    3    3    0    0 -0.56618766449E-01  0.81260919758E-01 -0.97994488695E-01  0.89096124585E+00  0.88000000000E+00 0.  1.
        -11    1    4    4    0    0  0.45244497865E-01 -0.60827217659E-01  0.10137536745E+00  0.12658689206E+00  0.51100000000E-03 0. -1.
         11    1    4    4    0    0  0.10147167561E-01 -0.65063519791E-02 -0.28165342927E-02  0.12389173177E-01  0.51100000000E-03 0.  1.
</event>
<event>
 8    1  0.2039519E+004  0.1043930E+01  0.7957747E-01            NaN
         13   -1    0    0    0    0  0.00000000000E+00  0.00000000000E+00  0.74505805969E-08  0.10566000000E+00  0.10566000000E+00 0.  1.
     999900   -1    0    0    0    0 -0.00000000000E+00 -0.00000000000E+00 -0.74505805969E-08  0.93827000000E+00  0.93827000000E+00 0.  1.
     999902    2    1    2    0    0  0.52009310705E-02 -0.38414782879E-03 -0.12613022503E-01  0.10302813521E+01  0.10301909429E+01 0.  0.
     999903    2    3    3    0    0  0.83328904785E-01 -0.21361154642E-01 -0.10303459986E+00  0.14195704376E+00  0.46213290340E-01 0.  0.
         14    1    1    2    0    0 -0.52009310705E-02  0.38414782879E-03  0.12613022503E-01  0.13648647926E-01  0.00000000000E+00 0.  1.
     999901    1    3    3    0    0 -0.78127973714E-01  0.20977006813E-01  0.90421577357E-01  0.88832430831E+00  0.88000000000E+00 0. -1.
        -11    1    4    4    0    0  0.66251030702E-01 -0.34590327181E-01 -0.69476822062E-01  0.10204400878E+00  0.51100000000E-03 0. -1.
         11    1    4    4    0    0  0.17077874082E-01  0.13229172539E-01 -0.33557777798E-01  0.39913034976E-01  0.51100000000E-03 0.  1.
</event>
<event>
 8    1  0.2039519E+004  0.1043930E+01  0.7957747E-01            NaN
         13   -1    0    0    0    0  0.00000000000E+00  0.00000000000E+00  0.74505805969E-08  0.10566000000E+00  0.10566000000E+00 0.  1.
     999900   -1    0    0    0    0 -0.00000000000E+00 -0.00000000000E+00 -0.74505805969E-08  0.93827000000E+00  0.93827000000E+00 0.  1.
     999902    2    1    2    0    0 -0.78015780582E-02  0.55510682298E-02 -0.10254950403E-01  0.10298999256E+01  0.10298043571E+01 0.  0.
     999903    2    3    3    0    0  0.12512289555E+00 -0.39751891848E-01 -0.27467304009E-04  0.13870641395E+00  0.44760659270E-01 0.  0.
         14    1    1    2    0    0  0.78015780582E-02 -0.55510682298E-02  0.10254950403E-01  0.14030074357E-01  0.00000000000E+00 0. -1.
     999901    1    3    3    0    0 -0.13292447361E+00  0.45302960078E-01 -0.10227483099E-01  0.89119351170E+00  0.88000000000E+00 0. -1.
        -11    1    4    4    0    0  0.11216853947E+00 -0.40233160339E-01 -0.13588530162E-01  0.11993914170E+00  0.51100000000E-03 0.  1.
         11    1    4    4    0    0  0.12954356085E-01  0.48126849122E-03  0.13561062858E-01  0.18767272252E-01  0.51100000000E-03 0. -1.
</event>
<event>
 8    1  0.2039519E+004  0.1043930E+01  0.7957747E-01            NaN
         13   -1    0    0    0    0  0.00000000000E+00  0.00000000000E+00  0.74505805969E-08  0.10566000000E+00  0.10566000000E+00 0. -1.
     999900   -1    0    0    0    0 -0.00000000000E+00 -0.00000000000E+00 -0.74505805969E-08  0.93827000000E+00  0.93827000000E+00 0. -1.
     999902    2    1    2    0    0 -0.10979197336E-01  0.97873601962E-02 -0.44893038542E-02  0.10285517998E+01  0.10284368312E+01 0.  0.
     999903    2    3    3    0    0 -0.36529272275E-01  0.12196260772E+00 -0.38438660470E-01  0.14041405632E+00  0.45047876523E-01 0.  0.
         14    1    1    2    0    0  0.10979197336E-01 -0.97873601962E-02  0.44893038542E-02  0.15378200247E-01  0.00000000000E+00 0.  1.
     999901    1    3    3    0    0  0.25550074939E-01 -0.11217524753E+00  0.33949356616E-01  0.88813774343E+00  0.88000000000E+00 0.  1.
        -11    1    4    4    0    0 -0.12771808724E-01  0.57364589759E-02 -0.12945130863E-01  0.19075208877E-01  0.51100000000E-03 0.  1.
         11    1    4    4    0    0 -0.23757463551E-01  0.11622614875E+00 -0.25493529608E-01  0.12133884745E+00  0.51100000000E-03 0. -1.
</event>
<event>
 8    1  0.2039519E+004  0.1043930E+01  0.7957747E-01            NaN
         13   -1    0    0    0    0  0.00000000000E+00  0.00000000000E+00  0.74505805969E-08  0.10566000000E+00  0.10566000000E+00 0.  1.
     999900   -1    0    0    0    0 -0.00000000000E+00 -0.00000000000E+00 -0.74505805969E-08  0.93827000000E+00  0.93827000000E+00 0.  1.
     999902    2    1    2    0    0 -0.13202893015E-02  0.75775150970E-02  0.11805675681E-01  0.10298397240E+01  0.10297433279E+01 0.  0.
     999903    2    3    3    0    0  0.25374938894E-01 -0.10020468121E+00  0.83239321725E-01  0.13999007221E+00  0.44537287465E-01 0.  0.
         14    1    1    2    0    0  0.13202893015E-02 -0.75775150970E-02 -0.11805675681E-01  0.14090275979E-01  0.00000000000E+00 0. -1.
     999901    1    3    3    0    0 -0.26695228195E-01  0.10778219631E+00 -0.71433646044E-01  0.88984965182E+00  0.88000000000E+00 0.  1.
        -11    1    4    4    0    0 -0.69500450449E-02 -0.25668527381E-01  0.47398077713E-02  0.27016723020E-01  0.51100000000E-03 0.  1.
         11    1    4    4    0    0  0.32324983938E-01 -0.74536153827E-01  0.78499513954E-01  0.11297334918E+00  0.51100000000E-03 0. -1.
</event>
<event>
 8    1  0.2039519E+004  0.1043930E+01  0.7957747E-01            NaN
         13   -1    0    0    0    0  0.00000000000E+00  0.00000000000E+00  0.74505805969E-08  0.10566000000E+00  0.10566000000E+00 0.  1.
     999900   -1    0    0    0    0 -0.00000000000E+00 -0.00000000000E+00 -0.74505805969E-08  0.93827000000E+00  0.93827000000E+00 0. -1.
     999902    2    1    2    0    0 -0.12747407625E-01  0.17929082225E-02 -0.79110026290E-03  0.10310328390E+01  0.10309521708E+01 0.  0.
     999903    2    3    3    0    0 -0.13000653854E+00  0.45242146745E-02  0.39148737855E-01  0.14235271972E+00  0.42538271651E-01 0.  0.
         14    1    1    2    0    0  0.12747407625E-01 -0.17929082225E-02  0.79110026290E-03  0.12897160954E-01  0.00000000000E+00 0.  1.
     999901    1    3    3    0    0  0.11725913091E+00 -0.27313064520E-02 -0.39939838118E-01  0.88868011933E+00  0.88000000000E+00 0.  1.
        -11    1    4    4    0    0 -0.71674236007E-01  0.14256616704E-01  0.32145572398E-02  0.73150814939E-01  0.51100000000E-03 0. -1.
         11    1    4    4    0    0 -0.58332302531E-01 -0.97324020292E-02  0.35934180615E-01  0.69201904781E-01  0.51100000000E-03 0.  1.
</event>
<event>
 7    1  0.2039519E+004  0.1043930E+01  0.7957747E-01            NaN
         13   -1    0    0    0    0  0.00000000000E+00  0.00000000000E+00  0.74505805969E-08  0.10566000000E+00  0.10566000000E+00 0.  1.
     999900   -1    0    0    0    0 -0.00000000000E+00 -0.00000000000E+00 -0.74505805969E-08  0.93827000000E+00  0.93827000000E+00 0. -1.
     999903    2    1    2    0    0 -0.46491930709E-01  0.51695209071E-01  0.96232397872E-01  0.12745865500E+00  0.46380384561E-01 0.  0.
         14    1    1    2    0    0  0.15143422196E-01  0.79908091014E-02 -0.25961683021E-01  0.31099602106E-01  0.00000000000E+00 0. -1.
     999901    1    1    2    0    0  0.31348508513E-01 -0.59686018173E-01 -0.70270714851E-01  0.88537174290E+00  0.88000000000E+00 0. -1.
        -11    1    3    3    0    0 -0.83045961632E-02 -0.10979794901E-02  0.41567606398E-01  0.42406354465E-01  0.51100000000E-03 0. -1.
         11    1    3    3    0    0 -0.38187334546E-01  0.52793188561E-01  0.54664791474E-01  0.85052300534E-01  0.51100000000E-03 0.  1.
</event>
<event>
 8    1  0.2039519E+004  0.1043930E+01  0.7957747E-01            NaN
         13   -1    0    0    0    0  0.00000000000E+00  0.00000000000E+00  0.74505805969E-08  0.10566000000E+00  0.10566000000E+00 0.  1.
     999900   -1    0    0    0    0 -0.00000000000E+00 -0.00000000000E+00 -0.74505805969E-08  0.93827000000E+00  0.93827000000E+00 0.  1.
     999902    2    1    2    0    0  0.12965353860E-02  0.73152814383E-02 -0.13368198504E-01  0.10286361098E+01  0.10285224078E+01 0.  0.
     999903    2    3    3    0    0  0.11869589163E+00 -0.14077426115E-01 -0.55257741536E-01  0.13959449625E+00  0.46328358141E-01 0.  0.
         14    1    1    2    0    0 -0.12965353860E-02 -0.73152814383E-02  0.13368198504E-01  0.15293890211E-01  0.00000000000E+00 0.  1.
     999901    1    3    3    0    0 -0.11739935625E+00  0.21392707554E-01  0.41889543032E-01  0.88904161354E+00  0.88000000000E+00 0. -1.
        -11    1    4    4    0    0  0.98430933859E-01  0.72244861246E-02 -0.44743327740E-01  0.10836543932E+00  0.51100000000E-03 0. -1.
         11    1    4    4    0    0  0.20264957774E-01 -0.21301912240E-01 -0.10514413797E-01  0.31229056936E-01  0.51100000000E-03 0.  1.
</event>
<event>
 8    1  0.2039519E+004  0.1043930E+01  0.7957747E-01            NaN
         13   -1    0    0    0    0  0.00000000000E+00  0.00000000000E+00  0.74505805969E-08  0.10566000000E+00  0.10566000000E+00 0. -1.
     999900   -1    0    0    0    0 -0.00000000000E+00 -0.00000000000E+00 -0.74505805969E-08  0.93827000000E+00  0.93827000000E+00 0. -1.
     999902    2    1    2    0    0 -0.65147950684E-02 -0.79417047412E-02 -0.91755285933E-02  0.10301567087E+01  0.10300646295E+01 0.  0.
     999903    2    3    3    0    0  0.18930188825E-01 -0.32388896687E-01 -0.12867317180E+00  0.14137957174E+00  0.44988948517E-01 0.  0.
         14    1    1    2    0    0  0.65147950684E-02  0.79417047412E-02  0.91755285933E-02  0.13773291326E-01  0.00000000000E+00 0. -1.
     999901    1    3    3    0    0 -0.25444983893E-01  0.24447191946E-01  0.11949764320E+00  0.88877713693E+00  0.88000000000E+00 0.  1.
        -11    1    4    4    0    0  0.10364074593E-01 -0.42335724645E-01 -0.11179028331E+00  0.11998773348E+00  0.51100000000E-03 0.  1.
         11    1    4    4    0    0  0.85661142320E-02  0.99468279576E-02 -0.16882888491E-01  0.21391838263E-01  0.51100000000E-03 0. -1.
</event>
<event>
 8    1  0.2039519E+004  0.1043930E+01  0.7957747E-01            NaN
         13   -1    0    0    0    0  0.00000000000E+00  0.00000000000E+00  0.74505805969E-08  0.10566000000E+00  0.10566000000E+00 0. -1.
     999900   -1    0    0    0    0 -0.00000000000E+00 -0.00000000000E+00 -0.74505805969E-08  0.93827000000E+00  0.93827000000E+00 0. -1.
     999902    2    1    2    0    0  0.26928326370E-02  0.11936881553E-01  0.55186215774E-02  0.10305063018E+01  0.10304188675E+01 0.  0.
     999903    2    3    3    0    0 -0.78694981953E-01 -0.10513956620E+00  0.43163346651E-02  0.13902869891E+00  0.45421578703E-01 0.  0.
         14    1    1    2    0    0 -0.26928326370E-02 -0.11936881553E-01 -0.55186215774E-02  0.13423698184E-01  0.00000000000E+00 0. -1.
     999901    1    3    3    0    0  0.81387814590E-01  0.11707644775E+00  0.12022869122E-02  0.89147760290E+00  0.88000000000E+00 0. -1.
        -11    1    4    4    0    0 -0.24726838213E-01 -0.69891562624E-01 -0.26945219661E-02  0.74187388575E-01  0.51100000000E-03 0. -1.
         11    1    4    4    0    0 -0.53968143740E-01 -0.35248003574E-01  0.70108566313E-02  0.64841310338E-01  0.51100000000E-03 0.  1.
</event>
<event>
 8    1  0.2039519E+004  0.1043930E+01  0.7957747E-01            NaN
         13   -1    0    0    0    0  0.00000000000E+00  0.00000000000E+00  0.74505805969E-08  0.10566000000E+00  0.10566000000E+00 0. -1.
     999900   -1    0    0    0    0 -0.00000000000E+00 -0.00000000000E+00 -0.74505805969E-08  0.93827000000E+00  0.93827000000E+00 0.  1.
     999902    2    1    2    0    0  0.63451390199E-02 -0.10969081640E-01  0.52411453370E-02  0.10302168258E+01  0.10301255540E+01 0.  0.
     999903    2    3    3    0    0 -0.96790332676E-01  0.68395688304E-01  0.57727322121E-01  0.13909927412E+00  0.44382718057E-01 0.  0.
         14    1    1    2    0    0 -0.63451390199E-02  0.10969081640E-01 -0.52411453370E-02  0.13713174164E-01  0.00000000000E+00 0.  1.
     999901    1    3    3    0    0  0.10313547170E+00 -0.79364769944E-01 -0.52486176784E-01  0.89111755172E+00  0.88000000000E+00 0.  1.
        -11    1    4    4    0    0 -0.25900868530E-01 -0.12989605859E-02  0.44740857726E-02  0.26321490340E-01  0.51100000000E-03 0. -1.
         11    1    4    4    0    0 -0.70889464147E-01  0.69694648890E-01  0.53253236348E-01  0.11277778378E+00  0.51100000000E-03 0.  1.
</event>
<event>
 8    1  0.2039519E+004  0.1043930E+01  0.7957747E-01            NaN
         13   -1    0    0    0    0  0.00000000000E+00  0.00000000000E+00  0.74505805969E-08  0.10566000000E+00  0.10566000000E+00 0. -1.
     999900   -1    0    0    0    0 -0.00000000000E+00 -0.00000000000E+00 -0.74505805969E-08  0.93827000000E+00  0.93827000000E+00 0.  1.
     999902    2    1    2    0    0 -0.42010194123E-02  0.53313629458E-02  0.11206577668E-01  0.10308281155E+01  0.10307448493E+01 0.  0.
     999903    2    3    3    0    0 -0.30130427694E-01  0.13058910807E+00 -0.22252535343E-03  0.14150676674E+00  0.45417592361E-01 0.  0.
         14    1    1    2    0    0  0.42010194123E-02 -0.53313629458E-02 -0.11206577668E-01  0.13101884521E-01  0.00000000000E+00 0. -1.
     999901    1    3    3    0    0  0.25929408282E-01 -0.12525774512E+00  0.11429103022E-01  0.88932134874E+00  0.88000000000E+00 0. -1.
        -11    1    4    4    0    0 -0.39432625384E-01  0.99073689924E-01 -0.10306703178E-01  0.10713084164E+00  0.51100000000E-03 0.  1.
         11    1    4    4    0    0  0.93021976902E-02  0.31515418147E-01  0.10084177824E-01  0.34375925096E-01  0.51100000000E-03 0. -1.
</event>
<event>
 8    1  0.2039519E+004  0.1043930E+01  0.7957747E-01            NaN
         13   -1    0    0    0    0  0.00000000000E+00  0.00000000000E+00  0.74505805969E-08  0.10566000000E+00  0.10566000000E+00 0.  1.
     999900   -1    0    0    0    0 -0.00000000000E+00 -0.00000000000E+00 -0.74505805969E-08  0.93827000000E+00  0.93827000000E+00 0.  1.
     999902    2    1    2    0    0 -0.78697934557E-02 -0.51756987888E-02  0.10891131740E-01  0.10295307550E+01  0.10294300545E+01 0.  0.
     999903    2    3    3    0    0  0.18215590510E-01  0.11528044684E+00  0.61580982777E-01  0.13949727735E+00  0.45231446883E-01 0.  0.
         14    1    1    2    0    0  0.78697934557E-02  0.51756987888E-02 -0.10891131740E-01  0.14399245035E-01  0.00000000000E+00 0. -1.
     999901    1    3    3    0    0 -0.26085383966E-01 -0.12045614563E+00 -0.50689851037E-01  0.89003347761E+00  0.88000000000E+00 0.  1.
        -11    1    4    4    0    0  0.13999351952E-02  0.16565896316E-01 -0.70841922665E-02  0.18078596195E-01  0.51100000000E-03 0.  1.
         11    1    4    4    0    0  0.16815655315E-01  0.98714550525E-01  0.68665175043E-01  0.12141868116E+00  0.51100000000E-03 0. -1.
</event>
<event>
 8    1  0.2039519E+004  0.1043930E+01  0.7957747E-01            NaN
         13   -1    0    0    0    0  0.00000000000E+00  0.00000000000E+00  0.74505805969E-08  0.10566000000E+00  0.10566000000E+00 0. -1.
     999900   -1    0    0    0    0 -0.00000000000E+00 -0.00000000000E+00 -0.74505805969E-08  0.93827000000E+00  0.93827000000E+00 0.  1.
     999902    2    1    2    0    0  0.11433196719E-01  0.27618764189E-02  0.77588937292E-02  0.10298393513E+01  0.10297429500E+01 0.  0.
     999903    2    3    3    0    0  0.39820046929E-01  0.40408345017E-01  0.12134614439E+00  0.14128708308E+00  0.44929751858E-01 0.  0.
         14    1    1    2    0    0 -0.11433196719E-01 -0.27618764189E-02 -0.77588937292E-02  0.14090648689E-01  0.00000000000E+00 0.  1.
     999901    1    3    3    0    0 -0.28386850210E-01 -0.37646468598E-01 -0.11358725066E+00  0.88855226823E+00  0.88000000000E+00 0.  1.
        -11    1    4    4    0    0  0.92148390967E-02  0.34032486575E-01  0.35992538758E-01  0.50386976187E-01  0.51100000000E-03 0. -1.
         11    1    4    4    0    0  0.30605207832E-01  0.63758584418E-02  0.85353605636E-01  0.90900106895E-01  0.51100000000E-03 0.  1.
</event>
<event>
 8    1  0.2039519E+004  0.1043930E+01  0.7957747E-01            NaN
         13   -1    0    0    0    0  0.00000000000E+00  0.00000000000E+00  0.74505805969E-08  0.10566000000E+00  0.10566000000E+00 0. -1.
     999900   -1    0    0    0    0 -0.00000000000E+00 -0.00000000000E+00 -0.74505805969E-08  0.93827000000E+00  0.93827000000E+00 0.  1.
     999902    2    1    2    0    0  0.57743131013E-02  0.53802850389E-02 -0.11099810383E-01  0.10303103102E+01  0.10302202868E+01 0.  0.
     999903    2    3    3    0    0 -0.31169754349E-01 -0.10574688351E+00 -0.74013888604E-01  0.14032587613E+00  0.45379938808E-01 0.  0.
         14    1    1    2    0    0 -0.57743131013E-02 -0.53802850389E-02  0.11099810383E-01  0.13619689770E-01  0.00000000000E+00 0. -1.
     999901    1    3    3    0    0  0.36944067450E-01  0.11112716855E+00  0.62914078220E-01  0.88998443410E+00  0.88000000000E+00 0. -1.
        -11    1    4    4    0    0 -0.41957502582E-01 -0.75195710144E-01 -0.60380556842E-01  0.10517081160E+00  0.51100000000E-03 0. -1.
         11    1    4    4    0    0  0.10787748233E-01 -0.30551173365E-01 -0.13633331761E-01  0.35155064526E-01  0.51100000000E-03 0.  1.
</event>
<event>
 8    1  0.2039519E+004  0.1043930E+01  0.7957747E-01            NaN
         13   -1    0    0    0    0  0.00000000000E+00  0.00000000000E+00  0.74505805969E-08  0.10566000000E+00  0.10566000000E+00 0. -1.
     999900   -1    0    0    0    0 -0.00000000000E+00 -0.00000000000E+00 -0.74505805969E-08  0.93827000000E+00  0.93827000000E+00 0. -1.
     999902    2    1    2    0    0  0.18484900429E-02 -0.78992828938E-02  0.11955395543E-01  0.10294819182E+01  0.10293805287E+01 0.  0.
     999903    2    3    3    0    0  0.49378911882E-01  0.81678535311E-01 -0.88989819945E-01  0.13792526656E+00  0.44660172786E-01 0.  0.
         14    1    1    2    0    0 -0.18484900429E-02  0.78992828938E-02 -0.11955395543E-01  0.14448081820E-01  0.00000000000E+00 0.  1.
     999901    1    3    3    0    0 -0.47530421839E-01 -0.89577818205E-01  0.10094521549E+00  0.89155665162E+00  0.88000000000E+00 0.  1.
        -11    1    4    4    0    0  0.26639282321E-01  0.18259570413E-01 -0.51587061287E-01  0.60865008728E-01  0.51100000000E-03 0. -1.
         11    1    4    4    0    0  0.22739629561E-01  0.63418964897E-01 -0.37402758658E-01  0.77060257834E-01  0.51100000000E-03 0.  1.
</event>
<event>
 8    1  0.2039519E+004  0.1043930E+01  0.7957747E-01            NaN
         13   -1    0    0    0    0  0.00000000000E+00  0.00000000000E+00  0.74505805969E-08  0.10566000000E+00  0.10566000000E+00 0.  1.
     999900   -1    0    0    0    0 -0.00000000000E+00 -0.00000000000E+00 -0.74505805969E-08  0.93827000000E+00  0.93827000000E+00 0.  1.
     999902    2    1    2    0    0  0.10784201235E-01 -0.29464716896E-02 -0.76598400809E-02  0.10303781056E+01  0.10302889821E+01 0.  0.
     999903    2    3    3    0    0  0.38650241774E-01  0.19345867935E-01 -0.12699206335E+00  0.14160724417E+00  0.45359934424E-01 0.  0.
         14    1    1    2    0    0 -0.10784201235E-01  0.29464716896E-02  0.76598400809E-02  0.13551894398E-01  0.00000000000E+00 0.  1.
     999901    1    3    3    0    0 -0.27866040538E-01 -0.22292339624E-01  0.11933222327E+00  0.88877086143E+00  0.88000000000E+00 0. -1.
        -11    1    4    4    0    0  0.17174958253E-01 -0.59200781646E-02 -0.11638278645E-01  0.21580944541E-01  0.51100000000E-03 0. -1.
         11    1    4    4    0    0  0.21475283521E-01  0.25265946099E-01 -0.11535378471E+00  0.12002629963E+00  0.51100000000E-03 0.  1.
</event>
<event>
 8    1  0.2039519E+004  0.1043930E+01  0.7957747E-01            NaN
         13   -1    0    0    0    0  0.00000000000E+00  0.00000000000E+00  0.74505805969E-08  0.10566000000E+00  0.10566000000E+00 0.  1.
     999900   -1    0    0    0    0 -0.00000000000E+00 -0.00000000000E+00 -0.74505805969E-08  0.93827000000E+00  0.93827000000E+00 0.  1.
     999902    2    1    2    0    0 -0.13578153928E-01  0.23273249884E-02  0.33327347653E-02  0.10297564392E+01  0.10296588921E+01 0.  0.
     999903    2    3    3    0    0  0.11177035010E+00  0.30305548434E-01 -0.65921706333E-01  0.13774118926E+00  0.34870136584E-01 0.  0.
         14    1    1    2    0    0  0.13578153928E-01 -0.23273249884E-02 -0.33327347653E-02  0.14173560834E-01  0.00000000000E+00 0.  1.
     999901    1    3    3    0    0 -0.12534850403E+00 -0.27978223445E-01  0.69254441098E-01  0.89201524990E+00  0.88000000000E+00 0. -1.
        -11    1    4    4    0    0  0.62717443892E-01  0.32704584559E-01 -0.47891552381E-01  0.85422066997E-01  0.51100000000E-03 0. -1.
         11    1    4    4    0    0  0.49052906211E-01 -0.23990361250E-02 -0.18030153952E-01  0.52319122265E-01  0.51100000000E-03 0.  1.
</event>
<event>
 8    1  0.2039519E+004  0.1043930E+01  0.7957747E-01            NaN
         13   -1    0    0    0    0  0.00000000000E+00  0.00000000000E+00  0.74505805969E-08  0.10566000000E+00  0.10566000000E+00 0. -1.
     999900   -1    0    0    0    0 -0.00000000000E+00 -0.00000000000E+00 -0.74505805969E-08  0.93827000000E+00  0.93827000000E+00 0.  1.
     999902    2    1    2    0    0 -0.47448014799E-02 -0.31519568840E-02 -0.12718260382E-01  0.10299943579E+01  0.10299000802E+01 0.  0.
     999903    2    3    3    0    0  0.11099494553E+00  0.70462066897E-01 -0.10836005915E-01  0.13936634554E+00  0.44953069303E-01 0.  0.
         14    1    1    2    0    0  0.47448014799E-02  0.31519568840E-02  0.12718260382E-01  0.13935642089E-01  0.00000000000E+00 0. -1.
     999901    1    3    3    0    0 -0.11573974701E+00 -0.73614023781E-01 -0.18822544676E-02  0.89062801237E+00  0.88000000000E+00 0.  1.
        -11    1    4    4    0    0  0.14232197527E-01  0.31182557766E-01 -0.61548065930E-02  0.34828869067E-01  0.51100000000E-03 0. -1.
         11    1    4    4    0    0  0.96762748007E-01  0.39279509131E-01 -0.46811993218E-02  0.10453747647E+00  0.51100000000E-03 0.  1.
</event>
<event>
 8    1  0.2039519E+004  0.1043930E+01  0.7957747E-01            NaN
         13   -1    0    0    0    0  0.00000000000E+00  0.00000000000E+00  0.74505805969E-08  0.10566000000E+00  0.10566000000E+00 0. -1.
     999900   -1    0    0    0    0 -0.00000000000E+00 -0.00000000000E+00 -0.74505805969E-08  0.93827000000E+00  0.93827000000E+00 0. -1.
     999902    2    1    2    0    0  0.61959648011E-02 -0.10181726017E-01 -0.81162927513E-02  0.10295101618E+01  0.10294091711E+01 0.  0.
     999903    2    3    3    0    0 -0.68275958611E-01 -0.99935117539E-01 -0.55450754667E-01  0.14055443181E+00  0.45079128954E-01 0.  0.
         14    1    1    2    0    0 -0.61959648011E-02  0.10181726017E-01  0.81162927513E-02  0.14419838159E-01  0.00000000000E+00 0. -1.
     999901    1    3    3    0    0  0.74471923412E-01  0.89753391523E-01  0.47334461915E-01  0.88895573003E+00  0.88000000000E+00 0. -1.
        -11    1    4    4    0    0 -0.72117345649E-01 -0.77557121565E-01 -0.50403195248E-01  0.11728922312E+00  0.51100000000E-03 0.  1.
         11    1    4    4    0    0  0.38413870386E-02 -0.22377995975E-01 -0.50475594185E-02  0.23265208688E-01  0.51100000000E-03 0. -1.
</event>
<event>
 8    1  0.2039519E+004  0.1043930E+01  0.7957747E-01            NaN
         13   -1    0    0    0    0  0.00000000000E+00  0.00000000000E+00  0.74505805969E-08  0.10566000000E+00  0.10566000000E+00 0.  1.
     999900   -1    0    0    0    0 -0.00000000000E+00 -0.00000000000E+00 -0.74505805969E-08  0.93827000000E+00  0.93827000000E+00 0. -1.
     999902    2    1    2    0    0  0.69996393272E-02 -0.20214013908E-02 -0.11810548277E-01  0.10300530383E+01  0.10299595583E+01 0.  0.
     999903    2    3    3    0    0 -0.91464892674E-01 -0.43686758667E-01 -0.86446055627E-01  0.14044541415E+00  0.44470600939E-01 0.  0.
         14    1    1    2    0    0 -0.69996393272E-02  0.20214013908E-02  0.11810548277E-01  0.13876961659E-01  0.00000000000E+00 0.  1.
     999901    1    3    3    0    0  0.98464532001E-01  0.41665357277E-01  0.74635507350E-01  0.88960762419E+00  0.88000000000E+00 0.  1.
        -11    1    4    4    0    0 -0.67617190949E-01 -0.43500772546E-01 -0.84299810693E-01  0.11649515410E+00  0.51100000000E-03 0.  1.
         11    1    4    4    0    0 -0.23847701724E-01 -0.18598612084E-03 -0.21462449338E-02  0.23950260055E-01  0.51100000000E-03 0. -1.
</event>
<event>
 8    1  0.2039519E+004  0.1043930E+01  0.7957747E-01            NaN
         13   -1    0    0    0    0  0.00000000000E+00  0.00000000000E+00  0.74505805969E-08  0.10566000000E+00  0.10566000000E+00 0.  1.
     999900   -1    0    0    0    0 -0.00000000000E+00 -0.00000000000E+00 -0.74505805969E-08  0.93827000000E+00  0.93827000000E+00 0.  1.
     999902    2    1    2    0    0 -0.10221871584E-01 -0.15277507966E-01  0.90072098616E-02  0.10234600528E+01  0.10232553254E+01 0.  0.
     999903    2    3    3    0    0 -0.75831016103E-01 -0.99640043548E-01 -0.29857124752E-01  0.13614272865E+00  0.44327343531E-01 0.  0.
         14    1    1    2    0    0  0.10221871584E-01  0.15277507966E-01 -0.90072098616E-02  0.20469947187E-01  0.00000000000E+00 0. -1.
     999901    1    3    3    0    0  0.65609144519E-01  0.84362535581E-01  0.38864334614E-01  0.88731732416E+00  0.88000000000E+00 0.  1.
        -11    1    4    4    0    0 -0.35533324473E-01 -0.20984268698E-01 -0.23602130011E-01  0.47542384700E-01  0.51100000000E-03 0. -1.
         11    1    4    4    0    0 -0.40297691630E-01 -0.78655774850E-01 -0.62549947408E-02  0.88600343951E-01  0.51100000000E-03 0.  1.
</event>
<event>
 8    1  0.2039519E+004  0.1043930E+01  0.7957747E-01            NaN
         13   -1    0    0    0    0  0.00000000000E+00  0.00000000000E+00  0.74505805969E-08  0.10566000000E+00  0.10566000000E+00 0.  1.
     999900   -1    0    0    0    0 -0.00000000000E+00 -0.00000000000E+00 -0.74505805969E-08  0.93827000000E+00  0.93827000000E+00 0.  1.
     999902    2    1    2    0    0 -0.63469437404E-02  0.99904269903E-02  0.76371380444E-02  0.10298439003E+01  0.10297475617E+01 0.  0.
     999903    2    3    3    0    0  0.64779438227E-01 -0.77177297921E-01  0.84510696072E-01  0.13935711301E+00  0.46104623023E-01 0.  0.
         14    1    1    2    0    0  0.63469437404E-02 -0.99904269903E-02 -0.76371380444E-02  0.14086099666E-01  0.00000000000E+00 0. -1.
     999901    1    3    3    0    0 -0.71126381967E-01  0.87167724911E-01 -0.76873558027E-01  0.89048678733E+00  0.88000000000E+00 0.  1.
        -11    1    4    4    0    0  0.39595335091E-01 -0.49476567934E-01  0.23134925221E-01  0.67462635744E-01  0.51100000000E-03 0.  1.
         11    1    4    4    0    0  0.25184103136E-01 -0.27700729987E-01  0.61375770851E-01  0.71894477264E-01  0.51100000000E-03 0. -1.
</event>
<event>
 8    1  0.2039519E+004  0.1043930E+01  0.7957747E-01            NaN
         13   -1    0    0    0    0  0.00000000000E+00  0.00000000000E+00  0.74505805969E-08  0.10566000000E+00  0.10566000000E+00 0. -1.
     999900   -1    0    0    0    0 -0.00000000000E+00 -0.00000000000E+00 -0.74505805969E-08  0.93827000000E+00  0.93827000000E+00 0.  1.
     999902    2    1    2    0    0  0.12553688502E-01 -0.50435743025E-02 -0.12011092481E-02  0.10303478279E+01  0.10302583030E+01 0.  0.
     999903    2    3    3    0    0  0.43326427292E-01  0.10674990380E+00  0.66357741036E-01  0.14017428216E+00  0.44415744078E-01 0.  0.
         14    1    1    2    0    0 -0.12553688502E-01  0.50435743025E-02  0.12011092481E-02  0.13582172145E-01  0.00000000000E+00 0. -1.
     999901    1    3    3    0    0 -0.30772738791E-01 -0.11179347810E+00 -0.67558850284E-01  0.89017354569E+00  0.88000000000E+00 0.  1.
        -11    1    4    4    0    0  0.39804339196E-01  0.73784308769E-01  0.25654242822E-01  0.87675030283E-01  0.51100000000E-03 0. -1.
         11    1    4    4    0    0  0.35220880965E-02  0.32965595028E-01  0.40703498215E-01  0.52499251881E-01  0.51100000000E-03 0.  1.
</event>
<event>
 8    1  0.2039519E+004  0.1043930E+01  0.7957747E-01            NaN
         13   -1    0    0    0    0  0.00000000000E+00  0.00000000000E+00  0.74505805969E-08  0.10566000000E+00  0.10566000000E+00 0. -1.
     999900   -1    0    0    0    0 -0.00000000000E+00 -0.00000000000E+00 -0.74505805969E-08  0.93827000000E+00  0.93827000000E+00 0.  1.
     999902    2    1    2    0    0 -0.91363520851E-02  0.10044007889E-01  0.69800833369E-03  0.10303343301E+01  0.10302446261E+01 0.  0.
     999903    2    3    3    0    0 -0.30995962498E-01  0.11167099694E+00 -0.67625960756E-01  0.14158574237E+00  0.45189496866E-01 0.  0.
         14    1    1    2    0    0  0.91363520851E-02 -0.10044007889E-01 -0.69800833369E-03  0.13595669882E-01  0.00000000000E+00 0. -1.
     999901    1    3    3    0    0  0.21859610413E-01 -0.10162698905E+00  0.68323969089E-01  0.88874858775E+00  0.88000000000E+00 0. -1.
        -11    1    4    4    0    0  0.29957137081E-03  0.17747434065E-01 -0.31572803794E-01  0.36223807355E-01  0.51100000000E-03 0. -1.
         11    1    4    4    0    0 -0.31295533869E-01  0.93923562871E-01 -0.36053156962E-01  0.10536193502E+00  0.51100000000E-03 0.  1.
</event>
<event>
 8    1  0.2039519E+004  0.1043930E+01  0.7957747E-01            NaN
         13   -1    0    0    0    0  0.00000000000E+00  0.00000000000E+00  0.74505805969E-08  0.10566000000E+00  0.10566000000E+00 0. -1.
     999900   -1    0    0    0    0 -0.00000000000E+00 -0.00000000000E+00 -0.74505805969E-08  0.93827000000E+00  0.93827000000E+00 0.  1.
     999902    2    1    2    0    0  0.10346987226E-02 -0.14243196955E-01 -0.86007309816E-03  0.10296233936E+01  0.10295239937E+01 0.  0.
     999903    2    3    3    0    0  0.79898037641E-02 -0.12777045605E+00  0.39685150099E-01  0.14137752270E+00  0.44984068114E-01 0.  0.
         14    1    1    2    0    0 -0.10346987226E-02  0.14243196955E-01  0.86007309816E-03  0.14306606400E-01  0.00000000000E+00 0.  1.
     999901    1    3    3    0    0 -0.69551050416E-02  0.11352725909E+00 -0.40545223197E-01  0.88824587090E+00  0.88000000000E+00 0.  1.
        -11    1    4    4    0    0  0.15782346167E-01 -0.85110012408E-01  0.65708956003E-02  0.86811488023E-01  0.51100000000E-03 0. -1.
         11    1    4    4    0    0 -0.77925424031E-02 -0.42660443640E-01  0.33114254499E-01  0.54566034680E-01  0.51100000000E-03 0.  1.
</event>
<event>
 8    1  0.2039519E+004  0.1043930E+01  0.7957747E-01            NaN
         13   -1    0    0    0    0  0.00000000000E+00  0.00000000000E+00  0.74505805969E-08  0.10566000000E+00  0.10566000000E+00 0.  1.
     999900   -1    0    0    0    0 -0.00000000000E+00 -0.00000000000E+00 -0.74505805969E-08  0.93827000000E+00  0.93827000000E+00 0.  1.
     999902    2    1    2    0    0 -0.87548521795E-02  0.12511688978E-03 -0.10440854713E-01  0.10303037555E+01  0.10302136449E+01 0.  0.
     999903    2    3    3    0    0 -0.75173405962E-01  0.10663159615E+00 -0.31040476929E-01  0.14115843623E+00  0.44055131954E-01 0.  0.
         14    1    1    2    0    0  0.87548521795E-02 -0.12511688978E-03  0.10440854713E-01  0.13626244459E-01  0.00000000000E+00 0.  1.
     999901    1    3    3    0    0  0.66418553783E-01 -0.10650647926E+00  0.20599622217E-01  0.88914531931E+00  0.88000000000E+00 0.  1.
        -11    1    4    4    0    0 -0.23586986475E-01  0.31563948568E-01 -0.30893290110E-01  0.50072799752E-01  0.51100000000E-03 0.  1.
         11    1    4    4    0    0 -0.51586419487E-01  0.75067647578E-01 -0.14718681924E-03  0.91085636482E-01  0.51100000000E-03 0. -1.
</event>
<event>
 8    1  0.2039519E+004  0.1043930E+01  0.7957747E-01            NaN
         13   -1    0    0    0    0  0.00000000000E+00  0.00000000000E+00  0.74505805969E-08  0.10566000000E+00  0.10566000000E+00 0. -1.
     999900   -1    0    0    0    0 -0.00000000000E+00 -0.00000000000E+00 -0.74505805969E-08  0.93827000000E+00  0.93827000000E+00 0.  1.
     999902    2    1    2    0    0 -0.46732945495E-04  0.20353695461E-02  0.14365792747E-01  0.10294206611E+01  0.10293184039E+01 0.  0.
     999903    2    3    3    0    0  0.11066204117E+00 -0.23789372907E-01  0.69789378967E-01  0.14037897263E+00  0.44985296722E-01 0.  0.
         14    1    1    2    0    0  0.46732945495E-04 -0.20353695461E-02 -0.14365792747E-01  0.14509338869E-01  0.00000000000E+00 0.  1.
     999901    1    3    3    0    0 -0.11070877411E+00  0.25824742453E-01 -0.55423586220E-01  0.88904168850E+00  0.88000000000E+00 0.  1.
        -11    1    4    4    0    0  0.38819423987E-01 -0.94491952151E-02  0.50922299410E-01  0.64726939269E-01  0.51100000000E-03 0. -1.
         11    1    4    4    0    0  0.71842617179E-01 -0.14340177692E-01  0.18867079557E-01  0.75652033359E-01  0.51100000000E-03 0.  1.
</event>
<event>
 8    1  0.2039519E+004  0.1043930E+01  0.7957747E-01            NaN
         13   -1    0    0    0    0  0.00000000000E+00  0.00000000000E+00  0.74505805969E-08  0.10566000000E+00  0.10566000000E+00 0. -1.
     999900   -1    0    0    0    0 -0.00000000000E+00 -0.00000000000E+00 -0.74505805969E-08  0.93827000000E+00  0.93827000000E+00 0.  1.
     999902    2    1    2    0    0  0.69260501905E-02  0.11214161679E-01  0.16765595864E-02  0.10306432229E+01  0.10305575746E+01 0.  0.
     999903    2    3    3    0    0  0.53816304333E-01  0.11497146800E+00 -0.45138670993E-01  0.14207361935E+00  0.45086368563E-01 0.  0.
         14    1    1    2    0    0 -0.69260501905E-02 -0.11214161679E-01 -0.16765595864E-02  0.13286777091E-01  0.00000000000E+00 0.  1.
     999901    1    3    3    0    0 -0.46890254143E-01 -0.10375730632E+00  0.46815230579E-01  0.88856960356E+00  0.88000000000E+00 0.  1.
        -11    1    4    4    0    0  0.36576139683E-01  0.58194112399E-01 -0.20971573349E-02  0.68767927858E-01  0.51100000000E-03 0.  1.
         11    1    4    4    0    0  0.17240164650E-01  0.56777355605E-01 -0.43041513658E-01  0.73305691496E-01  0.51100000000E-03 0. -1.
</event>
<event>
 7    1  0.2039519E+004  0.1043930E+01  0.7957747E-01            NaN
         13   -1    0    0    0    0  0.00000000000E+00  0.00000000000E+00  0.74505805969E-08  0.10566000000E+00  0.10566000000E+00 0. -1.
     999900   -1    0    0    0    0 -0.00000000000E+00 -0.00000000000E+00 -0.74505805969E-08  0.93827000000E+00  0.93827000000E+00 0.  1.
     999903    2    1    2    0    0 -0.47465889494E-01 -0.95428182458E-01  0.15426382433E-01  0.11720549366E+00  0.46255873097E-01 0.  0.
         14    1    1    2    0    0  0.20573832334E-01 -0.28729979849E-01  0.11598351685E-01  0.37191613044E-01  0.00000000000E+00 0. -1.
     999901    1    1    2    0    0  0.26892057159E-01  0.12415816231E+00 -0.27024734117E-01  0.88953289330E+00  0.88000000000E+00 0.  1.
        -11    1    3    3    0    0 -0.35019933209E-01 -0.94860765927E-01  0.21430660736E-01  0.10336583079E+00  0.51100000000E-03 0.  1.
         11    1    3    3    0    0 -0.12445956284E-01 -0.56741653045E-03 -0.60042783035E-02  0.13839662868E-01  0.51100000000E-03 0. -1.
</event>
<event>
 8    1  0.2039519E+004  0.1043930E+01  0.7957747E-01            NaN
         13   -1    0    0    0    0  0.00000000000E+00  0.00000000000E+00  0.74505805969E-08  0.10566000000E+00  0.10566000000E+00 0. -1.
     999900   -1    0    0    0    0 -0.00000000000E+00 -0.00000000000E+00 -0.74505805969E-08  0.93827000000E+00  0.93827000000E+00 0.  1.
     999902    2    1    2    0    0  0.51062479606E-02 -0.70853533507E-02 -0.95992366564E-02  0.10309522751E+01  0.10308705894E+01 0.  0.
     999903    2    3    3    0    0  0.77583302075E-01 -0.28809527050E-01 -0.10681206845E+00  0.14237183539E+00  0.44852691504E-01 0.  0.
         14    1    1    2    0    0 -0.51062479606E-02  0.70853533507E-02  0.95992366564E-02  0.12977724944E-01  0.00000000000E+00 0. -1.
     999901    1    3    3    0    0 -0.72477054114E-01  0.21724173699E-01  0.97212831794E-01  0.88858043967E+00  0.88000000000E+00 0. -1.
        -11    1    4    4    0    0  0.48901540791E-01 -0.28580981711E-02 -0.84614918838E-01  0.97772567869E-01  0.51100000000E-03 0.  1.
         11    1    4    4    0    0  0.28681761284E-01 -0.25951428878E-01 -0.22197149613E-01  0.44599267518E-01  0.51100000000E-03 0. -1.
</event>
<event>
 8    1  0.2039519E+004  0.1043930E+01  0.7957747E-01            NaN
         13   -1    0    0    0    0  0.00000000000E+00  0.00000000000E+00  0.74505805969E-08  0.10566000000E+00  0.10566000000E+00 0. -1.
     999900   -1    0    0    0    0 -0.00000000000E+00 -0.00000000000E+00 -0.74505805969E-08  0.93827000000E+00  0.93827000000E+00 0.  1.
     999902    2    1    2    0    0 -0.12449199315E-01 -0.30977774678E-02 -0.38862652344E-02  0.10305254543E+01  0.10304382709E+01 0.  0.
     999903    2    3    3    0    0  0.12379165841E+00 -0.17070964990E-01 -0.41215803052E-01  0.13914993538E+00  0.45256707308E-01 0.  0.
         14    1    1    2    0    0  0.12449199315E-01  0.30977774678E-02  0.38862652344E-02  0.13404545732E-01  0.00000000000E+00 0. -1.
     999901    1    3    3    0    0 -0.13624085773E+00  0.13973187522E-01  0.37329537818E-01  0.89137551889E+00  0.88000000000E+00 0. -1.
        -11    1    4    4    0    0  0.51917876735E-01 -0.31286900017E-02  0.54934311417E-02  0.52303857721E-01  0.51100000000E-03 0. -1.
         11    1    4    4    0    0  0.71873781676E-01 -0.13942274989E-01 -0.46709234194E-01  0.86846077656E-01  0.51100000000E-03 0.  1.
</event>
<event>
 8    1  0.2039519E+004  0.1043930E+01  0.7957747E-01            NaN
         13   -1    0    0    0    0  0.00000000000E+00  0.00000000000E+00  0.74505805969E-08  0.10566000000E+00  0.10566000000E+00 0.  1.
     999900   -1    0    0    0    0 -0.00000000000E+00 -0.00000000000E+00 -0.74505805969E-08  0.93827000000E+00  0.93827000000E+00 0.  1.
     999902    2    1    2    0    0  0.92240161427E-03  0.13092093381E-01 -0.58472373437E-02  0.10295618436E+01  0.10294615806E+01 0.  0.
     999903    2    3    3    0    0 -0.10053836220E+00 -0.81270136484E-01 -0.21492916097E-01  0.13858299745E+00  0.45061118303E-01 0.  0.
         14    1    1    2    0    0 -0.92240161427E-03 -0.13092093381E-01  0.58472373437E-02  0.14368156402E-01  0.00000000000E+00 0.  1.
     999901    1    3    3    0    0  0.10146076381E+00  0.94362229865E-01  0.15645678753E-01  0.89097884615E+00  0.88000000000E+00 0. -1.
        -11    1    4    4    0    0 -0.72294822626E-01 -0.81107174466E-01 -0.16535931705E-01  0.10990274467E+00  0.51100000000E-03 0. -1.
         11    1    4    4    0    0 -0.28243539571E-01 -0.16296201793E-03 -0.49569843916E-02  0.28680252777E-01  0.51100000000E-03 0.  1.
</event>
<event>
 8    1  0.2039519E+004  0.1043930E+01  0.7957747E-01            NaN
         13   -1    0    0    0    0  0.00000000000E+00  0.00000000000E+00  0.74505805969E-08  0.10566000000E+00  0.10566000000E+00 0. -1.
     999900   -1    0    0    0    0 -0.00000000000E+00 -0.00000000000E+00 -0.74505805969E-08  0.93827000000E+00  0.93827000000E+00 0.  1.
     999902    2    1    2    0    0 -0.58369736605E-02 -0.12702177829E-01  0.10276535933E-02  0.10299131653E+01  0.10298177783E+01 0.  0.
     999903    2    3    3    0    0  0.11779496977E+00  0.56414130483E-01 -0.47961966286E-02  0.13856820472E+00  0.46042750093E-01 0.  0.
         14    1    1    2    0    0  0.58369736605E-02  0.12702177829E-01 -0.10276535933E-02  0.14016834701E-01  0.00000000000E+00 0.  1.
     999901    1    3    3    0    0 -0.12363194343E+00 -0.69116308312E-01  0.58238502219E-02  0.89134496058E+00  0.88000000000E+00 0. -1.
        -11    1    4    4    0    0  0.94280793300E-01  0.62917891861E-01 -0.93930363256E-02  0.11373662275E+00  0.51100000000E-03 0. -1.
         11    1    4    4    0    0  0.23514176474E-01 -0.65037613773E-02  0.45968396970E-02  0.24831581977E-01  0.51100000000E-03 0.  1.
</event>
<event>
 7    1  0.2039519E+004  0.1043930E+01  0.7957747E-01            NaN
         13   -1    0    0    0    0  0.00000000000E+00  0.00000000000E+00  0.74505805969E-08  0.10566000000E+00  0.10566000000E+00 0. -1.
     999900   -1    0    0    0    0 -0.00000000000E+00 -0.00000000000E+00 -0.74505805969E-08  0.93827000000E+00  0.93827000000E+00 0.  1.
     999903    2    1    2    0    0  0.90539535003E-01 -0.55107176721E-01 -0.67690441927E-02  0.11542358704E+00  0.45194868750E-01 0.  0.
         14    1    1    2    0    0 -0.31492212090E-01 -0.28017810899E-01  0.62943464357E-02  0.42618962294E-01  0.00000000000E+00 0. -1.
     999901    1    1    2    0    0 -0.59047322912E-01  0.83124987620E-01  0.47469775698E-03  0.88588745067E+00  0.88000000000E+00 0.  1.
        -11    1    3    3    0    0  0.67729946109E-02 -0.23674170151E-01 -0.81465192045E-02  0.25941601425E-01  0.51100000000E-03 0.  1.
         11    1    3    3    0    0  0.83766540392E-01 -0.31433006570E-01  0.13774750118E-02  0.89481985615E-01  0.51100000000E-03 0. -1.
</event>
<event>
 8    1  0.2039519E+004  0.1043930E+01  0.7957747E-01            NaN
         13   -1    0    0    0    0  0.00000000000E+00  0.00000000000E+00  0.74505805969E-08  0.10566000000E+00  0.10566000000E+00 0.  1.
     999900   -1    0    0    0    0 -0.00000000000E+00 -0.00000000000E+00 -0.74505805969E-08  0.93827000000E+00  0.93827000000E+00 0.  1.
     999902    2    1    2    0    0 -0.17579278879E-01 -0.10958501409E-02  0.10797500625E-01  0.10232704271E+01  0.10230618500E+01 0.  0.
     999903    2    3    3    0    0 -0.84383577991E-01  0.89459789047E-01 -0.20074855799E-01  0.13556763867E+00  0.53403583467E-01 0.  0.
         14    1    1    2    0    0  0.17579278879E-01  0.10958501409E-02 -0.10797500625E-01  0.20659572919E-01  0.00000000000E+00 0.  1.
     999901    1    3    3    0    0  0.66804299112E-01 -0.90555639188E-01  0.30872356425E-01  0.88770278842E+00  0.88000000000E+00 0. -1.
        -11    1    4    4    0    0 -0.22653590609E-01  0.50683548477E-01  0.10522572826E-01  0.56506574074E-01  0.51100000000E-03 0.  1.
         11    1    4    4    0    0 -0.61729987381E-01  0.38776240570E-01 -0.30597428626E-01  0.79061064592E-01  0.51100000000E-03 0. -1.
</event>
<event>
 8    1  0.2039519E+004  0.1043930E+01  0.7957747E-01            NaN
         13   -1    0    0    0    0  0.00000000000E+00  0.00000000000E+00  0.74505805969E-08  0.10566000000E+00  0.10566000000E+00 0.  1.
     999900   -1    0    0    0    0 -0.00000000000E+00 -0.00000000000E+00 -0.74505805969E-08  0.93827000000E+00  0.93827000000E+00 0. -1.
     999902    2    1    2    0    0  0.13944779732E-02 -0.12769390626E-01 -0.42652972295E-02  0.10303950576E+01  0.10303061584E+01 0.  0.
     999903    2    3    3    0    0  0.70105893720E-01  0.11136223981E+00 -0.67849894394E-02  0.13902741784E+00  0.44341876817E-01 0.  0.
         14    1    1    2    0    0 -0.13944779732E-02  0.12769390626E-01  0.42652972295E-02  0.13534942417E-01  0.00000000000E+00 0.  1.
     999901    1    3    3    0    0 -0.68711415747E-01 -0.12413163044E+00  0.25196922099E-02  0.89136763974E+00  0.88000000000E+00 0. -1.
        -11    1    4    4    0    0  0.89389125740E-02  0.67393059052E-02  0.11964595235E-01  0.16393140707E-01  0.51100000000E-03 0. -1.
         11    1    4    4    0    0  0.61166981146E-01  0.10462293391E+00 -0.18749584675E-01  0.12263427713E+00  0.51100000000E-03 0.  1.
</event>
<event>
 8    1  0.2039519E+004  0.1043930E+01  0.7957747E-01            NaN
         13   -1    0    0    0    0  0.00000000000E+00  0.00000000000E+00  0.74505805969E-08  0.10566000000E+00  0.10566000000E+00 0. -1.
     999900   -1    0    0    0    0 -0.00000000000E+00 -0.00000000000E+00 -0.74505805969E-08  0.93827000000E+00  0.93827000000E+00 0. -1.
     999902    2    1    2    0    0 -0.57436961909E-02  0.86884728360E-02  0.89957538754E-02  0.10301676167E+01  0.10300756843E+01 0.  0.
     999903    2    3    3    0    0 -0.23027964637E-01  0.61936579212E-01 -0.11451285126E+00  0.13978091290E+00  0.45377125384E-01 0.  0.
         14    1    1    2    0    0  0.57436961909E-02 -0.86884728360E-02 -0.89957538754E-02  0.13762383294E-01  0.00000000000E+00 0.  1.
     999901    1    3    3    0    0  0.17284268446E-01 -0.53248106376E-01  0.12350860514E+00  0.89038670380E+00  0.88000000000E+00 0.  1.
        -11    1    4    4    0    0 -0.25742676822E-01  0.17417858172E-01 -0.25457731467E-01  0.40179900519E-01  0.51100000000E-03 0. -1.
         11    1    4    4    0    0  0.27147121853E-02  0.44518721041E-01 -0.89055119792E-01  0.99601012382E-01  0.51100000000E-03 0.  1.
</event>
<event>
 8    1  0.2039519E+004  0.1043930E+01  0.7957747E-01            NaN
         13   -1    0    0    0    0  0.00000000000E+00  0.00000000000E+00  0.74505805969E-08  0.10566000000E+00  0.10566000000E+00 0.  1.
     999900   -1    0    0    0    0 -0.00000000000E+00 -0.00000000000E+00 -0.74505805969E-08  0.93827000000E+00  0.93827000000E+00 0.  1.
     999902    2    1    2    0    0 -0.93629056573E-02 -0.48325782659E-02  0.10110091488E-01  0.10293275425E+01  0.10292239591E+01 0.  0.
     999903    2    3    3    0    0 -0.41026212724E-01 -0.10846689428E+00 -0.64552449658E-01  0.13954266315E+00  0.43091980672E-01 0.  0.
         14    1    1    2    0    0  0.93629056573E-02  0.48325782659E-02 -0.10110091488E-01  0.14602457497E-01  0.00000000000E+00 0. -1.
     999901    1    3    3    0    0  0.31663307067E-01  0.10363431601E+00  0.74662541146E-01  0.88978487935E+00  0.88000000000E+00 0. -1.
        -11    1    4    4    0    0 -0.46529362466E-01 -0.65237738407E-01 -0.41998102669E-01  0.90471243126E-01  0.51100000000E-03 0. -1.
         11    1    4    4    0    0  0.55031497414E-02 -0.43229155871E-01 -0.22554346989E-01  0.49071420028E-01  0.51100000000E-03 0.  1.
</event>
<event>
 8    1  0.2039519E+004  0.1043930E+01  0.7957747E-01            NaN
         13   -1    0    0    0    0  0.00000000000E+00  0.00000000000E+00  0.74505805969E-08  0.10566000000E+00  0.10566000000E+00 0.  1.
     999900   -1    0    0    0    0 -0.00000000000E+00 -0.00000000000E+00 -0.74505805969E-08  0.93827000000E+00  0.93827000000E+00 0. -1.
     999902    2    1    2    0    0 -0.35840837151E-02 -0.26869379463E-03  0.13884872162E-01  0.10295874923E+01  0.10294875894E+01 0.  0.
     999903    2    3    3    0    0  0.16926026377E-01 -0.70840568429E-01  0.10946407096E+00  0.14136655280E+00  0.51934987391E-01 0.  0.
         14    1    1    2    0    0  0.35840837151E-02  0.26869379463E-03 -0.13884872162E-01  0.14342507709E-01  0.00000000000E+00 0. -1.
     999901    1    3    3    0    0 -0.20510110092E-01  0.70571874634E-01 -0.95579198799E-01  0.88822093949E+00  0.88000000000E+00 0. -1.
        -11    1    4    4    0    0  0.13417096214E-01 -0.56997771870E-01  0.41141687884E-01  0.71565802392E-01  0.51100000000E-03 0.  1.
         11    1    4    4    0    0  0.35089301634E-02 -0.13842796558E-01  0.68322383077E-01  0.69800750410E-01  0.51100000000E-03 0. -1.
</event>
<event>
 8    1  0.2039519E+004  0.1043930E+01  0.7957747E-01            NaN
         13   -1    0    0    0    0  0.00000000000E+00  0.00000000000E+00  0.74505805969E-08  0.10566000000E+00  0.10566000000E+00 0.  1.
     999900   -1    0    0    0    0 -0.00000000000E+00 -0.00000000000E+00 -0.74505805969E-08  0.93827000000E+00  0.93827000000E+00 0.  1.
     999902    2    1    2    0    0 -0.49175417098E-02 -0.11862859866E-01 -0.68667326854E-02  0.10293676623E+01  0.10292646514E+01 0.  0.
     999903    2    3    3    0    0  0.11890871331E+00 -0.17139537243E-01 -0.54482656266E-01  0.13940807845E+00  0.45091092987E-01 0.  0.
         14    1    1    2    0    0  0.49175417098E-02  0.11862859866E-01  0.68667326854E-02  0.14562337671E-01  0.00000000000E+00 0.  1.
     999901    1    3    3    0    0 -0.12382625502E+00  0.52766773774E-02  0.47615923581E-01  0.88995958388E+00  0.88000000000E+00 0. -1.
        -11    1    4    4    0    0  0.49202041214E-01  0.32836033137E-02 -0.43859768828E-01  0.65996691986E-01  0.51100000000E-03 0.  1.
         11    1    4    4    0    0  0.69706672093E-01 -0.20423140557E-01 -0.10622887438E-01  0.73411386467E-01  0.51100000000E-03 0. -1.
</event>
<event>
 8    1  0.2039519E+004  0.1043930E+01  0.7957747E-01            NaN
         13   -1    0    0    0    0  0.00000000000E+00  0.00000000000E+00  0.74505805969E-08  0.10566000000E+00  0.10566000000E+00 0.  1.
     999900   -1    0    0    0    0 -0.00000000000E+00 -0.00000000000E+00 -0.74505805969E-08  0.93827000000E+00  0.93827000000E+00 0.  1.
     999902    2    1    2    0    0 -0.25495773721E-02 -0.33590841933E-02  0.14014498373E-01  0.10292947700E+01  0.10291907178E+01 0.  0.
     999903    2    3    3    0    0  0.78668407463E-02  0.11268639884E-01  0.13335813104E+00  0.14105754118E+00  0.43863075354E-01 0.  0.
         14    1    1    2    0    0  0.25495773721E-02  0.33590841933E-02 -0.14014498373E-01  0.14635229962E-01  0.00000000000E+00 0. -1.
     999901    1    3    3    0    0 -0.10416418118E-01 -0.14627724077E-01 -0.11934363267E+00  0.88823722886E+00  0.88000000000E+00 0.  1.
        -11    1    4    4    0    0  0.27690137898E-02 -0.14994811740E-01  0.79123136084E-01  0.80580665183E-01  0.51100000000E-03 0. -1.
         11    1    4    4    0    0  0.50978269565E-02  0.26263451624E-01  0.54234994957E-01  0.60476875993E-01  0.51100000000E-03 0.  1.
</event>
<event>
 8    1  0.2039519E+004  0.1043930E+01  0.7957747E-01            NaN
         13   -1    0    0    0    0  0.00000000000E+00  0.00000000000E+00  0.74505805969E-08  0.10566000000E+00  0.10566000000E+00 0.  1.
     999900   -1    0    0    0    0 -0.00000000000E+00 -0.00000000000E+00 -0.74505805969E-08  0.93827000000E+00  0.93827000000E+00 0. -1.
     999902    2    1    2    0    0 -0.89228943135E-02  0.67040702511E-02 -0.71213111450E-02  0.10306908281E+01  0.10306057963E+01 0.  0.
     999903    2    3    3    0    0  0.59528673049E-01 -0.57856375734E-01  0.10185041988E+00  0.13899104316E+00  0.45320844212E-01 0.  0.
         14    1    1    2    0    0  0.89228943135E-02 -0.67040702511E-02  0.71213111450E-02  0.13239171926E-01  0.00000000000E+00 0. -1.
     999901    1    3    3    0    0 -0.68451567363E-01  0.64560445985E-01 -0.10897173102E+00  0.89169978492E+00  0.88000000000E+00 0.  1.
        -11    1    4    4    0    0  0.25354682515E-01 -0.11352420656E-01  0.64544384741E-01  0.70270734326E-01  0.51100000000E-03 0.  1.
         11    1    4    4    0    0  0.34173990535E-01 -0.46503955078E-01  0.37306035138E-01  0.68720308830E-01  0.51100000000E-03 0. -1.
</event>
<event>
 8    1  0.2039519E+004  0.1043930E+01  0.7957747E-01            NaN
         13   -1    0    0    0    0  0.00000000000E+00  0.00000000000E+00  0.74505805969E-08  0.10566000000E+00  0.10566000000E+00 0. -1.
     999900   -1    0    0    0    0 -0.00000000000E+00 -0.00000000000E+00 -0.74505805969E-08  0.93827000000E+00  0.93827000000E+00 0.  1.
     999902    2    1    2    0    0 -0.81248699643E-02  0.66684454628E-02 -0.83654565248E-02  0.10304963654E+01  0.10304088007E+01 0.  0.
     999903    2    3    3    0    0 -0.64465397078E-01 -0.89530830014E-01 -0.75576226298E-01  0.14092014986E+00  0.44442836466E-01 0.  0.
         14    1    1    2    0    0  0.81248699643E-02 -0.66684454628E-02  0.83654565248E-02  0.13433634642E-01  0.00000000000E+00 0. -1.
     999901    1    3    3    0    0  0.56340527114E-01  0.96199275476E-01  0.67210769773E-01  0.88957621549E+00  0.88000000000E+00 0.  1.
        -11    1    4    4    0    0 -0.49011931950E-01 -0.30210784817E-01 -0.38858146905E-01  0.69462779203E-01  0.51100000000E-03 0.  1.
         11    1    4    4    0    0 -0.15453465128E-01 -0.59320045197E-01 -0.36718079392E-01  0.71457370662E-01  0.51100000000E-03 0. -1.
</event>
<event>
 8    1  0.2039519E+004  0.1043930E+01  0.7957747E-01            NaN
         13   -1    0    0    0    0  0.00000000000E+00  0.00000000000E+00  0.74505805969E-08  0.10566000000E+00  0.10566000000E+00 0.  1.
     999900   -1    0    0    0    0 -0.00000000000E+00 -0.00000000000E+00 -0.74505805969E-08  0.93827000000E+00  0.93827000000E+00 0.  1.
     999902    2    1    2    0    0 -0.11955909207E-01  0.43728153325E-02 -0.38682325269E-02  0.10306247942E+01  0.10305389065E+01 0.  0.
     999903    2    3    3    0    0 -0.92108604726E-01  0.28532493132E-02  0.96971191030E-01  0.14124559889E+00  0.45329584377E-01 0.  0.
         14    1    1    2    0    0  0.11955909207E-01 -0.43728153325E-02  0.38682325269E-02  0.13305205815E-01  0.00000000000E+00 0.  1.
     999901    1    3    3    0    0  0.80152695519E-01  0.15195660193E-02 -0.10083942356E+00  0.88937919529E+00  0.88000000000E+00 0.  1.
        -11    1    4    4    0    0 -0.67714757394E-01 -0.40314781553E-02  0.39664617795E-01  0.78581704047E-01  0.51100000000E-03 0.  1.
         11    1    4    4    0    0 -0.24393847332E-01  0.68847274685E-02  0.57306573235E-01  0.62663894843E-01  0.51100000000E-03 0. -1.
</event>
<event>
 8    1  0.2039519E+004  0.1043930E+01  0.7957747E-01            NaN
         13   -1    0    0    0    0  0.00000000000E+00  0.00000000000E+00  0.74505805969E-08  0.10566000000E+00  0.10566000000E+00 0. -1.
     999900   -1    0    0    0    0 -0.00000000000E+00 -0.00000000000E+00 -0.74505805969E-08  0.93827000000E+00  0.93827000000E+00 0. -1.
     999902    2    1    2    0    0 -0.96005563262E-02 -0.83884937379E-02 -0.19233886381E-01  0.10208544741E+01  0.10205936397E+01 0.  0.
     999903    2    3    3    0    0 -0.55931909644E-01  0.54335146262E-01  0.94062554540E-01  0.13017106638E+00  0.44900509125E-01 0.  0.
         14    1    1    2    0    0  0.96005563262E-02  0.83884937379E-02  0.19233886381E-01  0.23075525872E-01  0.00000000000E+00 0. -1.
     999901    1    3    3    0    0  0.46331353318E-01 -0.62723640000E-01 -0.11329644092E+00  0.89068340775E+00  0.88000000000E+00 0. -1.
        -11    1    4    4    0    0 -0.33321407089E-01  0.71852117516E-02  0.55739967057E-01  0.65338721190E-01  0.51100000000E-03 0. -1.
         11    1    4    4    0    0 -0.22610502556E-01  0.47149934511E-01  0.38322587484E-01  0.64832345188E-01  0.51100000000E-03 0.  1.
</event>
<event>
 8    1  0.2039519E+004  0.1043930E+01  0.7957747E-01            NaN
         13   -1    0    0    0    0  0.00000000000E+00  0.00000000000E+00  0.74505805969E-08  0.10566000000E+00  0.10566000000E+00 0.  1.
     999900   -1    0    0    0    0 -0.00000000000E+00 -0.00000000000E+00 -0.74505805969E-08  0.93827000000E+00  0.93827000000E+00 0. -1.
     999902    2    1    2    0    0 -0.10693485486E-01  0.17107002393E-01  0.44714155928E-02  0.10232661736E+01  0.10230575098E+01 0.  0.
     999903    2    3    3    0    0 -0.10304038848E+00  0.54447764445E-02  0.75372489474E-01  0.13552132274E+00  0.45144761602E-01 0.  0.
         14    1    1    2    0    0  0.10693485486E-01 -0.17107002393E-01 -0.44714155928E-02  0.20663826367E-01  0.00000000000E+00 0. -1.
     999901    1    3    3    0    0  0.92346902990E-01  0.11662225949E-01 -0.70901073882E-01  0.88774485089E+00  0.88000000000E+00 0. -1.
        -11    1    4    4    0    0 -0.67840264938E-01 -0.12077876947E-01  0.65285857604E-01  0.94924606834E-01  0.51100000000E-03 0. -1.
         11    1    4    4    0    0 -0.35200123539E-01  0.17522653391E-01  0.10086631870E-01  0.40596715908E-01  0.51100000000E-03 0.  1.
</event>
<event>
 8    1  0.2039519E+004  0.1043930E+01  0.7957747E-01            NaN
         13   -1    0    0    0    0  0.00000000000E+00  0.00000000000E+00  0.74505805969E-08  0.10566000000E+00  0.10566000000E+00 0. -1.
     999900   -1    0    0    0    0 -0.00000000000E+00 -0.00000000000E+00 -0.74505805969E-08  0.93827000000E+00  0.93827000000E+00 0. -1.
     999902    2    1    2    0    0 -0.10469980316E-01  0.30909524867E-02  0.95761782232E-02  0.10294083725E+01  0.10293059408E+01 0.  0.
     999903    2    3    3    0    0 -0.12714843540E+00 -0.10497608891E-01  0.40201069335E-01  0.14107487950E+00  0.44822664289E-01 0.  0.
         14    1    1    2    0    0  0.10469980316E-01 -0.30909524867E-02 -0.95761782232E-02  0.14521627473E-01  0.00000000000E+00 0. -1.
     999901    1    3    3    0    0  0.11667845508E+00  0.13588561378E-01 -0.30624891112E-01  0.88833349303E+00  0.88000000000E+00 0.  1.
        -11    1    4    4    0    0 -0.25404524572E-01  0.14767595375E-01  0.16079190643E-01  0.33500346783E-01  0.51100000000E-03 0. -1.
         11    1    4    4    0    0 -0.10174391082E+00 -0.25265204266E-01  0.24121878692E-01  0.10757453272E+00  0.51100000000E-03 0.  1.
</event>
<event>
 8    1  0.2039519E+004  0.1043930E+01  0.7957747E-01            NaN
         13   -1    0    0    0    0  0.00000000000E+00  0.00000000000E+00  0.74505805969E-08  0.10566000000E+00  0.10566000000E+00 0. -1.
     999900   -1    0    0    0    0 -0.00000000000E+00 -0.00000000000E+00 -0.74505805969E-08  0.93827000000E+00  0.93827000000E+00 0.  1.
     999902    2    1    2    0    0  0.10704909280E-01  0.80354538430E-02  0.25804442267E-02  0.10302983349E+01  0.10302081521E+01 0.  0.
     999903    2    3    3    0    0 -0.31576405656E-01 -0.11030216477E+00 -0.64601568703E-01  0.13883609541E+00  0.44027965664E-01 0.  0.
         14    1    1    2    0    0 -0.10704909280E-01 -0.80354538430E-02 -0.25804442267E-02  0.13631665106E-01  0.00000000000E+00 0. -1.
     999901    1    3    3    0    0  0.42281314936E-01  0.11833761862E+00  0.67182012930E-01  0.89146223949E+00  0.88000000000E+00 0.  1.
        -11    1    4    4    0    0 -0.61373276624E-03 -0.69490848938E-01 -0.49846387707E-01  0.85523553729E-01  0.51100000000E-03 0.  1.
         11    1    4    4    0    0 -0.30962672890E-01 -0.40811315836E-01 -0.14755180996E-01  0.53312541676E-01  0.51100000000E-03 0. -1.
</event>
<event>
 8    1  0.2039519E+004  0.1043930E+01  0.7957747E-01            NaN
         13   -1    0    0    0    0  0.00000000000E+00  0.00000000000E+00  0.74505805969E-08  0.10566000000E+00  0.10566000000E+00 0.  1.
     999900   -1    0    0    0    0 -0.00000000000E+00 -0.00000000000E+00 -0.74505805969E-08  0.93827000000E+00  0.93827000000E+00 0. -1.
     999902    2    1    2    0    0 -0.29741096333E-02 -0.89688282364E-02  0.10546209430E-01  0.10297699244E+01  0.10296725642E+01 0.  0.
     999903    2    3    3    0    0 -0.19117554763E-01 -0.18935213854E-02  0.13161268633E+00  0.14130621516E+00  0.47712481774E-01 0.  0.
         14    1    1    2    0    0  0.29741096333E-02  0.89688282364E-02 -0.10546209430E-01  0.14160075613E-01  0.00000000000E+00 0. -1.
     999901    1    3    3    0    0  0.16143445129E-01 -0.70753068510E-02 -0.12106647690E+00  0.88846370923E+00  0.88000000000E+00 0. -1.
        -11    1    4    4    0    0  0.83604439882E-03 -0.46725210753E-02 -0.27035810479E-02  0.54865193810E-02  0.51100000000E-03 0. -1.
         11    1    4    4    0    0 -0.19953599162E-01  0.27789996899E-02  0.13431626737E+00  0.13581969578E+00  0.51100000000E-03 0.  1.
</event>
<event>
 8    1  0.2039519E+004  0.1043930E+01  0.7957747E-01            NaN
         13   -1    0    0    0    0  0.00000000000E+00  0.00000000000E+00  0.74505805969E-08  0.10566000000E+00  0.10566000000E+00 0.  1.
     999900   -1    0    0    0    0 -0.00000000000E+00 -0.00000000000E+00 -0.74505805969E-08  0.93827000000E+00  0.93827000000E+00 0.  1.
     999902    2    1    2    0    0  0.14326624748E-01 -0.11453169641E-01 -0.59476792562E-02  0.10246478279E+01  0.10244663826E+01 0.  0.
     999903    2    3    3    0    0  0.11506884463E+00 -0.33091777505E-01 -0.49816379475E-01  0.13755048993E+00  0.45853689851E-01 0.  0.
         14    1    1    2    0    0 -0.14326624748E-01  0.11453169641E-01  0.59476792562E-02  0.19282172078E-01  0.00000000000E+00 0.  1.
     999901    1    3    3    0    0 -0.10074221988E+00  0.21638607864E-01  0.43868700218E-01  0.88709733799E+00  0.88000000000E+00 0.  1.
        -11    1    4    4    0    0  0.78634979998E-01 -0.22213745450E-01 -0.97203144999E-02  0.82290073528E-01  0.51100000000E-03 0. -1.
         11    1    4    4    0    0  0.36433864630E-01 -0.10878032055E-01 -0.40096064975E-01  0.55260416400E-01  0.51100000000E-03 0.  1.
</event>
<event>
 8    1  0.2039519E+004  0.1043930E+01  0.7957747E-01            NaN
         13   -1    0    0    0    0  0.00000000000E+00  0.00000000000E+00  0.74505805969E-08  0.10566000000E+00  0.10566000000E+00 0.  1.
     999900   -1    0    0    0    0 -0.00000000000E+00 -0.00000000000E+00 -0.74505805969E-08  0.93827000000E+00  0.93827000000E+00 0.  1.
     999902    2    1    2    0    0  0.13882869945E-01 -0.41602428283E-02 -0.91573247110E-03  0.10294082830E+01  0.10293058500E+01 0.  0.
     999903    2    3    3    0    0 -0.10881443077E+00  0.24753687632E-01 -0.67685379666E-01  0.13792141897E+00  0.44583425120E-01 0.  0.
         14    1    1    2    0    0 -0.13882869945E-01  0.41602428283E-02  0.91573247110E-03  0.14521716987E-01  0.00000000000E+00 0. -1.
     999901    1    3    3    0    0  0.12269730071E+00 -0.28913930460E-01  0.66769647195E-01  0.89148686404E+00  0.88000000000E+00 0. -1.
        -11    1    4    4    0    0 -0.89383348887E-01  0.12631383756E-01 -0.32518392585E-01  0.95951247470E-01  0.51100000000E-03 0.  1.
         11    1    4    4    0    0 -0.19431081880E-01  0.12122303876E-01 -0.35166987081E-01  0.41970171499E-01  0.51100000000E-03 0. -1.
</event>
<event>
 8    1  0.2039519E+004  0.1043930E+01  0.7957747E-01            NaN
         13   -1    0    0    0    0  0.00000000000E+00  0.00000000000E+00  0.74505805969E-08  0.10566000000E+00  0.10566000000E+00 0. -1.
     999900   -1    0    0    0    0 -0.00000000000E+00 -0.00000000000E+00 -0.74505805969E-08  0.93827000000E+00  0.93827000000E+00 0. -1.
     999902    2    1    2    0    0 -0.18877087921E-01  0.15250798104E-02 -0.26410954184E-03  0.10249895652E+01  0.10248145533E+01 0.  0.
     999903    2    3    3    0    0  0.81614180436E-01 -0.66269647107E-01  0.69492027387E-01  0.13394493183E+00  0.45382400946E-01 0.  0.
         14    1    1    2    0    0  0.18877087921E-01 -0.15250798104E-02  0.26410954184E-03  0.18940434806E-01  0.00000000000E+00 0. -1.
     999901    1    3    3    0    0 -0.10049126836E+00  0.67794726917E-01 -0.69756136929E-01  0.89104463337E+00  0.88000000000E+00 0. -1.
        -11    1    4    4    0    0  0.22340838873E-01 -0.38502346079E-02  0.33926578717E-01  0.40807000043E-01  0.51100000000E-03 0.  1.
         11    1    4    4    0    0  0.59273341563E-01 -0.62419412499E-01  0.35565448671E-01  0.93137931783E-01  0.51100000000E-03 0. -1.
</event>
<event>
 8    1  0.2039519E+004  0.1043930E+01  0.7957747E-01            NaN
         13   -1    0    0    0    0  0.00000000000E+00  0.00000000000E+00  0.74505805969E-08  0.10566000000E+00  0.10566000000E+00 0.  1.
     999900   -1    0    0    0    0 -0.00000000000E+00 -0.00000000000E+00 -0.74505805969E-08  0.93827000000E+00  0.93827000000E+00 0. -1.
     999902    2    1    2    0    0 -0.12784118804E-01  0.24106626434E-02  0.44582102687E-02  0.10301778865E+01  0.10300860921E+01 0.  0.
     999903    2    3    3    0    0  0.33139444130E-01 -0.24598097557E-01  0.12622663570E+00  0.14019698993E+00  0.44930426935E-01 0.  0.
         14    1    1    2    0    0  0.12784118804E-01 -0.24106626434E-02 -0.44582102687E-02  0.13752113539E-01  0.00000000000E+00 0. -1.
     999901    1    3    3    0    0 -0.45923562934E-01  0.27008760201E-01 -0.12176842543E+00  0.88998089653E+00  0.88000000000E+00 0. -1.
        -11    1    4    4    0    0  0.23057996753E-01  0.71987190367E-02  0.31048711080E-01  0.39341788861E-01  0.51100000000E-03 0. -1.
         11    1    4    4    0    0  0.10081447377E-01 -0.31796816594E-01  0.95177924619E-01  0.10085520107E+00  0.51100000000E-03 0.  1.
</event>
<event>
 8    1  0.2039519E+004  0.1043930E+01  0.7957747E-01            NaN
         13   -1    0    0    0    0  0.00000000000E+00  0.00000000000E+00  0.74505805969E-08  0.10566000000E+00  0.10566000000E+00 0.  1.
     999900   -1    0    0    0    0 -0.00000000000E+00 -0.00000000000E+00 -0.74505805969E-08  0.93827000000E+00  0.93827000000E+00 0. -1.
     999902    2    1    2    0    0 -0.22274119088E-01  0.48875858232E-02  0.62175469553E-02  0.10202935289E+01  0.10200197068E+01 0.  0.
     999903    2    3    3    0    0 -0.61980848750E-01 -0.84419853741E-01 -0.65997612888E-01  0.13194254395E+00  0.45659748999E-01 0.  0.
         14    1    1    2    0    0  0.22274119088E-01 -0.48875858232E-02 -0.62175469553E-02  0.23636471109E-01  0.00000000000E+00 0.  1.
     999901    1    3    3    0    0  0.39706729662E-01  0.89307439564E-01  0.72215159843E-01  0.88835098495E+00  0.88000000000E+00 0.  1.
        -11    1    4    4    0    0 -0.57836798995E-01 -0.72187366084E-01 -0.35964721398E-01  0.99246327118E-01  0.51100000000E-03 0. -1.
         11    1    4    4    0    0 -0.41440497546E-02 -0.12232487657E-01 -0.30032891489E-01  0.32696216828E-01  0.51100000000E-03 0.  1.
</event>
<event>
 8    1  0.2039519E+004  0.1043930E+01  0.7957747E-01            NaN
         13   -1    0    0    0    0  0.00000000000E+00  0.00000000000E+00  0.74505805969E-08  0.10566000000E+00  0.10566000000E+00 0.  1.
     999900   -1    0    0    0    0 -0.00000000000E+00 -0.00000000000E+00 -0.74505805969E-08  0.93827000000E+00  0.93827000000E+00 0.  1.
     999902    2    1    2    0    0  0.33979100956E-02  0.12771692836E-01 -0.44042710509E-02  0.10299994747E+01  0.10299052667E+01 0.  0.
     999903    2    3    3    0    0 -0.83352522427E-01  0.69695085910E-01 -0.77663689867E-01  0.14088033048E+00  0.44839388902E-01 0.  0.
         14    1    1    2    0    0 -0.33979100956E-02 -0.12771692836E-01  0.44042710509E-02  0.13930525274E-01  0.00000000000E+00 0. -1.
     999901    1    3    3    0    0  0.86750432523E-01 -0.56923393074E-01  0.73259418816E-01  0.88911914425E+00  0.88000000000E+00 0. -1.
        -11    1    4    4    0    0 -0.30140511364E-01  0.46062181189E-01 -0.19025934379E-01  0.58244504128E-01  0.51100000000E-03 0. -1.
         11    1    4    4    0    0 -0.53212011063E-01  0.23632904721E-01 -0.58637755488E-01  0.82635826350E-01  0.51100000000E-03 0.  1.
</event>
<event>
 8    1  0.2039519E+004  0.1043930E+01  0.7957747E-01            NaN
         13   -1    0    0    0    0  0.00000000000E+00  0.00000000000E+00  0.74505805969E-08  0.10566000000E+00  0.10566000000E+00 0. -1.
     999900   -1    0    0    0    0 -0.00000000000E+00 -0.00000000000E+00 -0.74505805969E-08  0.93827000000E+00  0.93827000000E+00 0.  1.
     999902    2    1    2    0    0 -0.89239465863E-02  0.82227143680E-02 -0.58149578134E-02  0.10304740129E+01  0.10303861546E+01 0.  0.
     999903    2    3    3    0    0 -0.10667650618E-01  0.13300654530E+00  0.13453420190E-01  0.14146033733E+00  0.45005473693E-01 0.  0.
         14    1    1    2    0    0  0.89239465863E-02 -0.82227143680E-02  0.58149578134E-02  0.13455987092E-01  0.00000000000E+00 0.  1.
     999901    1    3    3    0    0  0.17437040316E-02 -0.12478383093E+00 -0.19268378003E-01  0.88901367557E+00  0.88000000000E+00 0. -1.
        -11    1    4    4    0    0 -0.22094737849E-01  0.11770435018E+00  0.19677769135E-01  0.12136707630E+00  0.51100000000E-03 0.  1.
         11    1    4    4    0    0  0.11427087231E-01  0.15302195120E-01 -0.62243489450E-02  0.20093261031E-01  0.51100000000E-03 0. -1.
</event>
<event>
 8    1  0.2039519E+004  0.1043930E+01  0.7957747E-01            NaN
         13   -1    0    0    0    0  0.00000000000E+00  0.00000000000E+00  0.74505805969E-08  0.10566000000E+00  0.10566000000E+00 0.  1.
     999900   -1    0    0    0    0 -0.00000000000E+00 -0.00000000000E+00 -0.74505805969E-08  0.93827000000E+00  0.93827000000E+00 0.  1.
     999902    2    1    2    0    0 -0.79809930089E-02  0.54973029375E-02  0.13021103216E-01  0.10276983729E+01  0.10275701825E+01 0.  0.
     999903    2    3    3    0    0  0.10924086051E+00 -0.48386079934E-01  0.50925268769E-01  0.13748429323E+00  0.45097334175E-01 0.  0.
         14    1    1    2    0    0  0.79809930089E-02 -0.54973029375E-02 -0.13021103216E-01  0.16231627089E-01  0.00000000000E+00 0. -1.
     999901    1    3    3    0    0 -0.11722185352E+00  0.53883382872E-01 -0.37904165552E-01  0.89021407968E+00  0.88000000000E+00 0.  1.
        -11    1    4    4    0    0  0.61010866577E-01 -0.26362383917E-01  0.52095766386E-01  0.84448393250E-01  0.51100000000E-03 0.  1.
         11    1    4    4    0    0  0.48229993934E-01 -0.22023696017E-01 -0.11704976172E-02  0.53035899982E-01  0.51100000000E-03 0. -1.
</event>
<event>
 8    1  0.2039519E+004  0.1043930E+01  0.7957747E-01            NaN
         13   -1    0    0    0    0  0.00000000000E+00  0.00000000000E+00  0.74505805969E-08  0.10566000000E+00  0.10566000000E+00 0. -1.
     999900   -1    0    0    0    0 -0.00000000000E+00 -0.00000000000E+00 -0.74505805969E-08  0.93827000000E+00  0.93827000000E+00 0. -1.
     999902    2    1    2    0    0  0.26452267135E-02  0.51420863464E-02 -0.12150971652E-01  0.10304732400E+01  0.10303853716E+01 0.  0.
     999903    2    3    3    0    0  0.95153954564E-01  0.65589025210E-01 -0.69560113713E-01  0.14170583136E+00  0.43425084056E-01 0.  0.
         14    1    1    2    0    0 -0.26452267135E-02 -0.51420863464E-02  0.12150971652E-01  0.13456759953E-01  0.00000000000E+00 0. -1.
     999901    1    3    3    0    0 -0.92508727850E-01 -0.60446938864E-01  0.57409142061E-01  0.88876740868E+00  0.88000000000E+00 0.  1.
        -11    1    4    4    0    0  0.61740202189E-01  0.52685738684E-01 -0.67938669792E-01  0.10584688754E+00  0.51100000000E-03 0. -1.
         11    1    4    4    0    0  0.33413752375E-01  0.12903286526E-01 -0.16214439207E-02  0.35858943826E-01  0.51100000000E-03 0.  1.
</event>
<event>
 8    1  0.2039519E+004  0.1043930E+01  0.7957747E-01            NaN
         13   -1    0    0    0    0  0.00000000000E+00  0.00000000000E+00  0.74505805969E-08  0.10566000000E+00  0.10566000000E+00 0. -1.
     999900   -1    0    0    0    0 -0.00000000000E+00 -0.00000000000E+00 -0.74505805969E-08  0.93827000000E+00  0.93827000000E+00 0.  1.
     999902    2    1    2    0    0 -0.56076872623E-02 -0.12222676143E-01  0.58505020139E-03  0.10304696043E+01  0.10303816881E+01 0.  0.
     999903    2    3    3    0    0  0.95104710854E-01 -0.75059535205E-01 -0.55662987800E-01  0.14071947097E+00  0.44997349337E-01 0.  0.
         14    1    1    2    0    0  0.56076872623E-02  0.12222676143E-01 -0.58505020139E-03  0.13460395695E-01  0.00000000000E+00 0.  1.
     999901    1    3    3    0    0 -0.10071239812E+00  0.62836859062E-01  0.56248038002E-01  0.88975013334E+00  0.88000000000E+00 0. -1.
        -11    1    4    4    0    0  0.72908383773E-01 -0.68712038177E-01 -0.26709529825E-01  0.10368527725E+00  0.51100000000E-03 0. -1.
         11    1    4    4    0    0  0.22196327080E-01 -0.63474970277E-02 -0.28953457976E-01  0.37034193715E-01  0.51100000000E-03 0.  1.
</event>
<event>
 8    1  0.2039519E+004  0.1043930E+01  0.7957747E-01            NaN
         13   -1    0    0    0    0  0.00000000000E+00  0.00000000000E+00  0.74505805969E-08  0.10566000000E+00  0.10566000000E+00 0.  1.
     999900   -1    0    0    0    0 -0.00000000000E+00 -0.00000000000E+00 -0.74505805969E-08  0.93827000000E+00  0.93827000000E+00 0. -1.
     999902    2    1    2    0    0 -0.11864147891E-01  0.64839637390E-02  0.31635138879E-02  0.10300444820E+01  0.10299508858E+01 0.  0.
     999903    2    3    3    0    0  0.95253345540E-01  0.87888446400E-01 -0.18800380985E-01  0.13954840681E+00  0.48194653956E-01 0.  0.
         14    1    1    2    0    0  0.11864147891E-01 -0.64839637390E-02 -0.31635138879E-02  0.13885518034E-01  0.00000000000E+00 0. -1.
     999901    1    3    3    0    0 -0.10711749343E+00 -0.81404482661E-01  0.21963894873E-01  0.89049607516E+00  0.88000000000E+00 0.  1.
        -11    1    4    4    0    0  0.37817062492E-01  0.64776539542E-01 -0.19974383981E-01  0.77623240250E-01  0.51100000000E-03 0. -1.
         11    1    4    4    0    0  0.57436283048E-01  0.23111906858E-01  0.11740029955E-02  0.61925166557E-01  0.51100000000E-03 0.  1.
</event>
<event>
 8    1  0.2039519E+004  0.1043930E+01  0.7957747E-01            NaN
         13   -1    0    0    0    0  0.00000000000E+00  0.00000000000E+00  0.74505805969E-08  0.10566000000E+00  0.10566000000E+00 0. -1.
     999900   -1    0    0    0    0 -0.00000000000E+00 -0.00000000000E+00 -0.74505805969E-08  0.93827000000E+00  0.93827000000E+00 0.  1.
     999902    2    1    2    0    0  0.84196506059E-02  0.10517389035E-01  0.30722284847E-02  0.10301117303E+01  0.10300190447E+01 0.  0.
     999903    2    3    3    0    0  0.47246827748E-01  0.10564446014E+00 -0.67924224603E-01  0.14129386053E+00  0.44240705759E-01 0.  0.
         14    1    1    2    0    0 -0.84196506059E-02 -0.10517389035E-01 -0.30722284847E-02  0.13818269656E-01  0.00000000000E+00 0. -1.
     999901    1    3    3    0    0 -0.38827177142E-01 -0.95127071105E-01  0.70996453088E-01  0.88881786981E+00  0.88000000000E+00 0. -1.
        -11    1    4    4    0    0  0.51547176257E-01  0.92806856914E-01 -0.70585679106E-01  0.12748656120E+00  0.51100000000E-03 0. -1.
         11    1    4    4    0    0 -0.43003485084E-02  0.12837603226E-01  0.26614545022E-02  0.13807299336E-01  0.51100000000E-03 0.  1.
</event>
<event>
 8    1  0.2039519E+004  0.1043930E+01  0.7957747E-01            NaN
         13   -1    0    0    0    0  0.00000000000E+00  0.00000000000E+00  0.74505805969E-08  0.10566000000E+00  0.10566000000E+00 0.  1.
     999900   -1    0    0    0    0 -0.00000000000E+00 -0.00000000000E+00 -0.74505805969E-08  0.93827000000E+00  0.93827000000E+00 0.  1.
     999902    2    1    2    0    0 -0.10562257449E-01 -0.41025067572E-02 -0.83807101724E-02  0.10298364502E+01  0.10297400089E+01 0.  0.
     999903    2    3    3    0    0 -0.49585873957E-01  0.15311590402E-01  0.12113568267E+00  0.13928928924E+00  0.45104864297E-01 0.  0.
         14    1    1    2    0    0  0.10562257449E-01  0.41025067572E-02  0.83807101724E-02  0.14093549841E-01  0.00000000000E+00 0.  1.
     999901    1    3    3    0    0  0.39023616508E-01 -0.19414097159E-01 -0.12951639284E+00  0.89054716092E+00  0.88000000000E+00 0.  1.
        -11    1    4    4    0    0 -0.27787695242E-01 -0.10012804039E-01  0.29491351190E-01  0.41742222840E-01  0.51100000000E-03 0. -1.
         11    1    4    4    0    0 -0.21798178715E-01  0.25324394441E-01  0.91644331480E-01  0.97547066396E-01  0.51100000000E-03 0.  1.
</event>
<event>
 8    1  0.2039519E+004  0.1043930E+01  0.7957747E-01            NaN
         13   -1    0    0    0    0  0.00000000000E+00  0.00000000000E+00  0.74505805969E-08  0.10566000000E+00  0.10566000000E+00 0. -1.
     999900   -1    0    0    0    0 -0.00000000000E+00 -0.00000000000E+00 -0.74505805969E-08  0.93827000000E+00  0.93827000000E+00 0. -1.
     999902    2    1    2    0    0 -0.10099643298E-01  0.61091296976E-02 -0.60223890703E-02  0.10306788329E+01  0.10305936460E+01 0.  0.
     999903    2    3    3    0    0 -0.94824973252E-01  0.61951093852E-01 -0.73366467152E-01  0.14229156857E+00  0.45105857746E-01 0.  0.
         14    1    1    2    0    0  0.10099643298E-01 -0.61091296976E-02  0.60223890703E-02  0.13251167138E-01  0.00000000000E+00 0.  1.
     999901    1    3    3    0    0  0.84725329954E-01 -0.55841964155E-01  0.67344078082E-01  0.88838726429E+00  0.88000000000E+00 0.  1.
        -11    1    4    4    0    0 -0.35637690353E-01  0.49074981580E-01 -0.29130377636E-01  0.67284759143E-01  0.51100000000E-03 0. -1.
         11    1    4    4    0    0 -0.59187282899E-01  0.12876112273E-01 -0.44236089516E-01  0.75006809431E-01  0.51100000000E-03 0.  1.
</event>
<event>
 7    1  0.3393831E+004  0.1043930E+01  0.7957747E-01            NaN
         13   -1    0    0    0    0  0.00000000000E+00  0.00000000000E+00  0.74505805969E-08  0.10566000000E+00  0.10566000000E+00 0.  1.
     999900   -1    0    0    0    0 -0.00000000000E+00 -0.00000000000E+00 -0.74505805969E-08  0.93827000000E+00  0.93827000000E+00 0.  1.
     999903    2    1    2    0    0 -0.55320641189E-01  0.35235316304E-01 -0.69149892776E-01  0.10556009448E+00  0.45379786451E-01 0.  0.
         14    1    1    2    0    0 -0.45373934524E-01 -0.18483237041E-01 -0.56408541270E-02  0.49317777941E-01  0.00000000000E+00 0. -1.
     999901    1    1    2    0    0  0.10069457571E+00 -0.16752079263E-01  0.74790746903E-01  0.88905212758E+00  0.88000000000E+00 0. -1.
        -11    1    3    3    0    0 -0.36240419454E-01  0.41697155429E-01 -0.33504388997E-01  0.64612893265E-01  0.51100000000E-03 0. -1.
         11    1    3    3    0    0 -0.19080221735E-01 -0.64618391255E-02 -0.35645503779E-01  0.40947201211E-01  0.51100000000E-03 0.  1.
</event>
<event>
 8    1  0.2039519E+004  0.1043930E+01  0.7957747E-01            NaN
         13   -1    0    0    0    0  0.00000000000E+00  0.00000000000E+00  0.74505805969E-08  0.10566000000E+00  0.10566000000E+00 0. -1.
     999900   -1    0    0    0    0 -0.00000000000E+00 -0.00000000000E+00 -0.74505805969E-08  0.93827000000E+00  0.93827000000E+00 0.  1.
     999902    2    1    2    0    0  0.99014516119E-02  0.83556178634E-02  0.18238402713E-02  0.10308463657E+01  0.10307633327E+01 0.  0.
     999903    2    3    3    0    0  0.11593157352E+00 -0.19091490545E-01  0.65305479259E-01  0.14178750991E+00  0.45102966595E-01 0.  0.
         14    1    1    2    0    0 -0.99014516119E-02 -0.83556178634E-02 -0.18238402713E-02  0.13083634328E-01  0.00000000000E+00 0.  1.
     999901    1    3    3    0    0 -0.10603012191E+00  0.27447108409E-01 -0.63481638988E-01  0.88905885576E+00  0.88000000000E+00 0.  1.
        -11    1    4    4    0    0  0.41307519535E-01 -0.19564312596E-01  0.52756221022E-02  0.46012680937E-01  0.51100000000E-03 0.  1.
         11    1    4    4    0    0  0.74624053988E-01  0.47282205021E-03  0.60029857157E-01  0.95774828977E-01  0.51100000000E-03 0. -1.
</event>
<event>
 8    1  0.2039519E+004  0.1043930E+01  0.7957747E-01            NaN
         13   -1    0    0    0    0  0.00000000000E+00  0.00000000000E+00  0.74505805969E-08  0.10566000000E+00  0.10566000000E+00 0.  1.
     999900   -1    0    0    0    0 -0.00000000000E+00 -0.00000000000E+00 -0.74505805969E-08  0.93827000000E+00  0.93827000000E+00 0.  1.
     999902    2    1    2    0    0  0.87362712446E-02 -0.10050589995E-01 -0.35545715567E-02  0.10301469752E+01  0.10300547649E+01 0.  0.
     999903    2    3    3    0    0  0.55289077102E-01  0.11772275123E+00  0.24854122894E-01  0.13924841507E+00  0.43091361915E-01 0.  0.
         14    1    1    2    0    0 -0.87362712446E-02  0.10050589995E-01  0.35545715567E-02  0.13783024830E-01  0.00000000000E+00 0.  1.
     999901    1    3    3    0    0 -0.46552805857E-01 -0.12777334123E+00 -0.28408694450E-01  0.89089856010E+00  0.88000000000E+00 0.  1.
        -11    1    4    4    0    0  0.32505206865E-01  0.83157441605E-01  0.36160045829E-01  0.96330465601E-01  0.51100000000E-03 0.  1.
         11    1    4    4    0    0  0.22783870237E-01  0.34565309626E-01 -0.11305922936E-01  0.42917949472E-01  0.51100000000E-03 0. -1.
</event>
<event>
 8    1  0.2039519E+004  0.1043930E+01  0.7957747E-01            NaN
         13   -1    0    0    0    0  0.00000000000E+00  0.00000000000E+00  0.74505805969E-08  0.10566000000E+00  0.10566000000E+00 0.  1.
     999900   -1    0    0    0    0 -0.00000000000E+00 -0.00000000000E+00 -0.74505805969E-08  0.93827000000E+00  0.93827000000E+00 0.  1.
     999902    2    1    2    0    0 -0.13313268996E-01  0.44308812679E-02  0.12986596624E-02  0.10298387844E+01  0.10297423753E+01 0.  0.
     999903    2    3    3    0    0  0.12736200615E+00  0.25165690814E-01 -0.14810102118E-01  0.13827893920E+00  0.45247467307E-01 0.  0.
         14    1    1    2    0    0  0.13313268996E-01 -0.44308812679E-02 -0.12986596624E-02  0.14091215600E-01  0.00000000000E+00 0. -1.
     999901    1    3    3    0    0 -0.14067527514E+00 -0.20734809546E-01  0.16108761781E-01  0.89155984520E+00  0.88000000000E+00 0. -1.
        -11    1    4    4    0    0  0.67915024801E-01  0.39706920074E-02  0.13076534161E-01  0.69278235077E-01  0.51100000000E-03 0. -1.
         11    1    4    4    0    0  0.59446981347E-01  0.21194998806E-01 -0.27886636279E-01  0.69000704124E-01  0.51100000000E-03 0.  1.
</event>
<event>
 7    1  0.2039519E+004  0.1043930E+01  0.7957747E-01            NaN
         13   -1    0    0    0    0  0.00000000000E+00  0.00000000000E+00  0.74505805969E-08  0.10566000000E+00  0.10566000000E+00 0.  1.
     999900   -1    0    0    0    0 -0.00000000000E+00 -0.00000000000E+00 -0.74505805969E-08  0.93827000000E+00  0.93827000000E+00 0.  1.
     999903    2    1    2    0    0  0.22132108459E-01  0.69031144534E-01 -0.94381661734E-01  0.12726133760E+00  0.45082378338E-01 0.  0.
         14    1    1    2    0    0  0.12181865136E-01 -0.23426696056E-01  0.17060228177E-01  0.31436591924E-01  0.00000000000E+00 0.  1.
     999901    1    1    2    0    0 -0.34313973595E-01 -0.45604448478E-01  0.77321433557E-01  0.88523207047E+00  0.88000000000E+00 0. -1.
        -11    1    3    3    0    0  0.15447573478E-01  0.32506218760E-01 -0.13825026022E-01  0.38557414980E-01  0.51100000000E-03 0.  1.
         11    1    3    3    0    0  0.66845349804E-02  0.36524925775E-01 -0.80556635712E-01  0.88703922624E-01  0.51100000000E-03 0. -1.
</event>
<event>
 8    1  0.2039519E+004  0.1043930E+01  0.7957747E-01            NaN
         13   -1    0    0    0    0  0.00000000000E+00  0.00000000000E+00  0.74505805969E-08  0.10566000000E+00  0.10566000000E+00 0.  1.
     999900   -1    0    0    0    0 -0.00000000000E+00 -0.00000000000E+00 -0.74505805969E-08  0.93827000000E+00  0.93827000000E+00 0.  1.
     999902    2    1    2    0    0 -0.68725334351E-02  0.79287591853E-02 -0.71967190965E-02  0.10312064115E+01  0.10311279132E+01 0.  0.
     999903    2    3    3    0    0  0.11478052250E+00  0.54285075693E-01 -0.41569330578E-01  0.14096495522E+00  0.44963002208E-01 0.  0.
         14    1    1    2    0    0  0.68725334351E-02 -0.79287591853E-02  0.71967190965E-02  0.12723588479E-01  0.00000000000E+00 0.  1.
     999901    1    3    3    0    0 -0.12165305593E+00 -0.46356316507E-01  0.34372611482E-01  0.89024145630E+00  0.88000000000E+00 0. -1.
        -11    1    4    4    0    0  0.20076448329E-01  0.30833979697E-01 -0.70101237528E-02  0.37459325107E-01  0.51100000000E-03 0. -1.
         11    1    4    4    0    0  0.94704074168E-01  0.23451095995E-01 -0.34559206826E-01  0.10350563011E+00  0.51100000000E-03 0.  1.
</event>
<event>
 8    1  0.2039519E+004  0.1043930E+01  0.7957747E-01            NaN
         13   -1    0    0    0    0  0.00000000000E+00  0.00000000000E+00  0.74505805969E-08  0.10566000000E+00  0.10566000000E+00 0.  1.
     999900   -1    0    0    0    0 -0.00000000000E+00 -0.00000000000E+00 -0.74505805969E-08  0.93827000000E+00  0.93827000000E+00 0.  1.
     999902    2    1    2    0    0 -0.57815412262E-02 -0.10936940576E-01 -0.14568638176E-02  0.10314734619E+01  0.10313982438E+01 0.  0.
     999903    2    3    3    0    0  0.49801777013E-01  0.45477094227E-01 -0.11471975539E+00  0.14068699416E+00  0.45648931590E-01 0.  0.
         14    1    1    2    0    0  0.57815412262E-02  0.10936940576E-01  0.14568638176E-02  0.12456538054E-01  0.00000000000E+00 0.  1.
     999901    1    3    3    0    0 -0.55583318239E-01 -0.56414034803E-01  0.11326289157E+00  0.89078646779E+00  0.88000000000E+00 0. -1.
        -11    1    4    4    0    0  0.23117675996E-01  0.40285300134E-01 -0.40439254426E-01  0.61586741835E-01  0.51100000000E-03 0. -1.
         11    1    4    4    0    0  0.26684101017E-01  0.51917940934E-02 -0.74280500964E-01  0.79100252322E-01  0.51100000000E-03 0.  1.
</event>
<event>
 8    1  0.2039519E+004  0.1043930E+01  0.7957747E-01            NaN
         13   -1    0    0    0    0  0.00000000000E+00  0.00000000000E+00  0.74505805969E-08  0.10566000000E+00  0.10566000000E+00 0.  1.
     999900   -1    0    0    0    0 -0.00000000000E+00 -0.00000000000E+00 -0.74505805969E-08  0.93827000000E+00  0.93827000000E+00 0.  1.
     999902    2    1    2    0    0 -0.40394556359E-02  0.81217181900E-02  0.10309652832E-01  0.10301979772E+01  0.10301064527E+01 0.  0.
     999903    2    3    3    0    0 -0.11782011569E+00  0.62846847495E-01 -0.62694383619E-02  0.14103221953E+00  0.44938571262E-01 0.  0.
         14    1    1    2    0    0  0.40394556359E-02 -0.81217181900E-02 -0.10309652832E-01  0.13732022783E-01  0.00000000000E+00 0. -1.
     999901    1    3    3    0    0  0.11378066005E+00 -0.54725129305E-01  0.16579091194E-01  0.88916575769E+00  0.88000000000E+00 0. -1.
        -11    1    4    4    0    0 -0.11909926742E+00  0.52513981670E-01 -0.82358691217E-02  0.13042409452E+00  0.51100000000E-03 0.  1.
         11    1    4    4    0    0  0.12791517280E-02  0.10332865825E-01  0.19664307599E-02  0.10608125010E-01  0.51100000000E-03 0. -1.
</event>
<event>
 8    1  0.2039519E+004  0.1043930E+01  0.7957747E-01            NaN
         13   -1    0    0    0    0  0.00000000000E+00  0.00000000000E+00  0.74505805969E-08  0.10566000000E+00  0.10566000000E+00 0. -1.
     999900   -1    0    0    0    0 -0.00000000000E+00 -0.00000000000E+00 -0.74505805969E-08  0.93827000000E+00  0.93827000000E+00 0.  1.
     999902    2    1    2    0    0 -0.92269554921E-02  0.12169932978E-01  0.83750390070E-03  0.10286347266E+01  0.10285210038E+01 0.  0.
     999903    2    3    3    0    0 -0.73979003827E-01 -0.13018218579E-01 -0.10828953770E+00  0.13917647463E+00  0.44733657275E-01 0.  0.
         14    1    1    2    0    0  0.92269554921E-02 -0.12169932978E-01 -0.83750390070E-03  0.15295273425E-01  0.00000000000E+00 0. -1.
     999901    1    3    3    0    0  0.64752048335E-01  0.25188151557E-01  0.10912704160E+00  0.88945825194E+00  0.88000000000E+00 0. -1.
        -11    1    4    4    0    0 -0.36424899507E-01 -0.29027536672E-01 -0.59202184345E-01  0.75329482551E-01  0.51100000000E-03 0.  1.
         11    1    4    4    0    0 -0.37554104321E-01  0.16009318093E-01 -0.49087353356E-01  0.63846992080E-01  0.51100000000E-03 0. -1.
</event>
<event>
 8    1  0.2039519E+004  0.1043930E+01  0.7957747E-01            NaN
         13   -1    0    0    0    0  0.00000000000E+00  0.00000000000E+00  0.74505805969E-08  0.10566000000E+00  0.10566000000E+00 0.  1.
     999900   -1    0    0    0    0 -0.00000000000E+00 -0.00000000000E+00 -0.74505805969E-08  0.93827000000E+00  0.93827000000E+00 0. -1.
     999902    2    1    2    0    0  0.88884933936E-02 -0.66263971495E-02  0.73623042773E-02  0.10306214321E+01  0.10305355008E+01 0.  0.
     999903    2    3    3    0    0  0.10591200370E+00 -0.76973960386E-01 -0.30806648631E-01  0.14167868361E+00  0.44513556206E-01 0.  0.
         14    1    1    2    0    0 -0.88884933936E-02  0.66263971495E-02 -0.73623042773E-02  0.13308567852E-01  0.00000000000E+00 0. -1.
     999901    1    3    3    0    0 -0.97023510304E-01  0.70347563236E-01  0.38168952908E-01  0.88894274853E+00  0.88000000000E+00 0.  1.
        -11    1    4    4    0    0  0.52623869721E-01 -0.11675930485E-01 -0.94045193690E-02  0.54720244176E-01  0.51100000000E-03 0. -1.
         11    1    4    4    0    0  0.53288133977E-01 -0.65298029901E-01 -0.21402129262E-01  0.86958439439E-01  0.51100000000E-03 0.  1.
</event>
<event>
 8    1  0.2039519E+004  0.1043930E+01  0.7957747E-01            NaN
         13   -1    0    0    0    0  0.00000000000E+00  0.00000000000E+00  0.74505805969E-08  0.10566000000E+00  0.10566000000E+00 0. -1.
     999900   -1    0    0    0    0 -0.00000000000E+00 -0.00000000000E+00 -0.74505805969E-08  0.93827000000E+00  0.93827000000E+00 0.  1.
     999902    2    1    2    0    0 -0.73676105305E-02  0.98209092622E-02  0.86300875531E-03  0.10316224118E+01  0.10315489924E+01 0.  0.
     999903    2    3    3    0    0  0.11287808374E+00 -0.27147409216E-01  0.64878848160E-01  0.14037401136E+00  0.44912743301E-01 0.  0.
         14    1    1    2    0    0  0.73676105305E-02 -0.98209092622E-02 -0.86300875531E-03  0.12307588219E-01  0.00000000000E+00 0. -1.
     999901    1    3    3    0    0 -0.12024569427E+00  0.36968318478E-01 -0.64015839404E-01  0.89124840042E+00  0.88000000000E+00 0.  1.
        -11    1    4    4    0    0  0.52711032833E-01  0.64812630384E-02  0.42119261089E-01  0.67784607608E-01  0.51100000000E-03 0. -1.
         11    1    4    4    0    0  0.60167050905E-01 -0.33628672254E-01  0.22759587071E-01  0.72589403750E-01  0.51100000000E-03 0.  1.
</event>
<event>
 8    1  0.2039519E+004  0.1043930E+01  0.7957747E-01            NaN
         13   -1    0    0    0    0  0.00000000000E+00  0.00000000000E+00  0.74505805969E-08  0.10566000000E+00  0.10566000000E+00 0.  1.
     999900   -1    0    0    0    0 -0.00000000000E+00 -0.00000000000E+00 -0.74505805969E-08  0.93827000000E+00  0.93827000000E+00 0. -1.
     999902    2    1    2    0    0 -0.81404568008E-02  0.99327666043E-02 -0.78111285501E-03  0.10310638807E+01  0.10309836027E+01 0.  0.
     999903    2    3    3    0    0 -0.51559044132E-01 -0.87828830335E-01  0.85795999465E-01  0.14036859049E+00  0.44386362810E-01 0.  0.
         14    1    1    2    0    0  0.81404568008E-02 -0.99327666043E-02  0.78111285501E-03  0.12866119331E-01  0.00000000000E+00 0. -1.
     999901    1    3    3    0    0  0.43418587331E-01  0.97761596939E-01 -0.86577112320E-01  0.89069529017E+00  0.88000000000E+00 0. -1.
        -11    1    4    4    0    0 -0.34330523289E-01 -0.77610375687E-01  0.47771250940E-01  0.97387415927E-01  0.51100000000E-03 0.  1.
         11    1    4    4    0    0 -0.17228520843E-01 -0.10218454648E-01  0.38024748525E-01  0.42981174568E-01  0.51100000000E-03 0. -1.
</event>
<event>
 8    1  0.2039519E+004  0.1043930E+01  0.7957747E-01            NaN
         13   -1    0    0    0    0  0.00000000000E+00  0.00000000000E+00  0.74505805969E-08  0.10566000000E+00  0.10566000000E+00 0. -1.
     999900   -1    0    0    0    0 -0.00000000000E+00 -0.00000000000E+00 -0.74505805969E-08  0.93827000000E+00  0.93827000000E+00 0. -1.
     999902    2    1    2    0    0  0.14669170516E-01  0.21761399877E-02  0.16421264230E-02  0.10290096539E+01  0.10289014778E+01 0.  0.
     999903    2    3    3    0    0  0.55646838831E-01  0.97372176258E-01 -0.70948013029E-01  0.13995915872E+00  0.44463852448E-01 0.  0.
         14    1    1    2    0    0 -0.14669170516E-01 -0.21761399877E-02 -0.16421264230E-02  0.14920346111E-01  0.00000000000E+00 0.  1.
     999901    1    3    3    0    0 -0.40977668314E-01 -0.95196036270E-01  0.72590139452E-01  0.88905049517E+00  0.88000000000E+00 0.  1.
        -11    1    4    4    0    0  0.36860885488E-01  0.93692955132E-01 -0.53321443780E-01  0.11393213861E+00  0.51100000000E-03 0.  1.
         11    1    4    4    0    0  0.18785953343E-01  0.36792211258E-02 -0.17626569250E-01  0.26027020106E-01  0.51100000000E-03 0. -1.
</event>
<event>
 8    1  0.2039519E+004  0.1043930E+01  0.7957747E-01            NaN
         13   -1    0    0    0    0  0.00000000000E+00  0.00000000000E+00  0.74505805969E-08  0.10566000000E+00  0.10566000000E+00 0. -1.
     999900   -1    0    0    0    0 -0.00000000000E+00 -0.00000000000E+00 -0.74505805969E-08  0.93827000000E+00  0.93827000000E+00 0.  1.
     999902    2    1    2    0    0  0.49058480780E-02  0.12146256008E-01  0.14338713988E-02  0.10307521827E+01  0.10306679423E+01 0.  0.
     999903    2    3    3    0    0  0.12140473457E+00  0.19104313936E-01  0.53836908440E-01  0.14150166494E+00  0.44946902940E-01 0.  0.
         14    1    1    2    0    0 -0.49058480780E-02 -0.12146256008E-01 -0.14338713988E-02  0.13177817253E-01  0.00000000000E+00 0. -1.
     999901    1    3    3    0    0 -0.11649888649E+00 -0.69580579277E-02 -0.52403037042E-01  0.88925051780E+00  0.88000000000E+00 0.  1.
        -11    1    4    4    0    0  0.57453690351E-01 -0.11939479543E-01  0.15328287741E-01  0.60652248374E-01  0.51100000000E-03 0.  1.
         11    1    4    4    0    0  0.63951044219E-01  0.31043793479E-01  0.38508620700E-01  0.80849416569E-01  0.51100000000E-03 0. -1.
</event>
<event>
 8    1  0.2039519E+004  0.1043930E+01  0.7957747E-01            NaN
         13   -1    0    0    0    0  0.00000000000E+00  0.00000000000E+00  0.74505805969E-08  0.10566000000E+00  0.10566000000E+00 0. -1.
     999900   -1    0    0    0    0 -0.00000000000E+00 -0.00000000000E+00 -0.74505805969E-08  0.93827000000E+00  0.93827000000E+00 0.  1.
     999902    2    1    2    0    0 -0.18379714608E-01 -0.10415509126E-01 -0.10636356222E-02  0.10227775046E+01  0.10225587494E+01 0.  0.
     999903    2    3    3    0    0 -0.77487549309E-01  0.42684068497E-01  0.94936607180E-01  0.13399780871E+00  0.33409629681E-01 0.  0.
         14    1    1    2    0    0  0.18379714608E-01  0.10415509126E-01  0.10636356222E-02  0.21152495365E-01  0.00000000000E+00 0.  1.
     999901    1    3    3    0    0  0.59107834701E-01 -0.53099577624E-01 -0.96000242803E-01  0.88877969592E+00  0.88000000000E+00 0.  1.
        -11    1    4    4    0    0 -0.64088047380E-01  0.24960092159E-01  0.54104821395E-01  0.87509295716E-01  0.51100000000E-03 0. -1.
         11    1    4    4    0    0 -0.13399501929E-01  0.17723976338E-01  0.40831785785E-01  0.46488512996E-01  0.51100000000E-03 0.  1.
</event>
<event>
 8    1  0.2039519E+004  0.1043930E+01  0.7957747E-01            NaN
         13   -1    0    0    0    0  0.00000000000E+00  0.00000000000E+00  0.74505805969E-08  0.10566000000E+00  0.10566000000E+00 0. -1.
     999900   -1    0    0    0    0 -0.00000000000E+00 -0.00000000000E+00 -0.74505805969E-08  0.93827000000E+00  0.93827000000E+00 0.  1.
     999902    2    1    2    0    0 -0.42172118459E-02 -0.11712061304E-01 -0.13017796512E-01  0.10259183293E+01  0.10257602050E+01 0.  0.
     999903    2    3    3    0    0 -0.14040994781E-01  0.39039623046E-01  0.11851002655E+00  0.13464294625E+00  0.48609205706E-01 0.  0.
         14    1    1    2    0    0  0.42172118459E-02  0.11712061304E-01  0.13017796512E-01  0.18011670710E-01  0.00000000000E+00 0. -1.
     999901    1    3    3    0    0  0.98237829350E-02 -0.50751684350E-01 -0.13152782306E+00  0.89127538304E+00  0.88000000000E+00 0.  1.
        -11    1    4    4    0    0  0.29250840292E-02  0.17599082608E-01  0.59572632113E-02  0.18815789412E-01  0.51100000000E-03 0. -1.
         11    1    4    4    0    0 -0.16966078810E-01  0.21440540438E-01  0.11255276334E+00  0.11582715684E+00  0.51100000000E-03 0.  1.
</event>
<event>
 8    1  0.2039519E+004  0.1043930E+01  0.7957747E-01            NaN
         13   -1    0    0    0    0  0.00000000000E+00  0.00000000000E+00  0.74505805969E-08  0.10566000000E+00  0.10566000000E+00 0. -1.
     999900   -1    0    0    0    0 -0.00000000000E+00 -0.00000000000E+00 -0.74505805969E-08  0.93827000000E+00  0.93827000000E+00 0.  1.
     999902    2    1    2    0    0 -0.78552590438E-02 -0.88950244537E-02 -0.57014172198E-02  0.10307644118E+01  0.10306803287E+01 0.  0.
     999903    2    3    3    0    0  0.10683496545E+00 -0.48310272849E-01 -0.63255389950E-01  0.14058472814E+00  0.44891303430E-01 0.  0.
         14    1    1    2    0    0  0.78552590438E-02  0.88950244537E-02  0.57014172198E-02  0.13165588213E-01  0.00000000000E+00 0. -1.
     999901    1    3    3    0    0 -0.11469022449E+00  0.39415248396E-01  0.57553972730E-01  0.89017968365E+00  0.88000000000E+00 0. -1.
        -11    1    4    4    0    0  0.25706017030E-01 -0.34602331653E-01 -0.18395074723E-01  0.46869612356E-01  0.51100000000E-03 0. -1.
         11    1    4    4    0    0  0.81128948418E-01 -0.13707941197E-01 -0.44860315227E-01  0.93715115784E-01  0.51100000000E-03 0.  1.
</event>
<event>
 8    1  0.2039519E+004  0.1043930E+01  0.7957747E-01            NaN
         13   -1    0    0    0    0  0.00000000000E+00  0.00000000000E+00  0.74505805969E-08  0.10566000000E+00  0.10566000000E+00 0.  1.
     999900   -1    0    0    0    0 -0.00000000000E+00 -0.00000000000E+00 -0.74505805969E-08  0.93827000000E+00  0.93827000000E+00 0.  1.
     999902    2    1    2    0    0 -0.82948764140E-02 -0.10655710611E-02  0.10817297483E-01  0.10302568752E+01  0.10301661393E+01 0.  0.
     999903    2    3    3    0    0  0.12398872383E+00  0.30936098072E-01 -0.29215088237E-01  0.13889519238E+00  0.45914129470E-01 0.  0.
         14    1    1    2    0    0  0.82948764140E-02  0.10655710611E-02 -0.10817297483E-01  0.13673124780E-01  0.00000000000E+00 0. -1.
     999901    1    3    3    0    0 -0.13228360025E+00 -0.32001669133E-01  0.40032385721E-01  0.89136168284E+00  0.88000000000E+00 0.  1.
        -11    1    4    4    0    0  0.11718731639E-01  0.19737074070E-01 -0.49525120649E-02  0.23487640597E-01  0.51100000000E-03 0. -1.
         11    1    4    4    0    0  0.11226999219E+00  0.11199024002E-01 -0.24262576172E-01  0.11540755179E+00  0.51100000000E-03 0.  1.
</event>
<event>
 8    1  0.2039519E+004  0.1043930E+01  0.7957747E-01            NaN
         13   -1    0    0    0    0  0.00000000000E+00  0.00000000000E+00  0.74505805969E-08  0.10566000000E+00  0.10566000000E+00 0.  1.
     999900   -1    0    0    0    0 -0.00000000000E+00 -0.00000000000E+00 -0.74505805969E-08  0.93827000000E+00  0.93827000000E+00 0. -1.
     999902    2    1    2    0    0 -0.74284898161E-02 -0.11777392415E-01  0.25754170651E-02  0.10297694136E+01  0.10296720464E+01 0.  0.
     999903    2    3    3    0    0 -0.14290252792E-01 -0.51452990515E-01 -0.12126384503E+00  0.14018670264E+00  0.45779579808E-01 0.  0.
         14    1    1    2    0    0  0.74284898161E-02  0.11777392415E-01 -0.25754170651E-02  0.14160586362E-01  0.00000000000E+00 0. -1.
     999901    1    3    3    0    0  0.68617629755E-02  0.39675598100E-01  0.12383926209E+00  0.88958271100E+00  0.88000000000E+00 0.  1.
        -11    1    4    4    0    0 -0.18923074216E-01 -0.35005820309E-01 -0.37447808923E-01  0.54645125193E-01  0.51100000000E-03 0.  1.
         11    1    4    4    0    0  0.46328214246E-02 -0.16447170207E-01 -0.83816036105E-01  0.85541577444E-01  0.51100000000E-03 0. -1.
</event>
<event>
 8    1  0.2039519E+004  0.1043930E+01  0.7957747E-01            NaN
         13   -1    0    0    0    0  0.00000000000E+00  0.00000000000E+00  0.74505805969E-08  0.10566000000E+00  0.10566000000E+00 0. -1.
     999900   -1    0    0    0    0 -0.00000000000E+00 -0.00000000000E+00 -0.74505805969E-08  0.93827000000E+00  0.93827000000E+00 0.  1.
     999902    2    1    2    0    0  0.89464895057E-02  0.10646835420E-01  0.15345924999E-02  0.10299389402E+01  0.10298439061E+01 0.  0.
     999903    2    3    3    0    0  0.10602207585E+00  0.67680018217E-02  0.81337212324E-01  0.14100296227E+00  0.44492772920E-01 0.  0.
         14    1    1    2    0    0 -0.89464895057E-02 -0.10646835420E-01 -0.15345924999E-02  0.13991059755E-01  0.00000000000E+00 0.  1.
     999901    1    3    3    0    0 -0.97075586348E-01  0.38788335981E-02 -0.79802619824E-01  0.88893597798E+00  0.88000000000E+00 0. -1.
        -11    1    4    4    0    0  0.20037657574E-01 -0.16578338373E-01  0.20429564436E-01  0.33075326882E-01  0.51100000000E-03 0. -1.
         11    1    4    4    0    0  0.85984418280E-01  0.23346340195E-01  0.60907647888E-01  0.10792763538E+00  0.51100000000E-03 0.  1.
</event>
<event>
 8    1  0.2039519E+004  0.1043930E+01  0.7957747E-01            NaN
         13   -1    0    0    0    0  0.00000000000E+00  0.00000000000E+00  0.74505805969E-08  0.10566000000E+00  0.10566000000E+00 0. -1.
     999900   -1    0    0    0    0 -0.00000000000E+00 -0.00000000000E+00 -0.74505805969E-08  0.93827000000E+00  0.93827000000E+00 0.  1.
     999902    2    1    2    0    0  0.85877240960E-02  0.50155100532E-02  0.11820791697E-01  0.10284821696E+01  0.10283661497E+01 0.  0.
     999903    2    3    3    0    0  0.13621717985E-01 -0.88148519353E-01 -0.94139395711E-01  0.13722887300E+00  0.44875662614E-01 0.  0.
         14    1    1    2    0    0 -0.85877240960E-02 -0.50155100532E-02 -0.11820791697E-01  0.15447830352E-01  0.00000000000E+00 0.  1.
     999901    1    3    3    0    0 -0.50339938886E-02  0.93164029406E-01  0.10596018741E+00  0.89125329665E+00  0.88000000000E+00 0. -1.
        -11    1    4    4    0    0  0.16782951073E-01 -0.26577677113E-01 -0.57436283125E-01  0.65476928056E-01  0.51100000000E-03 0. -1.
         11    1    4    4    0    0 -0.31612330885E-02 -0.61570842240E-01 -0.36703112586E-01  0.71751944944E-01  0.51100000000E-03 0.  1.
</event>
<event>
 8    1  0.2039519E+004  0.1043930E+01  0.7957747E-01            NaN
         13   -1    0    0    0    0  0.00000000000E+00  0.00000000000E+00  0.74505805969E-08  0.10566000000E+00  0.10566000000E+00 0.  1.
     999900   -1    0    0    0    0 -0.00000000000E+00 -0.00000000000E+00 -0.74505805969E-08  0.93827000000E+00  0.93827000000E+00 0. -1.
     999902    2    1    2    0    0 -0.11475146666E-01  0.29767176250E-02  0.62484627492E-02  0.10305291371E+01  0.10304420019E+01 0.  0.
     999903    2    3    3    0    0  0.73905786519E-01 -0.91850044392E-01 -0.58591507023E-01  0.13896520772E+00  0.44495711327E-01 0.  0.
         14    1    1    2    0    0  0.11475146666E-01 -0.29767176250E-02 -0.62484627492E-02  0.13400862866E-01  0.00000000000E+00 0. -1.
     999901    1    3    3    0    0 -0.85380933185E-01  0.94826762017E-01  0.64839969773E-01  0.89156392941E+00  0.88000000000E+00 0.  1.
        -11    1    4    4    0    0  0.53685511974E-01 -0.31738258175E-01 -0.24962958410E-01  0.67177835939E-01  0.51100000000E-03 0. -1.
         11    1    4    4    0    0  0.20220274545E-01 -0.60111786217E-01 -0.33628548613E-01  0.71787371784E-01  0.51100000000E-03 0.  1.
</event>
<event>
 8    1  0.2039519E+004  0.1043930E+01  0.7957747E-01            NaN
         13   -1    0    0    0    0  0.00000000000E+00  0.00000000000E+00  0.74505805969E-08  0.10566000000E+00  0.10566000000E+00 0. -1.
     999900   -1    0    0    0    0 -0.00000000000E+00 -0.00000000000E+00 -0.74505805969E-08  0.93827000000E+00  0.93827000000E+00 0. -1.
     999902    2    1    2    0    0 -0.83091182676E-02 -0.62016261754E-02 -0.10602808587E-01  0.10291002608E+01  0.10289934041E+01 0.  0.
     999903    2    3    3    0    0  0.69785730152E-01  0.97210033895E-01  0.50403285062E-01  0.13752047179E+00  0.45294041468E-01 0.  0.
         14    1    1    2    0    0  0.83091182676E-02  0.62016261754E-02  0.10602808587E-01  0.14829739159E-01  0.00000000000E+00 0.  1.
     999901    1    3    3    0    0 -0.78094848420E-01 -0.10341166007E+00 -0.61006093649E-01  0.89157978905E+00  0.88000000000E+00 0. -1.
        -11    1    4    4    0    0  0.48397793914E-01  0.35222252767E-01  0.10545555551E-01  0.60781768718E-01  0.51100000000E-03 0. -1.
         11    1    4    4    0    0  0.21387936239E-01  0.61987781129E-01  0.39857729511E-01  0.76738703068E-01  0.51100000000E-03 0.  1.
</event>
<event>
 8    1  0.2039519E+004  0.1043930E+01  0.7957747E-01            NaN
         13   -1    0    0    0    0  0.00000000000E+00  0.00000000000E+00  0.74505805969E-08  0.10566000000E+00  0.10566000000E+00 0. -1.
     999900   -1    0    0    0    0 -0.00000000000E+00 -0.00000000000E+00 -0.74505805969E-08  0.93827000000E+00  0.93827000000E+00 0. -1.
     999902    2    1    2    0    0 -0.15324470342E-02  0.13674959784E-01 -0.15963512885E-02  0.10300771571E+01  0.10299840039E+01 0.  0.
     999903    2    3    3    0    0  0.10865788409E+00  0.51094405717E-01  0.57019700083E-01  0.14048288695E+00  0.45464505457E-01 0.  0.
         14    1    1    2    0    0  0.15324470342E-02 -0.13674959784E-01  0.15963512885E-02  0.13852842901E-01  0.00000000000E+00 0.  1.
     999901    1    3    3    0    0 -0.11019033113E+00 -0.37419445933E-01 -0.58616051372E-01  0.88959427015E+00  0.88000000000E+00 0. -1.
        -11    1    4    4    0    0  0.80781406209E-01  0.35914365209E-01  0.18069490096E-01  0.90234388184E-01  0.51100000000E-03 0. -1.
         11    1    4    4    0    0  0.27876477883E-01  0.15180040508E-01  0.38950209987E-01  0.50248498764E-01  0.51100000000E-03 0.  1.
</event>
<event>
 8    1  0.2039519E+004  0.1043930E+01  0.7957747E-01            NaN
         13   -1    0    0    0    0  0.00000000000E+00  0.00000000000E+00  0.74505805969E-08  0.10566000000E+00  0.10566000000E+00 0. -1.
     999900   -1    0    0    0    0 -0.00000000000E+00 -0.00000000000E+00 -0.74505805969E-08  0.93827000000E+00  0.93827000000E+00 0.  1.
     999902    2    1    2    0    0  0.95496899575E-02 -0.74632431295E-03 -0.11031572292E-01  0.10293201004E+01  0.10292164107E+01 0.  0.
     999903    2    3    3    0    0  0.12641022235E+00  0.19831432941E-01  0.35046201787E-01  0.14016151537E+00  0.45212654014E-01 0.  0.
         14    1    1    2    0    0 -0.95496899575E-02  0.74632431295E-03  0.11031572292E-01  0.14609899572E-01  0.00000000000E+00 0. -1.
     999901    1    3    3    0    0 -0.11686053239E+00 -0.20577757254E-01 -0.46077774079E-01  0.88915858506E+00  0.88000000000E+00 0. -1.
        -11    1    4    4    0    0  0.60081583422E-01  0.30257086481E-01  0.27187203839E-01  0.72558205066E-01  0.51100000000E-03 0.  1.
         11    1    4    4    0    0  0.66328638928E-01 -0.10425653541E-01  0.78589979482E-02  0.67603310300E-01  0.51100000000E-03 0. -1.
</event>
<event>
 8    1  0.2039519E+004  0.1043930E+01  0.7957747E-01            NaN
         13   -1    0    0    0    0  0.00000000000E+00  0.00000000000E+00  0.74505805969E-08  0.10566000000E+00  0.10566000000E+00 0.  1.
     999900   -1    0    0    0    0 -0.00000000000E+00 -0.00000000000E+00 -0.74505805969E-08  0.93827000000E+00  0.93827000000E+00 0. -1.
     999902    2    1    2    0    0 -0.90415954889E-02  0.15225745599E-02  0.99990957021E-02  0.10303634751E+01  0.10302741578E+01 0.  0.
     999903    2    3    3    0    0  0.75141327189E-01  0.10890122977E+00  0.17427076977E-02  0.13981021563E+00  0.45146012738E-01 0.  0.
         14    1    1    2    0    0  0.90415954889E-02 -0.15225745599E-02 -0.99990957021E-02  0.13566524873E-01  0.00000000000E+00 0.  1.
     999901    1    3    3    0    0 -0.84182922678E-01 -0.10737865521E+00  0.82563880044E-02  0.89055325950E+00  0.88000000000E+00 0. -1.
        -11    1    4    4    0    0  0.38305852685E-01  0.55142810894E-01 -0.21682725153E-01  0.70558271197E-01  0.51100000000E-03 0.  1.
         11    1    4    4    0    0  0.36835474504E-01  0.53758418876E-01  0.23425432851E-01  0.69251944429E-01  0.51100000000E-03 0. -1.
</event>
<event>
 8    1  0.2039519E+004  0.1043930E+01  0.7957747E-01            NaN
         13   -1    0    0    0    0  0.00000000000E+00  0.00000000000E+00  0.74505805969E-08  0.10566000000E+00  0.10566000000E+00 0.  1.
     999900   -1    0    0    0    0 -0.00000000000E+00 -0.00000000000E+00 -0.74505805969E-08  0.93827000000E+00  0.93827000000E+00 0.  1.
     999902    2    1    2    0    0 -0.12009454223E-01  0.19611137564E-02  0.69194297210E-02  0.10299317335E+01  0.10298366007E+01 0.  0.
     999903    2    3    3    0    0 -0.73835838056E-01  0.11020561330E+00  0.18289101998E-01  0.14107367796E+00  0.44387871943E-01 0.  0.
         14    1    1    2    0    0  0.12009454223E-01 -0.19611137564E-02 -0.69194297210E-02  0.13998266520E-01  0.00000000000E+00 0. -1.
     999901    1    3    3    0    0  0.61826383834E-01 -0.10824449955E+00 -0.11369672277E-01  0.88885805552E+00  0.88000000000E+00 0.  1.
        -11    1    4    4    0    0 -0.38408177815E-01  0.66433905874E-01  0.31951689396E-01  0.83125348414E-01  0.51100000000E-03 0. -1.
         11    1    4    4    0    0 -0.35427660242E-01  0.43771707429E-01 -0.13662587398E-01  0.57948329543E-01  0.51100000000E-03 0.  1.
</event>
<event>
 8    1  0.2606110E+004  0.1043930E+01  0.7957747E-01            NaN
         13   -1    0    0    0    0  0.00000000000E+00  0.00000000000E+00  0.74505805969E-08  0.10566000000E+00  0.10566000000E+00 0.  1.
     999900   -1    0    0    0    0 -0.00000000000E+00 -0.00000000000E+00 -0.74505805969E-08  0.93827000000E+00  0.93827000000E+00 0. -1.
     999902    2    1    2    0    0 -0.22061886053E-02  0.14613065219E-02  0.13819710058E-01  0.10298592121E+01  0.10297630843E+01 0.  0.
     999903    2    3    3    0    0 -0.13244354028E-01 -0.48590094837E-01 -0.12045716466E+00  0.13819937624E+00  0.45307050709E-01 0.  0.
         14    1    1    2    0    0  0.22061886053E-02 -0.14613065219E-02 -0.13819710058E-01  0.14070787860E-01  0.00000000000E+00 0. -1.
     999901    1    3    3    0    0  0.11038165423E-01  0.50051401359E-01  0.13427687472E+00  0.89165983590E+00  0.88000000000E+00 0.  1.
        -11    1    4    4    0    0  0.95526347674E-02 -0.43195038750E-01 -0.75737876241E-01  0.87712890855E-01  0.51100000000E-03 0.  1.
         11    1    4    4    0    0 -0.22796988796E-01 -0.53950560871E-02 -0.44719288423E-01  0.50486485384E-01  0.51100000000E-03 0. -1.
</event>
<event>
 8    1  0.2039519E+004  0.1043930E+01  0.7957747E-01            NaN
         13   -1    0    0    0    0  0.00000000000E+00  0.00000000000E+00  0.74505805969E-08  0.10566000000E+00  0.10566000000E+00 0.  1.
     999900   -1    0    0    0    0 -0.00000000000E+00 -0.00000000000E+00 -0.74505805969E-08  0.93827000000E+00  0.93827000000E+00 0. -1.
     999902    2    1    2    0    0 -0.65487913204E-03 -0.17015183602E-01  0.54100398263E-03  0.10268936264E+01  0.10267522982E+01 0.  0.
     999903    2    3    3    0    0  0.12568006996E+00  0.25650444468E-01  0.14793289620E-01  0.13673408856E+00  0.44988268142E-01 0.  0.
         14    1    1    2    0    0  0.65487913204E-03  0.17015183602E-01 -0.54100398263E-03  0.17036373587E-01  0.00000000000E+00 0. -1.
     999901    1    3    3    0    0 -0.12633494909E+00 -0.42665628070E-01 -0.14252285638E-01  0.89015953785E+00  0.88000000000E+00 0. -1.
        -11    1    4    4    0    0  0.29728197926E-01 -0.74538383650E-02 -0.10007369267E-01  0.32244906869E-01  0.51100000000E-03 0.  1.
         11    1    4    4    0    0  0.95951872034E-01  0.33104282833E-01  0.24800658887E-01  0.10448918169E+00  0.51100000000E-03 0. -1.
</event>
<event>
 8    1  0.2039519E+004  0.1043930E+01  0.7957747E-01            NaN
         13   -1    0    0    0    0  0.00000000000E+00  0.00000000000E+00  0.74505805969E-08  0.10566000000E+00  0.10566000000E+00 0.  1.
     999900   -1    0    0    0    0 -0.00000000000E+00 -0.00000000000E+00 -0.74505805969E-08  0.93827000000E+00  0.93827000000E+00 0. -1.
     999902    2    1    2    0    0 -0.83026618077E-02  0.40106447527E-02  0.11671248457E-01  0.10290559452E+01  0.10289484443E+01 0.  0.
     999903    2    3    3    0    0 -0.84246495832E-01  0.10268172148E+00 -0.69953955421E-02  0.14009481510E+00  0.44006972984E-01 0.  0.
         14    1    1    2    0    0  0.83026618077E-02 -0.40106447527E-02 -0.11671248457E-01  0.14874054759E-01  0.00000000000E+00 0. -1.
     999901    1    3    3    0    0  0.75943834024E-01 -0.98671076731E-01  0.18666643999E-01  0.88896113014E+00  0.88000000000E+00 0.  1.
        -11    1    4    4    0    0 -0.20873012572E-01  0.16283529373E-01 -0.18541393862E-01  0.32324609665E-01  0.51100000000E-03 0.  1.
         11    1    4    4    0    0 -0.63373483260E-01  0.86398192111E-01  0.11545998319E-01  0.10777020543E+00  0.51100000000E-03 0. -1.
</event>
<event>
 8    1  0.2039519E+004  0.1043930E+01  0.7957747E-01            NaN
         13   -1    0    0    0    0  0.00000000000E+00  0.00000000000E+00  0.74505805969E-08  0.10566000000E+00  0.10566000000E+00 0.  1.
     999900   -1    0    0    0    0 -0.00000000000E+00 -0.00000000000E+00 -0.74505805969E-08  0.93827000000E+00  0.93827000000E+00 0.  1.
     999902    2    1    2    0    0 -0.34183039542E-02 -0.14475277530E-01 -0.19751989040E-02  0.10289260048E+01  0.10288166034E+01 0.  0.
     999903    2    3    3    0    0 -0.38343386678E-03 -0.64355733314E-01  0.11525298976E+00  0.13974676610E+00  0.45870464943E-01 0.  0.
         14    1    1    2    0    0  0.34183039542E-02  0.14475277530E-01  0.19751989040E-02  0.15003995208E-01  0.00000000000E+00 0.  1.
     999901    1    3    3    0    0 -0.30348700874E-02  0.49880455784E-01 -0.11722818867E+00  0.88917923869E+00  0.88000000000E+00 0.  1.
        -11    1    4    4    0    0 -0.19199138673E-01 -0.49344314470E-01  0.92705282672E-01  0.10676141088E+00  0.51100000000E-03 0.  1.
         11    1    4    4    0    0  0.18815704806E-01 -0.15011418844E-01  0.22547707090E-01  0.32985355221E-01  0.51100000000E-03 0. -1.
</event>
<event>
 8    1  0.2039519E+004  0.1043930E+01  0.7957747E-01            NaN
         13   -1    0    0    0    0  0.00000000000E+00  0.00000000000E+00  0.74505805969E-08  0.10566000000E+00  0.10566000000E+00 0. -1.
     999900   -1    0    0    0    0 -0.00000000000E+00 -0.00000000000E+00 -0.74505805969E-08  0.93827000000E+00  0.93827000000E+00 0.  1.
     999902    2    1    2    0    0  0.32134262434E-02  0.10111502812E-01  0.92841898324E-02  0.10298316037E+01  0.10297350956E+01 0.  0.
     999903    2    3    3    0    0 -0.49991801583E-01  0.61590654389E-01 -0.10527575314E+00  0.13932338934E+00  0.45115780873E-01 0.  0.
         14    1    1    2    0    0 -0.32134262434E-02 -0.10111502812E-01 -0.92841898324E-02  0.14098396298E-01  0.00000000000E+00 0.  1.
     999901    1    3    3    0    0  0.53205227827E-01 -0.51479151577E-01  0.11455994297E+00  0.89050821436E+00  0.88000000000E+00 0. -1.
        -11    1    4    4    0    0 -0.53869652608E-01  0.65979549177E-01 -0.95997928898E-01  0.12833979841E+00  0.51100000000E-03 0.  1.
         11    1    4    4    0    0  0.38778510251E-02 -0.43888947884E-02 -0.92778242427E-02  0.10983590930E-01  0.51100000000E-03 0. -1.
</event>
<event>
 8    1  0.2039519E+004  0.1043930E+01  0.7957747E-01            NaN
         13   -1    0    0    0    0  0.00000000000E+00  0.00000000000E+00  0.74505805969E-08  0.10566000000E+00  0.10566000000E+00 0.  1.
     999900   -1    0    0    0    0 -0.00000000000E+00 -0.00000000000E+00 -0.74505805969E-08  0.93827000000E+00  0.93827000000E+00 0. -1.
     999902    2    1    2    0    0  0.13491479018E-01 -0.28824770740E-02 -0.35644092286E-02  0.10296810108E+01  0.10295824155E+01 0.  0.
     999903    2    3    3    0    0  0.69696431232E-01  0.10715146652E+00 -0.36653567510E-01  0.14043337499E+00  0.45155503484E-01 0.  0.
         14    1    1    2    0    0 -0.13491479018E-01  0.28824770740E-02  0.35644092286E-02  0.14248989204E-01  0.00000000000E+00 0.  1.
     999901    1    3    3    0    0 -0.56204952214E-01 -0.11003394360E+00  0.33089158281E-01  0.88924763581E+00  0.88000000000E+00 0. -1.
        -11    1    4    4    0    0  0.60403267220E-01  0.85221955984E-01 -0.10388642061E-01  0.10497390856E+00  0.51100000000E-03 0. -1.
         11    1    4    4    0    0  0.92931640119E-02  0.21929510537E-01 -0.26264925449E-01  0.35459466431E-01  0.51100000000E-03 0.  1.
</event>
<event>
 8    1  0.2039519E+004  0.1043930E+01  0.7957747E-01            NaN
         13   -1    0    0    0    0  0.00000000000E+00  0.00000000000E+00  0.74505805969E-08  0.10566000000E+00  0.10566000000E+00 0.  1.
     999900   -1    0    0    0    0 -0.00000000000E+00 -0.00000000000E+00 -0.74505805969E-08  0.93827000000E+00  0.93827000000E+00 0. -1.
     999902    2    1    2    0    0  0.11393406250E-01 -0.29422585789E-03  0.79062113423E-02  0.10300590068E+01  0.10299656077E+01 0.  0.
     999903    2    3    3    0    0 -0.72152439726E-01 -0.26965722621E-01  0.10815900462E+00  0.14003546796E+00  0.44479627352E-01 0.  0.
         14    1    1    2    0    0 -0.11393406250E-01  0.29422585789E-03 -0.79062113423E-02  0.13870993210E-01  0.00000000000E+00 0. -1.
     999901    1    3    3    0    0  0.83545845976E-01  0.26671496763E-01 -0.10025279328E+00  0.89002353883E+00  0.88000000000E+00 0.  1.
        -11    1    4    4    0    0 -0.43900620620E-01 -0.38080571504E-01  0.64068820386E-01  0.86501267526E-01  0.51100000000E-03 0. -1.
         11    1    4    4    0    0 -0.28251819106E-01  0.11114848883E-01  0.44090184238E-01  0.53534200430E-01  0.51100000000E-03 0.  1.
</event>
<event>
 8    1  0.2039519E+004  0.1043930E+01  0.7957747E-01            NaN
         13   -1    0    0    0    0  0.00000000000E+00  0.00000000000E+00  0.74505805969E-08  0.10566000000E+00  0.10566000000E+00 0. -1.
     999900   -1    0    0    0    0 -0.00000000000E+00 -0.00000000000E+00 -0.74505805969E-08  0.93827000000E+00  0.93827000000E+00 0. -1.
     999902    2    1    2    0    0  0.45611043227E-02  0.69049873714E-02 -0.10067573096E-01  0.10308977879E+01  0.10308154105E+01 0.  0.
     999903    2    3    3    0    0 -0.11862838205E+00  0.60443970364E-01  0.11932582885E-02  0.14063441197E+00  0.45281865957E-01 0.  0.
         14    1    1    2    0    0 -0.45611043227E-02 -0.69049873714E-02  0.10067573096E-01  0.13032212065E-01  0.00000000000E+00 0. -1.
     999901    1    3    3    0    0  0.12318948637E+00 -0.53538982992E-01 -0.11260831385E-01  0.89026337596E+00  0.88000000000E+00 0. -1.
        -11    1    4    4    0    0 -0.18304683760E-01  0.19095309336E-01  0.16301907278E-01  0.31075803901E-01  0.51100000000E-03 0. -1.
         11    1    4    4    0    0 -0.10032369829E+00  0.41348661028E-01 -0.15108648990E-01  0.10955860807E+00  0.51100000000E-03 0.  1.
</event>
<event>
 8    1  0.2039519E+004  0.1043930E+01  0.7957747E-01            NaN
         13   -1    0    0    0    0  0.00000000000E+00  0.00000000000E+00  0.74505805969E-08  0.10566000000E+00  0.10566000000E+00 0.  1.
     999900   -1    0    0    0    0 -0.00000000000E+00 -0.00000000000E+00 -0.74505805969E-08  0.93827000000E+00  0.93827000000E+00 0. -1.
     999902    2    1    2    0    0 -0.11057719084E-01  0.23807876393E-02  0.85758093250E-02  0.10297354304E+01  0.10296375920E+01 0.  0.
     999903    2    3    3    0    0  0.76219494208E-01  0.10589040122E+00 -0.14790866535E-01  0.13907412910E+00  0.45832906105E-01 0.  0.
         14    1    1    2    0    0  0.11057719084E-01 -0.23807876393E-02 -0.85758093250E-02  0.14194569620E-01  0.00000000000E+00 0. -1.
     999901    1    3    3    0    0 -0.87277213292E-01 -0.10350961359E+00  0.23366675860E-01  0.89066130128E+00  0.88000000000E+00 0. -1.
        -11    1    4    4    0    0  0.45803563417E-01  0.57852453018E-01  0.14362875195E-01  0.75175967216E-01  0.51100000000E-03 0.  1.
         11    1    4    4    0    0  0.30415930790E-01  0.48037948206E-01 -0.29153741730E-01  0.63898161880E-01  0.51100000000E-03 0. -1.
</event>
<event>
 8    1  0.2039519E+004  0.1043930E+01  0.7957747E-01            NaN
         13   -1    0    0    0    0  0.00000000000E+00  0.00000000000E+00  0.74505805969E-08  0.10566000000E+00  0.10566000000E+00 0.  1.
     999900   -1    0    0    0    0 -0.00000000000E+00 -0.00000000000E+00 -0.74505805969E-08  0.93827000000E+00  0.93827000000E+00 0. -1.
     999902    2    1    2    0    0  0.16579769132E-02  0.68070912590E-02 -0.12167837703E-01  0.10298892859E+01  0.10297935713E+01 0.  0.
     999903    2    3    3    0    0 -0.13108420485E+00 -0.21258592413E-01  0.32015956174E-02  0.13935888836E+00  0.42138498269E-01 0.  0.
         14    1    1    2    0    0 -0.16579769132E-02 -0.68070912590E-02  0.12167837703E-01  0.14040714128E-01  0.00000000000E+00 0.  1.
     999901    1    3    3    0    0  0.13274218176E+00  0.28065683672E-01 -0.15369433320E-01  0.89053039752E+00  0.88000000000E+00 0.  1.
        -11    1    4    4    0    0 -0.21836972483E-01 -0.19977415366E-01  0.53569168462E-02  0.30081691625E-01  0.51100000000E-03 0. -1.
         11    1    4    4    0    0 -0.10924723237E+00 -0.12811770470E-02 -0.21553212288E-02  0.10927719673E+00  0.51100000000E-03 0.  1.
</event>
<event>
 8    1  0.2039519E+004  0.1043930E+01  0.7957747E-01            NaN
         13   -1    0    0    0    0  0.00000000000E+00  0.00000000000E+00  0.74505805969E-08  0.10566000000E+00  0.10566000000E+00 0.  1.
     999900   -1    0    0    0    0 -0.00000000000E+00 -0.00000000000E+00 -0.74505805969E-08  0.93827000000E+00  0.93827000000E+00 0. -1.
     999902    2    1    2    0    0 -0.12926342864E-01  0.23310796672E-02 -0.92306460920E-02  0.10278760566E+01  0.10277506792E+01 0.  0.
     999903    2    3    3    0    0 -0.27140515959E-02  0.12117404129E+00 -0.50867870755E-01  0.13885322284E+00  0.44745534513E-01 0.  0.
         14    1    1    2    0    0  0.12926342864E-01 -0.23310796672E-02  0.92306460920E-02  0.16053943426E-01  0.00000000000E+00 0.  1.
     999901    1    3    3    0    0 -0.10212291268E-01 -0.11884296163E+00  0.41637224663E-01  0.88902283373E+00  0.88000000000E+00 0.  1.
        -11    1    4    4    0    0  0.67649051775E-03  0.87066665619E-01 -0.56945952375E-01  0.10403924507E+00  0.51100000000E-03 0. -1.
         11    1    4    4    0    0 -0.33905421136E-02  0.34107375675E-01  0.60780816198E-02  0.34813977774E-01  0.51100000000E-03 0.  1.
</event>
<event>
 8    1  0.2039519E+004  0.1043930E+01  0.7957747E-01            NaN
         13   -1    0    0    0    0  0.00000000000E+00  0.00000000000E+00  0.74505805969E-08  0.10566000000E+00  0.10566000000E+00 0.  1.
     999900   -1    0    0    0    0 -0.00000000000E+00 -0.00000000000E+00 -0.74505805969E-08  0.93827000000E+00  0.93827000000E+00 0.  1.
     999902    2    1    2    0    0 -0.24252144559E-02  0.88798842262E-02 -0.10670487714E-01  0.10298376859E+01  0.10297412617E+01 0.  0.
     999903    2    3    3    0    0  0.17793974907E-01  0.13186344002E+00 -0.12011805606E-01  0.14105448974E+00  0.45249234763E-01 0.  0.
         14    1    1    2    0    0  0.24252144559E-02 -0.88798842262E-02  0.10670487714E-01  0.14092314114E-01  0.00000000000E+00 0.  1.
     999901    1    3    3    0    0 -0.20219189363E-01 -0.12298355579E+00  0.13413178924E-02  0.88878319614E+00  0.88000000000E+00 0. -1.
        -11    1    4    4    0    0  0.13055670322E-01  0.11076697138E+00  0.76878994298E-02  0.11179954112E+00  0.51100000000E-03 0. -1.
         11    1    4    4    0    0  0.47383045855E-02  0.21096468633E-01 -0.19699705036E-01  0.29254948618E-01  0.51100000000E-03 0.  1.
</event>
<event>
 8    1  0.2462140E+004  0.1043930E+01  0.7957747E-01            NaN
         13   -1    0    0    0    0  0.00000000000E+00  0.00000000000E+00  0.74505805969E-08  0.10566000000E+00  0.10566000000E+00 0. -1.
     999900   -1    0    0    0    0 -0.00000000000E+00 -0.00000000000E+00 -0.74505805969E-08  0.93827000000E+00  0.93827000000E+00 0. -1.
     999902    2    1    2    0    0  0.26636983817E-02  0.13989041134E-02 -0.13909915777E-01  0.10296984162E+01  0.10296000633E+01 0.  0.
     999903    2    3    3    0    0  0.58276207156E-01 -0.10926879351E+00  0.46410899733E-01  0.13898033999E+00  0.42729120437E-01 0.  0.
         14    1    1    2    0    0 -0.26636983817E-02 -0.13989041134E-02  0.13909915777E-01  0.14231583844E-01  0.00000000000E+00 0. -1.
     999901    1    3    3    0    0 -0.55612508774E-01  0.11066769762E+00 -0.60320815510E-01  0.89071807617E+00  0.88000000000E+00 0.  1.
        -11    1    4    4    0    0  0.44785575576E-01 -0.40602738867E-01  0.27973855820E-01  0.66611770083E-01  0.51100000000E-03 0.  1.
         11    1    4    4    0    0  0.13490631580E-01 -0.68666054643E-01  0.18437043913E-01  0.72368569904E-01  0.51100000000E-03 0. -1.
</event>
<event>
 8    1  0.2039519E+004  0.1043930E+01  0.7957747E-01            NaN
         13   -1    0    0    0    0  0.00000000000E+00  0.00000000000E+00  0.74505805969E-08  0.10566000000E+00  0.10566000000E+00 0.  1.
     999900   -1    0    0    0    0 -0.00000000000E+00 -0.00000000000E+00 -0.74505805969E-08  0.93827000000E+00  0.93827000000E+00 0.  1.
     999902    2    1    2    0    0 -0.15581763057E-02  0.88448576978E-02 -0.10180277517E-01  0.10303543795E+01  0.10302649416E+01 0.  0.
     999903    2    3    3    0    0  0.11403467192E+00 -0.43402491945E-01 -0.52482153105E-01  0.14025273320E+00  0.45041870176E-01 0.  0.
         14    1    1    2    0    0  0.15581763057E-02 -0.88448576978E-02  0.10180277517E-01  0.13575620480E-01  0.00000000000E+00 0.  1.
     999901    1    3    3    0    0 -0.11559284822E+00  0.52247349643E-01  0.42301875588E-01  0.89010164632E+00  0.88000000000E+00 0.  1.
        -11    1    4    4    0    0  0.39731964636E-01 -0.27968073958E-01 -0.40839822710E-01  0.63474360294E-01  0.51100000000E-03 0. -1.
         11    1    4    4    0    0  0.74302707282E-01 -0.15434417987E-01 -0.11642330395E-01  0.76778372905E-01  0.51100000000E-03 0.  1.
</event>
<event>
 8    1  0.2039519E+004  0.1043930E+01  0.7957747E-01            NaN
         13   -1    0    0    0    0  0.00000000000E+00  0.00000000000E+00  0.74505805969E-08  0.10566000000E+00  0.10566000000E+00 0. -1.
     999900   -1    0    0    0    0 -0.00000000000E+00 -0.00000000000E+00 -0.74505805969E-08  0.93827000000E+00  0.93827000000E+00 0.  1.
     999902    2    1    2    0    0 -0.12500055049E-01 -0.29046738326E-03 -0.84649037692E-02  0.10288306509E+01  0.10287198442E+01 0.  0.
     999903    2    3    3    0    0  0.72221791868E-02  0.12905430152E+00  0.21155222203E-01  0.13866415657E+00  0.45530564211E-01 0.  0.
         14    1    1    2    0    0  0.12500055049E-01  0.29046738326E-03  0.84649037692E-02  0.15099349104E-01  0.00000000000E+00 0. -1.
     999901    1    3    3    0    0 -0.19722234236E-01 -0.12934476890E+00 -0.29620125972E-01  0.89016649433E+00  0.88000000000E+00 0.  1.
        -11    1    4    4    0    0  0.14867208827E-01  0.45895916061E-01 -0.10463571291E-01  0.49368172486E-01  0.51100000000E-03 0. -1.
         11    1    4    4    0    0 -0.76450296400E-02  0.83158385456E-01  0.31618793494E-01  0.89295984081E-01  0.51100000000E-03 0.  1.
</event>
<event>
 8    1  0.2039519E+004  0.1043930E+01  0.7957747E-01            NaN
         13   -1    0    0    0    0  0.00000000000E+00  0.00000000000E+00  0.74505805969E-08  0.10566000000E+00  0.10566000000E+00 0.  1.
     999900   -1    0    0    0    0 -0.00000000000E+00 -0.00000000000E+00 -0.74505805969E-08  0.93827000000E+00  0.93827000000E+00 0.  1.
     999902    2    1    2    0    0 -0.31678034528E-02 -0.24509067409E-02 -0.13012742948E-01  0.10303148099E+01  0.10302248464E+01 0.  0.
     999903    2    3    3    0    0 -0.35477002587E-01  0.12496853762E+00 -0.28619115285E-01  0.14041416487E+00  0.44959212960E-01 0.  0.
         14    1    1    2    0    0  0.31678034528E-02  0.24509067409E-02  0.13012742948E-01  0.13615190105E-01  0.00000000000E+00 0.  1.
     999901    1    3    3    0    0  0.32309199134E-01 -0.12741944436E+00  0.15606372337E-01  0.88990064502E+00  0.88000000000E+00 0. -1.
        -11    1    4    4    0    0 -0.17959025482E-01  0.11671880767E+00 -0.24916551795E-01  0.12069342291E+00  0.51100000000E-03 0.  1.
         11    1    4    4    0    0 -0.17517977105E-01  0.82497299515E-02 -0.37025634901E-02  0.19720741961E-01  0.51100000000E-03 0. -1.
</event>
<event>
 8    1  0.2039519E+004  0.1043930E+01  0.7957747E-01            NaN
         13   -1    0    0    0    0  0.00000000000E+00  0.00000000000E+00  0.74505805969E-08  0.10566000000E+00  0.10566000000E+00 0.  1.
     999900   -1    0    0    0    0 -0.00000000000E+00 -0.00000000000E+00 -0.74505805969E-08  0.93827000000E+00  0.93827000000E+00 0. -1.
     999902    2    1    2    0    0 -0.60470795725E-02  0.12363422925E-01  0.30516160010E-02  0.10298327039E+01  0.10297362110E+01 0.  0.
     999903    2    3    3    0    0  0.14200728052E-01  0.42825135390E-02  0.13215352587E+00  0.14014591745E+00  0.44230342277E-01 0.  0.
         14    1    1    2    0    0  0.60470795725E-02 -0.12363422925E-01 -0.30516160010E-02  0.14097296124E-01  0.00000000000E+00 0.  1.
     999901    1    3    3    0    0 -0.20247807624E-01  0.80809093861E-02 -0.12910190987E+00  0.88968678643E+00  0.88000000000E+00 0. -1.
        -11    1    4    4    0    0  0.25693268303E-01  0.14959442962E-01  0.10062934661E+00  0.10493071758E+00  0.51100000000E-03 0.  1.
         11    1    4    4    0    0 -0.11492540251E-01 -0.10676929423E-01  0.31524179257E-01  0.35215199874E-01  0.51100000000E-03 0. -1.
</event>
<event>
 8    1  0.2039519E+004  0.1043930E+01  0.7957747E-01            NaN
         13   -1    0    0    0    0  0.00000000000E+00  0.00000000000E+00  0.74505805969E-08  0.10566000000E+00  0.10566000000E+00 0. -1.
     999900   -1    0    0    0    0 -0.00000000000E+00 -0.00000000000E+00 -0.74505805969E-08  0.93827000000E+00  0.93827000000E+00 0. -1.
     999902    2    1    2    0    0 -0.12170752141E-01 -0.66748776220E-02 -0.38406306914E-02  0.10295275126E+01  0.10294267665E+01 0.  0.
     999903    2    3    3    0    0  0.10764262063E+00  0.73396685563E-01  0.68345116657E-02  0.13774241619E+00  0.44184334796E-01 0.  0.
         14    1    1    2    0    0  0.12170752141E-01  0.66748776220E-02  0.38406306914E-02  0.14402487391E-01  0.00000000000E+00 0.  1.
     999901    1    3    3    0    0 -0.11981337277E+00 -0.80071563185E-01 -0.10675142357E-01  0.89178509642E+00  0.88000000000E+00 0.  1.
        -11    1    4    4    0    0  0.41373322944E-01  0.54276227219E-01  0.83042244300E-02  0.68752323284E-01  0.51100000000E-03 0. -1.
         11    1    4    4    0    0  0.66269297685E-01  0.19120458344E-01 -0.14697127642E-02  0.68990092908E-01  0.51100000000E-03 0.  1.
</event>
<event>
 8    1  0.2039519E+004  0.1043930E+01  0.7957747E-01            NaN
         13   -1    0    0    0    0  0.00000000000E+00  0.00000000000E+00  0.74505805969E-08  0.10566000000E+00  0.10566000000E+00 0. -1.
     999900   -1    0    0    0    0 -0.00000000000E+00 -0.00000000000E+00 -0.74505805969E-08  0.93827000000E+00  0.93827000000E+00 0.  1.
     999902    2    1    2    0    0  0.10216843527E-01 -0.36425233934E-02  0.90554598144E-02  0.10298001302E+01  0.10297031878E+01 0.  0.
     999903    2    3    3    0    0  0.81572165686E-01  0.27018284898E-01  0.10240982464E+00  0.14146083432E+00  0.46253535318E-01 0.  0.
         14    1    1    2    0    0 -0.10216843527E-01  0.36425233934E-02 -0.90554598144E-02  0.14129869808E-01  0.00000000000E+00 0. -1.
     999901    1    3    3    0    0 -0.71355322159E-01 -0.30660808291E-01 -0.93354364825E-01  0.88833929588E+00  0.88000000000E+00 0.  1.
        -11    1    4    4    0    0  0.55166173543E-01  0.36811631397E-01  0.86860348978E-01  0.10928579164E+00  0.51100000000E-03 0. -1.
         11    1    4    4    0    0  0.26405992143E-01 -0.97933464986E-02  0.15549475661E-01  0.32175042673E-01  0.51100000000E-03 0.  1.
</event>
<event>
 8    1  0.2039519E+004  0.1043930E+01  0.7957747E-01            NaN
         13   -1    0    0    0    0  0.00000000000E+00  0.00000000000E+00  0.74505805969E-08  0.10566000000E+00  0.10566000000E+00 0. -1.
     999900   -1    0    0    0    0 -0.00000000000E+00 -0.00000000000E+00 -0.74505805969E-08  0.93827000000E+00  0.93827000000E+00 0. -1.
     999902    2    1    2    0    0  0.71755120412E-02 -0.77154496917E-02  0.78758627352E-02  0.10307753297E+01  0.10306913869E+01 0.  0.
     999903    2    3    3    0    0  0.10004893679E-02 -0.12154066640E+00 -0.56398300736E-01  0.14109815288E+00  0.44212960206E-01 0.  0.
         14    1    1    2    0    0 -0.71755120412E-02  0.77154496917E-02 -0.78758627352E-02  0.13154670305E-01  0.00000000000E+00 0.  1.
     999901    1    3    3    0    0  0.61750226733E-02  0.11382521671E+00  0.64274163472E-01  0.88967717682E+00  0.88000000000E+00 0. -1.
        -11    1    4    4    0    0 -0.16730133955E-01 -0.57308322863E-01 -0.11644004548E-01  0.60827503766E-01  0.51100000000E-03 0. -1.
         11    1    4    4    0    0  0.17730623323E-01 -0.64232343540E-01 -0.44754296188E-01  0.80270649109E-01  0.51100000000E-03 0.  1.
</event>
<event>
 8    1  0.2039519E+004  0.1043930E+01  0.7957747E-01            NaN
         13   -1    0    0    0    0  0.00000000000E+00  0.00000000000E+00  0.74505805969E-08  0.10566000000E+00  0.10566000000E+00 0.  1.
     999900   -1    0    0    0    0 -0.00000000000E+00 -0.00000000000E+00 -0.74505805969E-08  0.93827000000E+00  0.93827000000E+00 0. -1.
     999902    2    1    2    0    0  0.12591170479E-01  0.30072380249E-02 -0.68667161659E-02  0.10292762344E+01  0.10291719166E+01 0.  0.
     999903    2    3    3    0    0 -0.10622054264E-01 -0.10489789588E+00  0.77365947889E-01  0.13839043175E+00  0.45277202979E-01 0.  0.
         14    1    1    2    0    0 -0.12591170479E-01 -0.30072380249E-02  0.68667161659E-02  0.14653765573E-01  0.00000000000E+00 0. -1.
     999901    1    3    3    0    0  0.23213224743E-01  0.10790513390E+00 -0.84232664055E-01  0.89088580268E+00  0.88000000000E+00 0. -1.
        -11    1    4    4    0    0 -0.25372145198E-01 -0.50586427791E-01  0.51224887626E-01  0.76334675358E-01  0.51100000000E-03 0. -1.
         11    1    4    4    0    0  0.14750090933E-01 -0.54311468086E-01  0.26141060263E-01  0.62055756388E-01  0.51100000000E-03 0.  1.
</event>
<event>
 8    1  0.2039519E+004  0.1043930E+01  0.7957747E-01            NaN
         13   -1    0    0    0    0  0.00000000000E+00  0.00000000000E+00  0.74505805969E-08  0.10566000000E+00  0.10566000000E+00 0. -1.
     999900   -1    0    0    0    0 -0.00000000000E+00 -0.00000000000E+00 -0.74505805969E-08  0.93827000000E+00  0.93827000000E+00 0.  1.
     999902    2    1    2    0    0  0.34663446199E-02  0.60088960163E-02  0.10333912511E-01  0.10314836301E+01  0.10314085355E+01 0.  0.
     999903    2    3    3    0    0 -0.73560584243E-01  0.86785115171E-01  0.73056310204E-01  0.14221874012E+00  0.44114961300E-01 0.  0.
         14    1    1    2    0    0 -0.34663446199E-02 -0.60088960163E-02 -0.10333912511E-01  0.12446369919E-01  0.00000000000E+00 0.  1.
     999901    1    3    3    0    0  0.77026928863E-01 -0.80776219155E-01 -0.62722397693E-01  0.88926488996E+00  0.88000000000E+00 0.  1.
        -11    1    4    4    0    0 -0.59383704952E-01  0.44023868061E-01  0.29621743873E-01  0.79638145407E-01  0.51100000000E-03 0. -1.
         11    1    4    4    0    0 -0.14176879291E-01  0.42761247111E-01  0.43434566331E-01  0.62580594710E-01  0.51100000000E-03 0.  1.
</event>
<event>
 8    1  0.2039519E+004  0.1043930E+01  0.7957747E-01            NaN
         13   -1    0    0    0    0  0.00000000000E+00  0.00000000000E+00  0.74505805969E-08  0.10566000000E+00  0.10566000000E+00 0. -1.
     999900   -1    0    0    0    0 -0.00000000000E+00 -0.00000000000E+00 -0.74505805969E-08  0.93827000000E+00  0.93827000000E+00 0.  1.
     999902    2    1    2    0    0 -0.19014225043E-03  0.92186491025E-02  0.95321206390E-02  0.10306679877E+01  0.10305826604E+01 0.  0.
     999903    2    3    3    0    0  0.12358698087E+00 -0.29328380135E-01 -0.36492728713E-01  0.13998008705E+00  0.46139026869E-01 0.  0.
         14    1    1    2    0    0  0.19014225043E-03 -0.92186491025E-02 -0.95321206390E-02  0.13262012262E-01  0.00000000000E+00 0.  1.
     999901    1    3    3    0    0 -0.12377712312E+00  0.38547029238E-01  0.46024849352E-01  0.89068790069E+00  0.88000000000E+00 0. -1.
        -11    1    4    4    0    0  0.35391918303E-01  0.42850901587E-02  0.65387715113E-02  0.36248676290E-01  0.51100000000E-03 0. -1.
         11    1    4    4    0    0  0.88195062566E-01 -0.33613470294E-01 -0.43031500224E-01  0.10373141076E+00  0.51100000000E-03 0.  1.
</event>
<event>
 8    1  0.2039519E+004  0.1043930E+01  0.7957747E-01            NaN
         13   -1    0    0    0    0  0.00000000000E+00  0.00000000000E+00  0.74505805969E-08  0.10566000000E+00  0.10566000000E+00 0. -1.
     999900   -1    0    0    0    0 -0.00000000000E+00 -0.00000000000E+00 -0.74505805969E-08  0.93827000000E+00  0.93827000000E+00 0. -1.
     999902    2    1    2    0    0 -0.23132179238E-03 -0.11917027026E-01 -0.67805305117E-02  0.10302170632E+01  0.10301257945E+01 0.  0.
     999903    2    3    3    0    0 -0.12913839451E+00  0.12259016466E-01  0.26275827772E-01  0.13988328456E+00  0.45275884920E-01 0.  0.
         14    1    1    2    0    0  0.23132179238E-03  0.11917027026E-01  0.67805305117E-02  0.13712936846E-01  0.00000000000E+00 0.  1.
     999901    1    3    3    0    0  0.12890707271E+00 -0.24176043492E-01 -0.33056358284E-01  0.89033377859E+00  0.88000000000E+00 0.  1.
        -11    1    4    4    0    0 -0.10143592284E+00  0.62927643207E-02  0.38944713822E-01  0.10883839939E+00  0.51100000000E-03 0.  1.
         11    1    4    4    0    0 -0.27702471664E-01  0.59662521454E-02 -0.12668886049E-01  0.31044885177E-01  0.51100000000E-03 0. -1.
</event>
<event>
 8    1  0.2039519E+004  0.1043930E+01  0.7957747E-01            NaN
         13   -1    0    0    0    0  0.00000000000E+00  0.00000000000E+00  0.74505805969E-08  0.10566000000E+00  0.10566000000E+00 0.  1.
     999900   -1    0    0    0    0 -0.00000000000E+00 -0.00000000000E+00 -0.74505805969E-08  0.93827000000E+00  0.93827000000E+00 0.  1.
     999902    2    1    2    0    0 -0.75000295236E-02  0.68313055171E-03  0.16804584017E-01  0.10255150291E+01  0.10253496787E+01 0.  0.
     999903    2    3    3    0    0 -0.84832285677E-01  0.27244434920E-01 -0.91589523298E-01  0.13510216796E+00  0.43876862730E-01 0.  0.
         14    1    1    2    0    0  0.75000295236E-02 -0.68313055171E-03 -0.16804584017E-01  0.18414970926E-01  0.00000000000E+00 0. -1.
     999901    1    3    3    0    0  0.77332256153E-01 -0.26561304368E-01  0.10839410732E+00  0.89041286111E+00  0.88000000000E+00 0. -1.
        -11    1    4    4    0    0 -0.34375113503E-01  0.33222800753E-01 -0.36438915999E-01  0.60112050692E-01  0.51100000000E-03 0.  1.
         11    1    4    4    0    0 -0.50457172174E-01 -0.59783658332E-02 -0.55150607299E-01  0.74990117271E-01  0.51100000000E-03 0. -1.
</event>
<event>
 8    1  0.2039519E+004  0.1043930E+01  0.7957747E-01            NaN
         13   -1    0    0    0    0  0.00000000000E+00  0.00000000000E+00  0.74505805969E-08  0.10566000000E+00  0.10566000000E+00 0. -1.
     999900   -1    0    0    0    0 -0.00000000000E+00 -0.00000000000E+00 -0.74505805969E-08  0.93827000000E+00  0.93827000000E+00 0.  1.
     999902    2    1    2    0    0 -0.14061675617E-02  0.12382243772E-01  0.83177709640E-02  0.10289472572E+01  0.10288381678E+01 0.  0.
     999903    2    3    3    0    0 -0.70243728451E-01 -0.10957710249E+00  0.49200728827E-02  0.13786688132E+00  0.45185695400E-01 0.  0.
         14    1    1    2    0    0  0.14061675617E-02 -0.12382243772E-01 -0.83177709640E-02  0.14982742801E-01  0.00000000000E+00 0. -1.
     999901    1    3    3    0    0  0.68837560889E-01  0.12195934627E+00  0.33976980813E-02  0.89108037588E+00  0.88000000000E+00 0. -1.
        -11    1    4    4    0    0 -0.51302553490E-01 -0.42206695836E-01 -0.72600395473E-02  0.66830580300E-01  0.51100000000E-03 0. -1.
         11    1    4    4    0    0 -0.18941174961E-01 -0.67370406659E-01  0.12180112430E-01  0.71036301016E-01  0.51100000000E-03 0.  1.
</event>
<event>
 8    1  0.2039519E+004  0.1043930E+01  0.7957747E-01            NaN
         13   -1    0    0    0    0  0.00000000000E+00  0.00000000000E+00  0.74505805969E-08  0.10566000000E+00  0.10566000000E+00 0.  1.
     999900   -1    0    0    0    0 -0.00000000000E+00 -0.00000000000E+00 -0.74505805969E-08  0.93827000000E+00  0.93827000000E+00 0.  1.
     999902    2    1    2    0    0  0.11823074324E-01  0.51191526411E-02  0.89701590506E-03  0.10310150688E+01  0.10309341767E+01 0.  0.
     999903    2    3    3    0    0  0.11850370062E-01 -0.29777246821E-01 -0.12937458148E+00  0.14074070181E+00  0.45200078697E-01 0.  0.
         14    1    1    2    0    0 -0.11823074324E-01 -0.51191526411E-02 -0.89701590506E-03  0.12914931195E-01  0.00000000000E+00 0. -1.
     999901    1    3    3    0    0 -0.27295738170E-04  0.34896399462E-01  0.13027159739E+00  0.89027436699E+00  0.88000000000E+00 0. -1.
        -11    1    4    4    0    0 -0.12704967850E-01  0.42680750075E-02 -0.29864790280E-01  0.32738348947E-01  0.51100000000E-03 0. -1.
         11    1    4    4    0    0  0.24555337912E-01 -0.34045321829E-01 -0.99509791201E-01  0.10800235286E+00  0.51100000000E-03 0.  1.
</event>
<event>
 8    1  0.2039519E+004  0.1043930E+01  0.7957747E-01            NaN
         13   -1    0    0    0    0  0.00000000000E+00  0.00000000000E+00  0.74505805969E-08  0.10566000000E+00  0.10566000000E+00 0.  1.
     999900   -1    0    0    0    0 -0.00000000000E+00 -0.00000000000E+00 -0.74505805969E-08  0.93827000000E+00  0.93827000000E+00 0.  1.
     999902    2    1    2    0    0 -0.13316940347E-01 -0.64440722198E-02  0.36965988399E-02  0.10286810063E+01  0.10285679758E+01 0.  0.
     999903    2    3    3    0    0 -0.61862227045E-01 -0.32644900907E-01 -0.11182090686E+00  0.13941871514E+00  0.45177851105E-01 0.  0.
         14    1    1    2    0    0  0.13316940347E-01  0.64440722198E-02 -0.36965988399E-02  0.15248993736E-01  0.00000000000E+00 0. -1.
     999901    1    3    3    0    0  0.48545286699E-01  0.26200828687E-01  0.11551750570E+00  0.88926229112E+00  0.88000000000E+00 0. -1.
        -11    1    4    4    0    0 -0.44782689163E-01 -0.42763159764E-03 -0.76519880822E-01  0.88663551696E-01  0.51100000000E-03 0. -1.
         11    1    4    4    0    0 -0.17079537883E-01 -0.32217269309E-01 -0.35301026042E-01  0.50755163448E-01  0.51100000000E-03 0.  1.
</event>
<event>
 8    1  0.2039519E+004  0.1043930E+01  0.7957747E-01            NaN
         13   -1    0    0    0    0  0.00000000000E+00  0.00000000000E+00  0.74505805969E-08  0.10566000000E+00  0.10566000000E+00 0.  1.
     999900   -1    0    0    0    0 -0.00000000000E+00 -0.00000000000E+00 -0.74505805969E-08  0.93827000000E+00  0.93827000000E+00 0.  1.
     999902    2    1    2    0    0 -0.11386838017E-01 -0.70098527849E-02 -0.34611762759E-02  0.10301177642E+01  0.10300251600E+01 0.  0.
     999903    2    3    3    0    0 -0.39162865979E-01  0.50086353498E-01 -0.11686313357E+00  0.14057210017E+00  0.45399895166E-01 0.  0.
         14    1    1    2    0    0  0.11386838017E-01  0.70098527849E-02  0.34611762759E-02  0.13812235782E-01  0.00000000000E+00 0.  1.
     999901    1    3    3    0    0  0.27776027962E-01 -0.57096206283E-01  0.11340195729E+00  0.88954566404E+00  0.88000000000E+00 0. -1.
        -11    1    4    4    0    0 -0.95120053238E-02  0.43174446268E-01 -0.47900785737E-01  0.65186328713E-01  0.51100000000E-03 0. -1.
         11    1    4    4    0    0 -0.29650860655E-01  0.69119072297E-02 -0.68962347833E-01  0.75385771461E-01  0.51100000000E-03 0.  1.
</event>
<event>
 8    1  0.2039519E+004  0.1043930E+01  0.7957747E-01            NaN
         13   -1    0    0    0    0  0.00000000000E+00  0.00000000000E+00  0.74505805969E-08  0.10566000000E+00  0.10566000000E+00 0. -1.
     999900   -1    0    0    0    0 -0.00000000000E+00 -0.00000000000E+00 -0.74505805969E-08  0.93827000000E+00  0.93827000000E+00 0.  1.
     999902    2    1    2    0    0 -0.10450973236E-01 -0.96976526025E-02  0.51427990825E-02  0.10287736254E+01  0.10286619740E+01 0.  0.
     999903    2    3    3    0    0  0.22931255074E-01  0.76160674237E-01 -0.10296947928E+00  0.13738465860E+00  0.44108275821E-01 0.  0.
         14    1    1    2    0    0  0.10450973236E-01  0.96976526025E-02 -0.51427990825E-02  0.15156374566E-01  0.00000000000E+00 0.  1.
     999901    1    3    3    0    0 -0.33382228310E-01 -0.85858326840E-01  0.10811227837E+00  0.89138896683E+00  0.88000000000E+00 0. -1.
        -11    1    4    4    0    0 -0.50771255854E-02 -0.13200523378E-02 -0.19113554469E-01  0.19826972230E-01  0.51100000000E-03 0.  1.
         11    1    4    4    0    0  0.28008380659E-01  0.77480726575E-01 -0.83855924815E-01  0.11755768637E+00  0.51100000000E-03 0. -1.
</event>
<event>
 8    1  0.2039519E+004  0.1043930E+01  0.7957747E-01            NaN
         13   -1    0    0    0    0  0.00000000000E+00  0.00000000000E+00  0.74505805969E-08  0.10566000000E+00  0.10566000000E+00 0. -1.
     999900   -1    0    0    0    0 -0.00000000000E+00 -0.00000000000E+00 -0.74505805969E-08  0.93827000000E+00  0.93827000000E+00 0. -1.
     999902    2    1    2    0    0 -0.13005640433E-01 -0.35325094679E-02 -0.41488574311E-02  0.10298289956E+01  0.10297324516E+01 0.  0.
     999903    2    3    3    0    0  0.44481629087E-01 -0.11003404539E+00  0.57955675703E-01  0.13937723593E+00  0.44508955038E-01 0.  0.
         14    1    1    2    0    0  0.13005640433E-01  0.35325094679E-02  0.41488574311E-02  0.14101004369E-01  0.00000000000E+00 0. -1.
     999901    1    3    3    0    0 -0.57487269520E-01  0.10650153593E+00 -0.62104533135E-01  0.89045175970E+00  0.88000000000E+00 0. -1.
        -11    1    4    4    0    0  0.34750439378E-01 -0.92356736035E-01  0.26799504871E-01  0.10225377406E+00  0.51100000000E-03 0. -1.
         11    1    4    4    0    0  0.97311897094E-02 -0.17677309359E-01  0.31156170833E-01  0.37123461871E-01  0.51100000000E-03 0.  1.
</event>
<event>
 8    1  0.2039519E+004  0.1043930E+01  0.7957747E-01            NaN
         13   -1    0    0    0    0  0.00000000000E+00  0.00000000000E+00  0.74505805969E-08  0.10566000000E+00  0.10566000000E+00 0.  1.
     999900   -1    0    0    0    0 -0.00000000000E+00 -0.00000000000E+00 -0.74505805969E-08  0.93827000000E+00  0.93827000000E+00 0.  1.
     999902    2    1    2    0    0 -0.12602669873E-01 -0.46442924305E-02  0.16466057723E-02  0.10303982577E+01  0.10303094008E+01 0.  0.
     999903    2    3    3    0    0  0.69154317188E-01 -0.11345374760E+00  0.73136283267E-02  0.13991759105E+00  0.43236219716E-01 0.  0.
         14    1    1    2    0    0  0.12602669873E-01  0.46442924305E-02 -0.16466057723E-02  0.13531742337E-01  0.00000000000E+00 0.  1.
     999901    1    3    3    0    0 -0.81756987061E-01  0.10880945517E+00 -0.56670225544E-02  0.89048066661E+00  0.88000000000E+00 0.  1.
        -11    1    4    4    0    0  0.16504436189E-01 -0.49684923530E-02  0.87176158515E-02  0.19322015354E-01  0.51100000000E-03 0. -1.
         11    1    4    4    0    0  0.52649880998E-01 -0.10848525525E+00 -0.14039875248E-02  0.12059557570E+00  0.51100000000E-03 0.  1.
</event>
<event>
 8    1  0.2039519E+004  0.1043930E+01  0.7957747E-01            NaN
         13   -1    0    0    0    0  0.00000000000E+00  0.00000000000E+00  0.74505805969E-08  0.10566000000E+00  0.10566000000E+00 0. -1.
     999900   -1    0    0    0    0 -0.00000000000E+00 -0.00000000000E+00 -0.74505805969E-08  0.93827000000E+00  0.93827000000E+00 0.  1.
     999902    2    1    2    0    0  0.11988906101E-01 -0.27073056484E-02 -0.77848418203E-02  0.10293812153E+01  0.10292783974E+01 0.  0.
     999903    2    3    3    0    0 -0.23575470940E-01 -0.26576285181E-02 -0.13053350824E+00  0.14015005163E+00  0.45168289533E-01 0.  0.
         14    1    1    2    0    0 -0.11988906101E-01  0.27073056484E-02  0.77848418203E-02  0.14548784675E-01  0.00000000000E+00 0. -1.
     999901    1    3    3    0    0  0.35564377040E-01 -0.49677130297E-04  0.12274866642E+00  0.88923116370E+00  0.88000000000E+00 0. -1.
        -11    1    4    4    0    0 -0.29501038334E-01  0.14216467018E-01 -0.76005880526E-01  0.82762154351E-01  0.51100000000E-03 0.  1.
         11    1    4    4    0    0  0.59255673946E-02 -0.16874095536E-01 -0.54527627711E-01  0.57387897277E-01  0.51100000000E-03 0. -1.
</event>
<event>
 8    1  0.2039519E+004  0.1043930E+01  0.7957747E-01            NaN
         13   -1    0    0    0    0  0.00000000000E+00  0.00000000000E+00  0.74505805969E-08  0.10566000000E+00  0.10566000000E+00 0.  1.
     999900   -1    0    0    0    0 -0.00000000000E+00 -0.00000000000E+00 -0.74505805969E-08  0.93827000000E+00  0.93827000000E+00 0. -1.
     999902    2    1    2    0    0  0.44245533742E-02 -0.95618688247E-02  0.10343900236E-01  0.10291650997E+01  0.10290591821E+01 0.  0.
     999903    2    3    3    0    0 -0.99664255686E-01 -0.20079742657E-01 -0.81661705381E-01  0.13820486644E+00  0.45779810550E-01 0.  0.
         14    1    1    2    0    0 -0.44245533742E-02  0.95618688247E-02 -0.10343900236E-01  0.14764900273E-01  0.00000000000E+00 0. -1.
     999901    1    3    3    0    0  0.10408880906E+00  0.10517873833E-01  0.92005605617E-01  0.89096023329E+00  0.88000000000E+00 0. -1.
        -11    1    4    4    0    0 -0.61219254044E-01 -0.10668268967E-01 -0.20664613578E-01  0.65489666390E-01  0.51100000000E-03 0.  1.
         11    1    4    4    0    0 -0.38445001642E-01 -0.94114736904E-02 -0.60997091803E-01  0.72715200046E-01  0.51100000000E-03 0. -1.
</event>
<event>
 8    1  0.2039519E+004  0.1043930E+01  0.7957747E-01            NaN
         13   -1    0    0    0    0  0.00000000000E+00  0.00000000000E+00  0.74505805969E-08  0.10566000000E+00  0.10566000000E+00 0. -1.
     999900   -1    0    0    0    0 -0.00000000000E+00 -0.00000000000E+00 -0.74505805969E-08  0.93827000000E+00  0.93827000000E+00 0. -1.
     999902    2    1    2    0    0 -0.11841717545E-01 -0.31128740779E-02  0.27981882207E-02  0.10313702979E+01  0.10312938210E+01 0.  0.
     999903    2    3    3    0    0 -0.39111454316E-01  0.59500341559E-01 -0.11317495829E+00  0.14113784285E+00  0.45181002600E-01 0.  0.
         14    1    1    2    0    0  0.11841717545E-01  0.31128740779E-02 -0.27981882207E-02  0.12559702096E-01  0.00000000000E+00 0. -1.
     999901    1    3    3    0    0  0.27269736771E-01 -0.62613215637E-01  0.11597314651E+00  0.89023245505E+00  0.88000000000E+00 0.  1.
        -11    1    4    4    0    0 -0.27351756311E-01  0.57283560919E-01 -0.11245901399E+00  0.12913874660E+00  0.51100000000E-03 0. -1.
         11    1    4    4    0    0 -0.11759698004E-01  0.22167806403E-02 -0.71594430040E-03  0.11999096249E-01  0.51100000000E-03 0.  1.
</event>
<event>
 8    1  0.2039519E+004  0.1043930E+01  0.7957747E-01            NaN
         13   -1    0    0    0    0  0.00000000000E+00  0.00000000000E+00  0.74505805969E-08  0.10566000000E+00  0.10566000000E+00 0. -1.
     999900   -1    0    0    0    0 -0.00000000000E+00 -0.00000000000E+00 -0.74505805969E-08  0.93827000000E+00  0.93827000000E+00 0. -1.
     999902    2    1    2    0    0  0.99195038250E-02  0.22986071120E-03  0.11388999563E-01  0.10288250769E+01  0.10287141877E+01 0.  0.
     999903    2    3    3    0    0  0.17122630029E-01 -0.78798303235E-01  0.10577213558E+00  0.14022757962E+00  0.44426032574E-01 0.  0.
         14    1    1    2    0    0 -0.99195038250E-02 -0.22986071120E-03 -0.11388999563E-01  0.15104923142E-01  0.00000000000E+00 0.  1.
     999901    1    3    3    0    0 -0.72031262039E-02  0.79028163946E-01 -0.94383136018E-01  0.88859749723E+00  0.88000000000E+00 0. -1.
        -11    1    4    4    0    0  0.20881929424E-01 -0.64971698016E-01  0.55543595552E-01  0.87992776109E-01  0.51100000000E-03 0.  1.
         11    1    4    4    0    0 -0.37592993954E-02 -0.13826605218E-01  0.50228540030E-01  0.52234803516E-01  0.51100000000E-03 0. -1.
</event>
<event>
 8    1  0.2039519E+004  0.1043930E+01  0.7957747E-01            NaN
         13   -1    0    0    0    0  0.00000000000E+00  0.00000000000E+00  0.74505805969E-08  0.10566000000E+00  0.10566000000E+00 0.  1.
     999900   -1    0    0    0    0 -0.00000000000E+00 -0.00000000000E+00 -0.74505805969E-08  0.93827000000E+00  0.93827000000E+00 0.  1.
     999902    2    1    2    0    0 -0.95401204394E-02 -0.21841366402E-02  0.85359408904E-02  0.10309435980E+01  0.10308618024E+01 0.  0.
     999903    2    3    3    0    0  0.31076108865E-01  0.94801959892E-01 -0.86732839729E-01  0.13957828477E+00  0.44792588133E-01 0.  0.
         14    1    1    2    0    0  0.95401204394E-02  0.21841366402E-02 -0.85359408904E-02  0.12986402032E-01  0.00000000000E+00 0.  1.
     999901    1    3    3    0    0 -0.40616229304E-01 -0.96986096532E-01  0.95268780620E-01  0.89136531319E+00  0.88000000000E+00 0. -1.
        -11    1    4    4    0    0  0.36849140486E-01  0.82733099647E-01 -0.87807524413E-01  0.12614692781E+00  0.51100000000E-03 0.  1.
         11    1    4    4    0    0 -0.57730316212E-02  0.12068860244E-01  0.10746846837E-02  0.13431356963E-01  0.51100000000E-03 0. -1.
</event>
<event>
 8    1  0.2039519E+004  0.1043930E+01  0.7957747E-01            NaN
         13   -1    0    0    0    0  0.00000000000E+00  0.00000000000E+00  0.74505805969E-08  0.10566000000E+00  0.10566000000E+00 0.  1.
     999900   -1    0    0    0    0 -0.00000000000E+00 -0.00000000000E+00 -0.74505805969E-08  0.93827000000E+00  0.93827000000E+00 0.  1.
     999902    2    1    2    0    0 -0.24842463719E-03  0.12715186950E-01 -0.63314349110E-02  0.10297234958E+01  0.10296254916E+01 0.  0.
     999903    2    3    3    0    0 -0.34580212165E-01  0.56394902722E-01  0.11447608569E+00  0.13973414403E+00  0.45218145543E-01 0.  0.
         14    1    1    2    0    0  0.24842463719E-03 -0.12715186950E-01  0.63314349110E-02  0.14206504215E-01  0.00000000000E+00 0.  1.
     999901    1    3    3    0    0  0.34331787527E-01 -0.43679715772E-01 -0.12080752060E+00  0.88998935176E+00  0.88000000000E+00 0.  1.
        -11    1    4    4    0    0 -0.42688484038E-01  0.30264294191E-01  0.81884308583E-01  0.97177853884E-01  0.51100000000E-03 0. -1.
         11    1    4    4    0    0  0.81082718732E-02  0.26130608531E-01  0.32591777107E-01  0.42556290146E-01  0.51100000000E-03 0.  1.
</event>
<event>
 8    1  0.2039519E+004  0.1043930E+01  0.7957747E-01            NaN
         13   -1    0    0    0    0  0.00000000000E+00  0.00000000000E+00  0.74505805969E-08  0.10566000000E+00  0.10566000000E+00 0.  1.
     999900   -1    0    0    0    0 -0.00000000000E+00 -0.00000000000E+00 -0.74505805969E-08  0.93827000000E+00  0.93827000000E+00 0. -1.
     999902    2    1    2    0    0 -0.13270966321E-01 -0.12793182839E-03  0.25678623634E-02  0.10304122772E+01  0.10303236055E+01 0.  0.
     999903    2    3    3    0    0  0.71108394684E-01  0.10825219267E+00  0.24652125094E-01  0.13948363658E+00  0.45530391922E-01 0.  0.
         14    1    1    2    0    0  0.13270966321E-01  0.12793182839E-03 -0.25678623634E-02  0.13517722839E-01  0.00000000000E+00 0. -1.
     999901    1    3    3    0    0 -0.84379361005E-01 -0.10838012450E+00 -0.22084262731E-01  0.89092864058E+00  0.88000000000E+00 0. -1.
        -11    1    4    4    0    0  0.76445847855E-02  0.30853396598E-01  0.23243390943E-01  0.39381316658E-01  0.51100000000E-03 0.  1.
         11    1    4    4    0    0  0.63463809898E-01  0.77398796074E-01  0.14087341515E-02  0.10010231992E+00  0.51100000000E-03 0. -1.
</event>
<event>
 8    1  0.2039519E+004  0.1043930E+01  0.7957747E-01            NaN
         13   -1    0    0    0    0  0.00000000000E+00  0.00000000000E+00  0.74505805969E-08  0.10566000000E+00  0.10566000000E+00 0.  1.
     999900   -1    0    0    0    0 -0.00000000000E+00 -0.00000000000E+00 -0.74505805969E-08  0.93827000000E+00  0.93827000000E+00 0. -1.
     999902    2    1    2    0    0 -0.87703718419E-02  0.29569492447E-02  0.10798904881E-01  0.10297075066E+01  0.10296092802E+01 0.  0.
     999903    2    3    3    0    0  0.12767715058E+00  0.28011312161E-01 -0.98669100863E-02  0.13859992424E+00  0.45016604658E-01 0.  0.
         14    1    1    2    0    0  0.87703718419E-02 -0.29569492447E-02 -0.10798904881E-01  0.14222493372E-01  0.00000000000E+00 0. -1.
     999901    1    3    3    0    0 -0.13644752243E+00 -0.25054362916E-01  0.20665814967E-01  0.89110758239E+00  0.88000000000E+00 0. -1.
        -11    1    4    4    0    0  0.25000559823E-01  0.12369901687E-01 -0.19879008345E-01  0.34256073228E-01  0.51100000000E-03 0.  1.
         11    1    4    4    0    0  0.10267659076E+00  0.15641410474E-01  0.10012098258E-01  0.10434385101E+00  0.51100000000E-03 0. -1.
</event>
<event>
 8    1  0.2039519E+004  0.1043930E+01  0.7957747E-01            NaN
         13   -1    0    0    0    0  0.00000000000E+00  0.00000000000E+00  0.74505805969E-08  0.10566000000E+00  0.10566000000E+00 0. -1.
     999900   -1    0    0    0    0 -0.00000000000E+00 -0.00000000000E+00 -0.74505805969E-08  0.93827000000E+00  0.93827000000E+00 0. -1.
     999902    2    1    2    0    0  0.88419669177E-02 -0.98662911484E-02 -0.26682360531E-02  0.10304154314E+01  0.10303268014E+01 0.  0.
     999903    2    3    3    0    0 -0.12744650259E+00  0.26105482405E-01 -0.10936796543E-01  0.13915964070E+00  0.48183865022E-01 0.  0.
         14    1    1    2    0    0 -0.88419669177E-02  0.98662911484E-02  0.26682360531E-02  0.13514568570E-01  0.00000000000E+00 0. -1.
     999901    1    3    3    0    0  0.13628846951E+00 -0.35971773553E-01  0.82685604895E-02  0.89125579073E+00  0.88000000000E+00 0.  1.
        -11    1    4    4    0    0 -0.86400340985E-01  0.26321774007E-01  0.13592517881E-01  0.91339325444E-01  0.51100000000E-03 0. -1.
         11    1    4    4    0    0 -0.41046161603E-01 -0.21629160184E-03 -0.24529314424E-01  0.47820315259E-01  0.51100000000E-03 0.  1.
</event>
<event>
 7    1  0.2749990E+004  0.1043930E+01  0.7957747E-01            NaN
         13   -1    0    0    0    0  0.00000000000E+00  0.00000000000E+00  0.74505805969E-08  0.10566000000E+00  0.10566000000E+00 0.  1.
     999900   -1    0    0    0    0 -0.00000000000E+00 -0.00000000000E+00 -0.74505805969E-08  0.93827000000E+00  0.93827000000E+00 0.  1.
     999903    2    1    2    0    0  0.48409629194E-01 -0.15100686689E-01  0.67860233664E-01  0.95612189992E-01  0.44330087130E-01 0.  0.
         14    1    1    2    0    0  0.26211446765E-01 -0.17433348760E-01 -0.56278949704E-01  0.64484740600E-01  0.00000000000E+00 0. -1.
     999901    1    1    2    0    0 -0.74621075959E-01  0.32534035449E-01 -0.11581283960E-01  0.88383306941E+00  0.88000000000E+00 0.  1.
        -11    1    3    3    0    0  0.28859989238E-01  0.14150105204E-01  0.31164793474E-01  0.44773093811E-01  0.51100000000E-03 0.  1.
         11    1    3    3    0    0  0.19549639956E-01 -0.29250791893E-01  0.36695440190E-01  0.50839096181E-01  0.51100000000E-03 0. -1.
</event>
<event>
 8    1  0.2039519E+004  0.1043930E+01  0.7957747E-01            NaN
         13   -1    0    0    0    0  0.00000000000E+00  0.00000000000E+00  0.74505805969E-08  0.10566000000E+00  0.10566000000E+00 0.  1.
     999900   -1    0    0    0    0 -0.00000000000E+00 -0.00000000000E+00 -0.74505805969E-08  0.93827000000E+00  0.93827000000E+00 0. -1.
     999902    2    1    2    0    0 -0.10557651558E-01  0.64564396376E-02  0.55674633482E-02  0.10303599496E+01  0.10302705856E+01 0.  0.
     999903    2    3    3    0    0 -0.11722838272E+00 -0.52291492321E-01 -0.36533647898E-01  0.14097675438E+00  0.45418542071E-01 0.  0.
         14    1    1    2    0    0  0.10557651558E-01 -0.64564396376E-02 -0.55674633482E-02  0.13570050381E-01  0.00000000000E+00 0. -1.
     999901    1    3    3    0    0  0.10667073116E+00  0.58747931959E-01  0.42101111246E-01  0.88938319523E+00  0.88000000000E+00 0. -1.
        -11    1    4    4    0    0 -0.95927301869E-01 -0.21554917960E-01 -0.31480209829E-01  0.10323723390E+00  0.51100000000E-03 0.  1.
         11    1    4    4    0    0 -0.21301080851E-01 -0.30736574361E-01 -0.50534380683E-02  0.37739520482E-01  0.51100000000E-03 0. -1.
</event>
<event>
 8    1  0.2039519E+004  0.1043930E+01  0.7957747E-01            NaN
         13   -1    0    0    0    0  0.00000000000E+00  0.00000000000E+00  0.74505805969E-08  0.10566000000E+00  0.10566000000E+00 0.  1.
     999900   -1    0    0    0    0 -0.00000000000E+00 -0.00000000000E+00 -0.74505805969E-08  0.93827000000E+00  0.93827000000E+00 0. -1.
     999902    2    1    2    0    0 -0.27279281170E-02 -0.93426712085E-02 -0.10999381442E-01  0.10292428121E+01  0.10291380144E+01 0.  0.
     999903    2    3    3    0    0 -0.81090138296E-01  0.85129694101E-01 -0.61267596088E-01  0.13930317525E+00  0.42766586915E-01 0.  0.
         14    1    1    2    0    0  0.27279281170E-02  0.93426712085E-02  0.10999381442E-01  0.14687187928E-01  0.00000000000E+00 0.  1.
     999901    1    3    3    0    0  0.78362210179E-01 -0.94472365310E-01  0.50268214646E-01  0.88993963683E+00  0.88000000000E+00 0.  1.
        -11    1    4    4    0    0 -0.54418610930E-01  0.26176725254E-01 -0.28714111516E-01  0.66868284574E-01  0.51100000000E-03 0. -1.
         11    1    4    4    0    0 -0.26671527366E-01  0.58952968847E-01 -0.32553484572E-01  0.72434890672E-01  0.51100000000E-03 0.  1.
</event>
<event>
 8    1  0.2039519E+004  0.1043930E+01  0.7957747E-01            NaN
         13   -1    0    0    0    0  0.00000000000E+00  0.00000000000E+00  0.74505805969E-08  0.10566000000E+00  0.10566000000E+00 0. -1.
     999900   -1    0    0    0    0 -0.00000000000E+00 -0.00000000000E+00 -0.74505805969E-08  0.93827000000E+00  0.93827000000E+00 0. -1.
     999902    2    1    2    0    0  0.11124540760E-02  0.12577816098E-01 -0.51615507566E-02  0.10302888630E+01  0.10301985540E+01 0.  0.
     999903    2    3    3    0    0  0.10109955515E+00 -0.55874640562E-01 -0.66122817699E-01  0.13989600856E+00  0.43076335524E-01 0.  0.
         14    1    1    2    0    0 -0.11124540760E-02 -0.12577816098E-01  0.51615507566E-02  0.13641136979E-01  0.00000000000E+00 0.  1.
     999901    1    3    3    0    0 -0.99987101071E-01  0.68452456661E-01  0.60961266943E-01  0.89039285446E+00  0.88000000000E+00 0.  1.
        -11    1    4    4    0    0  0.95607235073E-01 -0.49075374009E-01 -0.44041732077E-01  0.11614246001E+00  0.51100000000E-03 0. -1.
         11    1    4    4    0    0  0.54923200747E-02 -0.67992665537E-02 -0.22081085622E-01  0.23753548550E-01  0.51100000000E-03 0.  1.
</event>
<event>
 8    1  0.2039519E+004  0.1043930E+01  0.7957747E-01            NaN
         13   -1    0    0    0    0  0.00000000000E+00  0.00000000000E+00  0.74505805969E-08  0.10566000000E+00  0.10566000000E+00 0.  1.
     999900   -1    0    0    0    0 -0.00000000000E+00 -0.00000000000E+00 -0.74505805969E-08  0.93827000000E+00  0.93827000000E+00 0. -1.
     999902    2    1    2    0    0  0.43409242001E-03 -0.22912089010E-02  0.14153423112E-01  0.10295857517E+01  0.10294858244E+01 0.  0.
     999903    2    3    3    0    0  0.11103068619E+00  0.19015164258E-01  0.60747389842E-01  0.14118462277E+00  0.59610926731E-01 0.  0.
         14    1    1    2    0    0 -0.43409242001E-03  0.22912089010E-02 -0.14153423112E-01  0.14344248333E-01  0.00000000000E+00 0. -1.
     999901    1    3    3    0    0 -0.11059659377E+00 -0.21306373159E-01 -0.46593966730E-01  0.88840112890E+00  0.88000000000E+00 0.  1.
        -11    1    4    4    0    0  0.60712027116E-01  0.40095294896E-01  0.37866825867E-01  0.82022804948E-01  0.51100000000E-03 0. -1.
         11    1    4    4    0    0  0.50318659077E-01 -0.21080130639E-01  0.22880563975E-01  0.59161817821E-01  0.51100000000E-03 0.  1.
</event>
<event>
 8    1  0.2039519E+004  0.1043930E+01  0.7957747E-01            NaN
         13   -1    0    0    0    0  0.00000000000E+00  0.00000000000E+00  0.74505805969E-08  0.10566000000E+00  0.10566000000E+00 0. -1.
     999900   -1    0    0    0    0 -0.00000000000E+00 -0.00000000000E+00 -0.74505805969E-08  0.93827000000E+00  0.93827000000E+00 0.  1.
     999902    2    1    2    0    0  0.59460707328E-02  0.51715900288E-02 -0.11195397307E-01  0.10302391994E+01  0.10301482272E+01 0.  0.
     999903    2    3    3    0    0  0.29130558900E-01 -0.33685705285E-01 -0.12646483899E+00  0.14156915146E+00  0.45443953852E-01 0.  0.
         14    1    1    2    0    0 -0.59460707328E-02 -0.51715900288E-02  0.11195397307E-01  0.13690800613E-01  0.00000000000E+00 0. -1.
     999901    1    3    3    0    0 -0.23184488167E-01  0.38857295314E-01  0.11526944169E+00  0.88867004792E+00  0.88000000000E+00 0. -1.
        -11    1    4    4    0    0  0.22083520505E-01 -0.10016211955E-02 -0.19441481596E-01  0.29443461932E-01  0.51100000000E-03 0.  1.
         11    1    4    4    0    0  0.70470383950E-02 -0.32684084090E-01 -0.10702335740E+00  0.11212568953E+00  0.51100000000E-03 0. -1.
</event>
<event>
 8    1  0.2039519E+004  0.1043930E+01  0.7957747E-01            NaN
         13   -1    0    0    0    0  0.00000000000E+00  0.00000000000E+00  0.74505805969E-08  0.10566000000E+00  0.10566000000E+00 0. -1.
     999900   -1    0    0    0    0 -0.00000000000E+00 -0.00000000000E+00 -0.74505805969E-08  0.93827000000E+00  0.93827000000E+00 0. -1.
     999902    2    1    2    0    0 -0.65890576773E-02  0.63466329983E-02  0.10994982788E-01  0.10296266760E+01  0.10295273220E+01 0.  0.
     999903    2    3    3    0    0  0.71687484993E-01 -0.92944863763E-01 -0.56970505925E-01  0.13799596424E+00  0.44937783623E-01 0.  0.
         14    1    1    2    0    0  0.65890576773E-02 -0.63466329983E-02 -0.10994982788E-01  0.14303324020E-01  0.00000000000E+00 0.  1.
     999901    1    3    3    0    0 -0.78276542670E-01  0.99291496761E-01  0.67965488713E-01  0.89163071174E+00  0.88000000000E+00 0.  1.
        -11    1    4    4    0    0  0.28741402241E-01 -0.38434341297E-01  0.33502687819E-03  0.47996251496E-01  0.51100000000E-03 0.  1.
         11    1    4    4    0    0  0.42946082752E-01 -0.54510522467E-01 -0.57305532803E-01  0.89999712745E-01  0.51100000000E-03 0. -1.
</event>
<event>
 8    1  0.2039519E+004  0.1043930E+01  0.7957747E-01            NaN
         13   -1    0    0    0    0  0.00000000000E+00  0.00000000000E+00  0.74505805969E-08  0.10566000000E+00  0.10566000000E+00 0. -1.
     999900   -1    0    0    0    0 -0.00000000000E+00 -0.00000000000E+00 -0.74505805969E-08  0.93827000000E+00  0.93827000000E+00 0.  1.
     999902    2    1    2    0    0 -0.11469374220E-01  0.17740152163E-02 -0.82792768013E-02  0.10296737698E+01  0.10295750736E+01 0.  0.
     999903    2    3    3    0    0  0.10252386771E+00  0.79944424371E-01 -0.17259309610E-01  0.13883949057E+00  0.45566061226E-01 0.  0.
         14    1    1    2    0    0  0.11469374220E-01 -0.17740152163E-02  0.82792768013E-02  0.14256230194E-01  0.00000000000E+00 0.  1.
     999901    1    3    3    0    0 -0.11399324193E+00 -0.78170409155E-01  0.89800328086E-02  0.89083427924E+00  0.88000000000E+00 0. -1.
        -11    1    4    4    0    0  0.17990843371E-02  0.15811895036E-01  0.63079773065E-02  0.17126132890E-01  0.51100000000E-03 0.  1.
         11    1    4    4    0    0  0.10072478337E+00  0.64132529336E-01 -0.23567286916E-01  0.12171335768E+00  0.51100000000E-03 0. -1.
</event>
<event>
 8    1  0.2039519E+004  0.1043930E+01  0.7957747E-01            NaN
         13   -1    0    0    0    0  0.00000000000E+00  0.00000000000E+00  0.74505805969E-08  0.10566000000E+00  0.10566000000E+00 0.  1.
     999900   -1    0    0    0    0 -0.00000000000E+00 -0.00000000000E+00 -0.74505805969E-08  0.93827000000E+00  0.93827000000E+00 0.  1.
     999902    2    1    2    0    0 -0.17583886728E-02  0.13127744196E-01  0.45870157298E-02  0.10299132132E+01  0.10298178268E+01 0.  0.
     999903    2    3    3    0    0  0.96086271094E-01  0.85192085056E-01  0.36879699881E-01  0.14097583403E+00  0.44986783259E-01 0.  0.
         14    1    1    2    0    0  0.17583886728E-02 -0.13127744196E-01 -0.45870157298E-02  0.14016786782E-01  0.00000000000E+00 0. -1.
     999901    1    3    3    0    0 -0.97844659767E-01 -0.72064340861E-01 -0.32292684151E-01  0.88893737919E+00  0.88000000000E+00 0.  1.
        -11    1    4    4    0    0  0.10883830663E-01  0.17792459118E-01  0.23644919714E-01  0.31533675977E-01  0.51100000000E-03 0.  1.
         11    1    4    4    0    0  0.85202440431E-01  0.67399625939E-01  0.13234780167E-01  0.10944215805E+00  0.51100000000E-03 0. -1.
</event>
<event>
 8    1  0.2039519E+004  0.1043930E+01  0.7957747E-01            NaN
         13   -1    0    0    0    0  0.00000000000E+00  0.00000000000E+00  0.74505805969E-08  0.10566000000E+00  0.10566000000E+00 0. -1.
     999900   -1    0    0    0    0 -0.00000000000E+00 -0.00000000000E+00 -0.74505805969E-08  0.93827000000E+00  0.93827000000E+00 0.  1.
     999902    2    1    2    0    0  0.85736838802E-02  0.67027473762E-02 -0.80853980162E-02  0.10303723992E+01  0.10302832002E+01 0.  0.
     999903    2    3    3    0    0  0.27769455135E-01  0.95097675720E-01  0.86298720521E-01  0.14071487927E+00  0.50383504416E-01 0.  0.
         14    1    1    2    0    0 -0.85736838802E-02 -0.67027473762E-02  0.80853980162E-02  0.13557600774E-01  0.00000000000E+00 0.  1.
     999901    1    3    3    0    0 -0.19195771255E-01 -0.88394928344E-01 -0.94384118537E-01  0.88965751996E+00  0.88000000000E+00 0.  1.
        -11    1    4    4    0    0  0.18289519657E-01  0.71557523126E-02  0.30015774397E-01  0.35873655433E-01  0.51100000000E-03 0. -1.
         11    1    4    4    0    0  0.94799354779E-02  0.87941923408E-01  0.56282946123E-01  0.10484122383E+00  0.51100000000E-03 0.  1.
</event>
<event>
 8    1  0.2039519E+004  0.1043930E+01  0.7957747E-01            NaN
         13   -1    0    0    0    0  0.00000000000E+00  0.00000000000E+00  0.74505805969E-08  0.10566000000E+00  0.10566000000E+00 0.  1.
     999900   -1    0    0    0    0 -0.00000000000E+00 -0.00000000000E+00 -0.74505805969E-08  0.93827000000E+00  0.93827000000E+00 0. -1.
     999902    2    1    2    0    0  0.49257413524E-03 -0.60207105860E-02  0.13243077628E-01  0.10293742214E+01  0.10292713039E+01 0.  0.
     999903    2    3    3    0    0  0.18710419814E-01 -0.11665210814E+00 -0.57902995085E-01  0.13941188531E+00  0.46099054023E-01 0.  0.
         14    1    1    2    0    0 -0.49257413524E-03  0.60207105860E-02 -0.13243077628E-01  0.14555778588E-01  0.00000000000E+00 0. -1.
     999901    1    3    3    0    0 -0.18217845679E-01  0.11063139755E+00  0.71146072713E-01  0.88996233611E+00  0.88000000000E+00 0.  1.
        -11    1    4    4    0    0  0.32063233312E-01 -0.74621753421E-01 -0.27121180539E-01  0.85628713460E-01  0.51100000000E-03 0. -1.
         11    1    4    4    0    0 -0.13352813498E-01 -0.42030354718E-01 -0.30781814546E-01  0.53783171845E-01  0.51100000000E-03 0.  1.
</event>
<event>
 8    1  0.2039519E+004  0.1043930E+01  0.7957747E-01            NaN
         13   -1    0    0    0    0  0.00000000000E+00  0.00000000000E+00  0.74505805969E-08  0.10566000000E+00  0.10566000000E+00 0.  1.
     999900   -1    0    0    0    0 -0.00000000000E+00 -0.00000000000E+00 -0.74505805969E-08  0.93827000000E+00  0.93827000000E+00 0.  1.
     999902    2    1    2    0    0 -0.10279419413E-01  0.28559819701E-02  0.92258287570E-02  0.10298254258E+01  0.10297288326E+01 0.  0.
     999903    2    3    3    0    0  0.32812957664E-01  0.83304652043E-01  0.98185974167E-01  0.14064442684E+00  0.46087026761E-01 0.  0.
         14    1    1    2    0    0  0.10279419413E-01 -0.28559819701E-02 -0.92258287570E-02  0.14104574178E-01  0.00000000000E+00 0. -1.
     999901    1    3    3    0    0 -0.43092377077E-01 -0.80448670072E-01 -0.88960145410E-01  0.88918099898E+00  0.88000000000E+00 0.  1.
        -11    1    4    4    0    0  0.11130576736E-01  0.55037721407E-01  0.86536722290E-01  0.10315961391E+00  0.51100000000E-03 0. -1.
         11    1    4    4    0    0  0.21682380928E-01  0.28266930635E-01  0.11649251877E-01  0.37484812932E-01  0.51100000000E-03 0.  1.
</event>
<event>
 8    1  0.2039519E+004  0.1043930E+01  0.7957747E-01            NaN
         13   -1    0    0    0    0  0.00000000000E+00  0.00000000000E+00  0.74505805969E-08  0.10566000000E+00  0.10566000000E+00 0. -1.
     999900   -1    0    0    0    0 -0.00000000000E+00 -0.00000000000E+00 -0.74505805969E-08  0.93827000000E+00  0.93827000000E+00 0.  1.
     999902    2    1    2    0    0  0.50688484829E-02 -0.63181672408E-02 -0.11350617445E-01  0.10299855036E+01  0.10298911053E+01 0.  0.
     999903    2    3    3    0    0 -0.11591149273E+00  0.58855786127E-01  0.18132446160E-01  0.13883280169E+00  0.45235865342E-01 0.  0.
         14    1    1    2    0    0 -0.50688484829E-02  0.63181672408E-02  0.11350617445E-01  0.13944496355E-01  0.00000000000E+00 0. -1.
     999901    1    3    3    0    0  0.12098034122E+00 -0.65173953368E-01 -0.29483063605E-01  0.89115270195E+00  0.88000000000E+00 0.  1.
        -11    1    4    4    0    0 -0.49111837631E-01  0.49309637482E-01  0.15497668960E-01  0.71301134691E-01  0.51100000000E-03 0.  1.
         11    1    4    4    0    0 -0.66799655104E-01  0.95461486445E-02  0.26347772003E-02  0.67531667000E-01  0.51100000000E-03 0. -1.
</event>
<event>
 8    1  0.2039519E+004  0.1043930E+01  0.7957747E-01            NaN
         13   -1    0    0    0    0  0.00000000000E+00  0.00000000000E+00  0.74505805969E-08  0.10566000000E+00  0.10566000000E+00 0.  1.
     999900   -1    0    0    0    0 -0.00000000000E+00 -0.00000000000E+00 -0.74505805969E-08  0.93827000000E+00  0.93827000000E+00 0. -1.
     999902    2    1    2    0    0  0.13203545044E-01  0.46713487022E-02 -0.12317350688E-02  0.10298704029E+01  0.10297744289E+01 0.  0.
     999903    2    3    3    0    0  0.30275470107E-01 -0.12641685851E+00  0.25521318426E-01  0.13959443746E+00  0.44016395463E-01 0.  0.
         14    1    1    2    0    0 -0.13203545044E-01 -0.46713487022E-02  0.12317350688E-02  0.14059597138E-01  0.00000000000E+00 0. -1.
     999901    1    3    3    0    0 -0.17071925063E-01  0.13108820722E+00 -0.26753053495E-01  0.89027596540E+00  0.88000000000E+00 0.  1.
        -11    1    4    4    0    0 -0.84460426835E-02 -0.15937245841E-01  0.12172204463E-01  0.21765916579E-01  0.51100000000E-03 0. -1.
         11    1    4    4    0    0  0.38721512790E-01 -0.11047961267E+00  0.13349113963E-01  0.11782852088E+00  0.51100000000E-03 0.  1.
</event>
<event>
 8    1  0.2039519E+004  0.1043930E+01  0.7957747E-01            NaN
         13   -1    0    0    0    0  0.00000000000E+00  0.00000000000E+00  0.74505805969E-08  0.10566000000E+00  0.10566000000E+00 0.  1.
     999900   -1    0    0    0    0 -0.00000000000E+00 -0.00000000000E+00 -0.74505805969E-08  0.93827000000E+00  0.93827000000E+00 0. -1.
     999902    2    1    2    0    0  0.12732030455E-02 -0.67962549851E-02  0.11872533517E-01  0.10301907431E+01  0.10300991214E+01 0.  0.
     999903    2    3    3    0    0  0.54498417898E-01  0.11218454331E-01 -0.11888838905E+00  0.13875601632E+00  0.44976124156E-01 0.  0.
         14    1    1    2    0    0 -0.12732030455E-02  0.67962549851E-02 -0.11872533517E-01  0.13739256892E-01  0.00000000000E+00 0. -1.
     999901    1    3    3    0    0 -0.53225214853E-01 -0.18014709316E-01  0.13076092257E+00  0.89143472679E+00  0.88000000000E+00 0.  1.
        -11    1    4    4    0    0  0.12678223251E-01  0.24401576507E-01 -0.50822095683E-01  0.57786856736E-01  0.51100000000E-03 0. -1.
         11    1    4    4    0    0  0.41820194647E-01 -0.13183122175E-01 -0.68066293366E-01  0.80969159587E-01  0.51100000000E-03 0.  1.
</event>
<event>
 8    1  0.2897314E+004  0.1043930E+01  0.7957747E-01            NaN
         13   -1    0    0    0    0  0.00000000000E+00  0.00000000000E+00  0.74505805969E-08  0.10566000000E+00  0.10566000000E+00 0. -1.
     999900   -1    0    0    0    0 -0.00000000000E+00 -0.00000000000E+00 -0.74505805969E-08  0.93827000000E+00  0.93827000000E+00 0. -1.
     999902    2    1    2    0    0 -0.12020211509E-01  0.85392523730E-02  0.44027484114E-02  0.10285420661E+01  0.10284269509E+01 0.  0.
     999903    2    3    3    0    0  0.10455272741E-01 -0.54235825816E-01  0.11489441074E+00  0.13912975156E+00  0.55727234080E-01 0.  0.
         14    1    1    2    0    0  0.12020211509E-01 -0.85392523730E-02 -0.44027484114E-02  0.15387933889E-01  0.00000000000E+00 0.  1.
     999901    1    3    3    0    0 -0.22475484250E-01  0.62775078189E-01 -0.11049166233E+00  0.88941231455E+00  0.88000000000E+00 0. -1.
        -11    1    4    4    0    0  0.27396188341E-01 -0.43439548767E-01  0.51936153613E-01  0.73042252880E-01  0.51100000000E-03 0.  1.
         11    1    4    4    0    0 -0.16940915600E-01 -0.10796277049E-01  0.62958257131E-01  0.66087498677E-01  0.51100000000E-03 0. -1.
</event>
<event>
 8    1  0.2039519E+004  0.1043930E+01  0.7957747E-01            NaN
         13   -1    0    0    0    0  0.00000000000E+00  0.00000000000E+00  0.74505805969E-08  0.10566000000E+00  0.10566000000E+00 0. -1.
     999900   -1    0    0    0    0 -0.00000000000E+00 -0.00000000000E+00 -0.74505805969E-08  0.93827000000E+00  0.93827000000E+00 0.  1.
     999902    2    1    2    0    0  0.82218200601E-02 -0.96558193788E-02 -0.16158026503E-02  0.10311454785E+01  0.10310662218E+01 0.  0.
     999903    2    3    3    0    0 -0.24065188415E-01 -0.41920030909E-01 -0.12505895273E+00  0.14135806476E+00  0.44787705117E-01 0.  0.
         14    1    1    2    0    0 -0.82218200601E-02  0.96558193788E-02  0.16158026503E-02  0.12784521547E-01  0.00000000000E+00 0. -1.
     999901    1    3    3    0    0  0.32287008475E-01  0.32264211530E-01  0.12344315008E+00  0.88978741369E+00  0.88000000000E+00 0. -1.
        -11    1    4    4    0    0 -0.30185204845E-01 -0.10042044621E-01 -0.46370920317E-01  0.56236221635E-01  0.51100000000E-03 0. -1.
         11    1    4    4    0    0  0.61200164295E-02 -0.31877986289E-01 -0.78688032415E-01  0.85121843127E-01  0.51100000000E-03 0.  1.
</event>
<event>
 8    1  0.2039519E+004  0.1043930E+01  0.7957747E-01            NaN
         13   -1    0    0    0    0  0.00000000000E+00  0.00000000000E+00  0.74505805969E-08  0.10566000000E+00  0.10566000000E+00 0. -1.
     999900   -1    0    0    0    0 -0.00000000000E+00 -0.00000000000E+00 -0.74505805969E-08  0.93827000000E+00  0.93827000000E+00 0. -1.
     999902    2    1    2    0    0 -0.65649549531E-02  0.11117547631E-01  0.53590157008E-02  0.10299508173E+01  0.10298559455E+01 0.  0.
     999903    2    3    3    0    0  0.11271693723E+00 -0.86331979550E-02 -0.66797597451E-01  0.13875788728E+00  0.44857465491E-01 0.  0.
         14    1    1    2    0    0  0.65649549531E-02 -0.11117547631E-01 -0.53590157008E-02  0.13979182671E-01  0.00000000000E+00 0.  1.
     999901    1    3    3    0    0 -0.11928189219E+00  0.19750745586E-01  0.72156613152E-01  0.89119293005E+00  0.88000000000E+00 0.  1.
        -11    1    4    4    0    0  0.56559342280E-02  0.92937757018E-02  0.72927457458E-03  0.10915897636E-01  0.51100000000E-03 0. -1.
         11    1    4    4    0    0  0.10706100300E+00 -0.17926973657E-01 -0.67526872025E-01  0.12784198964E+00  0.51100000000E-03 0.  1.
</event>
<event>
 8    1  0.2039519E+004  0.1043930E+01  0.7957747E-01            NaN
         13   -1    0    0    0    0  0.00000000000E+00  0.00000000000E+00  0.74505805969E-08  0.10566000000E+00  0.10566000000E+00 0. -1.
     999900   -1    0    0    0    0 -0.00000000000E+00 -0.00000000000E+00 -0.74505805969E-08  0.93827000000E+00  0.93827000000E+00 0.  1.
     999902    2    1    2    0    0 -0.37749450278E-02  0.11180409797E-01  0.68335916249E-02  0.10302936608E+01  0.10302034157E+01 0.  0.
     999903    2    3    3    0    0  0.52031871324E-01 -0.91653728667E-01 -0.77858257595E-01  0.13851904232E+00  0.44920988379E-01 0.  0.
         14    1    1    2    0    0  0.37749450278E-02 -0.11180409797E-01 -0.68335916249E-02  0.13636339233E-01  0.00000000000E+00 0.  1.
     999901    1    3    3    0    0 -0.55806816352E-01  0.10283413846E+00  0.84691849220E-01  0.89177461845E+00  0.88000000000E+00 0. -1.
        -11    1    4    4    0    0  0.32715524009E-01 -0.45952890471E-01 -0.67254833851E-01  0.87780678120E-01  0.51100000000E-03 0.  1.
         11    1    4    4    0    0  0.19316347315E-01 -0.45700838196E-01 -0.10603423744E-01  0.50738364198E-01  0.51100000000E-03 0. -1.
</event>
<event>
 8    1  0.2039519E+004  0.1043930E+01  0.7957747E-01            NaN
         13   -1    0    0    0    0  0.00000000000E+00  0.00000000000E+00  0.74505805969E-08  0.10566000000E+00  0.10566000000E+00 0.  1.
     999900   -1    0    0    0    0 -0.00000000000E+00 -0.00000000000E+00 -0.74505805969E-08  0.93827000000E+00  0.93827000000E+00 0.  1.
     999902    2    1    2    0    0 -0.10489083742E-01 -0.33044393566E-02 -0.44455985979E-02  0.10320681475E+01  0.10319999795E+01 0.  0.
     999903    2    3    3    0    0  0.12223852186E+00  0.29144476949E-01 -0.44653960735E-01  0.14061637550E+00  0.44579502994E-01 0.  0.
         14    1    1    2    0    0  0.10489083742E-01  0.33044393566E-02  0.44455985979E-02  0.11861852473E-01  0.00000000000E+00 0.  1.
     999901    1    3    3    0    0 -0.13272760560E+00 -0.32448916305E-01  0.40208362137E-01  0.89145177202E+00  0.88000000000E+00 0.  1.
        -11    1    4    4    0    0  0.53010549216E-01  0.33329828438E-01 -0.31220076837E-01  0.69971066238E-01  0.51100000000E-03 0. -1.
         11    1    4    4    0    0  0.69227972644E-01 -0.41853514892E-02 -0.13433883898E-01  0.70645309265E-01  0.51100000000E-03 0.  1.
</event>
<event>
 8    1  0.2039519E+004  0.1043930E+01  0.7957747E-01            NaN
         13   -1    0    0    0    0  0.00000000000E+00  0.00000000000E+00  0.74505805969E-08  0.10566000000E+00  0.10566000000E+00 0. -1.
     999900   -1    0    0    0    0 -0.00000000000E+00 -0.00000000000E+00 -0.74505805969E-08  0.93827000000E+00  0.93827000000E+00 0. -1.
     999902    2    1    2    0    0 -0.65558639113E-02 -0.82014967211E-02  0.60056821829E-02  0.10318340454E+01  0.10317631439E+01 0.  0.
     999903    2    3    3    0    0  0.71658905960E-01  0.17879281481E-02  0.11350335511E+00  0.14179298534E+00  0.45651326178E-01 0.  0.
         14    1    1    2    0    0  0.65558639113E-02  0.82014967211E-02 -0.60056821829E-02  0.12095954637E-01  0.00000000000E+00 0.  1.
     999901    1    3    3    0    0 -0.78214769871E-01 -0.99894248691E-02 -0.10749767292E+00  0.89004106002E+00  0.88000000000E+00 0. -1.
        -11    1    4    4    0    0  0.32123469411E-01  0.13949100916E-02  0.14674737270E-01  0.35347872582E-01  0.51100000000E-03 0. -1.
         11    1    4    4    0    0  0.39535436549E-01  0.39301805643E-03  0.98828617837E-01  0.10644511276E+00  0.51100000000E-03 0.  1.
</event>
<event>
 8    1  0.2039519E+004  0.1043930E+01  0.7957747E-01            NaN
         13   -1    0    0    0    0  0.00000000000E+00  0.00000000000E+00  0.74505805969E-08  0.10566000000E+00  0.10566000000E+00 0. -1.
     999900   -1    0    0    0    0 -0.00000000000E+00 -0.00000000000E+00 -0.74505805969E-08  0.93827000000E+00  0.93827000000E+00 0.  1.
     999902    2    1    2    0    0 -0.32659345552E-02 -0.77951454060E-02  0.11270280989E-01  0.10298427769E+01  0.10297464228E+01 0.  0.
     999903    2    3    3    0    0  0.15202920599E-01  0.11894346611E+00  0.55450616721E-01  0.13947449563E+00  0.44717861222E-01 0.  0.
         14    1    1    2    0    0  0.32659345552E-02  0.77951454060E-02 -0.11270280989E-01  0.14087223076E-01  0.00000000000E+00 0.  1.
     999901    1    3    3    0    0 -0.18468855154E-01 -0.12673861152E+00 -0.44180335732E-01  0.89036828129E+00  0.88000000000E+00 0. -1.
        -11    1    4    4    0    0 -0.92332557580E-02  0.19875595096E-01 -0.26062252075E-02  0.22075910471E-01  0.51100000000E-03 0.  1.
         11    1    4    4    0    0  0.24436176357E-01  0.99067871017E-01  0.58056841928E-01  0.11739858516E+00  0.51100000000E-03 0. -1.
</event>
<event>
 8    1  0.2039519E+004  0.1043930E+01  0.7957747E-01            NaN
         13   -1    0    0    0    0  0.00000000000E+00  0.00000000000E+00  0.74505805969E-08  0.10566000000E+00  0.10566000000E+00 0. -1.
     999900   -1    0    0    0    0 -0.00000000000E+00 -0.00000000000E+00 -0.74505805969E-08  0.93827000000E+00  0.93827000000E+00 0.  1.
     999902    2    1    2    0    0  0.47668046207E-02 -0.10650973706E-01 -0.72524933882E-02  0.10301908469E+01  0.10300992266E+01 0.  0.
     999903    2    3    3    0    0 -0.25086751577E-02 -0.13398656219E+00  0.16989230935E-02  0.14151501859E+00  0.45441411157E-01 0.  0.
         14    1    1    2    0    0 -0.47668046207E-02  0.10650973706E-01  0.72524933882E-02  0.13739153086E-01  0.00000000000E+00 0. -1.
     999901    1    3    3    0    0  0.72754797784E-02  0.12333558848E+00 -0.89514164817E-02  0.88867582833E+00  0.88000000000E+00 0. -1.
        -11    1    4    4    0    0 -0.38878168559E-02  0.10811375247E-02 -0.47893789833E-02  0.62835698689E-02  0.51100000000E-03 0.  1.
         11    1    4    4    0    0  0.13791416981E-02 -0.13506769971E+00  0.64883020768E-02  0.13523144872E+00  0.51100000000E-03 0. -1.
</event>
<event>
 8    1  0.2184878E+004  0.1043930E+01  0.7957747E-01            NaN
         13   -1    0    0    0    0  0.00000000000E+00  0.00000000000E+00  0.74505805969E-08  0.10566000000E+00  0.10566000000E+00 0. -1.
     999900   -1    0    0    0    0 -0.00000000000E+00 -0.00000000000E+00 -0.74505805969E-08  0.93827000000E+00  0.93827000000E+00 0. -1.
     999902    2    1    2    0    0  0.10174632483E-01 -0.88476260384E-02  0.10061259436E-02  0.10304090562E+01  0.10303203420E+01 0.  0.
     999903    2    3    3    0    0 -0.48936019229E-02 -0.83133366837E-03  0.13333974516E+00  0.14035091233E+00  0.43523011121E-01 0.  0.
         14    1    1    2    0    0 -0.10174632483E-01  0.88476260384E-02 -0.10061259436E-02  0.13520943831E-01  0.00000000000E+00 0.  1.
     999901    1    3    3    0    0  0.15068234406E-01 -0.80162923701E-02 -0.13233361922E+00  0.89005814384E+00  0.88000000000E+00 0. -1.
        -11    1    4    4    0    0 -0.78951326817E-02 -0.20997121725E-01  0.55022057931E-01  0.59421378482E-01  0.51100000000E-03 0.  1.
         11    1    4    4    0    0  0.30015307588E-02  0.20165788056E-01  0.78317687233E-01  0.80929533851E-01  0.51100000000E-03 0. -1.
</event>
<event>
 8    1  0.2399706E+004  0.1043930E+01  0.7957747E-01            NaN
         13   -1    0    0    0    0  0.00000000000E+00  0.00000000000E+00  0.74505805969E-08  0.10566000000E+00  0.10566000000E+00 0.  1.
     999900   -1    0    0    0    0 -0.00000000000E+00 -0.00000000000E+00 -0.74505805969E-08  0.93827000000E+00  0.93827000000E+00 0.  1.
     999902    2    1    2    0    0  0.12963675595E-01  0.79933091106E-03  0.13075941058E-01  0.10254996975E+01  0.10253340693E+01 0.  0.
     999903    2    3    3    0    0 -0.69627651239E-01 -0.57614166698E-01  0.91243729610E-01  0.13626200875E+00  0.45546841972E-01 0.  0.
         14    1    1    2    0    0 -0.12963675595E-01 -0.79933091106E-03 -0.13075941058E-01  0.18430302476E-01  0.00000000000E+00 0. -1.
     999901    1    3    3    0    0  0.82591326834E-01  0.58413497609E-01 -0.78167788552E-01  0.88923768878E+00  0.88000000000E+00 0.  1.
        -11    1    4    4    0    0 -0.43677638591E-01 -0.81276695410E-02  0.31538098670E-01  0.54485850583E-01  0.51100000000E-03 0.  1.
         11    1    4    4    0    0 -0.25950012648E-01 -0.49486497157E-01  0.59705630940E-01  0.81776158165E-01  0.51100000000E-03 0. -1.
</event>
<event>
 8    1  0.2039519E+004  0.1043930E+01  0.7957747E-01            NaN
         13   -1    0    0    0    0  0.00000000000E+00  0.00000000000E+00  0.74505805969E-08  0.10566000000E+00  0.10566000000E+00 0.  1.
     999900   -1    0    0    0    0 -0.00000000000E+00 -0.00000000000E+00 -0.74505805969E-08  0.93827000000E+00  0.93827000000E+00 0.  1.
     999902    2    1    2    0    0  0.11946502127E-01  0.44472468321E-02  0.50577439515E-02  0.10302158580E+01  0.10301245732E+01 0.  0.
     999903    2    3    3    0    0  0.46542099306E-01 -0.78035776795E-02  0.12547754648E+00  0.14125699117E+00  0.44518086776E-01 0.  0.
         14    1    1    2    0    0 -0.11946502127E-01 -0.44472468321E-02 -0.50577439515E-02  0.13714142019E-01  0.00000000000E+00 0. -1.
     999901    1    3    3    0    0 -0.34595597180E-01  0.12250824512E-01 -0.12041980253E+00  0.88895886681E+00  0.88000000000E+00 0.  1.
        -11    1    4    4    0    0  0.30374262808E-01 -0.39090709285E-02  0.11983614605E+00  0.12368847843E+00  0.51100000000E-03 0.  1.
         11    1    4    4    0    0  0.16167836498E-01 -0.38945067510E-02  0.56414004353E-02  0.17568512735E-01  0.51100000000E-03 0. -1.
</event>
<event>
 8    1  0.2039519E+004  0.1043930E+01  0.7957747E-01            NaN
         13   -1    0    0    0    0  0.00000000000E+00  0.00000000000E+00  0.74505805969E-08  0.10566000000E+00  0.10566000000E+00 0.  1.
     999900   -1    0    0    0    0 -0.00000000000E+00 -0.00000000000E+00 -0.74505805969E-08  0.93827000000E+00  0.93827000000E+00 0. -1.
     999902    2    1    2    0    0 -0.13774070425E-01 -0.13491923769E-01 -0.68225983938E-02  0.10234774972E+01  0.10232731221E+01 0.  0.
     999903    2    3    3    0    0  0.10335046335E+00  0.37438917388E-01  0.56428294343E-01  0.13201085033E+00  0.46472802730E-01 0.  0.
         14    1    1    2    0    0  0.13774070425E-01  0.13491923769E-01  0.68225983938E-02  0.20452502827E-01  0.00000000000E+00 0.  1.
     999901    1    3    3    0    0 -0.11712453378E+00 -0.50930841156E-01 -0.63250892737E-01  0.89146664684E+00  0.88000000000E+00 0.  1.
        -11    1    4    4    0    0  0.93568570317E-01  0.42481533180E-01  0.36153583914E-01  0.10893622338E+00  0.51100000000E-03 0.  1.
         11    1    4    4    0    0  0.97818930341E-02 -0.50426157918E-02  0.20274710428E-01  0.23074626959E-01  0.51100000000E-03 0. -1.
</event>
<event>
 8    1  0.2039519E+004  0.1043930E+01  0.7957747E-01            NaN
         13   -1    0    0    0    0  0.00000000000E+00  0.00000000000E+00  0.74505805969E-08  0.10566000000E+00  0.10566000000E+00 0.  1.
     999900   -1    0    0    0    0 -0.00000000000E+00 -0.00000000000E+00 -0.74505805969E-08  0.93827000000E+00  0.93827000000E+00 0.  1.
     999902    2    1    2    0    0 -0.11912806385E-01 -0.69452049003E-02 -0.43703909902E-02  0.10294644843E+01  0.10293628482E+01 0.  0.
     999903    2    3    3    0    0 -0.12012471871E+00  0.57369212732E-01 -0.72312204667E-02  0.14050197293E+00  0.44354697980E-01 0.  0.
         14    1    1    2    0    0  0.11912806385E-01  0.69452049003E-02  0.43703909902E-02  0.14465515701E-01  0.00000000000E+00 0. -1.
     999901    1    3    3    0    0  0.10821191232E+00 -0.64314417632E-01  0.28608294765E-02  0.88896251137E+00  0.88000000000E+00 0.  1.
        -11    1    4    4    0    0 -0.62313224356E-01  0.67036408002E-02 -0.10554572917E-01  0.63557350952E-01  0.51100000000E-03 0. -1.
         11    1    4    4    0    0 -0.57811494350E-01  0.50665571931E-01  0.33233524501E-02  0.76944621973E-01  0.51100000000E-03 0.  1.
</event>
<event>
 8    1  0.2039519E+004  0.1043930E+01  0.7957747E-01            NaN
         13   -1    0    0    0    0  0.00000000000E+00  0.00000000000E+00  0.74505805969E-08  0.10566000000E+00  0.10566000000E+00 0.  1.
     999900   -1    0    0    0    0 -0.00000000000E+00 -0.00000000000E+00 -0.74505805969E-08  0.93827000000E+00  0.93827000000E+00 0. -1.
     999902    2    1    2    0    0  0.12998281138E-01 -0.39352576126E-02  0.32883847421E-02  0.10299566311E+01  0.10298618387E+01 0.  0.
     999903    2    3    3    0    0  0.72109057003E-01 -0.61422064642E-02  0.11568063053E+00  0.14083854479E+00  0.34871831269E-01 0.  0.
         14    1    1    2    0    0 -0.12998281138E-01  0.39352576126E-02 -0.32883847421E-02  0.13973368929E-01  0.00000000000E+00 0.  1.
     999901    1    3    3    0    0 -0.59110775865E-01  0.22069488516E-02 -0.11239224579E+00  0.88911808629E+00  0.88000000000E+00 0. -1.
        -11    1    4    4    0    0  0.16814933908E-01  0.69987317813E-02  0.53873481545E-01  0.56871235116E-01  0.51100000000E-03 0.  1.
         11    1    4    4    0    0  0.55294123095E-01 -0.13140938245E-01  0.61807148982E-01  0.83967309669E-01  0.51100000000E-03 0. -1.
</event>
<event>
 8    1  0.2039519E+004  0.1043930E+01  0.7957747E-01            NaN
         13   -1    0    0    0    0  0.00000000000E+00  0.00000000000E+00  0.74505805969E-08  0.10566000000E+00  0.10566000000E+00 0. -1.
     999900   -1    0    0    0    0 -0.00000000000E+00 -0.00000000000E+00 -0.74505805969E-08  0.93827000000E+00  0.93827000000E+00 0.  1.
     999902    2    1    2    0    0 -0.99569877295E-02 -0.87694043400E-02 -0.87401613193E-03  0.10306330845E+01  0.10305473046E+01 0.  0.
     999903    2    3    3    0    0 -0.13058586022E+00  0.19195414284E-01 -0.24364140631E-01  0.14165325240E+00  0.45286882739E-01 0.  0.
         14    1    1    2    0    0  0.99569877295E-02  0.87694043400E-02  0.87401613193E-03  0.13296915482E-01  0.00000000000E+00 0.  1.
     999901    1    3    3    0    0  0.12062887249E+00 -0.27964818624E-01  0.23490124499E-01  0.88897983212E+00  0.88000000000E+00 0. -1.
        -11    1    4    4    0    0 -0.25071868260E-01  0.18710263521E-01  0.59932612147E-02  0.31856755014E-01  0.51100000000E-03 0. -1.
         11    1    4    4    0    0 -0.10551399196E+00  0.48515076395E-03 -0.30357401845E-01  0.10979649739E+00  0.51100000000E-03 0.  1.
</event>
<event>
 8    1  0.2039519E+004  0.1043930E+01  0.7957747E-01            NaN
         13   -1    0    0    0    0  0.00000000000E+00  0.00000000000E+00  0.74505805969E-08  0.10566000000E+00  0.10566000000E+00 0.  1.
     999900   -1    0    0    0    0 -0.00000000000E+00 -0.00000000000E+00 -0.74505805969E-08  0.93827000000E+00  0.93827000000E+00 0. -1.
     999902    2    1    2    0    0 -0.12230194795E-01 -0.51532094177E-03 -0.77460584995E-02  0.10294439846E+01  0.10293420582E+01 0.  0.
     999903    2    3    3    0    0 -0.10769763229E-01  0.77837067209E-01 -0.10715863667E+00  0.14038600543E+00  0.45284216649E-01 0.  0.
         14    1    1    2    0    0  0.12230194795E-01  0.51532094177E-03  0.77460584995E-02  0.14486015417E-01  0.00000000000E+00 0. -1.
     999901    1    3    3    0    0 -0.14604315659E-02 -0.78352388151E-01  0.99412578168E-01  0.88905797915E+00  0.88000000000E+00 0.  1.
        -11    1    4    4    0    0 -0.24415533977E-01  0.24302309612E-01 -0.51503960778E-01  0.61964825899E-01  0.51100000000E-03 0. -1.
         11    1    4    4    0    0  0.13645770748E-01  0.53534757597E-01 -0.55654675890E-01  0.78421179535E-01  0.51100000000E-03 0.  1.
</event>
<event>
 8    1  0.2039519E+004  0.1043930E+01  0.7957747E-01            NaN
         13   -1    0    0    0    0  0.00000000000E+00  0.00000000000E+00  0.74505805969E-08  0.10566000000E+00  0.10566000000E+00 0.  1.
     999900   -1    0    0    0    0 -0.00000000000E+00 -0.00000000000E+00 -0.74505805969E-08  0.93827000000E+00  0.93827000000E+00 0. -1.
     999902    2    1    2    0    0 -0.45036661543E-03 -0.13773595886E-01 -0.20434347177E-02  0.10299983670E+01  0.10299041439E+01 0.  0.
     999903    2    3    3    0    0 -0.14296516816E-01  0.61892968611E-01  0.11505948744E+00  0.13891462273E+00  0.44982850067E-01 0.  0.
         14    1    1    2    0    0  0.45036661543E-03  0.13773595886E-01  0.20434347177E-02  0.13931633040E-01  0.00000000000E+00 0. -1.
     999901    1    3    3    0    0  0.13846150201E-01 -0.75666564497E-01 -0.11710292216E+00  0.89108374423E+00  0.88000000000E+00 0. -1.
        -11    1    4    4    0    0 -0.22647194200E-01  0.37960688712E-01  0.10022505502E+00  0.10954100633E+00  0.51100000000E-03 0. -1.
         11    1    4    4    0    0  0.83506773835E-02  0.23932279899E-01  0.14834432419E-01  0.29373616395E-01  0.51100000000E-03 0.  1.
</event>
<event>
 8    1  0.2039519E+004  0.1043930E+01  0.7957747E-01            NaN
         13   -1    0    0    0    0  0.00000000000E+00  0.00000000000E+00  0.74505805969E-08  0.10566000000E+00  0.10566000000E+00 0. -1.
     999900   -1    0    0    0    0 -0.00000000000E+00 -0.00000000000E+00 -0.74505805969E-08  0.93827000000E+00  0.93827000000E+00 0. -1.
     999902    2    1    2    0    0 -0.12985657788E-01  0.14610445003E-03 -0.47521677209E-02  0.10301013431E+01  0.10300085171E+01 0.  0.
     999903    2    3    3    0    0  0.12375590461E+00  0.37795564159E-01  0.17150335631E-01  0.13847616601E+00  0.46232952995E-01 0.  0.
         14    1    1    2    0    0  0.12985657788E-01 -0.14610445003E-03  0.47521677209E-02  0.13828656940E-01  0.00000000000E+00 0. -1.
     999901    1    3    3    0    0 -0.13674156240E+00 -0.37649459709E-01 -0.21902503352E-01  0.89162517705E+00  0.88000000000E+00 0. -1.
        -11    1    4    4    0    0  0.11424894386E+00  0.30664457840E-01  0.84959669138E-03  0.11829671628E+00  0.51100000000E-03 0.  1.
         11    1    4    4    0    0  0.95069607516E-02  0.71311063182E-02  0.16300738940E-01  0.20179449721E-01  0.51100000000E-03 0. -1.
</event>
<event>
 8    1  0.2039519E+004  0.1043930E+01  0.7957747E-01            NaN
         13   -1    0    0    0    0  0.00000000000E+00  0.00000000000E+00  0.74505805969E-08  0.10566000000E+00  0.10566000000E+00 0.  1.
     999900   -1    0    0    0    0 -0.00000000000E+00 -0.00000000000E+00 -0.74505805969E-08  0.93827000000E+00  0.93827000000E+00 0.  1.
     999902    2    1    2    0    0 -0.13164881339E-01  0.67272171750E-03  0.50497826231E-02  0.10298138051E+01  0.10297170515E+01 0.  0.
     999903    2    3    3    0    0 -0.83005086878E-01  0.10241049479E+00 -0.23033786210E-01  0.14075986090E+00  0.43646640676E-01 0.  0.
         14    1    1    2    0    0  0.13164881339E-01 -0.67272171750E-03 -0.50497826231E-02  0.14116194945E-01  0.00000000000E+00 0.  1.
     999901    1    3    3    0    0  0.69840205539E-01 -0.10173777307E+00  0.28083568833E-01  0.88905394416E+00  0.88000000000E+00 0. -1.
        -11    1    4    4    0    0 -0.45713361268E-02  0.35208334751E-01 -0.39798601008E-02  0.35729880455E-01  0.51100000000E-03 0. -1.
         11    1    4    4    0    0 -0.78433750751E-01  0.67202160040E-01 -0.19053926109E-01  0.10502998044E+00  0.51100000000E-03 0.  1.
</event>
<event>
 8    1  0.2039519E+004  0.1043930E+01  0.7957747E-01            NaN
         13   -1    0    0    0    0  0.00000000000E+00  0.00000000000E+00  0.74505805969E-08  0.10566000000E+00  0.10566000000E+00 0.  1.
     999900   -1    0    0    0    0 -0.00000000000E+00 -0.00000000000E+00 -0.74505805969E-08  0.93827000000E+00  0.93827000000E+00 0.  1.
     999902    2    1    2    0    0 -0.89803465974E-02  0.47920775304E-03 -0.13137660275E-01  0.10280091212E+01  0.10278858297E+01 0.  0.
     999903    2    3    3    0    0  0.83667551505E-01  0.67750728035E-01 -0.74514492566E-01  0.13847204718E+00  0.45074138087E-01 0.  0.
         14    1    1    2    0    0  0.89803465974E-02 -0.47920775304E-03  0.13137660275E-01  0.15920878826E-01  0.00000000000E+00 0.  1.
     999901    1    3    3    0    0 -0.92647898103E-01 -0.67271520282E-01  0.61376832291E-01  0.88953707399E+00  0.88000000000E+00 0. -1.
        -11    1    4    4    0    0  0.50077766322E-01  0.66261710625E-01 -0.51636462743E-01  0.97800727913E-01  0.51100000000E-03 0. -1.
         11    1    4    4    0    0  0.33589785183E-01  0.14890174103E-02 -0.22878029823E-01  0.40671319269E-01  0.51100000000E-03 0.  1.
</event>
<event>
 8    1  0.2039519E+004  0.1043930E+01  0.7957747E-01            NaN
         13   -1    0    0    0    0  0.00000000000E+00  0.00000000000E+00  0.74505805969E-08  0.10566000000E+00  0.10566000000E+00 0.  1.
     999900   -1    0    0    0    0 -0.00000000000E+00 -0.00000000000E+00 -0.74505805969E-08  0.93827000000E+00  0.93827000000E+00 0. -1.
     999902    2    1    2    0    0  0.13039181174E-01  0.10033625008E-02  0.81694441596E-02  0.10285103113E+01  0.10283947168E+01 0.  0.
     999903    2    3    3    0    0 -0.31719735436E-01  0.31688676296E-01 -0.12186936949E+00  0.13730043581E+00  0.44597675202E-01 0.  0.
         14    1    1    2    0    0 -0.13039181174E-01 -0.10033625008E-02 -0.81694441596E-02  0.15419688709E-01  0.00000000000E+00 0.  1.
     999901    1    3    3    0    0  0.44758916611E-01 -0.30685313796E-01  0.13003881365E+00  0.89120987548E+00  0.88000000000E+00 0.  1.
        -11    1    4    4    0    0 -0.70789756710E-02  0.34802441545E-01 -0.50570114791E-01  0.61797406621E-01  0.51100000000E-03 0.  1.
         11    1    4    4    0    0 -0.24640759765E-01 -0.31137652492E-02 -0.71299254695E-01  0.75503029190E-01  0.51100000000E-03 0. -1.
</event>
<event>
 8    1  0.2039519E+004  0.1043930E+01  0.7957747E-01            NaN
         13   -1    0    0    0    0  0.00000000000E+00  0.00000000000E+00  0.74505805969E-08  0.10566000000E+00  0.10566000000E+00 0.  1.
     999900   -1    0    0    0    0 -0.00000000000E+00 -0.00000000000E+00 -0.74505805969E-08  0.93827000000E+00  0.93827000000E+00 0.  1.
     999902    2    1    2    0    0  0.68049574385E-02  0.80101860049E-02 -0.88491332318E-02  0.10301903608E+01  0.10300987340E+01 0.  0.
     999903    2    3    3    0    0  0.63204586617E-01 -0.19292283413E-01 -0.11654772549E+00  0.14141292537E+00  0.45246338802E-01 0.  0.
         14    1    1    2    0    0 -0.68049574385E-02 -0.80101860049E-02  0.88491332318E-02  0.13739639170E-01  0.00000000000E+00 0.  1.
     999901    1    3    3    0    0 -0.56399629178E-01  0.27302469418E-01  0.10769859226E+00  0.88877743546E+00  0.88000000000E+00 0. -1.
        -11    1    4    4    0    0  0.43368804797E-01 -0.34129395919E-01 -0.83990812804E-01  0.10050067986E+00  0.51100000000E-03 0.  1.
         11    1    4    4    0    0  0.19835781820E-01  0.14837112506E-01 -0.32556912690E-01  0.40912245512E-01  0.51100000000E-03 0. -1.
</event>
<event>
 8    1  0.2039519E+004  0.1043930E+01  0.7957747E-01            NaN
         13   -1    0    0    0    0  0.00000000000E+00  0.00000000000E+00  0.74505805969E-08  0.10566000000E+00  0.10566000000E+00 0.  1.
     999900   -1    0    0    0    0 -0.00000000000E+00 -0.00000000000E+00 -0.74505805969E-08  0.93827000000E+00  0.93827000000E+00 0.  1.
     999902    2    1    2    0    0  0.54551895391E-02 -0.12934418764E-01  0.12180550370E-03  0.10298917267E+01  0.10297960456E+01 0.  0.
     999903    2    3    3    0    0  0.68178989833E-01 -0.61786500538E-01 -0.96867812848E-01  0.14100040199E+00  0.45075424472E-01 0.  0.
         14    1    1    2    0    0 -0.54551895391E-02  0.12934418764E-01 -0.12180550370E-03  0.14038273336E-01  0.00000000000E+00 0. -1.
     999901    1    3    3    0    0 -0.62723800294E-01  0.48852081774E-01  0.96989618352E-01  0.88889132468E+00  0.88000000000E+00 0. -1.
        -11    1    4    4    0    0  0.26241470611E-01 -0.35679000590E-01 -0.17732981673E-01  0.47710854351E-01  0.51100000000E-03 0. -1.
         11    1    4    4    0    0  0.41937519222E-01 -0.26107499948E-01 -0.79134831176E-01  0.93289547637E-01  0.51100000000E-03 0.  1.
</event>
<event>
 8    1  0.2039519E+004  0.1043930E+01  0.7957747E-01            NaN
         13   -1    0    0    0    0  0.00000000000E+00  0.00000000000E+00  0.74505805969E-08  0.10566000000E+00  0.10566000000E+00 0.  1.
     999900   -1    0    0    0    0 -0.00000000000E+00 -0.00000000000E+00 -0.74505805969E-08  0.93827000000E+00  0.93827000000E+00 0. -1.
     999902    2    1    2    0    0  0.52055084192E-02  0.13046685305E-01  0.29990237560E-02  0.10295665931E+01  0.10294663968E+01 0.  0.
     999903    2    3    3    0    0 -0.72705546006E-02  0.98049945916E-03  0.13277061007E+00  0.13988018224E+00  0.43412073693E-01 0.  0.
         14    1    1    2    0    0 -0.52055084192E-02 -0.13046685305E-01 -0.29990237560E-02  0.14363406937E-01  0.00000000000E+00 0. -1.
     999901    1    3    3    0    0  0.12476063020E-01  0.12066185846E-01 -0.12977158631E+00  0.88968641082E+00  0.88000000000E+00 0. -1.
        -11    1    4    4    0    0  0.11709999976E-01  0.91809025414E-02  0.18471590379E-01  0.23724962446E-01  0.51100000000E-03 0. -1.
         11    1    4    4    0    0 -0.18980554576E-01 -0.82004030823E-02  0.11429901969E+00  0.11615521979E+00  0.51100000000E-03 0.  1.
</event>
<event>
 8    1  0.2039519E+004  0.1043930E+01  0.7957747E-01            NaN
         13   -1    0    0    0    0  0.00000000000E+00  0.00000000000E+00  0.74505805969E-08  0.10566000000E+00  0.10566000000E+00 0. -1.
     999900   -1    0    0    0    0 -0.00000000000E+00 -0.00000000000E+00 -0.74505805969E-08  0.93827000000E+00  0.93827000000E+00 0. -1.
     999902    2    1    2    0    0 -0.80478180642E-02 -0.93844323003E-03 -0.11081860973E-01  0.10302020834E+01  0.10301106139E+01 0.  0.
     999903    2    3    3    0    0 -0.21326325850E-01  0.80788722652E-01 -0.10490939736E+00  0.14134930876E+00  0.44632001434E-01 0.  0.
         14    1    1    2    0    0  0.80478180642E-02  0.93844323003E-03  0.11081860973E-01  0.13727916590E-01  0.00000000000E+00 0. -1.
     999901    1    3    3    0    0  0.13278507786E-01 -0.81727165882E-01  0.93827536386E-01  0.88885277465E+00  0.88000000000E+00 0.  1.
        -11    1    4    4    0    0 -0.72764965338E-02 -0.33373455364E-02 -0.17346058213E-01  0.19111047422E-01  0.51100000000E-03 0.  1.
         11    1    4    4    0    0 -0.14049829317E-01  0.84126068188E-01 -0.87563339145E-01  0.12223826134E+00  0.51100000000E-03 0. -1.
</event>
<event>
 8    1  0.2039519E+004  0.1043930E+01  0.7957747E-01            NaN
         13   -1    0    0    0    0  0.00000000000E+00  0.00000000000E+00  0.74505805969E-08  0.10566000000E+00  0.10566000000E+00 0. -1.
     999900   -1    0    0    0    0 -0.00000000000E+00 -0.00000000000E+00 -0.74505805969E-08  0.93827000000E+00  0.93827000000E+00 0.  1.
     999902    2    1    2    0    0 -0.19394642649E-02  0.80494715628E-02  0.14047500007E-01  0.10276239345E+01  0.10274945562E+01 0.  0.
     999903    2    3    3    0    0 -0.44627624952E-01 -0.97967461392E-01 -0.70501408297E-01  0.13621472042E+00  0.44662658755E-01 0.  0.
         14    1    1    2    0    0  0.19394642649E-02 -0.80494715628E-02 -0.14047500007E-01  0.16306065452E-01  0.00000000000E+00 0.  1.
     999901    1    3    3    0    0  0.42688160687E-01  0.10601693295E+00  0.84548908304E-01  0.89140921413E+00  0.88000000000E+00 0. -1.
        -11    1    4    4    0    0 -0.20983385602E-01 -0.11783363975E-01 -0.30838706032E-02  0.24267705223E-01  0.51100000000E-03 0.  1.
         11    1    4    4    0    0 -0.23644239350E-01 -0.86184097417E-01 -0.67417537694E-01  0.11194701520E+00  0.51100000000E-03 0. -1.
</event>
<event>
 7    1  0.2039519E+004  0.1043930E+01  0.7957747E-01            NaN
         13   -1    0    0    0    0  0.00000000000E+00  0.00000000000E+00  0.74505805969E-08  0.10566000000E+00  0.10566000000E+00 0.  1.
     999900   -1    0    0    0    0 -0.00000000000E+00 -0.00000000000E+00 -0.74505805969E-08  0.93827000000E+00  0.93827000000E+00 0.  1.
     999903    2    1    2    0    0 -0.76404134999E-01  0.39871595770E-01  0.49370517035E-01  0.10908596809E+00  0.45110580670E-01 0.  0.
         14    1    1    2    0    0  0.30957402658E-01  0.25505521338E-01 -0.31612433378E-01  0.51070914836E-01  0.00000000000E+00 0. -1.
     999901    1    1    2    0    0  0.45446732341E-01 -0.65377117108E-01 -0.17758083657E-01  0.88377311707E+00  0.88000000000E+00 0. -1.
        -11    1    3    3    0    0 -0.38003349493E-01  0.27573037476E-01  0.21701557034E-02  0.47005294012E-01  0.51100000000E-03 0.  1.
         11    1    3    3    0    0 -0.38400785506E-01  0.12298558294E-01  0.47200361332E-01  0.62080674082E-01  0.51100000000E-03 0. -1.
</event>
<event>
 8    1  0.2039519E+004  0.1043930E+01  0.7957747E-01            NaN
         13   -1    0    0    0    0  0.00000000000E+00  0.00000000000E+00  0.74505805969E-08  0.10566000000E+00  0.10566000000E+00 0.  1.
     999900   -1    0    0    0    0 -0.00000000000E+00 -0.00000000000E+00 -0.74505805969E-08  0.93827000000E+00  0.93827000000E+00 0. -1.
     999902    2    1    2    0    0  0.21435401674E-02 -0.14085414688E-01 -0.24691405099E-02  0.10294700440E+01  0.10293684866E+01 0.  0.
     999903    2    3    3    0    0  0.47142638534E-01 -0.13079704594E-01 -0.12323244661E+00  0.14008277946E+00  0.45204448479E-01 0.  0.
         14    1    1    2    0    0 -0.21435401674E-02  0.14085414688E-01  0.24691405099E-02  0.14459955955E-01  0.00000000000E+00 0.  1.
     999901    1    3    3    0    0 -0.44999098367E-01 -0.10057100934E-02  0.12076330610E+00  0.88938726459E+00  0.88000000000E+00 0.  1.
        -11    1    4    4    0    0  0.43996996792E-02 -0.60149868218E-02 -0.74508111479E-01  0.74881621383E-01  0.51100000000E-03 0.  1.
         11    1    4    4    0    0  0.42742938855E-01 -0.70647177726E-02 -0.48724335134E-01  0.65201158076E-01  0.51100000000E-03 0. -1.
</event>
<event>
 8    1  0.2039519E+004  0.1043930E+01  0.7957747E-01            NaN
         13   -1    0    0    0    0  0.00000000000E+00  0.00000000000E+00  0.74505805969E-08  0.10566000000E+00  0.10566000000E+00 0. -1.
     999900   -1    0    0    0    0 -0.00000000000E+00 -0.00000000000E+00 -0.74505805969E-08  0.93827000000E+00  0.93827000000E+00 0. -1.
     999902    2    1    2    0    0 -0.28739731930E-02 -0.50594137669E-02  0.11484383765E-01  0.10310556666E+01  0.10309752854E+01 0.  0.
     999903    2    3    3    0    0  0.80521080220E-01  0.24242459268E-01  0.10578004654E+00  0.14161482726E+00  0.42355635552E-01 0.  0.
         14    1    1    2    0    0  0.28739731930E-02  0.50594137669E-02 -0.11484383765E-01  0.12874333383E-01  0.00000000000E+00 0.  1.
     999901    1    3    3    0    0 -0.83395053413E-01 -0.29301873035E-01 -0.94295662775E-01  0.88944083936E+00  0.88000000000E+00 0. -1.
        -11    1    4    4    0    0  0.55543526418E-01 -0.35719110193E-02  0.52407051936E-01  0.76449997311E-01  0.51100000000E-03 0.  1.
         11    1    4    4    0    0  0.24977553802E-01  0.27814370287E-01  0.53372994604E-01  0.65164829950E-01  0.51100000000E-03 0. -1.
</event>
<event>
 7    1  0.2039519E+004  0.1043930E+01  0.7957747E-01            NaN
         13   -1    0    0    0    0  0.00000000000E+00  0.00000000000E+00  0.74505805969E-08  0.10566000000E+00  0.10566000000E+00 0.  1.
     999900   -1    0    0    0    0 -0.00000000000E+00 -0.00000000000E+00 -0.74505805969E-08  0.93827000000E+00  0.93827000000E+00 0. -1.
     999903    2    1    2    0    0  0.62188345678E-01  0.84698898268E-03 -0.92008913090E-01  0.11936247516E+00  0.43745315856E-01 0.  0.
         14    1    1    2    0    0 -0.10089912492E-01  0.31261115477E-01  0.22276762194E-01  0.39690273479E-01  0.00000000000E+00 0.  1.
     999901    1    1    2    0    0 -0.52098433186E-01 -0.32108104460E-01  0.69732150896E-01  0.88487725136E+00  0.88000000000E+00 0.  1.
        -11    1    3    3    0    0  0.46540795753E-01 -0.16263041022E-01 -0.77976756867E-01  0.92255991161E-01  0.51100000000E-03 0.  1.
         11    1    3    3    0    0  0.15647549925E-01  0.17110030004E-01 -0.14032156223E-01  0.27106483997E-01  0.51100000000E-03 0. -1.
</event>
<event>
 8    1  0.2039519E+004  0.1043930E+01  0.7957747E-01            NaN
         13   -1    0    0    0    0  0.00000000000E+00  0.00000000000E+00  0.74505805969E-08  0.10566000000E+00  0.10566000000E+00 0. -1.
     999900   -1    0    0    0    0 -0.00000000000E+00 -0.00000000000E+00 -0.74505805969E-08  0.93827000000E+00  0.93827000000E+00 0. -1.
     999902    2    1    2    0    0  0.85356501284E-02  0.37286330455E-02  0.10317923803E-01  0.10300296554E+01  0.10299358579E+01 0.  0.
     999903    2    3    3    0    0  0.10722706804E+00  0.57148929133E-01 -0.54292220995E-01  0.14055329554E+00  0.45209948057E-01 0.  0.
         14    1    1    2    0    0 -0.85356501284E-02 -0.37286330455E-02 -0.10317923803E-01  0.13900344568E-01  0.00000000000E+00 0.  1.
     999901    1    3    3    0    0 -0.98691417914E-01 -0.53420296087E-01  0.64610144798E-01  0.88947635990E+00  0.88000000000E+00 0.  1.
        -11    1    4    4    0    0  0.52155251697E-01  0.39132718499E-01 -0.50515892220E-01  0.82484279863E-01  0.51100000000E-03 0.  1.
         11    1    4    4    0    0  0.55071816345E-01  0.18016210634E-01 -0.37763287748E-02  0.58069015673E-01  0.51100000000E-03 0. -1.
</event>
<event>
 8    1  0.2039519E+004  0.1043930E+01  0.7957747E-01            NaN
         13   -1    0    0    0    0  0.00000000000E+00  0.00000000000E+00  0.74505805969E-08  0.10566000000E+00  0.10566000000E+00 0.  1.
     999900   -1    0    0    0    0 -0.00000000000E+00 -0.00000000000E+00 -0.74505805969E-08  0.93827000000E+00  0.93827000000E+00 0.  1.
     999902    2    1    2    0    0 -0.78103931668E-02  0.10035001080E-01 -0.46989090893E-02  0.10303733325E+01  0.10302841458E+01 0.  0.
     999903    2    3    3    0    0 -0.89112880133E-01  0.99645581223E-01 -0.20888388493E-01  0.14194649265E+00  0.42920097136E-01 0.  0.
         14    1    1    2    0    0  0.78103931668E-02 -0.10035001080E-01  0.46989090893E-02  0.13556667537E-01  0.00000000000E+00 0.  1.
     999901    1    3    3    0    0  0.81302486966E-01 -0.89610580144E-01  0.16189479404E-01  0.88842683982E+00  0.88000000000E+00 0. -1.
        -11    1    4    4    0    0 -0.53677366748E-01  0.74661768870E-01  0.38292763639E-02  0.92035666512E-01  0.51100000000E-03 0.  1.
         11    1    4    4    0    0 -0.35435513385E-01  0.24983812353E-01 -0.24717664857E-01  0.49910826136E-01  0.51100000000E-03 0. -1.
</event>
<event>
 8    1  0.2039519E+004  0.1043930E+01  0.7957747E-01            NaN
         13   -1    0    0    0    0  0.00000000000E+00  0.00000000000E+00  0.74505805969E-08  0.10566000000E+00  0.10566000000E+00 0. -1.
     999900   -1    0    0    0    0 -0.00000000000E+00 -0.00000000000E+00 -0.74505805969E-08  0.93827000000E+00  0.93827000000E+00 0. -1.
     999902    2    1    2    0    0 -0.69573884124E-02  0.96099043669E-03 -0.12495988266E-01  0.10295954795E+01  0.10294956886E+01 0.  0.
     999903    2    3    3    0    0 -0.11534607570E+00 -0.35493083268E-01 -0.57134491913E-01  0.14107445944E+00  0.45532151278E-01 0.  0.
         14    1    1    2    0    0  0.69573884124E-02 -0.96099043669E-03  0.12495988266E-01  0.14334520532E-01  0.00000000000E+00 0. -1.
     999901    1    3    3    0    0  0.10838868729E+00  0.36454073705E-01  0.44638503647E-01  0.88852102003E+00  0.88000000000E+00 0.  1.
        -11    1    4    4    0    0 -0.79204778489E-01 -0.28697280302E-01 -0.15741618804E-01  0.85702920112E-01  0.51100000000E-03 0. -1.
         11    1    4    4    0    0 -0.36141297215E-01 -0.67958029668E-02 -0.41392873109E-01  0.55371539328E-01  0.51100000000E-03 0.  1.
</event>
<event>
 8    1  0.2039519E+004  0.1043930E+01  0.7957747E-01            NaN
         13   -1    0    0    0    0  0.00000000000E+00  0.00000000000E+00  0.74505805969E-08  0.10566000000E+00  0.10566000000E+00 0.  1.
     999900   -1    0    0    0    0 -0.00000000000E+00 -0.00000000000E+00 -0.74505805969E-08  0.93827000000E+00  0.93827000000E+00 0. -1.
     999902    2    1    2    0    0  0.42484341126E-02 -0.12236038273E-01 -0.45846683265E-02  0.10301899487E+01  0.10300983164E+01 0.  0.
     999903    2    3    3    0    0  0.80075794054E-01  0.33230530528E-01  0.99901151383E-01  0.13960907991E+00  0.44654833939E-01 0.  0.
         14    1    1    2    0    0 -0.42484341126E-02  0.12236038273E-01  0.45846683265E-02  0.13740051263E-01  0.00000000000E+00 0.  1.
     999901    1    3    3    0    0 -0.75827359942E-01 -0.45466568801E-01 -0.10448581971E+00  0.89058086882E+00  0.88000000000E+00 0. -1.
        -11    1    4    4    0    0  0.70087714940E-01  0.22388416787E-01  0.53645209573E-01  0.91058215570E-01  0.51100000000E-03 0.  1.
         11    1    4    4    0    0  0.99880791148E-02  0.10842113740E-01  0.46255941810E-01  0.48550864344E-01  0.51100000000E-03 0. -1.
</event>
<event>
 8    1  0.2039519E+004  0.1043930E+01  0.7957747E-01            NaN
         13   -1    0    0    0    0  0.00000000000E+00  0.00000000000E+00  0.74505805969E-08  0.10566000000E+00  0.10566000000E+00 0. -1.
     999900   -1    0    0    0    0 -0.00000000000E+00 -0.00000000000E+00 -0.74505805969E-08  0.93827000000E+00  0.93827000000E+00 0. -1.
     999902    2    1    2    0    0 -0.81439274361E-02  0.34286273228E-02 -0.10729120470E-01  0.10300306092E+01  0.10299368246E+01 0.  0.
     999903    2    3    3    0    0 -0.12989958606E+00  0.27391381567E-02 -0.33365327298E-01  0.14135895233E+00  0.44583662971E-01 0.  0.
         14    1    1    2    0    0  0.81439274361E-02 -0.34286273228E-02  0.10729120470E-01  0.13899390831E-01  0.00000000000E+00 0. -1.
     999901    1    3    3    0    0  0.12175565862E+00  0.68948916611E-03  0.22636206828E-01  0.88867165683E+00  0.88000000000E+00 0.  1.
        -11    1    4    4    0    0 -0.68864900029E-01 -0.16282479404E-01 -0.36529193747E-02  0.70859710220E-01  0.51100000000E-03 0.  1.
         11    1    4    4    0    0 -0.61034686028E-01  0.19021617560E-01 -0.29712407923E-01  0.70499242115E-01  0.51100000000E-03 0. -1.
</event>
<event>
 8    1  0.2039519E+004  0.1043930E+01  0.7957747E-01            NaN
         13   -1    0    0    0    0  0.00000000000E+00  0.00000000000E+00  0.74505805969E-08  0.10566000000E+00  0.10566000000E+00 0. -1.
     999900   -1    0    0    0    0 -0.00000000000E+00 -0.00000000000E+00 -0.74505805969E-08  0.93827000000E+00  0.93827000000E+00 0. -1.
     999902    2    1    2    0    0 -0.21260011868E-02  0.12078975352E-01 -0.55963917886E-02  0.10304488603E+01  0.10303606711E+01 0.  0.
     999903    2    3    3    0    0  0.86056197977E-01 -0.25870371384E-01 -0.97926579866E-01  0.14042576127E+00  0.45330277510E-01 0.  0.
         14    1    1    2    0    0  0.21260011868E-02 -0.12078975352E-01  0.55963917886E-02  0.13481139702E-01  0.00000000000E+00 0. -1.
     999901    1    3    3    0    0 -0.88182199164E-01  0.37949346736E-01  0.92330188077E-01  0.89002309902E+00  0.88000000000E+00 0.  1.
        -11    1    4    4    0    0  0.30612742308E-01  0.11838066296E-01 -0.24300667002E-01  0.40841931186E-01  0.51100000000E-03 0.  1.
         11    1    4    4    0    0  0.55443455669E-01 -0.37708437680E-01 -0.73625912864E-01  0.99583830087E-01  0.51100000000E-03 0. -1.
</event>
<event>
 8    1  0.2039519E+004  0.1043930E+01  0.7957747E-01            NaN
         13   -1    0    0    0    0  0.00000000000E+00  0.00000000000E+00  0.74505805969E-08  0.10566000000E+00  0.10566000000E+00 0.  1.
     999900   -1    0    0    0    0 -0.00000000000E+00 -0.00000000000E+00 -0.74505805969E-08  0.93827000000E+00  0.93827000000E+00 0. -1.
     999902    2    1    2    0    0 -0.16767347641E-02 -0.42676052455E-02  0.12987862786E-01  0.10301565301E+01  0.10300644485E+01 0.  0.
     999903    2    3    3    0    0 -0.58585540054E-01  0.11590592797E+00 -0.23881270185E-01  0.13940425072E+00  0.44685348960E-01 0.  0.
         14    1    1    2    0    0  0.16767347641E-02  0.42676052455E-02 -0.12987862786E-01  0.13773469924E-01  0.00000000000E+00 0. -1.
     999901    1    3    3    0    0  0.56908805290E-01 -0.12017353322E+00  0.36869132971E-01  0.89075227935E+00  0.88000000000E+00 0.  1.
        -11    1    4    4    0    0 -0.14454233720E-01  0.77359812328E-01 -0.15472300534E-01  0.80206724410E-01  0.51100000000E-03 0.  1.
         11    1    4    4    0    0 -0.44131306334E-01  0.38546115645E-01 -0.84089696510E-02  0.59197526314E-01  0.51100000000E-03 0. -1.
</event>
<event>
 8    1  0.2039519E+004  0.1043930E+01  0.7957747E-01            NaN
         13   -1    0    0    0    0  0.00000000000E+00  0.00000000000E+00  0.74505805969E-08  0.10566000000E+00  0.10566000000E+00 0.  1.
     999900   -1    0    0    0    0 -0.00000000000E+00 -0.00000000000E+00 -0.74505805969E-08  0.93827000000E+00  0.93827000000E+00 0.  1.
     999902    2    1    2    0    0  0.93456274190E-02 -0.95453768802E-02 -0.24752836104E-02  0.10303439041E+01  0.10302543272E+01 0.  0.
     999903    2    3    3    0    0  0.11452094910E-01 -0.44345634617E-02  0.13204407362E+00  0.14010460200E+00  0.45197857145E-01 0.  0.
         14    1    1    2    0    0 -0.93456274190E-02  0.95453768802E-02  0.24752836104E-02  0.13586095855E-01  0.00000000000E+00 0. -1.
     999901    1    3    3    0    0 -0.21064674906E-02 -0.51108134186E-02 -0.13451935723E+00  0.89023930215E+00  0.88000000000E+00 0.  1.
        -11    1    4    4    0    0 -0.77550111276E-02  0.42639951199E-02  0.10698241592E+00  0.10734905817E+00  0.51100000000E-03 0.  1.
         11    1    4    4    0    0  0.19207106037E-01 -0.86985585816E-02  0.25061657699E-01  0.32755543826E-01  0.51100000000E-03 0. -1.
</event>
<event>
 8    1  0.2141931E+004  0.1043930E+01  0.7957747E-01            NaN
         13   -1    0    0    0    0  0.00000000000E+00  0.00000000000E+00  0.74505805969E-08  0.10566000000E+00  0.10566000000E+00 0. -1.
     999900   -1    0    0    0    0 -0.00000000000E+00 -0.00000000000E+00 -0.74505805969E-08  0.93827000000E+00  0.93827000000E+00 0. -1.
     999902    2    1    2    0    0 -0.10571125482E-01 -0.77940372380E-02  0.58482477033E-02  0.10295530145E+01  0.10294526274E+01 0.  0.
     999903    2    3    3    0    0 -0.52893536724E-01 -0.10102377937E+00  0.70739964042E-01  0.14124343663E+00  0.44068533602E-01 0.  0.
         14    1    1    2    0    0  0.10571125482E-01  0.77940372380E-02 -0.58482477033E-02  0.14376985484E-01  0.00000000000E+00 0. -1.
     999901    1    3    3    0    0  0.42322411243E-01  0.93229742131E-01 -0.64891716338E-01  0.88830957788E+00  0.88000000000E+00 0. -1.
        -11    1    4    4    0    0 -0.15091543283E-01 -0.63015733594E-01  0.56002315306E-01  0.85646119584E-01  0.51100000000E-03 0. -1.
         11    1    4    4    0    0 -0.37801993441E-01 -0.38008045774E-01  0.14737648736E-01  0.55597317048E-01  0.51100000000E-03 0.  1.
</event>
<event>
 8    1  0.2039519E+004  0.1043930E+01  0.7957747E-01            NaN
         13   -1    0    0    0    0  0.00000000000E+00  0.00000000000E+00  0.74505805969E-08  0.10566000000E+00  0.10566000000E+00 0. -1.
     999900   -1    0    0    0    0 -0.00000000000E+00 -0.00000000000E+00 -0.74505805969E-08  0.93827000000E+00  0.93827000000E+00 0.  1.
     999902    2    1    2    0    0  0.82610045398E-02  0.70919507114E-02  0.76354266113E-02  0.10306318911E+01  0.10305460956E+01 0.  0.
     999903    2    3    3    0    0 -0.11118816508E+00  0.40118816653E-01  0.60653301448E-01  0.14036801277E+00  0.45299321515E-01 0.  0.
         14    1    1    2    0    0 -0.82610045398E-02 -0.70919507114E-02 -0.76354266113E-02  0.13298108904E-01  0.00000000000E+00 0.  1.
     999901    1    3    3    0    0  0.11944916962E+00 -0.33026865942E-01 -0.53017874836E-01  0.89026387832E+00  0.88000000000E+00 0.  1.
        -11    1    4    4    0    0 -0.15594430011E-01  0.25424977441E-01  0.12833221547E-01  0.32474119257E-01  0.51100000000E-03 0.  1.
         11    1    4    4    0    0 -0.95593735068E-01  0.14693839212E-01  0.47820079900E-01  0.10789389351E+00  0.51100000000E-03 0. -1.
</event>
<event>
 8    1  0.2039519E+004  0.1043930E+01  0.7957747E-01            NaN
         13   -1    0    0    0    0  0.00000000000E+00  0.00000000000E+00  0.74505805969E-08  0.10566000000E+00  0.10566000000E+00 0.  1.
     999900   -1    0    0    0    0 -0.00000000000E+00 -0.00000000000E+00 -0.74505805969E-08  0.93827000000E+00  0.93827000000E+00 0.  1.
     999902    2    1    2    0    0 -0.94362404216E-05 -0.14896158403E-01 -0.67378340240E-03  0.10290186081E+01  0.10289105628E+01 0.  0.
     999903    2    3    3    0    0 -0.88699434996E-02 -0.13309030367E+00 -0.16537477696E-01  0.14093076258E+00  0.42382624334E-01 0.  0.
         14    1    1    2    0    0  0.94362404216E-05  0.14896158403E-01  0.67378340240E-03  0.14911391896E-01  0.00000000000E+00 0. -1.
     999901    1    3    3    0    0  0.88605072592E-02  0.11819414527E+00  0.15863694293E-01  0.88808784552E+00  0.88000000000E+00 0.  1.
        -11    1    4    4    0    0 -0.11218836638E-01 -0.91690659035E-02  0.45709836186E-02  0.15201614299E-01  0.51100000000E-03 0. -1.
         11    1    4    4    0    0  0.23488931384E-02 -0.12392123777E+00 -0.21108461314E-01  0.12572914828E+00  0.51100000000E-03 0.  1.
</event>
<event>
 8    1  0.2039519E+004  0.1043930E+01  0.7957747E-01            NaN
         13   -1    0    0    0    0  0.00000000000E+00  0.00000000000E+00  0.74505805969E-08  0.10566000000E+00  0.10566000000E+00 0.  1.
     999900   -1    0    0    0    0 -0.00000000000E+00 -0.00000000000E+00 -0.74505805969E-08  0.93827000000E+00  0.93827000000E+00 0. -1.
     999902    2    1    2    0    0 -0.15083850716E-02 -0.14008732355E-01 -0.21034568990E-02  0.10296841466E+01  0.10295855950E+01 0.  0.
     999903    2    3    3    0    0 -0.76027825162E-02 -0.10489097074E+00  0.83110776951E-01  0.14088822595E+00  0.43384016907E-01 0.  0.
         14    1    1    2    0    0  0.15083850716E-02  0.14008732355E-01  0.21034568990E-02  0.14245853384E-01  0.00000000000E+00 0.  1.
     999901    1    3    3    0    0  0.60943974446E-02  0.90882238381E-01 -0.85214233850E-01  0.88879592066E+00  0.88000000000E+00 0. -1.
        -11    1    4    4    0    0 -0.12252416901E-01 -0.25478552725E-01  0.37543409818E-02  0.28524280290E-01  0.51100000000E-03 0.  1.
         11    1    4    4    0    0  0.46496343850E-02 -0.79412418012E-01  0.79356435969E-01  0.11236394566E+00  0.51100000000E-03 0. -1.
</event>
<event>
 8    1  0.2039519E+004  0.1043930E+01  0.7957747E-01            NaN
         13   -1    0    0    0    0  0.00000000000E+00  0.00000000000E+00  0.74505805969E-08  0.10566000000E+00  0.10566000000E+00 0. -1.
     999900   -1    0    0    0    0 -0.00000000000E+00 -0.00000000000E+00 -0.74505805969E-08  0.93827000000E+00  0.93827000000E+00 0.  1.
     999902    2    1    2    0    0 -0.55166693636E-02  0.81005663604E-02 -0.10911301545E-01  0.10292633945E+01  0.10291588924E+01 0.  0.
     999903    2    3    3    0    0  0.12934091423E+00  0.12784760929E-01  0.16045761979E-01  0.13856973625E+00  0.45294404963E-01 0.  0.
         14    1    1    2    0    0  0.55166693636E-02 -0.81005663604E-02  0.10911301545E-01  0.14666605525E-01  0.00000000000E+00 0. -1.
     999901    1    3    3    0    0 -0.13485758359E+00 -0.46841945687E-02 -0.26957063524E-01  0.89069365823E+00  0.88000000000E+00 0.  1.
        -11    1    4    4    0    0  0.10207192351E+00  0.50199907870E-02 -0.64105296025E-02  0.10239743106E+00  0.51100000000E-03 0.  1.
         11    1    4    4    0    0  0.27268990717E-01  0.77647701421E-02  0.22456291581E-01  0.36172305189E-01  0.51100000000E-03 0. -1.
</event>
<event>
 8    1  0.2039519E+004  0.1043930E+01  0.7957747E-01            NaN
         13   -1    0    0    0    0  0.00000000000E+00  0.00000000000E+00  0.74505805969E-08  0.10566000000E+00  0.10566000000E+00 0. -1.
     999900   -1    0    0    0    0 -0.00000000000E+00 -0.00000000000E+00 -0.74505805969E-08  0.93827000000E+00  0.93827000000E+00 0.  1.
     999902    2    1    2    0    0  0.13736426574E-01 -0.59778691351E-02 -0.41005391206E-02  0.10283981374E+01  0.10282808421E+01 0.  0.
     999903    2    3    3    0    0  0.23192300588E-01 -0.12402162208E+00 -0.39972559985E-01  0.13974154286E+00  0.44840246421E-01 0.  0.
         14    1    1    2    0    0 -0.13736426574E-01  0.59778691351E-02  0.41005391206E-02  0.15531862590E-01  0.00000000000E+00 0. -1.
     999901    1    3    3    0    0 -0.94558740135E-02  0.11804375294E+00  0.35872020865E-01  0.88865659455E+00  0.88000000000E+00 0.  1.
        -11    1    4    4    0    0  0.16799884237E-01 -0.97273053362E-01 -0.49758412620E-01  0.11054611602E+00  0.51100000000E-03 0. -1.
         11    1    4    4    0    0  0.63924163505E-02 -0.26748568715E-01  0.97858526349E-02  0.29195426832E-01  0.51100000000E-03 0.  1.
</event>
<event>
 8    1  0.2039519E+004  0.1043930E+01  0.7957747E-01            NaN
         13   -1    0    0    0    0  0.00000000000E+00  0.00000000000E+00  0.74505805969E-08  0.10566000000E+00  0.10566000000E+00 0. -1.
     999900   -1    0    0    0    0 -0.00000000000E+00 -0.00000000000E+00 -0.74505805969E-08  0.93827000000E+00  0.93827000000E+00 0. -1.
     999902    2    1    2    0    0  0.13491777350E-01  0.63924312743E-02  0.10771212477E-01  0.10255204847E+01  0.10253552333E+01 0.  0.
     999903    2    3    3    0    0 -0.11491700925E+00  0.41865919809E-01  0.35169213762E-01  0.13515963243E+00  0.45525579486E-01 0.  0.
         14    1    1    2    0    0 -0.13491777350E-01 -0.63924312743E-02 -0.10771212477E-01  0.18409515254E-01  0.00000000000E+00 0.  1.
     999901    1    3    3    0    0  0.12840878660E+00 -0.35473488534E-01 -0.24398001285E-01  0.89036085231E+00  0.88000000000E+00 0.  1.
        -11    1    4    4    0    0 -0.13315621970E-01  0.75195601573E-02  0.22434231660E-01  0.27155210266E-01  0.51100000000E-03 0. -1.
         11    1    4    4    0    0 -0.10160138728E+00  0.34346359651E-01  0.12734982102E-01  0.10800442217E+00  0.51100000000E-03 0.  1.
</event>
<event>
 8    1  0.2039519E+004  0.1043930E+01  0.7957747E-01            NaN
         13   -1    0    0    0    0  0.00000000000E+00  0.00000000000E+00  0.74505805969E-08  0.10566000000E+00  0.10566000000E+00 0.  1.
     999900   -1    0    0    0    0 -0.00000000000E+00 -0.00000000000E+00 -0.74505805969E-08  0.93827000000E+00  0.93827000000E+00 0. -1.
     999902    2    1    2    0    0 -0.92006259404E-02 -0.92593365588E-02 -0.42789608991E-02  0.10301933215E+01  0.10301017344E+01 0.  0.
     999903    2    3    3    0    0  0.27196899533E-01  0.41335730402E-02 -0.13032023040E+00  0.14036718590E+00  0.44303799561E-01 0.  0.
         14    1    1    2    0    0  0.92006259404E-02  0.92593365588E-02  0.42789608991E-02  0.13736678550E-01  0.00000000000E+00 0.  1.
     999901    1    3    3    0    0 -0.36397525474E-01 -0.13392909599E-01  0.12604126950E+00  0.88982613555E+00  0.88000000000E+00 0.  1.
        -11    1    4    4    0    0  0.34894139722E-01 -0.94678225283E-02 -0.98129111681E-01  0.10457927295E+00  0.51100000000E-03 0.  1.
         11    1    4    4    0    0 -0.76972401886E-02  0.13601395569E-01 -0.32191118721E-01  0.35787912952E-01  0.51100000000E-03 0. -1.
</event>
<event>
 8    1  0.2039519E+004  0.1043930E+01  0.7957747E-01            NaN
         13   -1    0    0    0    0  0.00000000000E+00  0.00000000000E+00  0.74505805969E-08  0.10566000000E+00  0.10566000000E+00 0.  1.
     999900   -1    0    0    0    0 -0.00000000000E+00 -0.00000000000E+00 -0.74505805969E-08  0.93827000000E+00  0.93827000000E+00 0. -1.
     999902    2    1    2    0    0  0.49293031366E-02 -0.12115895864E-01  0.54017385594E-02  0.10297782601E+01  0.10296810153E+01 0.  0.
     999903    2    3    3    0    0 -0.92198744089E-01  0.79625475461E-01 -0.46864834878E-01  0.13816055535E+00  0.45290192676E-01 0.  0.
         14    1    1    2    0    0 -0.49293031366E-02  0.12115895864E-01 -0.54017385594E-02  0.14151739875E-01  0.00000000000E+00 0. -1.
     999901    1    3    3    0    0  0.97128047225E-01 -0.91741371325E-01  0.52266573437E-01  0.89161770478E+00  0.88000000000E+00 0.  1.
        -11    1    4    4    0    0 -0.35783225393E-01  0.49879220880E-01 -0.41615986932E-01  0.74165540410E-01  0.51100000000E-03 0. -1.
         11    1    4    4    0    0 -0.56415518696E-01  0.29746254581E-01 -0.52488479460E-02  0.63995014940E-01  0.51100000000E-03 0.  1.
</event>
<event>
 8    1  0.2039519E+004  0.1043930E+01  0.7957747E-01            NaN
         13   -1    0    0    0    0  0.00000000000E+00  0.00000000000E+00  0.74505805969E-08  0.10566000000E+00  0.10566000000E+00 0. -1.
     999900   -1    0    0    0    0 -0.00000000000E+00 -0.00000000000E+00 -0.74505805969E-08  0.93827000000E+00  0.93827000000E+00 0. -1.
     999902    2    1    2    0    0 -0.10455195878E-01  0.19267510624E-02 -0.95695165107E-02  0.10296261845E+01  0.10295268237E+01 0.  0.
     999903    2    3    3    0    0  0.12636613671E+00 -0.39339983427E-02  0.32004404457E-01  0.13806417529E+00  0.45316197360E-01 0.  0.
         14    1    1    2    0    0  0.10455195878E-01 -0.19267510624E-02  0.95695165107E-02  0.14303815461E-01  0.00000000000E+00 0. -1.
     999901    1    3    3    0    0 -0.13682133259E+00  0.58607494051E-02 -0.41573920967E-01  0.89156200925E+00  0.88000000000E+00 0. -1.
        -11    1    4    4    0    0  0.72806358301E-01 -0.24640006803E-01  0.19297817157E-01  0.79250000709E-01  0.51100000000E-03 0. -1.
         11    1    4    4    0    0  0.53559778410E-01  0.20706008460E-01  0.12706587299E-01  0.58814174579E-01  0.51100000000E-03 0.  1.
</event>
<event>
 8    1  0.2039519E+004  0.1043930E+01  0.7957747E-01            NaN
         13   -1    0    0    0    0  0.00000000000E+00  0.00000000000E+00  0.74505805969E-08  0.10566000000E+00  0.10566000000E+00 0. -1.
     999900   -1    0    0    0    0 -0.00000000000E+00 -0.00000000000E+00 -0.74505805969E-08  0.93827000000E+00  0.93827000000E+00 0.  1.
     999902    2    1    2    0    0  0.14175173300E-01 -0.11882523791E-02  0.17647492682E-02  0.10295960605E+01  0.10294962778E+01 0.  0.
     999903    2    3    3    0    0  0.59262412110E-01 -0.11656944701E+00 -0.25818018764E-01  0.14049174250E+00  0.44394708608E-01 0.  0.
         14    1    1    2    0    0 -0.14175173300E-01  0.11882523791E-02 -0.17647492682E-02  0.14333939507E-01  0.00000000000E+00 0.  1.
     999901    1    3    3    0    0 -0.45087238810E-01  0.11538119463E+00  0.27582768032E-01  0.88910431799E+00  0.88000000000E+00 0. -1.
        -11    1    4    4    0    0  0.17531300874E-01 -0.41696735587E-01  0.12002422477E-01  0.46800465118E-01  0.51100000000E-03 0.  1.
         11    1    4    4    0    0  0.41731111235E-01 -0.74872711426E-01 -0.37820441241E-01  0.93691277384E-01  0.51100000000E-03 0. -1.
</event>
<event>
 8    1  0.2039519E+004  0.1043930E+01  0.7957747E-01            NaN
         13   -1    0    0    0    0  0.00000000000E+00  0.00000000000E+00  0.74505805969E-08  0.10566000000E+00  0.10566000000E+00 0. -1.
     999900   -1    0    0    0    0 -0.00000000000E+00 -0.00000000000E+00 -0.74505805969E-08  0.93827000000E+00  0.93827000000E+00 0.  1.
     999902    2    1    2    0    0 -0.72237030979E-02  0.11326306077E-01 -0.49666490206E-02  0.10296074758E+01  0.10295078531E+01 0.  0.
     999903    2    3    3    0    0  0.18946465391E-01 -0.12869383898E+00  0.11433372865E-01  0.13800247391E+00  0.44641774697E-01 0.  0.
         14    1    1    2    0    0  0.72237030979E-02 -0.11326306077E-01  0.49666490206E-02  0.14322524159E-01  0.00000000000E+00 0. -1.
     999901    1    3    3    0    0 -0.26170168489E-01  0.14002014506E+00 -0.16400021886E-01  0.89160500193E+00  0.88000000000E+00 0.  1.
        -11    1    4    4    0    0 -0.71885534346E-02 -0.72994661023E-01  0.19630064831E-01  0.75930865954E-01  0.51100000000E-03 0.  1.
         11    1    4    4    0    0  0.26135018825E-01 -0.55699177961E-01 -0.81966919653E-02  0.62071607960E-01  0.51100000000E-03 0. -1.
</event>
<event>
 8    1  0.2039519E+004  0.1043930E+01  0.7957747E-01            NaN
         13   -1    0    0    0    0  0.00000000000E+00  0.00000000000E+00  0.74505805969E-08  0.10566000000E+00  0.10566000000E+00 0.  1.
     999900   -1    0    0    0    0 -0.00000000000E+00 -0.00000000000E+00 -0.74505805969E-08  0.93827000000E+00  0.93827000000E+00 0.  1.
     999902    2    1    2    0    0  0.99882818332E-03  0.86135740309E-02 -0.10705917706E-01  0.10301529180E+01  0.10300607877E+01 0.  0.
     999903    2    3    3    0    0 -0.71612165595E-01 -0.90486254090E-01  0.62879028812E-01  0.13857685464E+00  0.43973946115E-01 0.  0.
         14    1    1    2    0    0 -0.99882818332E-03 -0.86135740309E-02  0.10705917706E-01  0.13777082030E-01  0.00000000000E+00 0. -1.
     999901    1    3    3    0    0  0.72610993778E-01  0.99099828121E-01 -0.73584946518E-01  0.89157606333E+00  0.88000000000E+00 0.  1.
        -11    1    4    4    0    0 -0.13659975209E-01 -0.38231515026E-01  0.40615313481E-01  0.57429160485E-01  0.51100000000E-03 0. -1.
         11    1    4    4    0    0 -0.57952190386E-01 -0.52254739064E-01  0.22263715332E-01  0.81147694154E-01  0.51100000000E-03 0.  1.
</event>
<event>
 8    1  0.2039519E+004  0.1043930E+01  0.7957747E-01            NaN
         13   -1    0    0    0    0  0.00000000000E+00  0.00000000000E+00  0.74505805969E-08  0.10566000000E+00  0.10566000000E+00 0.  1.
     999900   -1    0    0    0    0 -0.00000000000E+00 -0.00000000000E+00 -0.74505805969E-08  0.93827000000E+00  0.93827000000E+00 0. -1.
     999902    2    1    2    0    0 -0.12625751490E-01  0.14718360071E-01 -0.82990014451E-02  0.10228370356E+01  0.10226195227E+01 0.  0.
     999903    2    3    3    0    0 -0.91515843921E-01 -0.30126621478E-01 -0.82848849316E-01  0.13503503124E+00  0.45692065168E-01 0.  0.
         14    1    1    2    0    0  0.12625751490E-01 -0.14718360071E-01  0.82990014451E-02  0.21092964440E-01  0.00000000000E+00 0.  1.
     999901    1    3    3    0    0  0.78890092430E-01  0.44844981549E-01  0.74549847871E-01  0.88780200432E+00  0.88000000000E+00 0. -1.
        -11    1    4    4    0    0 -0.50794873253E-01 -0.37812663521E-01 -0.37476692614E-01  0.73584511153E-01  0.51100000000E-03 0. -1.
         11    1    4    4    0    0 -0.40720970668E-01  0.76860420427E-02 -0.45372156702E-01  0.61450520089E-01  0.51100000000E-03 0.  1.
</event>
<event>
 8    1  0.2039519E+004  0.1043930E+01  0.7957747E-01            NaN
         13   -1    0    0    0    0  0.00000000000E+00  0.00000000000E+00  0.74505805969E-08  0.10566000000E+00  0.10566000000E+00 0. -1.
     999900   -1    0    0    0    0 -0.00000000000E+00 -0.00000000000E+00 -0.74505805969E-08  0.93827000000E+00  0.93827000000E+00 0. -1.
     999902    2    1    2    0    0 -0.61069770763E-02 -0.60799908082E-02  0.76476442904E-02  0.10324083716E+01  0.10323440792E+01 0.  0.
     999903    2    3    3    0    0 -0.20945676008E-01  0.62322371806E-02  0.13459687495E+00  0.14308959576E+00  0.43367632438E-01 0.  0.
         14    1    1    2    0    0  0.61069770763E-02  0.60799908082E-02 -0.76476442904E-02  0.11521628376E-01  0.00000000000E+00 0. -1.
     999901    1    3    3    0    0  0.14838698932E-01 -0.12312227989E-01 -0.12694923066E+00  0.88931877587E+00  0.88000000000E+00 0. -1.
        -11    1    4    4    0    0  0.88370855149E-04  0.20795450266E-01  0.39907746323E-01  0.45003865375E-01  0.51100000000E-03 0. -1.
         11    1    4    4    0    0 -0.21034046863E-01 -0.14563213086E-01  0.94689128630E-01  0.98085730382E-01  0.51100000000E-03 0.  1.
</event>
<event>
 8    1  0.2039519E+004  0.1043930E+01  0.7957747E-01            NaN
         13   -1    0    0    0    0  0.00000000000E+00  0.00000000000E+00  0.74505805969E-08  0.10566000000E+00  0.10566000000E+00 0. -1.
     999900   -1    0    0    0    0 -0.00000000000E+00 -0.00000000000E+00 -0.74505805969E-08  0.93827000000E+00  0.93827000000E+00 0.  1.
     999902    2    1    2    0    0  0.16391112099E-02  0.10416276266E-01  0.87637399799E-02  0.10302191052E+01  0.10301278640E+01 0.  0.
     999903    2    3    3    0    0 -0.31733264628E-01 -0.80393854603E-01  0.10060295354E+00  0.14016594026E+00  0.45336129154E-01 0.  0.
         14    1    1    2    0    0 -0.16391112099E-02 -0.10416276266E-01 -0.87637399799E-02  0.13710894764E-01  0.00000000000E+00 0.  1.
     999901    1    3    3    0    0  0.33372375838E-01  0.90810130869E-01 -0.91839213556E-01  0.89005316498E+00  0.88000000000E+00 0. -1.
        -11    1    4    4    0    0 -0.38632745507E-02 -0.32477498066E-01  0.68987961295E-01  0.76349935792E-01  0.51100000000E-03 0. -1.
         11    1    4    4    0    0 -0.27869990078E-01 -0.47916356537E-01  0.31614992241E-01  0.63816004467E-01  0.51100000000E-03 0.  1.
</event>
<event>
 8    1  0.2039519E+004  0.1043930E+01  0.7957747E-01            NaN
         13   -1    0    0    0    0  0.00000000000E+00  0.00000000000E+00  0.74505805969E-08  0.10566000000E+00  0.10566000000E+00 0. -1.
     999900   -1    0    0    0    0 -0.00000000000E+00 -0.00000000000E+00 -0.74505805969E-08  0.93827000000E+00  0.93827000000E+00 0. -1.
     999902    2    1    2    0    0 -0.12376598505E-01 -0.39877738710E-02  0.39414061857E-02  0.10303426083E+01  0.10302530142E+01 0.  0.
     999903    2    3    3    0    0 -0.12401765570E+00  0.52276380388E-01 -0.10930799488E-01  0.14138222491E+00  0.41907663623E-01 0.  0.
         14    1    1    2    0    0  0.12376598505E-01  0.39877738710E-02 -0.39414061857E-02  0.13587391718E-01  0.00000000000E+00 0. -1.
     999901    1    3    3    0    0  0.11164105720E+00 -0.56264154259E-01  0.14872205674E-01  0.88896038337E+00  0.88000000000E+00 0.  1.
        -11    1    4    4    0    0 -0.53612540853E-01  0.20108366353E-01 -0.25385744566E-01  0.62636635305E-01  0.51100000000E-03 0.  1.
         11    1    4    4    0    0 -0.70405114848E-01  0.32168014035E-01  0.14454945078E-01  0.78745589603E-01  0.51100000000E-03 0. -1.
</event>
<event>
 7    1  0.2039519E+004  0.1043930E+01  0.7957747E-01            NaN
         13   -1    0    0    0    0  0.00000000000E+00  0.00000000000E+00  0.74505805969E-08  0.10566000000E+00  0.10566000000E+00 0. -1.
     999900   -1    0    0    0    0 -0.00000000000E+00 -0.00000000000E+00 -0.74505805969E-08  0.93827000000E+00  0.93827000000E+00 0. -1.
     999902    2    1    2    0    0  0.81079386328E-03 -0.36973677727E-02  0.13194924939E-01  0.10302028751E+01  0.10301114162E+01 0.  0.
         14    1    1    2    0    0 -0.81079386328E-03  0.36973677727E-02 -0.13194924939E-01  0.13727124946E-01  0.00000000000E+00 0.  1.
     999901    1    3    3    0    0 -0.11986245474E+00 -0.16060485192E-01  0.41940335743E-01  0.88926033253E+00  0.88000000000E+00 0.  1.
        -11    1    3    3    0    0  0.44204439461E-01 -0.23950900650E-01 -0.25133611288E-01  0.56210654216E-01  0.51100000000E-03 0. -1.
         11    1    3    3    0    0  0.76468809144E-01  0.36314018069E-01 -0.36117995151E-02  0.84731888312E-01  0.51100000000E-03 0.  1.
</event>
<event>
 8    1  0.2039519E+004  0.1043930E+01  0.7957747E-01            NaN
         13   -1    0    0    0    0  0.00000000000E+00  0.00000000000E+00  0.74505805969E-08  0.10566000000E+00  0.10566000000E+00 0. -1.
     999900   -1    0    0    0    0 -0.00000000000E+00 -0.00000000000E+00 -0.74505805969E-08  0.93827000000E+00  0.93827000000E+00 0.  1.
     999902    2    1    2    0    0  0.11454073550E-01 -0.50273127008E-02 -0.64250163802E-02  0.10298676208E+01  0.10297716086E+01 0.  0.
     999903    2    3    3    0    0  0.38132305956E-01  0.12327857468E+00  0.28418313113E-01  0.13948108313E+00  0.44673172001E-01 0.  0.
         14    1    1    2    0    0 -0.11454073550E-01  0.50273127008E-02  0.64250163802E-02  0.14062379221E-01  0.00000000000E+00 0. -1.
     999901    1    3    3    0    0 -0.26678232406E-01 -0.12830588738E+00 -0.34843329493E-01  0.89038653765E+00  0.88000000000E+00 0.  1.
        -11    1    4    4    0    0  0.66870234266E-02  0.91098997631E-01  0.22698994462E-01  0.94123584304E-01  0.51100000000E-03 0.  1.
         11    1    4    4    0    0  0.31445282530E-01  0.32179577052E-01  0.57193186513E-02  0.45357498822E-01  0.51100000000E-03 0. -1.
</event>
<event>
 8    1  0.2039519E+004  0.1043930E+01  0.7957747E-01            NaN
         13   -1    0    0    0    0  0.00000000000E+00  0.00000000000E+00  0.74505805969E-08  0.10566000000E+00  0.10566000000E+00 0.  1.
     999900   -1    0    0    0    0 -0.00000000000E+00 -0.00000000000E+00 -0.74505805969E-08  0.93827000000E+00  0.93827000000E+00 0. -1.
     999902    2    1    2    0    0  0.37598500138E-02  0.40538556753E-02  0.14758391671E-01  0.10281699130E+01  0.10280491183E+01 0.  0.
     999903    2    3    3    0    0 -0.92661051224E-01  0.26069613151E-01 -0.86204039898E-01  0.13689268543E+00  0.45197076075E-01 0.  0.
         14    1    1    2    0    0 -0.37598500138E-02 -0.40538556753E-02 -0.14758391671E-01  0.15760087014E-01  0.00000000000E+00 0. -1.
     999901    1    3    3    0    0  0.96420901237E-01 -0.22015757476E-01  0.10096243157E+00  0.89127722756E+00  0.88000000000E+00 0.  1.
        -11    1    4    4    0    0 -0.57508394914E-01 -0.56037573178E-02 -0.36928796708E-01  0.68575613223E-01  0.51100000000E-03 0. -1.
         11    1    4    4    0    0 -0.35152656310E-01  0.31673370469E-01 -0.49275243189E-01  0.68317072206E-01  0.51100000000E-03 0.  1.
</event>
<event>
 8    1  0.2039519E+004  0.1043930E+01  0.7957747E-01            NaN
         13   -1    0    0    0    0  0.00000000000E+00  0.00000000000E+00  0.74505805969E-08  0.10566000000E+00  0.10566000000E+00 0.  1.
     999900   -1    0    0    0    0 -0.00000000000E+00 -0.00000000000E+00 -0.74505805969E-08  0.93827000000E+00  0.93827000000E+00 0.  1.
     999902    2    1    2    0    0  0.46271702381E-03  0.70625775368E-02 -0.12774844621E-01  0.10293255225E+01  0.10292219102E+01 0.  0.
     999903    2    3    3    0    0 -0.39631853390E-01  0.59515714562E-01  0.10983730764E+00  0.13837510521E+00  0.44391795494E-01 0.  0.
         14    1    1    2    0    0 -0.46271702381E-03 -0.70625775368E-02  0.12774844621E-01  0.14604477519E-01  0.00000000000E+00 0.  1.
     999901    1    3    3    0    0  0.40094570414E-01 -0.52453137025E-01 -0.12261215227E+00  0.89095041728E+00  0.88000000000E+00 0. -1.
        -11    1    4    4    0    0  0.49816177675E-02  0.30497052013E-01  0.42272044755E-01  0.52364812478E-01  0.51100000000E-03 0.  1.
         11    1    4    4    0    0 -0.44613471157E-01  0.29018662548E-01  0.67565262890E-01  0.86010292728E-01  0.51100000000E-03 0. -1.
</event>
<event>
 8    1  0.2039519E+004  0.1043930E+01  0.7957747E-01            NaN
         13   -1    0    0    0    0  0.00000000000E+00  0.00000000000E+00  0.74505805969E-08  0.10566000000E+00  0.10566000000E+00 0. -1.
     999900   -1    0    0    0    0 -0.00000000000E+00 -0.00000000000E+00 -0.74505805969E-08  0.93827000000E+00  0.93827000000E+00 0.  1.
     999902    2    1    2    0    0 -0.19856933463E-02  0.12788486816E-01 -0.20465009073E-02  0.10308274606E+01  0.10307441860E+01 0.  0.
     999903    2    3    3    0    0 -0.12961783877E+00  0.12412494532E-01  0.28867068112E-01  0.14108269119E+00  0.46001782402E-01 0.  0.
         14    1    1    2    0    0  0.19856933463E-02 -0.12788486816E-01  0.20465009073E-02  0.13102539413E-01  0.00000000000E+00 0.  1.
     999901    1    3    3    0    0  0.12763214543E+00  0.37599228362E-03 -0.30913569019E-01  0.88974476939E+00  0.88000000000E+00 0.  1.
        -11    1    4    4    0    0 -0.33694943888E-01 -0.16944228153E-01  0.97936477801E-02  0.38969639069E-01  0.51100000000E-03 0. -1.
         11    1    4    4    0    0 -0.95922894885E-01  0.29356722685E-01  0.19073420332E-01  0.10211305212E+00  0.51100000000E-03 0.  1.
</event>
<event>
 8    1  0.2039519E+004  0.1043930E+01  0.7957747E-01            NaN
         13   -1    0    0    0    0  0.00000000000E+00  0.00000000000E+00  0.74505805969E-08  0.10566000000E+00  0.10566000000E+00 0.  1.
     999900   -1    0    0    0    0 -0.00000000000E+00 -0.00000000000E+00 -0.74505805969E-08  0.93827000000E+00  0.93827000000E+00 0. -1.
     999902    2    1    2    0    0 -0.99382387887E-02  0.27174037421E-02 -0.86855322652E-02  0.10304544167E+01  0.10303663007E+01 0.  0.
     999903    2    3    3    0    0  0.81476783719E-01 -0.10131151881E+00  0.20872593208E-01  0.13913382019E+00  0.44945129257E-01 0.  0.
         14    1    1    2    0    0  0.99382387887E-02 -0.27174037421E-02  0.86855322652E-02  0.13475583254E-01  0.00000000000E+00 0.  1.
     999901    1    3    3    0    0 -0.91415022507E-01  0.10402892255E+00 -0.29558125473E-01  0.89132059656E+00  0.88000000000E+00 0. -1.
        -11    1    4    4    0    0  0.17908990179E-01 -0.43567831484E-01 -0.94708126484E-02  0.48050445187E-01  0.51100000000E-03 0.  1.
         11    1    4    4    0    0  0.63567793540E-01 -0.57743687327E-01  0.30343405856E-01  0.91083375001E-01  0.51100000000E-03 0. -1.
</event>
<event>
 8    1  0.2039519E+004  0.1043930E+01  0.7957747E-01            NaN
         13   -1    0    0    0    0  0.00000000000E+00  0.00000000000E+00  0.74505805969E-08  0.10566000000E+00  0.10566000000E+00 0. -1.
     999900   -1    0    0    0    0 -0.00000000000E+00 -0.00000000000E+00 -0.74505805969E-08  0.93827000000E+00  0.93827000000E+00 0.  1.
     999902    2    1    2    0    0  0.21224245131E-02 -0.14408924702E-01  0.35734351302E-02  0.10289336259E+01  0.10288243365E+01 0.  0.
     999903    2    3    3    0    0  0.57403510035E-01 -0.11586933720E+00 -0.33343395439E-01  0.14061326361E+00  0.44039091891E-01 0.  0.
         14    1    1    2    0    0 -0.21224245131E-02  0.14408924702E-01 -0.35734351302E-02  0.14996374079E-01  0.00000000000E+00 0. -1.
     999901    1    3    3    0    0 -0.55281085522E-01  0.10146041250E+00  0.36916830569E-01  0.88832036231E+00  0.88000000000E+00 0.  1.
        -11    1    4    4    0    0  0.35058413933E-01 -0.42729048620E-01  0.41679801489E-02  0.55430110617E-01  0.51100000000E-03 0. -1.
         11    1    4    4    0    0  0.22345096102E-01 -0.73140288584E-01 -0.37511375588E-01  0.85183152991E-01  0.51100000000E-03 0.  1.
</event>
<event>
 8    1  0.2039519E+004  0.1043930E+01  0.7957747E-01            NaN
         13   -1    0    0    0    0  0.00000000000E+00  0.00000000000E+00  0.74505805969E-08  0.10566000000E+00  0.10566000000E+00 0.  1.
     999900   -1    0    0    0    0 -0.00000000000E+00 -0.00000000000E+00 -0.74505805969E-08  0.93827000000E+00  0.93827000000E+00 0.  1.
     999902    2    1    2    0    0 -0.54535423717E-02  0.41707306111E-02  0.11778910012E-01  0.10302962610E+01  0.10302060505E+01 0.  0.
     999903    2    3    3    0    0 -0.87948049453E-01 -0.93260619963E-01  0.36017830455E-01  0.14075382972E+00  0.45628432272E-01 0.  0.
         14    1    1    2    0    0  0.54535423717E-02 -0.41707306111E-02 -0.11778910012E-01  0.13633739006E-01  0.00000000000E+00 0. -1.
     999901    1    3    3    0    0  0.82494507082E-01  0.97431350574E-01 -0.24238920443E-01  0.88954243127E+00  0.88000000000E+00 0.  1.
        -11    1    4    4    0    0 -0.74518148020E-01 -0.76115883796E-01  0.46915613962E-01  0.11639552442E+00  0.51100000000E-03 0. -1.
         11    1    4    4    0    0 -0.13429901433E-01 -0.17144736167E-01 -0.10897783507E-01  0.24358305300E-01  0.51100000000E-03 0.  1.
</event>
<event>
 8    1  0.2039519E+004  0.1043930E+01  0.7957747E-01            NaN
         13   -1    0    0    0    0  0.00000000000E+00  0.00000000000E+00  0.74505805969E-08  0.10566000000E+00  0.10566000000E+00 0.  1.
     999900   -1    0    0    0    0 -0.00000000000E+00 -0.00000000000E+00 -0.74505805969E-08  0.93827000000E+00  0.93827000000E+00 0.  1.
     999902    2    1    2    0    0  0.56881766569E-02  0.29039027592E-02 -0.12269767922E-01  0.10300976029E+01  0.10300047263E+01 0.  0.
     999903    2    3    3    0    0 -0.12925030343E+00  0.14458384644E-01 -0.23859236630E-01  0.13966163369E+00  0.44960237193E-01 0.  0.
         14    1    1    2    0    0 -0.56881766569E-02 -0.29039027592E-02  0.12269767922E-01  0.13832397108E-01  0.00000000000E+00 0.  1.
     999901    1    3    3    0    0  0.13493848009E+00 -0.11554481885E-01  0.11589468708E-01  0.89043596920E+00  0.88000000000E+00 0. -1.
        -11    1    4    4    0    0 -0.12255401372E+00  0.15211330006E-01 -0.95830065856E-02  0.12386672666E+00  0.51100000000E-03 0.  1.
         11    1    4    4    0    0 -0.66962897189E-02 -0.75294536167E-03 -0.14276230044E-01  0.15794907027E-01  0.51100000000E-03 0. -1.
</event>
<event>
 8    1  0.2039519E+004  0.1043930E+01  0.7957747E-01            NaN
         13   -1    0    0    0    0  0.00000000000E+00  0.00000000000E+00  0.74505805969E-08  0.10566000000E+00  0.10566000000E+00 0. -1.
     999900   -1    0    0    0    0 -0.00000000000E+00 -0.00000000000E+00 -0.74505805969E-08  0.93827000000E+00  0.93827000000E+00 0.  1.
     999902    2    1    2    0    0 -0.10378011500E-01  0.96982343602E-02 -0.17436022635E-02  0.10296191991E+01  0.10295197406E+01 0.  0.
     999903    2    3    3    0    0 -0.69496206400E-01  0.41078136657E-01  0.10578273775E+00  0.14055138787E+00  0.45250071959E-01 0.  0.
         14    1    1    2    0    0  0.10378011500E-01 -0.96982343602E-02  0.17436022635E-02  0.14310800860E-01  0.00000000000E+00 0. -1.
     999901    1    3    3    0    0  0.59118194899E-01 -0.31379902297E-01 -0.10752634001E+00  0.88906781127E+00  0.88000000000E+00 0.  1.
        -11    1    4    4    0    0 -0.23383872554E-01 -0.49292572775E-02  0.47358380765E-01  0.53048849400E-01  0.51100000000E-03 0.  1.
         11    1    4    4    0    0 -0.46112333846E-01  0.46007393935E-01  0.58424356982E-01  0.87502538473E-01  0.51100000000E-03 0. -1.
</event>
<event>
 8    1  0.2039519E+004  0.1043930E+01  0.7957747E-01            NaN
         13   -1    0    0    0    0  0.00000000000E+00  0.00000000000E+00  0.74505805969E-08  0.10566000000E+00  0.10566000000E+00 0.  1.
     999900   -1    0    0    0    0 -0.00000000000E+00 -0.00000000000E+00 -0.74505805969E-08  0.93827000000E+00  0.93827000000E+00 0. -1.
     999902    2    1    2    0    0 -0.13565750380E-01  0.26381450513E-02  0.46506954153E-02  0.10293485611E+01  0.10292452778E+01 0.  0.
     999903    2    3    3    0    0  0.59543268131E-01 -0.11407008862E+00 -0.23329460924E-01  0.13819838882E+00  0.44689428584E-01 0.  0.
         14    1    1    2    0    0  0.13565750380E-01 -0.26381450513E-02 -0.46506954153E-02  0.14581438905E-01  0.00000000000E+00 0.  1.
     999901    1    3    3    0    0 -0.73109018511E-01  0.11670823368E+00  0.27980156339E-01  0.89115017227E+00  0.88000000000E+00 0. -1.
        -11    1    4    4    0    0  0.19568273178E-01 -0.22719263627E-01 -0.24110849008E-01  0.38479558415E-01  0.51100000000E-03 0. -1.
         11    1    4    4    0    0  0.39974994953E-01 -0.91350824998E-01  0.78138808402E-03  0.99718830406E-01  0.51100000000E-03 0.  1.
</event>
<event>
 8    1  0.2039519E+004  0.1043930E+01  0.7957747E-01            NaN
         13   -1    0    0    0    0  0.00000000000E+00  0.00000000000E+00  0.74505805969E-08  0.10566000000E+00  0.10566000000E+00 0. -1.
     999900   -1    0    0    0    0 -0.00000000000E+00 -0.00000000000E+00 -0.74505805969E-08  0.93827000000E+00  0.93827000000E+00 0.  1.
     999902    2    1    2    0    0 -0.18303008991E-02  0.94006482785E-02 -0.13157972011E-01  0.10276556516E+01  0.10275267801E+01 0.  0.
     999903    2    3    3    0    0 -0.86396535992E-01 -0.17539433398E-01 -0.97733005416E-01  0.13915683199E+00  0.45176214828E-01 0.  0.
         14    1    1    2    0    0  0.18303008991E-02 -0.94006482785E-02  0.13157972011E-01  0.16274348432E-01  0.00000000000E+00 0.  1.
     999901    1    3    3    0    0  0.84566235093E-01  0.26940081677E-01  0.84575033405E-01  0.88849881958E+00  0.88000000000E+00 0. -1.
        -11    1    4    4    0    0 -0.21904398939E-01  0.71998242259E-02 -0.51271818286E-02  0.23626029634E-01  0.51100000000E-03 0.  1.
         11    1    4    4    0    0 -0.64492137053E-01 -0.24739257624E-01 -0.92605823587E-01  0.11553080236E+00  0.51100000000E-03 0. -1.
</event>
<event>
 8    1  0.2039519E+004  0.1043930E+01  0.7957747E-01            NaN
         13   -1    0    0    0    0  0.00000000000E+00  0.00000000000E+00  0.74505805969E-08  0.10566000000E+00  0.10566000000E+00 0. -1.
     999900   -1    0    0    0    0 -0.00000000000E+00 -0.00000000000E+00 -0.74505805969E-08  0.93827000000E+00  0.93827000000E+00 0.  1.
     999902    2    1    2    0    0 -0.13313551886E-01 -0.14058300103E-02 -0.83554282806E-02  0.10281489923E+01  0.10280278742E+01 0.  0.
     999903    2    3    3    0    0 -0.39547979669E-01  0.99222177622E-01 -0.78000650952E-01  0.13929315577E+00  0.43696664252E-01 0.  0.
         14    1    1    2    0    0  0.13313551886E-01  0.14058300103E-02  0.83554282806E-02  0.15781007686E-01  0.00000000000E+00 0. -1.
     999901    1    3    3    0    0  0.26234427783E-01 -0.10062800763E+00  0.69645222671E-01  0.88885583655E+00  0.88000000000E+00 0.  1.
        -11    1    4    4    0    0 -0.22361677294E-01  0.40561482178E-01 -0.59544169416E-01  0.75439032870E-01  0.51100000000E-03 0.  1.
         11    1    4    4    0    0 -0.17186302375E-01  0.58660695445E-01 -0.18456481535E-01  0.63854122898E-01  0.51100000000E-03 0. -1.
</event>
<event>
 8    1  0.2039519E+004  0.1043930E+01  0.7957747E-01            NaN
         13   -1    0    0    0    0  0.00000000000E+00  0.00000000000E+00  0.74505805969E-08  0.10566000000E+00  0.10566000000E+00 0.  1.
     999900   -1    0    0    0    0 -0.00000000000E+00 -0.00000000000E+00 -0.74505805969E-08  0.93827000000E+00  0.93827000000E+00 0. -1.
     999902    2    1    2    0    0  0.95821090470E-02 -0.10823350407E-01 -0.22745560150E-02  0.10292966363E+01  0.10291926108E+01 0.  0.
     999903    2    3    3    0    0 -0.62320897067E-01 -0.59521616444E-01 -0.10034952263E+00  0.13959991131E+00  0.44625009920E-01 0.  0.
         14    1    1    2    0    0 -0.95821090470E-02  0.10823350407E-01  0.22745560150E-02  0.14633363690E-01  0.00000000000E+00 0. -1.
     999901    1    3    3    0    0  0.71903006114E-01  0.48698266036E-01  0.98074966612E-01  0.88969672500E+00  0.88000000000E+00 0.  1.
        -11    1    4    4    0    0 -0.21643253158E-01 -0.15119748983E-01 -0.64063838832E-01  0.69292667602E-01  0.51100000000E-03 0. -1.
         11    1    4    4    0    0 -0.40677643909E-01 -0.44401867460E-01 -0.36285683795E-01  0.70307243705E-01  0.51100000000E-03 0.  1.
</event>
<event>
 8    1  0.2039519E+004  0.1043930E+01  0.7957747E-01            NaN
         13   -1    0    0    0    0  0.00000000000E+00  0.00000000000E+00  0.74505805969E-08  0.10566000000E+00  0.10566000000E+00 0.  1.
     999900   -1    0    0    0    0 -0.00000000000E+00 -0.00000000000E+00 -0.74505805969E-08  0.93827000000E+00  0.93827000000E+00 0. -1.
     999902    2    1    2    0    0  0.10006886598E-01  0.88945327517E-02 -0.25303518528E-02  0.10303045395E+01  0.10302144393E+01 0.  0.
     999903    2    3    3    0    0 -0.12721975401E+00 -0.20836705370E-01 -0.26009257088E-01  0.13886393221E+00  0.44583361369E-01 0.  0.
         14    1    1    2    0    0 -0.10006886598E-01 -0.88945327517E-02  0.25303518528E-02  0.13625460460E-01  0.00000000000E+00 0.  1.
     999901    1    3    3    0    0  0.13722664061E+00  0.29731238122E-01  0.23478905235E-01  0.89144060733E+00  0.88000000000E+00 0.  1.
        -11    1    4    4    0    0 -0.10088608502E+00 -0.20209861063E-02 -0.66033403736E-02  0.10112344812E+00  0.51100000000E-03 0. -1.
         11    1    4    4    0    0 -0.26333668996E-01 -0.18815719264E-01 -0.19405916714E-01  0.37740484082E-01  0.51100000000E-03 0.  1.
</event>
<event>
 8    1  0.2039519E+004  0.1043930E+01  0.7957747E-01            NaN
         13   -1    0    0    0    0  0.00000000000E+00  0.00000000000E+00  0.74505805969E-08  0.10566000000E+00  0.10566000000E+00 0.  1.
     999900   -1    0    0    0    0 -0.00000000000E+00 -0.00000000000E+00 -0.74505805969E-08  0.93827000000E+00  0.93827000000E+00 0.  1.
     999902    2    1    2    0    0  0.12375769611E-01  0.10975186344E-02  0.20257605772E-02  0.10313415956E+01  0.10312647666E+01 0.  0.
     999903    2    3    3    0    0  0.89806889361E-01  0.97015973033E-01 -0.25724711245E-01  0.14231627708E+00  0.45986797592E-01 0.  0.
         14    1    1    2    0    0 -0.12375769611E-01 -0.10975186344E-02 -0.20257605772E-02  0.12588404448E-01  0.00000000000E+00 0.  1.
     999901    1    3    3    0    0 -0.77431119750E-01 -0.95918454399E-01  0.27750471822E-01  0.88902531847E+00  0.88000000000E+00 0. -1.
        -11    1    4    4    0    0  0.25553859838E-01  0.17197546869E-01  0.12089694794E-01  0.33093461773E-01  0.51100000000E-03 0.  1.
         11    1    4    4    0    0  0.64253029523E-01  0.79818426164E-01 -0.37814406039E-01  0.10922281531E+00  0.51100000000E-03 0. -1.
</event>
<event>
 8    1  0.2039519E+004  0.1043930E+01  0.7957747E-01            NaN
         13   -1    0    0    0    0  0.00000000000E+00  0.00000000000E+00  0.74505805969E-08  0.10566000000E+00  0.10566000000E+00 0. -1.
     999900   -1    0    0    0    0 -0.00000000000E+00 -0.00000000000E+00 -0.74505805969E-08  0.93827000000E+00  0.93827000000E+00 0. -1.
     999902    2    1    2    0    0  0.57823325446E-02 -0.95515300939E-02 -0.70805005459E-02  0.10307087828E+01  0.10306239830E+01 0.  0.
     999903    2    3    3    0    0 -0.10176626406E+00 -0.67842270136E-01 -0.55577857323E-01  0.14092425571E+00  0.42565261689E-01 0.  0.
         14    1    1    2    0    0 -0.57823325446E-02  0.95515300939E-02  0.70805005459E-02  0.13221217220E-01  0.00000000000E+00 0. -1.
     999901    1    3    3    0    0  0.10754859661E+00  0.58290740042E-01  0.48497356777E-01  0.88978452707E+00  0.88000000000E+00 0.  1.
        -11    1    4    4    0    0 -0.47719137258E-01 -0.18275289421E-01 -0.39825467723E-02  0.51256453875E-01  0.51100000000E-03 0. -1.
         11    1    4    4    0    0 -0.54047126807E-01 -0.49566980715E-01 -0.51595310551E-01  0.89667801831E-01  0.51100000000E-03 0.  1.
</event>
<event>
 8    1  0.2039519E+004  0.1043930E+01  0.7957747E-01            NaN
         13   -1    0    0    0    0  0.00000000000E+00  0.00000000000E+00  0.74505805969E-08  0.10566000000E+00  0.10566000000E+00 0. -1.
     999900   -1    0    0    0    0 -0.00000000000E+00 -0.00000000000E+00 -0.74505805969E-08  0.93827000000E+00  0.93827000000E+00 0.  1.
     999902    2    1    2    0    0 -0.33272558371E-02 -0.92569713465E-02  0.11162796051E-01  0.10290514864E+01  0.10289439205E+01 0.  0.
     999903    2    3    3    0    0 -0.32843584772E-01  0.95304658254E-01 -0.81902013275E-01  0.13749924076E+00  0.45126738020E-01 0.  0.
         14    1    1    2    0    0  0.33272558371E-02  0.92569713465E-02 -0.11162796051E-01  0.14878513555E-01  0.00000000000E+00 0.  1.
     999901    1    3    3    0    0  0.29516328934E-01 -0.10456162960E+00  0.93064809327E-01  0.89155224569E+00  0.88000000000E+00 0. -1.
        -11    1    4    4    0    0 -0.21154519927E-01  0.72619312171E-01 -0.82553340503E-01  0.11196603665E+00  0.51100000000E-03 0.  1.
         11    1    4    4    0    0 -0.11689064845E-01  0.22685346083E-01  0.65132722725E-03  0.25533204108E-01  0.51100000000E-03 0. -1.
</event>
<event>
 8    1  0.2039519E+004  0.1043930E+01  0.7957747E-01            NaN
         13   -1    0    0    0    0  0.00000000000E+00  0.00000000000E+00  0.74505805969E-08  0.10566000000E+00  0.10566000000E+00 0.  1.
     999900   -1    0    0    0    0 -0.00000000000E+00 -0.00000000000E+00 -0.74505805969E-08  0.93827000000E+00  0.93827000000E+00 0. -1.
     999902    2    1    2    0    0 -0.83630208705E-02  0.93447147935E-02  0.19485995334E-02  0.10312390248E+01  0.10311609309E+01 0.  0.
     999903    2    3    3    0    0  0.40574448420E-01  0.95805423627E-01 -0.84983329429E-01  0.14139213323E+00  0.44097664315E-01 0.  0.
         14    1    1    2    0    0  0.83630208705E-02 -0.93447147935E-02 -0.19485995334E-02  0.12690975250E-01  0.00000000000E+00 0. -1.
     999901    1    3    3    0    0 -0.48937469290E-01 -0.86460708833E-01  0.86931928962E-01  0.88984689152E+00  0.88000000000E+00 0.  1.
        -11    1    4    4    0    0  0.19940114131E-02  0.59617059845E-01 -0.51318835910E-01  0.78689605071E-01  0.51100000000E-03 0.  1.
         11    1    4    4    0    0  0.38580437007E-01  0.36188363781E-01 -0.33664493519E-01  0.62702528160E-01  0.51100000000E-03 0. -1.
</event>
<event>
 8    1  0.2039519E+004  0.1043930E+01  0.7957747E-01            NaN
         13   -1    0    0    0    0  0.00000000000E+00  0.00000000000E+00  0.74505805969E-08  0.10566000000E+00  0.10566000000E+00 0. -1.
     999900   -1    0    0    0    0 -0.00000000000E+00 -0.00000000000E+00 -0.74505805969E-08  0.93827000000E+00  0.93827000000E+00 0.  1.
     999902    2    1    2    0    0  0.12567731084E-01 -0.63236890026E-02  0.41746395209E-03  0.10298548025E+01  0.10297586140E+01 0.  0.
     999903    2    3    3    0    0  0.85245978990E-01 -0.39088837554E-01 -0.95160313372E-01  0.14109679600E+00  0.45365255933E-01 0.  0.
         14    1    1    2    0    0 -0.12567731084E-01  0.63236890026E-02 -0.41746395209E-03  0.14075197453E-01  0.00000000000E+00 0. -1.
     999901    1    3    3    0    0 -0.72678247906E-01  0.32765148551E-01  0.95577777324E-01  0.88875800654E+00  0.88000000000E+00 0. -1.
        -11    1    4    4    0    0  0.51698564350E-01 -0.41625084355E-01 -0.43205430822E-01  0.79198229633E-01  0.51100000000E-03 0. -1.
         11    1    4    4    0    0  0.33547414639E-01  0.25362468016E-02 -0.51954882550E-01  0.61898566370E-01  0.51100000000E-03 0.  1.
</event>
<event>
 8    1  0.2195681E+004  0.1043930E+01  0.7957747E-01            NaN
         13   -1    0    0    0    0  0.00000000000E+00  0.00000000000E+00  0.74505805969E-08  0.10566000000E+00  0.10566000000E+00 0. -1.
     999900   -1    0    0    0    0 -0.00000000000E+00 -0.00000000000E+00 -0.74505805969E-08  0.93827000000E+00  0.93827000000E+00 0.  1.
     999902    2    1    2    0    0  0.10690109152E-01 -0.95219116803E-02  0.23541881273E-02  0.10294218148E+01  0.10293195740E+01 0.  0.
     999903    2    3    3    0    0  0.12421057919E+00  0.24938103783E-01 -0.40463756421E-01  0.14042925795E+00  0.45087513790E-01 0.  0.
         14    1    1    2    0    0 -0.10690109152E-01  0.95219116803E-02 -0.23541881273E-02  0.14508185189E-01  0.00000000000E+00 0.  1.
     999901    1    3    3    0    0 -0.11352047004E+00 -0.34460015463E-01  0.42817944548E-01  0.88899255686E+00  0.88000000000E+00 0. -1.
        -11    1    4    4    0    0  0.84579061190E-01  0.18817093894E-01 -0.48335175675E-02  0.86783204755E-01  0.51100000000E-03 0. -1.
         11    1    4    4    0    0  0.39631518005E-01  0.61210098889E-02 -0.35630238853E-01  0.53646053193E-01  0.51100000000E-03 0.  1.
</event>
<event>
 8    1  0.2039519E+004  0.1043930E+01  0.7957747E-01            NaN
         13   -1    0    0    0    0  0.00000000000E+00  0.00000000000E+00  0.74505805969E-08  0.10566000000E+00  0.10566000000E+00 0. -1.
     999900   -1    0    0    0    0 -0.00000000000E+00 -0.00000000000E+00 -0.74505805969E-08  0.93827000000E+00  0.93827000000E+00 0.  1.
     999902    2    1    2    0    0  0.86157257103E-02 -0.18293168637E-02 -0.93622045250E-02  0.10310758955E+01  0.10309957683E+01 0.  0.
     999903    2    3    3    0    0 -0.77215750251E-01 -0.10063805822E+00 -0.42197260441E-01  0.14079035109E+00  0.44170389656E-01 0.  0.
         14    1    1    2    0    0 -0.86157257103E-02  0.18293168637E-02  0.93622045250E-02  0.12854104530E-01  0.00000000000E+00 0. -1.
     999901    1    3    3    0    0  0.85831475961E-01  0.98808741356E-01  0.32835055916E-01  0.89028554438E+00  0.88000000000E+00 0. -1.
        -11    1    4    4    0    0 -0.23018324896E-01 -0.11415649597E-01  0.50690379475E-02  0.26193827583E-01  0.51100000000E-03 0.  1.
         11    1    4    4    0    0 -0.54197425355E-01 -0.89222408623E-01 -0.47266298388E-01  0.11459652351E+00  0.51100000000E-03 0. -1.
</event>
<event>
 8    1  0.2039519E+004  0.1043930E+01  0.7957747E-01            NaN
         13   -1    0    0    0    0  0.00000000000E+00  0.00000000000E+00  0.74505805969E-08  0.10566000000E+00  0.10566000000E+00 0.  1.
     999900   -1    0    0    0    0 -0.00000000000E+00 -0.00000000000E+00 -0.74505805969E-08  0.93827000000E+00  0.93827000000E+00 0.  1.
     999902    2    1    2    0    0 -0.86011681333E-02  0.70940153448E-02  0.81139478123E-02  0.10301408269E+01  0.10300485337E+01 0.  0.
     999903    2    3    3    0    0 -0.33413087889E-01  0.52066573021E-01  0.11916556925E+00  0.14167550680E+00  0.45212319839E-01 0.  0.
         14    1    1    2    0    0  0.86011681333E-02 -0.70940153448E-02 -0.81139478123E-02  0.13789173147E-01  0.00000000000E+00 0. -1.
     999901    1    3    3    0    0  0.24811919755E-01 -0.44972557677E-01 -0.11105162144E+00  0.88846532005E+00  0.88000000000E+00 0.  1.
        -11    1    4    4    0    0  0.10106643609E-01  0.71736670405E-02  0.32676995650E-01  0.34952151716E-01  0.51100000000E-03 0. -1.
         11    1    4    4    0    0 -0.43519731498E-01  0.44892905981E-01  0.86488573599E-01  0.10672335509E+00  0.51100000000E-03 0.  1.
</event>
<event>
 8    1  0.2039519E+004  0.1043930E+01  0.7957747E-01            NaN
         13   -1    0    0    0    0  0.00000000000E+00  0.00000000000E+00  0.74505805969E-08  0.10566000000E+00  0.10566000000E+00 0.  1.
     999900   -1    0    0    0    0 -0.00000000000E+00 -0.00000000000E+00 -0.74505805969E-08  0.93827000000E+00  0.93827000000E+00 0. -1.
     999902    2    1    2    0    0  0.78499393846E-02  0.64353243582E-02 -0.92424890396E-02  0.10302019793E+01  0.10301105085E+01 0.  0.
     999903    2    3    3    0    0 -0.79989294986E-01  0.69918021187E-01  0.78119106192E-01  0.13925987559E+00  0.44764955021E-01 0.  0.
         14    1    1    2    0    0 -0.78499393846E-02 -0.64353243582E-02  0.92424890396E-02  0.13728020673E-01  0.00000000000E+00 0.  1.
     999901    1    3    3    0    0  0.87839234370E-01 -0.63482696829E-01 -0.87361595231E-01  0.89094210374E+00  0.88000000000E+00 0. -1.
        -11    1    4    4    0    0 -0.20303063258E-01  0.30008797683E-01  0.50882144555E-01  0.62465959302E-01  0.51100000000E-03 0. -1.
         11    1    4    4    0    0 -0.59686231728E-01  0.39909223503E-01  0.27236961637E-01  0.76793916288E-01  0.51100000000E-03 0.  1.
</event>
<event>
 8    1  0.2039519E+004  0.1043930E+01  0.7957747E-01            NaN
         13   -1    0    0    0    0  0.00000000000E+00  0.00000000000E+00  0.74505805969E-08  0.10566000000E+00  0.10566000000E+00 0.  1.
     999900   -1    0    0    0    0 -0.00000000000E+00 -0.00000000000E+00 -0.74505805969E-08  0.93827000000E+00  0.93827000000E+00 0. -1.
     999902    2    1    2    0    0  0.10452124211E-01  0.47678743367E-02 -0.77658606321E-02  0.10300632009E+01  0.10299698586E+01 0.  0.
     999903    2    3    3    0    0 -0.10022251291E-01  0.70616792157E-01 -0.11291815534E+00  0.14112434747E+00  0.45589415319E-01 0.  0.
         14    1    1    2    0    0 -0.10452124211E-01 -0.47678743367E-02  0.77658606321E-02  0.13866799111E-01  0.00000000000E+00 0. -1.
     999901    1    3    3    0    0  0.20474375502E-01 -0.65848917820E-01  0.10515229471E+00  0.88893885342E+00  0.88000000000E+00 0.  1.
        -11    1    4    4    0    0 -0.26513119761E-01  0.57201830323E-01 -0.78758000479E-01  0.10088646427E+00  0.51100000000E-03 0. -1.
         11    1    4    4    0    0  0.16490868470E-01  0.13414961834E-01 -0.34160154860E-01  0.40237883207E-01  0.51100000000E-03 0.  1.
</event>
<event>
 8    1  0.2039519E+004  0.1043930E+01  0.7957747E-01            NaN
         13   -1    0    0    0    0  0.00000000000E+00  0.00000000000E+00  0.74505805969E-08  0.10566000000E+00  0.10566000000E+00 0. -1.
     999900   -1    0    0    0    0 -0.00000000000E+00 -0.00000000000E+00 -0.74505805969E-08  0.93827000000E+00  0.93827000000E+00 0. -1.
     999902    2    1    2    0    0 -0.16104779577E-02  0.10603481314E-01 -0.65274974421E-02  0.10313746952E+01  0.10312982722E+01 0.  0.
     999903    2    3    3    0    0  0.97805001176E-01 -0.81005539181E-01 -0.39021326295E-01  0.14045859421E+00  0.45587686370E-01 0.  0.
         14    1    1    2    0    0  0.16104779577E-02 -0.10603481314E-01  0.65274974421E-02  0.12555304779E-01  0.00000000000E+00 0.  1.
     999901    1    3    3    0    0 -0.99415479133E-01  0.91609020496E-01  0.32493828853E-01  0.89091610101E+00  0.88000000000E+00 0.  1.
        -11    1    4    4    0    0  0.38597823922E-01 -0.46867520197E-01 -0.38905217893E-01  0.72112644947E-01  0.51100000000E-03 0.  1.
         11    1    4    4    0    0  0.59207177253E-01 -0.34138018984E-01 -0.11610840252E-03  0.68345949263E-01  0.51100000000E-03 0. -1.
</event>
<event>
 8    1  0.2039519E+004  0.1043930E+01  0.7957747E-01            NaN
         13   -1    0    0    0    0  0.00000000000E+00  0.00000000000E+00  0.74505805969E-08  0.10566000000E+00  0.10566000000E+00 0.  1.
     999900   -1    0    0    0    0 -0.00000000000E+00 -0.00000000000E+00 -0.74505805969E-08  0.93827000000E+00  0.93827000000E+00 0.  1.
     999902    2    1    2    0    0  0.17776240033E-01 -0.10364091800E-01 -0.11927202655E-02  0.10233185544E+01  0.10231109578E+01 0.  0.
     999903    2    3    3    0    0  0.10058932395E+00  0.59421126620E-01  0.50898668230E-01  0.13515106099E+00  0.45011692680E-01 0.  0.
         14    1    1    2    0    0 -0.17776240033E-01  0.10364091800E-01  0.11927202655E-02  0.20611445611E-01  0.00000000000E+00 0. -1.
     999901    1    3    3    0    0 -0.82813083915E-01 -0.69785218420E-01 -0.52091388496E-01  0.88816749340E+00  0.88000000000E+00 0. -1.
        -11    1    4    4    0    0  0.53970275239E-01  0.52122710717E-01  0.16688851831E-01  0.76865769223E-01  0.51100000000E-03 0. -1.
         11    1    4    4    0    0  0.46619048708E-01  0.72984159027E-02  0.34209816399E-01  0.58285291766E-01  0.51100000000E-03 0.  1.
</event>
<event>
 8    1  0.2039519E+004  0.1043930E+01  0.7957747E-01            NaN
         13   -1    0    0    0    0  0.00000000000E+00  0.00000000000E+00  0.74505805969E-08  0.10566000000E+00  0.10566000000E+00 0. -1.
     999900   -1    0    0    0    0 -0.00000000000E+00 -0.00000000000E+00 -0.74505805969E-08  0.93827000000E+00  0.93827000000E+00 0. -1.
     999902    2    1    2    0    0  0.74213916081E-02  0.68454670375E-03  0.12631994727E-01  0.10292632707E+01  0.10291587669E+01 0.  0.
     999903    2    3    3    0    0  0.21806149031E-01  0.12536826948E+00  0.37457458000E-01  0.14001119418E+00  0.44803595910E-01 0.  0.
         14    1    1    2    0    0 -0.74213916081E-02 -0.68454670375E-03 -0.12631994727E-01  0.14666729300E-01  0.00000000000E+00 0.  1.
     999901    1    3    3    0    0 -0.14384757423E-01 -0.12468372278E+00 -0.24825463273E-01  0.88925207652E+00  0.88000000000E+00 0. -1.
        -11    1    4    4    0    0  0.34756287359E-02  0.72358555269E-01 -0.21234630037E-03  0.72444093808E-01  0.51100000000E-03 0.  1.
         11    1    4    4    0    0  0.18330520295E-01  0.53009714214E-01  0.37669804300E-01  0.67567100370E-01  0.51100000000E-03 0. -1.
</event>
<event>
 8    1  0.2039519E+004  0.1043930E+01  0.7957747E-01            NaN
         13   -1    0    0    0    0  0.00000000000E+00  0.00000000000E+00  0.74505805969E-08  0.10566000000E+00  0.10566000000E+00 0.  1.
     999900   -1    0    0    0    0 -0.00000000000E+00 -0.00000000000E+00 -0.74505805969E-08  0.93827000000E+00  0.93827000000E+00 0.  1.
     999902    2    1    2    0    0 -0.69599590662E-02 -0.11259069970E-01 -0.29991740772E-02  0.10303578693E+01  0.10302684777E+01 0.  0.
     999903    2    3    3    0    0  0.71466104473E-01  0.90920294787E-01 -0.62301902568E-01  0.13900603997E+00  0.45466998940E-01 0.  0.
         14    1    1    2    0    0  0.69599590662E-02  0.11259069970E-01  0.29991740772E-02  0.13572130707E-01  0.00000000000E+00 0. -1.
     999901    1    3    3    0    0 -0.78426063540E-01 -0.10217936476E+00  0.59302728491E-01  0.89135182932E+00  0.88000000000E+00 0.  1.
        -11    1    4    4    0    0  0.44478357704E-01  0.32774270469E-01 -0.97332789551E-02  0.56102361350E-01  0.51100000000E-03 0. -1.
         11    1    4    4    0    0  0.26987746770E-01  0.58146024318E-01 -0.52568623613E-01  0.82903678623E-01  0.51100000000E-03 0.  1.
</event>
<event>
 8    1  0.2039519E+004  0.1043930E+01  0.7957747E-01            NaN
         13   -1    0    0    0    0  0.00000000000E+00  0.00000000000E+00  0.74505805969E-08  0.10566000000E+00  0.10566000000E+00 0.  1.
     999900   -1    0    0    0    0 -0.00000000000E+00 -0.00000000000E+00 -0.74505805969E-08  0.93827000000E+00  0.93827000000E+00 0.  1.
     999902    2    1    2    0    0 -0.62030150936E-02  0.11823388172E-01  0.97212335049E-03  0.10305428820E+01  0.10304559266E+01 0.  0.
     999903    2    3    3    0    0  0.75783013974E-01  0.99621146300E-01 -0.47975653377E-01  0.14103400621E+00  0.43834798882E-01 0.  0.
         14    1    1    2    0    0  0.62030150936E-02 -0.11823388172E-01 -0.97212335049E-03  0.13387117985E-01  0.00000000000E+00 0. -1.
     999901    1    3    3    0    0 -0.81986029067E-01 -0.87797758127E-01  0.48947776728E-01  0.88950887581E+00  0.88000000000E+00 0. -1.
        -11    1    4    4    0    0  0.28741204133E-01  0.70322439752E-01 -0.37137416458E-01  0.84562114270E-01  0.51100000000E-03 0. -1.
         11    1    4    4    0    0  0.47041809841E-01  0.29298706548E-01 -0.10838236919E-01  0.56471891937E-01  0.51100000000E-03 0.  1.
</event>
<event>
 8    1  0.2039519E+004  0.1043930E+01  0.7957747E-01            NaN
         13   -1    0    0    0    0  0.00000000000E+00  0.00000000000E+00  0.74505805969E-08  0.10566000000E+00  0.10566000000E+00 0. -1.
     999900   -1    0    0    0    0 -0.00000000000E+00 -0.00000000000E+00 -0.74505805969E-08  0.93827000000E+00  0.93827000000E+00 0. -1.
     999902    2    1    2    0    0 -0.33141404569E-02  0.11324249793E-01 -0.74819216852E-02  0.10299585537E+01  0.10298637876E+01 0.  0.
     999903    2    3    3    0    0  0.22614971069E-01 -0.12778870851E+00  0.15819254773E-01  0.13834895367E+00  0.45263597074E-01 0.  0.
         14    1    1    2    0    0  0.33141404569E-02 -0.11324249793E-01  0.74819216852E-02  0.13971446326E-01  0.00000000000E+00 0. -1.
     999901    1    3    3    0    0 -0.25929111526E-01  0.13911295831E+00 -0.23301176458E-01  0.89160960000E+00  0.88000000000E+00 0. -1.
        -11    1    4    4    0    0  0.14162262997E-01 -0.92507729016E-01 -0.95552171216E-02  0.94073444266E-01  0.51100000000E-03 0. -1.
         11    1    4    4    0    0  0.84527080720E-02 -0.35280979498E-01  0.25374471895E-01  0.44275509405E-01  0.51100000000E-03 0.  1.
</event>
<event>
 8    1  0.2039519E+004  0.1043930E+01  0.7957747E-01            NaN
         13   -1    0    0    0    0  0.00000000000E+00  0.00000000000E+00  0.74505805969E-08  0.10566000000E+00  0.10566000000E+00 0.  1.
     999900   -1    0    0    0    0 -0.00000000000E+00 -0.00000000000E+00 -0.74505805969E-08  0.93827000000E+00  0.93827000000E+00 0. -1.
     999902    2    1    2    0    0  0.66338070027E-03 -0.28494074867E-02 -0.13668797965E-01  0.10299516154E+01  0.10298567546E+01 0.  0.
     999903    2    3    3    0    0 -0.12592340937E+00  0.31584276280E-01 -0.27555023232E-01  0.14011864165E+00  0.44940882237E-01 0.  0.
         14    1    1    2    0    0 -0.66338070027E-03  0.28494074867E-02  0.13668797965E-01  0.13978384556E-01  0.00000000000E+00 0.  1.
     999901    1    3    3    0    0  0.12658679007E+00 -0.34433683767E-01  0.13886225267E-01  0.88983297379E+00  0.88000000000E+00 0. -1.
        -11    1    4    4    0    0 -0.82109550993E-01  0.37472422503E-01 -0.47739020734E-02  0.90383693632E-01  0.51100000000E-03 0.  1.
         11    1    4    4    0    0 -0.43813858381E-01 -0.58881462235E-02 -0.22781121159E-01  0.49734948019E-01  0.51100000000E-03 0. -1.
</event>
<event>
 8    1  0.2039519E+004  0.1043930E+01  0.7957747E-01            NaN
         13   -1    0    0    0    0  0.00000000000E+00  0.00000000000E+00  0.74505805969E-08  0.10566000000E+00  0.10566000000E+00 0. -1.
     999900   -1    0    0    0    0 -0.00000000000E+00 -0.00000000000E+00 -0.74505805969E-08  0.93827000000E+00  0.93827000000E+00 0. -1.
     999902    2    1    2    0    0  0.21598484824E-02  0.86353494999E-02 -0.10179928840E-01  0.10304072356E+01  0.10303184973E+01 0.  0.
     999903    2    3    3    0    0  0.32243095169E-01 -0.80159039251E-01 -0.10170907588E+00  0.14070670733E+00  0.44593190204E-01 0.  0.
         14    1    1    2    0    0 -0.21598484824E-02 -0.86353494999E-02  0.10179928840E-01  0.13522764423E-01  0.00000000000E+00 0.  1.
     999901    1    3    3    0    0 -0.30083246687E-01  0.88794388751E-01  0.91529147036E-01  0.88970052825E+00  0.88000000000E+00 0.  1.
        -11    1    4    4    0    0  0.12944415156E-01 -0.42437849343E-01 -0.20014199868E-01  0.48676054256E-01  0.51100000000E-03 0. -1.
         11    1    4    4    0    0  0.19298680013E-01 -0.37721189908E-01 -0.81694876008E-01  0.92030653074E-01  0.51100000000E-03 0.  1.
</event>
<event>
 8    1  0.2039519E+004  0.1043930E+01  0.7957747E-01            NaN
         13   -1    0    0    0    0  0.00000000000E+00  0.00000000000E+00  0.74505805969E-08  0.10566000000E+00  0.10566000000E+00 0.  1.
     999900   -1    0    0    0    0 -0.00000000000E+00 -0.00000000000E+00 -0.74505805969E-08  0.93827000000E+00  0.93827000000E+00 0.  1.
     999902    2    1    2    0    0  0.16203926429E-01  0.48240579725E-02  0.61444381387E-02  0.10259413122E+01  0.10257835948E+01 0.  0.
     999903    2    3    3    0    0  0.12692144666E+00  0.30907811361E-01 -0.81082937141E-02  0.13850575299E+00  0.45318349018E-01 0.  0.
         14    1    1    2    0    0 -0.16203926429E-01 -0.48240579725E-02 -0.61444381387E-02  0.17988687753E-01  0.00000000000E+00 0. -1.
     999901    1    3    3    0    0 -0.11071752023E+00 -0.26083753388E-01  0.14252731853E-01  0.88743555926E+00  0.88000000000E+00 0.  1.
        -11    1    4    4    0    0  0.87334117620E-01  0.21967177433E-01  0.15753651284E-01  0.91423430446E-01  0.51100000000E-03 0. -1.
         11    1    4    4    0    0  0.39587329040E-01  0.89406339278E-02 -0.23861944998E-01  0.47082322539E-01  0.51100000000E-03 0.  1.
</event>
<event>
 8    1  0.2039519E+004  0.1043930E+01  0.7957747E-01            NaN
         13   -1    0    0    0    0  0.00000000000E+00  0.00000000000E+00  0.74505805969E-08  0.10566000000E+00  0.10566000000E+00 0.  1.
     999900   -1    0    0    0    0 -0.00000000000E+00 -0.00000000000E+00 -0.74505805969E-08  0.93827000000E+00  0.93827000000E+00 0.  1.
     999902    2    1    2    0    0 -0.77947142881E-03  0.51389227226E-02  0.13086707251E-01  0.10298488776E+01  0.10297526075E+01 0.  0.
     999903    2    3    3    0    0  0.12238487012E+00  0.29333691887E-01  0.43088465424E-01  0.14043617955E+00  0.45024246384E-01 0.  0.
         14    1    1    2    0    0  0.77947142881E-03 -0.51389227226E-02 -0.13086707251E-01  0.14081122438E-01  0.00000000000E+00 0. -1.
     999901    1    3    3    0    0 -0.12316434154E+00 -0.24194769165E-01 -0.30001758174E-01  0.88941269801E+00  0.88000000000E+00 0.  1.
        -11    1    4    4    0    0  0.58657359795E-01 -0.55274529351E-02  0.70290211284E-02  0.59337229908E-01  0.51100000000E-03 0.  1.
         11    1    4    4    0    0  0.63727510320E-01  0.34861144822E-01  0.36059444296E-01  0.81098949647E-01  0.51100000000E-03 0. -1.
</event>
<event>
 8    1  0.2039519E+004  0.1043930E+01  0.7957747E-01            NaN
         13   -1    0    0    0    0  0.00000000000E+00  0.00000000000E+00  0.74505805969E-08  0.10566000000E+00  0.10566000000E+00 0. -1.
     999900   -1    0    0    0    0 -0.00000000000E+00 -0.00000000000E+00 -0.74505805969E-08  0.93827000000E+00  0.93827000000E+00 0.  1.
     999902    2    1    2    0    0  0.12051381249E-01  0.70221934691E-02 -0.20920911822E-03  0.10299804208E+01  0.10298859531E+01 0.  0.
     999903    2    3    3    0    0 -0.77980771556E-01 -0.10205156418E+00 -0.23971887560E-01  0.13837089976E+00  0.45566786405E-01 0.  0.
         14    1    1    2    0    0 -0.12051381249E-01 -0.70221934691E-02  0.20920911822E-03  0.13949579190E-01  0.00000000000E+00 0.  1.
     999901    1    3    3    0    0  0.90032152805E-01  0.10907375764E+00  0.23762678442E-01  0.89160952105E+00  0.88000000000E+00 0.  1.
        -11    1    4    4    0    0 -0.51577566090E-01 -0.78827653901E-01  0.26858673267E-02  0.94241813159E-01  0.51100000000E-03 0. -1.
         11    1    4    4    0    0 -0.26403205466E-01 -0.23223910274E-01 -0.26657754887E-01  0.44129086597E-01  0.51100000000E-03 0.  1.
</event>
<event>
 8    1  0.2039519E+004  0.1043930E+01  0.7957747E-01            NaN
         13   -1    0    0    0    0  0.00000000000E+00  0.00000000000E+00  0.74505805969E-08  0.10566000000E+00  0.10566000000E+00 0.  1.
     999900   -1    0    0    0    0 -0.00000000000E+00 -0.00000000000E+00 -0.74505805969E-08  0.93827000000E+00  0.93827000000E+00 0.  1.
     999902    2    1    2    0    0  0.29373883667E-02  0.46322922692E-02  0.12985316756E-01  0.10298337298E+01  0.10297372511E+01 0.  0.
     999903    2    3    3    0    0 -0.60871422289E-01  0.19833919754E-01  0.11734476024E+00  0.14124296504E+00  0.45618724150E-01 0.  0.
         14    1    1    2    0    0 -0.29373883667E-02 -0.46322922692E-02 -0.12985316756E-01  0.14096270192E-01  0.00000000000E+00 0. -1.
     999901    1    3    3    0    0  0.63808810656E-01 -0.15201627485E-01 -0.10435944348E+00  0.88859076477E+00  0.88000000000E+00 0. -1.
        -11    1    4    4    0    0 -0.76722479332E-02  0.23959606005E-01  0.34548818477E-01  0.42741175550E-01  0.51100000000E-03 0.  1.
         11    1    4    4    0    0 -0.53199174356E-01 -0.41256862508E-02  0.82795941758E-01  0.98501789485E-01  0.51100000000E-03 0. -1.
</event>
<event>
 8    1  0.2039519E+004  0.1043930E+01  0.7957747E-01            NaN
         13   -1    0    0    0    0  0.00000000000E+00  0.00000000000E+00  0.74505805969E-08  0.10566000000E+00  0.10566000000E+00 0.  1.
     999900   -1    0    0    0    0 -0.00000000000E+00 -0.00000000000E+00 -0.74505805969E-08  0.93827000000E+00  0.93827000000E+00 0.  1.
     999902    2    1    2    0    0 -0.35953185374E-02 -0.85437915928E-02  0.20471330518E-02  0.10344371899E+01  0.10343936322E+01 0.  0.
     999903    2    3    3    0    0  0.97066579371E-01  0.87152136606E-01 -0.36687293119E-01  0.14270242879E+00  0.44728178610E-01 0.  0.
         14    1    1    2    0    0  0.35953185374E-02  0.85437915928E-02 -0.20471330518E-02  0.94928101160E-02  0.00000000000E+00 0. -1.
     999901    1    3    3    0    0 -0.10066189791E+00 -0.95695928199E-01  0.38734426171E-01  0.89173476109E+00  0.88000000000E+00 0.  1.
        -11    1    4    4    0    0  0.38466421005E-01  0.51028996037E-01 -0.37033184637E-01  0.73860286128E-01  0.51100000000E-03 0.  1.
         11    1    4    4    0    0  0.58600158366E-01  0.36123140568E-01  0.34589151812E-03  0.68842142667E-01  0.51100000000E-03 0. -1.
</event>
<event>
 8    1  0.2039519E+004  0.1043930E+01  0.7957747E-01            NaN
         13   -1    0    0    0    0  0.00000000000E+00  0.00000000000E+00  0.74505805969E-08  0.10566000000E+00  0.10566000000E+00 0.  1.
     999900   -1    0    0    0    0 -0.00000000000E+00 -0.00000000000E+00 -0.74505805969E-08  0.93827000000E+00  0.93827000000E+00 0.  1.
     999902    2    1    2    0    0  0.11744792421E-01  0.47231034327E-02  0.66215962841E-02  0.10296438741E+01  0.10295447606E+01 0.  0.
     999903    2    3    3    0    0 -0.10705415086E+00  0.31705493739E-01  0.71348220454E-01  0.13889656193E+00  0.41663614874E-01 0.  0.
         14    1    1    2    0    0 -0.11744792421E-01 -0.47231034327E-02 -0.66215962841E-02  0.14286125871E-01  0.00000000000E+00 0. -1.
     999901    1    3    3    0    0  0.11879894328E+00 -0.26982390307E-01 -0.64726624170E-01  0.89074731220E+00  0.88000000000E+00 0.  1.
        -11    1    4    4    0    0 -0.98102811508E-01  0.37931675552E-01  0.53578441264E-01  0.11804187446E+00  0.51100000000E-03 0.  1.
         11    1    4    4    0    0 -0.89513393534E-02 -0.62261818128E-02  0.17769779190E-01  0.20854687474E-01  0.51100000000E-03 0. -1.
</event>
<event>
 8    1  0.2039519E+004  0.1043930E+01  0.7957747E-01            NaN
         13   -1    0    0    0    0  0.00000000000E+00  0.00000000000E+00  0.74505805969E-08  0.10566000000E+00  0.10566000000E+00 0. -1.
     999900   -1    0    0    0    0 -0.00000000000E+00 -0.00000000000E+00 -0.74505805969E-08  0.93827000000E+00  0.93827000000E+00 0. -1.
     999902    2    1    2    0    0  0.68923748259E-02 -0.11208869207E-01 -0.58021380211E-02  0.10295491660E+01  0.10294487248E+01 0.  0.
     999903    2    3    3    0    0  0.11663316211E+00 -0.26429770703E-01  0.57977850493E-01  0.14031207552E+00  0.44991333652E-01 0.  0.
         14    1    1    2    0    0 -0.68923748259E-02  0.11208869207E-01  0.58021380211E-02  0.14380833955E-01  0.00000000000E+00 0.  1.
     999901    1    3    3    0    0 -0.10974078729E+00  0.15220901496E-01 -0.63779988514E-01  0.88923709053E+00  0.88000000000E+00 0. -1.
        -11    1    4    4    0    0  0.39131934220E-01 -0.69969036730E-02 -0.28990873801E-02  0.39861394424E-01  0.51100000000E-03 0. -1.
         11    1    4    4    0    0  0.77501227894E-01 -0.19432867030E-01  0.60876937873E-01  0.10045068109E+00  0.51100000000E-03 0.  1.
</event>
<event>
 8    1  0.2039519E+004  0.1043930E+01  0.7957747E-01            NaN
         13   -1    0    0    0    0  0.00000000000E+00  0.00000000000E+00  0.74505805969E-08  0.10566000000E+00  0.10566000000E+00 0. -1.
     999900   -1    0    0    0    0 -0.00000000000E+00 -0.00000000000E+00 -0.74505805969E-08  0.93827000000E+00  0.93827000000E+00 0. -1.
     999902    2    1    2    0    0 -0.56580643433E-02 -0.10113171245E-01  0.97161485491E-02  0.10288073856E+01  0.10286962346E+01 0.  0.
     999903    2    3    3    0    0 -0.82761378075E-01  0.26391584564E-01  0.10042838542E+00  0.14004069621E+00  0.44492410158E-01 0.  0.
         14    1    1    2    0    0  0.56580643433E-02  0.10113171245E-01 -0.97161485491E-02  0.15122614436E-01  0.00000000000E+00 0.  1.
     999901    1    3    3    0    0  0.77103313732E-01 -0.36504755809E-01 -0.90712236866E-01  0.88876668935E+00  0.88000000000E+00 0. -1.
        -11    1    4    4    0    0 -0.21617876225E-01  0.12068436285E-01  0.61135502325E-01  0.65960522226E-01  0.51100000000E-03 0.  1.
         11    1    4    4    0    0 -0.61143501851E-01  0.14323148279E-01  0.39292883090E-01  0.74080173985E-01  0.51100000000E-03 0. -1.
</event>
<event>
 8    1  0.2039519E+004  0.1043930E+01  0.7957747E-01            NaN
         13   -1    0    0    0    0  0.00000000000E+00  0.00000000000E+00  0.74505805969E-08  0.10566000000E+00  0.10566000000E+00 0. -1.
     999900   -1    0    0    0    0 -0.00000000000E+00 -0.00000000000E+00 -0.74505805969E-08  0.93827000000E+00  0.93827000000E+00 0.  1.
     999902    2    1    2    0    0 -0.65736977231E-02  0.13652933896E-01 -0.75679852168E-03  0.10287580242E+01  0.10286461411E+01 0.  0.
     999903    2    3    3    0    0  0.10946424645E+00  0.27094844232E-01  0.66977773236E-01  0.13845837708E+00  0.44363816824E-01 0.  0.
         14    1    1    2    0    0  0.65736977231E-02 -0.13652933896E-01  0.75679852168E-03  0.15171975801E-01  0.00000000000E+00 0.  1.
     999901    1    3    3    0    0 -0.11603794417E+00 -0.13441910336E-01 -0.67734571758E-01  0.89029964711E+00  0.88000000000E+00 0.  1.
        -11    1    4    4    0    0  0.66024793729E-01 -0.63713595898E-02  0.35838418719E-01  0.75395762395E-01  0.51100000000E-03 0. -1.
         11    1    4    4    0    0  0.43439452717E-01  0.33466203822E-01  0.31139354518E-01  0.63062614689E-01  0.51100000000E-03 0.  1.
</event>
<event>
 8    1  0.2039519E+004  0.1043930E+01  0.7957747E-01            NaN
         13   -1    0    0    0    0  0.00000000000E+00  0.00000000000E+00  0.74505805969E-08  0.10566000000E+00  0.10566000000E+00 0. -1.
     999900   -1    0    0    0    0 -0.00000000000E+00 -0.00000000000E+00 -0.74505805969E-08  0.93827000000E+00  0.93827000000E+00 0.  1.
     999902    2    1    2    0    0  0.12798510982E-01  0.29759662730E-02  0.23842550234E-03  0.10307878881E+01  0.10307041065E+01 0.  0.
     999903    2    3    3    0    0  0.97364569653E-01 -0.61571813131E-01  0.70511941086E-01  0.14159938103E+00  0.42514741870E-01 0.  0.
         14    1    1    2    0    0 -0.12798510982E-01 -0.29759662730E-02 -0.23842550234E-03  0.13142111905E-01  0.00000000000E+00 0.  1.
     999901    1    3    3    0    0 -0.84566058671E-01  0.64547779404E-01 -0.70273515583E-01  0.88918850707E+00  0.88000000000E+00 0.  1.
        -11    1    4    4    0    0  0.18036418703E-01 -0.21182505268E-01  0.37411238185E-01  0.46624808767E-01  0.51100000000E-03 0.  1.
         11    1    4    4    0    0  0.79328150950E-01 -0.40389307863E-01  0.33100702901E-01  0.94974572262E-01  0.51100000000E-03 0. -1.
</event>
<event>
 8    1  0.2039519E+004  0.1043930E+01  0.7957747E-01            NaN
         13   -1    0    0    0    0  0.00000000000E+00  0.00000000000E+00  0.74505805969E-08  0.10566000000E+00  0.10566000000E+00 0. -1.
     999900   -1    0    0    0    0 -0.00000000000E+00 -0.00000000000E+00 -0.74505805969E-08  0.93827000000E+00  0.93827000000E+00 0. -1.
     999902    2    1    2    0    0 -0.14131705116E-02  0.10862961210E-01 -0.86519516142E-02  0.10299708724E+01  0.10298762745E+01 0.  0.
     999903    2    3    3    0    0  0.32751226641E-01  0.12902837510E+00 -0.11845773047E-01  0.14140997319E+00  0.46211402846E-01 0.  0.
         14    1    1    2    0    0  0.14131705116E-02 -0.10862961210E-01  0.86519516142E-02  0.13959127619E-01  0.00000000000E+00 0. -1.
     999901    1    3    3    0    0 -0.34164397152E-01 -0.11816541389E+00  0.31938214324E-02  0.88856089919E+00  0.88000000000E+00 0. -1.
        -11    1    4    4    0    0 -0.45215850692E-02  0.25221665268E-01 -0.17393717610E-01  0.30973854518E-01  0.51100000000E-03 0. -1.
         11    1    4    4    0    0  0.37272811710E-01  0.10380670983E+00  0.55479445632E-02  0.11043611867E+00  0.51100000000E-03 0.  1.
</event>
<event>
 8    1  0.2039519E+004  0.1043930E+01  0.7957747E-01            NaN
         13   -1    0    0    0    0  0.00000000000E+00  0.00000000000E+00  0.74505805969E-08  0.10566000000E+00  0.10566000000E+00 0. -1.
     999900   -1    0    0    0    0 -0.00000000000E+00 -0.00000000000E+00 -0.74505805969E-08  0.93827000000E+00  0.93827000000E+00 0.  1.
     999902    2    1    2    0    0 -0.83461259825E-02  0.11288338129E-01 -0.13209698569E-02  0.10298293136E+01  0.10297327739E+01 0.  0.
     999903    2    3    3    0    0  0.52411919227E-01  0.10180851819E+00  0.67296248588E-01  0.14045101063E+00  0.45669657985E-01 0.  0.
         14    1    1    2    0    0  0.83461259825E-02 -0.11288338129E-01  0.13209698569E-02  0.14100686437E-01  0.00000000000E+00 0.  1.
     999901    1    3    3    0    0 -0.60758045210E-01 -0.90520180062E-01 -0.68617218444E-01  0.88937830293E+00  0.88000000000E+00 0. -1.
        -11    1    4    4    0    0  0.46284457650E-01  0.10120509907E+00  0.49849125360E-01  0.12194227945E+00  0.51100000000E-03 0. -1.
         11    1    4    4    0    0  0.61274615773E-02  0.60341912089E-03  0.17447123227E-01  0.18508731181E-01  0.51100000000E-03 0.  1.
</event>
<event>
 8    1  0.2039519E+004  0.1043930E+01  0.7957747E-01            NaN
         13   -1    0    0    0    0  0.00000000000E+00  0.00000000000E+00  0.74505805969E-08  0.10566000000E+00  0.10566000000E+00 0.  1.
     999900   -1    0    0    0    0 -0.00000000000E+00 -0.00000000000E+00 -0.74505805969E-08  0.93827000000E+00  0.93827000000E+00 0. -1.
     999902    2    1    2    0    0 -0.89886943971E-02 -0.73510498976E-02 -0.69523781421E-02  0.10303959643E+01  0.10303070771E+01 0.  0.
     999903    2    3    3    0    0 -0.47991912082E-01  0.27995889619E-01  0.12021544648E+00  0.13969830919E+00  0.44462012530E-01 0.  0.
         14    1    1    2    0    0  0.89886943971E-02  0.73510498976E-02  0.69523781421E-02  0.13534035739E-01  0.00000000000E+00 0.  1.
     999901    1    3    3    0    0  0.39003217684E-01 -0.35346939517E-01 -0.12716782462E+00  0.89069765507E+00  0.88000000000E+00 0. -1.
        -11    1    4    4    0    0 -0.28446381831E-01  0.37119348035E-01  0.98740667100E-01  0.10925668446E+00  0.51100000000E-03 0.  1.
         11    1    4    4    0    0 -0.19545530251E-01 -0.91234584165E-02  0.21474779380E-01  0.30441624738E-01  0.51100000000E-03 0. -1.
</event>
<event>
 8    1  0.2039519E+004  0.1043930E+01  0.7957747E-01            NaN
         13   -1    0    0    0    0  0.00000000000E+00  0.00000000000E+00  0.74505805969E-08  0.10566000000E+00  0.10566000000E+00 0.  1.
     999900   -1    0    0    0    0 -0.00000000000E+00 -0.00000000000E+00 -0.74505805969E-08  0.93827000000E+00  0.93827000000E+00 0. -1.
     999902    2    1    2    0    0  0.47418646752E-02  0.13639222485E-01  0.33484477897E-02  0.10291068501E+01  0.10290000890E+01 0.  0.
     999903    2    3    3    0    0 -0.46452001641E-01 -0.10476332270E+00 -0.61007092730E-01  0.13737728893E+00  0.44916721960E-01 0.  0.
         14    1    1    2    0    0 -0.47418646752E-02 -0.13639222485E-01 -0.33484477897E-02  0.14823149908E-01  0.00000000000E+00 0. -1.
     999901    1    3    3    0    0  0.51193866317E-01  0.11840254518E+00  0.64355540520E-01  0.89172956116E+00  0.88000000000E+00 0.  1.
        -11    1    4    4    0    0 -0.24214983965E-01 -0.21385668065E-01 -0.11031803205E-02  0.32329404183E-01  0.51100000000E-03 0.  1.
         11    1    4    4    0    0 -0.22237017677E-01 -0.83377654632E-01 -0.59903912409E-01  0.10504788475E+00  0.51100000000E-03 0. -1.
</event>
<event>
 8    1  0.2350521E+004  0.1043930E+01  0.7957747E-01            NaN
         13   -1    0    0    0    0  0.00000000000E+00  0.00000000000E+00  0.74505805969E-08  0.10566000000E+00  0.10566000000E+00 0.  1.
     999900   -1    0    0    0    0 -0.00000000000E+00 -0.00000000000E+00 -0.74505805969E-08  0.93827000000E+00  0.93827000000E+00 0. -1.
     999902    2    1    2    0    0 -0.12121696901E-01  0.37101159608E-02 -0.50007633014E-02  0.10303025230E+01  0.10302123959E+01 0.  0.
     999903    2    3    3    0    0  0.49492429810E-01 -0.45389995443E-02  0.12144138912E+00  0.13909437310E+00  0.46142502220E-01 0.  0.
         14    1    1    2    0    0  0.12121696901E-01 -0.37101159608E-02  0.50007633014E-02  0.13627477015E-01  0.00000000000E+00 0.  1.
     999901    1    3    3    0    0 -0.61614126711E-01  0.82491155052E-02 -0.12644215242E+00  0.89120814989E+00  0.88000000000E+00 0. -1.
        -11    1    4    4    0    0  0.23812352211E-01 -0.25224653133E-01  0.57692384489E-01  0.67320008857E-01  0.51100000000E-03 0. -1.
         11    1    4    4    0    0  0.25680077599E-01  0.20685653589E-01  0.63749004629E-01  0.71774364240E-01  0.51100000000E-03 0.  1.
</event>
<event>
 8    1  0.2063716E+004  0.1043930E+01  0.7957747E-01            NaN
         13   -1    0    0    0    0  0.00000000000E+00  0.00000000000E+00  0.74505805969E-08  0.10566000000E+00  0.10566000000E+00 0.  1.
     999900   -1    0    0    0    0 -0.00000000000E+00 -0.00000000000E+00 -0.74505805969E-08  0.93827000000E+00  0.93827000000E+00 0.  1.
     999902    2    1    2    0    0  0.14457454014E-01  0.12907299781E-03  0.30004625191E-02  0.10291639101E+01  0.10290579752E+01 0.  0.
     999903    2    3    3    0    0 -0.52408200964E-01 -0.10888035897E+00 -0.51350553609E-01  0.13826093835E+00  0.43331923775E-01 0.  0.
         14    1    1    2    0    0 -0.14457454014E-01 -0.12907299781E-03 -0.30004625191E-02  0.14766089927E-01  0.00000000000E+00 0. -1.
     999901    1    3    3    0    0  0.66865654979E-01  0.10900943197E+00  0.54351016128E-01  0.89090297173E+00  0.88000000000E+00 0. -1.
        -11    1    4    4    0    0 -0.22806756801E-01 -0.83393389844E-01 -0.21483760813E-01  0.89086579939E-01  0.51100000000E-03 0.  1.
         11    1    4    4    0    0 -0.29601444163E-01 -0.25486969131E-01 -0.29866792796E-01  0.49174358409E-01  0.51100000000E-03 0. -1.
</event>
<event>
 8    1  0.2039519E+004  0.1043930E+01  0.7957747E-01            NaN
         13   -1    0    0    0    0  0.00000000000E+00  0.00000000000E+00  0.74505805969E-08  0.10566000000E+00  0.10566000000E+00 0.  1.
     999900   -1    0    0    0    0 -0.00000000000E+00 -0.00000000000E+00 -0.74505805969E-08  0.93827000000E+00  0.93827000000E+00 0.  1.
     999902    2    1    2    0    0 -0.90759497772E-02  0.81815813174E-02 -0.46087077871E-02  0.10308704700E+01  0.10307877447E+01 0.  0.
     999903    2    3    3    0    0 -0.11787874077E+00  0.39874901789E-01 -0.56046751962E-01  0.14211381808E+00  0.39619358450E-01 0.  0.
         14    1    1    2    0    0  0.90759497772E-02 -0.81815813174E-02  0.46087077871E-02  0.13059530033E-01  0.00000000000E+00 0. -1.
     999901    1    3    3    0    0  0.10880279100E+00 -0.31693320471E-01  0.51438044175E-01  0.88875665189E+00  0.88000000000E+00 0. -1.
        -11    1    4    4    0    0 -0.96482522624E-01  0.16318745783E-01 -0.49333318244E-01  0.10958656873E+00  0.51100000000E-03 0.  1.
         11    1    4    4    0    0 -0.21396218148E-01  0.23556156006E-01 -0.67134337184E-02  0.32527249347E-01  0.51100000000E-03 0. -1.
</event>
<event>
 8    1  0.2039519E+004  0.1043930E+01  0.7957747E-01            NaN
         13   -1    0    0    0    0  0.00000000000E+00  0.00000000000E+00  0.74505805969E-08  0.10566000000E+00  0.10566000000E+00 0. -1.
     999900   -1    0    0    0    0 -0.00000000000E+00 -0.00000000000E+00 -0.74505805969E-08  0.93827000000E+00  0.93827000000E+00 0. -1.
     999902    2    1    2    0    0  0.94279730880E-02  0.14862190504E-02  0.10267748596E-01  0.10299113629E+01  0.10298159512E+01 0.  0.
     999903    2    3    3    0    0  0.19335150741E-01  0.60706490184E-01  0.11762355864E+00  0.14135609588E+00  0.45684989769E-01 0.  0.
         14    1    1    2    0    0 -0.94279730880E-02 -0.14862190504E-02 -0.10267748596E-01  0.14018637054E-01  0.00000000000E+00 0.  1.
     999901    1    3    3    0    0 -0.99071776528E-02 -0.59220271134E-01 -0.10735581004E+00  0.88855526707E+00  0.88000000000E+00 0. -1.
        -11    1    4    4    0    0  0.11485465966E-01  0.59116275074E-01  0.66950868270E-01  0.90051817251E-01  0.51100000000E-03 0.  1.
         11    1    4    4    0    0  0.78496847745E-02  0.15902151106E-02  0.50672690371E-01  0.51304278628E-01  0.51100000000E-03 0. -1.
</event>
<event>
 8    1  0.2039519E+004  0.1043930E+01  0.7957747E-01            NaN
         13   -1    0    0    0    0  0.00000000000E+00  0.00000000000E+00  0.74505805969E-08  0.10566000000E+00  0.10566000000E+00 0.  1.
     999900   -1    0    0    0    0 -0.00000000000E+00 -0.00000000000E+00 -0.74505805969E-08  0.93827000000E+00  0.93827000000E+00 0.  1.
     999902    2    1    2    0    0  0.10430883204E-01  0.80648017808E-03 -0.10330193927E-01  0.10292273934E+01  0.10291223740E+01 0.  0.
     999903    2    3    3    0    0 -0.53998644887E-01 -0.62705129986E-01 -0.10311293576E+00  0.13973679428E+00  0.45236126920E-01 0.  0.
         14    1    1    2    0    0 -0.10430883204E-01 -0.80648017808E-03  0.10330193927E-01  0.14702606615E-01  0.00000000000E+00 0.  1.
     999901    1    3    3    0    0  0.64429528092E-01  0.63511610164E-01  0.92782741831E-01  0.88949059911E+00  0.88000000000E+00 0. -1.
        -11    1    4    4    0    0 -0.14619414231E-01  0.21512593444E-02 -0.34106569224E-01  0.37173570914E-01  0.51100000000E-03 0. -1.
         11    1    4    4    0    0 -0.39379230657E-01 -0.64856389330E-01 -0.69006366533E-01  0.10256322337E+00  0.51100000000E-03 0.  1.
</event>
<event>
 7    1  0.2500436E+004  0.1043930E+01  0.7957747E-01            NaN
         13   -1    0    0    0    0  0.00000000000E+00  0.00000000000E+00  0.74505805969E-08  0.10566000000E+00  0.10566000000E+00 0. -1.
     999900   -1    0    0    0    0 -0.00000000000E+00 -0.00000000000E+00 -0.74505805969E-08  0.93827000000E+00  0.93827000000E+00 0.  1.
     999903    2    1    2    0    0  0.25096878380E-01 -0.59668109947E-01  0.79432246729E-01  0.11110118824E+00  0.42940139248E-01 0.  0.
         14    1    1    2    0    0 -0.10441977481E-01  0.40422958608E-01 -0.29425027674E-01  0.51077223201E-01  0.00000000000E+00 0.  1.
     999901    1    1    2    0    0 -0.14654900898E-01  0.19245151339E-01 -0.50007219055E-01  0.88175158856E+00  0.88000000000E+00 0.  1.
        -11    1    3    3    0    0 -0.82123449313E-02 -0.92629621289E-02  0.31914834084E-01  0.34235403200E-01  0.51100000000E-03 0.  1.
         11    1    3    3    0    0  0.33309223311E-01 -0.50405147818E-01  0.47517412645E-01  0.76865785039E-01  0.51100000000E-03 0. -1.
</event>
<event>
 8    1  0.2039519E+004  0.1043930E+01  0.7957747E-01            NaN
         13   -1    0    0    0    0  0.00000000000E+00  0.00000000000E+00  0.74505805969E-08  0.10566000000E+00  0.10566000000E+00 0.  1.
     999900   -1    0    0    0    0 -0.00000000000E+00 -0.00000000000E+00 -0.74505805969E-08  0.93827000000E+00  0.93827000000E+00 0.  1.
     999902    2    1    2    0    0  0.12050896157E-01 -0.15089242102E-02 -0.73820285700E-02  0.10297174951E+01  0.10296194075E+01 0.  0.
     999903    2    3    3    0    0  0.12917353362E+00  0.30599617117E-01  0.14209447831E-01  0.14111473653E+00  0.45709103090E-01 0.  0.
         14    1    1    2    0    0 -0.12050896157E-01  0.15089242102E-02  0.73820285700E-02  0.14212504925E-01  0.00000000000E+00 0.  1.
     999901    1    3    3    0    0 -0.11712263746E+00 -0.32108541327E-01 -0.21591476401E-01  0.88860275854E+00  0.88000000000E+00 0. -1.
        -11    1    4    4    0    0  0.43814258151E-01  0.15108223414E-01  0.26662304033E-01  0.53470433039E-01  0.51100000000E-03 0. -1.
         11    1    4    4    0    0  0.85359275464E-01  0.15491393703E-01 -0.12452856202E-01  0.87644303496E-01  0.51100000000E-03 0.  1.
</event>
<event>
 8    1  0.2039519E+004  0.1043930E+01  0.7957747E-01            NaN
         13   -1    0    0    0    0  0.00000000000E+00  0.00000000000E+00  0.74505805969E-08  0.10566000000E+00  0.10566000000E+00 0. -1.
     999900   -1    0    0    0    0 -0.00000000000E+00 -0.00000000000E+00 -0.74505805969E-08  0.93827000000E+00  0.93827000000E+00 0. -1.
     999902    2    1    2    0    0  0.70154387534E-02 -0.27878864842E-02  0.11757490094E-01  0.10299576249E+01  0.10298628461E+01 0.  0.
     999903    2    3    3    0    0 -0.65886039707E-01  0.92764842571E-01  0.67921717776E-01  0.14001416039E+00  0.45214147336E-01 0.  0.
         14    1    1    2    0    0 -0.70154387534E-02  0.27878864842E-02 -0.11757490094E-01  0.13972375076E-01  0.00000000000E+00 0.  1.
     999901    1    3    3    0    0  0.72901478461E-01 -0.95552729055E-01 -0.56164227682E-01  0.88994346453E+00  0.88000000000E+00 0. -1.
        -11    1    4    4    0    0 -0.34145979847E-01  0.12919653661E-01  0.20198784316E-01  0.41726698878E-01  0.51100000000E-03 0. -1.
         11    1    4    4    0    0 -0.31740059860E-01  0.79845188910E-01  0.47722933460E-01  0.98287461515E-01  0.51100000000E-03 0.  1.
</event>
<event>
 8    1  0.2039519E+004  0.1043930E+01  0.7957747E-01            NaN
         13   -1    0    0    0    0  0.00000000000E+00  0.00000000000E+00  0.74505805969E-08  0.10566000000E+00  0.10566000000E+00 0.  1.
     999900   -1    0    0    0    0 -0.00000000000E+00 -0.00000000000E+00 -0.74505805969E-08  0.93827000000E+00  0.93827000000E+00 0.  1.
     999902    2    1    2    0    0 -0.11578102836E-01  0.51253018702E-02  0.42177060288E-02  0.10305842056E+01  0.10304977897E+01 0.  0.
     999903    2    3    3    0    0 -0.15825782052E-01  0.10478544583E+00  0.82211684819E-01  0.14152107633E+00  0.45155386046E-01 0.  0.
         14    1    1    2    0    0  0.11578102836E-01 -0.51253018702E-02 -0.42177060288E-02  0.13345794419E-01  0.00000000000E+00 0. -1.
     999901    1    3    3    0    0  0.42476792163E-02 -0.99660143957E-01 -0.77993978790E-01  0.88906312925E+00  0.88000000000E+00 0.  1.
        -11    1    4    4    0    0 -0.15489614705E-01  0.18105166189E-01  0.36317106136E-01  0.43438675458E-01  0.51100000000E-03 0.  1.
         11    1    4    4    0    0 -0.33616734701E-03  0.86680279638E-01  0.45894578683E-01  0.98082400868E-01  0.51100000000E-03 0. -1.
</event>
<event>
 8    1  0.2039519E+004  0.1043930E+01  0.7957747E-01            NaN
         13   -1    0    0    0    0  0.00000000000E+00  0.00000000000E+00  0.74505805969E-08  0.10566000000E+00  0.10566000000E+00 0.  1.
     999900   -1    0    0    0    0 -0.00000000000E+00 -0.00000000000E+00 -0.74505805969E-08  0.93827000000E+00  0.93827000000E+00 0.  1.
     999902    2    1    2    0    0 -0.32133543154E-02 -0.50689340800E-02  0.11747231280E-01  0.10307384428E+01  0.10306540255E+01 0.  0.
     999903    2    3    3    0    0  0.84011772333E-01 -0.57306983656E-02  0.10439328911E+00  0.14158606402E+00  0.45363376407E-01 0.  0.
         14    1    1    2    0    0  0.32133543154E-02  0.50689340800E-02 -0.11747231280E-01  0.13191557202E-01  0.00000000000E+00 0. -1.
     999901    1    3    3    0    0 -0.87225126648E-01  0.66176428557E-03 -0.92646057833E-01  0.88915237878E+00  0.88000000000E+00 0.  1.
        -11    1    4    4    0    0  0.59659651162E-01  0.14497422266E-01  0.52436155693E-01  0.80741939375E-01  0.51100000000E-03 0.  1.
         11    1    4    4    0    0  0.24352121171E-01 -0.20228120632E-01  0.51957133420E-01  0.60844124647E-01  0.51100000000E-03 0. -1.
</event>
<event>
 7    1  0.2039519E+004  0.1043930E+01  0.7957747E-01            NaN
         13   -1    0    0    0    0  0.00000000000E+00  0.00000000000E+00  0.74505805969E-08  0.10566000000E+00  0.10566000000E+00 0.  1.
     999900   -1    0    0    0    0 -0.00000000000E+00 -0.00000000000E+00 -0.74505805969E-08  0.93827000000E+00  0.93827000000E+00 0. -1.
     999903    2    1    2    0    0  0.36031775737E-01  0.17875510362E-01 -0.53699072724E-01  0.81035503488E-01  0.45446008414E-01 0.  0.
         14    1    1    2    0    0  0.44586239904E-01 -0.55006060433E-02 -0.56605283545E-01  0.72265811978E-01  0.00000000000E+00 0. -1.
     999901    1    1    2    0    0 -0.80618015641E-01 -0.12374904319E-01  0.11030435627E+00  0.89062868453E+00  0.88000000000E+00 0. -1.
        -11    1    3    3    0    0  0.32563725453E-02  0.25024782479E-01 -0.13328943417E-01  0.28544098407E-01  0.51100000000E-03 0. -1.
         11    1    3    3    0    0  0.32775403191E-01 -0.71492721164E-02 -0.40370129307E-01  0.52491405082E-01  0.51100000000E-03 0.  1.
</event>
<event>
 8    1  0.2039519E+004  0.1043930E+01  0.7957747E-01            NaN
         13   -1    0    0    0    0  0.00000000000E+00  0.00000000000E+00  0.74505805969E-08  0.10566000000E+00  0.10566000000E+00 0. -1.
     999900   -1    0    0    0    0 -0.00000000000E+00 -0.00000000000E+00 -0.74505805969E-08  0.93827000000E+00  0.93827000000E+00 0.  1.
     999902    2    1    2    0    0 -0.10227044733E-01 -0.74409160922E-02 -0.46752315536E-02  0.10304460293E+01  0.10303578028E+01 0.  0.
     999903    2    3    3    0    0  0.62799575001E-01 -0.26664713441E-01 -0.11428223716E+00  0.14043696346E+00  0.44803096010E-01 0.  0.
         14    1    1    2    0    0  0.10227044733E-01  0.74409160922E-02  0.46752315536E-02  0.13483970718E-01  0.00000000000E+00 0.  1.
     999901    1    3    3    0    0 -0.73026619733E-01  0.19223797349E-01  0.10960700560E+00  0.89000906583E+00  0.88000000000E+00 0. -1.
        -11    1    4    4    0    0 -0.39510261329E-02 -0.46936224498E-02 -0.30353747494E-01  0.30971790505E-01  0.51100000000E-03 0.  1.
         11    1    4    4    0    0  0.66750601134E-01 -0.21971090991E-01 -0.83928489663E-01  0.10946517295E+00  0.51100000000E-03 0. -1.
</event>
<event>
 8    1  0.2039519E+004  0.1043930E+01  0.7957747E-01            NaN
         13   -1    0    0    0    0  0.00000000000E+00  0.00000000000E+00  0.74505805969E-08  0.10566000000E+00  0.10566000000E+00 0.  1.
     999900   -1    0    0    0    0 -0.00000000000E+00 -0.00000000000E+00 -0.74505805969E-08  0.93827000000E+00  0.93827000000E+00 0. -1.
     999902    2    1    2    0    0  0.49661775390E-02  0.14968479806E-01  0.77314748026E-02  0.10263660025E+01  0.10262157069E+01 0.  0.
     999903    2    3    3    0    0  0.11460543446E+00 -0.48289141656E-01 -0.32897727002E-01  0.13638115687E+00  0.45291419688E-01 0.  0.
         14    1    1    2    0    0 -0.49661775390E-02 -0.14968479806E-01 -0.77314748026E-02  0.17563997543E-01  0.00000000000E+00 0. -1.
     999901    1    3    3    0    0 -0.10963925692E+00  0.63257621462E-01  0.40629201805E-01  0.88998484559E+00  0.88000000000E+00 0.  1.
        -11    1    4    4    0    0  0.55665893593E-01 -0.23527952990E-02 -0.27032227463E-02  0.55783473264E-01  0.51100000000E-03 0.  1.
         11    1    4    4    0    0  0.58939540871E-01 -0.45936346357E-01 -0.30194504256E-01  0.80597683608E-01  0.51100000000E-03 0. -1.
</event>
<event>
 8    1  0.2039519E+004  0.1043930E+01  0.7957747E-01            NaN
         13   -1    0    0    0    0  0.00000000000E+00  0.00000000000E+00  0.74505805969E-08  0.10566000000E+00  0.10566000000E+00 0. -1.
     999900   -1    0    0    0    0 -0.00000000000E+00 -0.00000000000E+00 -0.74505805969E-08  0.93827000000E+00  0.93827000000E+00 0. -1.
     999902    2    1    2    0    0  0.58101866995E-02  0.42199288495E-02 -0.10937358641E-01  0.10308459684E+01  0.10307629304E+01 0.  0.
     999903    2    3    3    0    0 -0.98917862071E-01 -0.28756118719E-01 -0.85147419546E-01  0.14092320936E+00  0.44694631446E-01 0.  0.
         14    1    1    2    0    0 -0.58101866995E-02 -0.42199288495E-02  0.10937358641E-01  0.13084031604E-01  0.00000000000E+00 0. -1.
     999901    1    3    3    0    0  0.10472804877E+00  0.32976047569E-01  0.74210060905E-01  0.88992275904E+00  0.88000000000E+00 0. -1.
        -11    1    4    4    0    0 -0.13555992653E-02 -0.11949643022E-01 -0.33292107978E-02  0.12489050534E-01  0.51100000000E-03 0.  1.
         11    1    4    4    0    0 -0.97562262806E-01 -0.16806475697E-01 -0.81818208748E-01  0.12843415882E+00  0.51100000000E-03 0. -1.
</event>
<event>
 8    1  0.2039519E+004  0.1043930E+01  0.7957747E-01            NaN
         13   -1    0    0    0    0  0.00000000000E+00  0.00000000000E+00  0.74505805969E-08  0.10566000000E+00  0.10566000000E+00 0.  1.
     999900   -1    0    0    0    0 -0.00000000000E+00 -0.00000000000E+00 -0.74505805969E-08  0.93827000000E+00  0.93827000000E+00 0.  1.
     999902    2    1    2    0    0 -0.84938385023E-02  0.10742989922E-01 -0.38141359089E-02  0.10297136447E+01  0.10296155036E+01 0.  0.
     999903    2    3    3    0    0  0.49765450437E-01  0.44453964073E-01 -0.11427866126E+00  0.14025707698E+00  0.46472359982E-01 0.  0.
         14    1    1    2    0    0  0.84938385023E-02 -0.10742989922E-01  0.38141359089E-02  0.14216355289E-01  0.00000000000E+00 0. -1.
     999901    1    3    3    0    0 -0.58259288939E-01 -0.33710974151E-01  0.11046452536E+00  0.88945656774E+00  0.88000000000E+00 0. -1.
        -11    1    4    4    0    0  0.19341676355E-01  0.46745291529E-01 -0.66314214497E-01  0.83408985665E-01  0.51100000000E-03 0. -1.
         11    1    4    4    0    0  0.30423774082E-01 -0.22913274559E-02 -0.47964446768E-01  0.56848091310E-01  0.51100000000E-03 0.  1.
</event>
<event>
 8    1  0.2039519E+004  0.1043930E+01  0.7957747E-01            NaN
         13   -1    0    0    0    0  0.00000000000E+00  0.00000000000E+00  0.74505805969E-08  0.10566000000E+00  0.10566000000E+00 0. -1.
     999900   -1    0    0    0    0 -0.00000000000E+00 -0.00000000000E+00 -0.74505805969E-08  0.93827000000E+00  0.93827000000E+00 0.  1.
     999902    2    1    2    0    0  0.11661357943E-01 -0.23335089260E-02 -0.73830685100E-02  0.10299320632E+01  0.10298369350E+01 0.  0.
     999903    2    3    3    0    0  0.87111952981E-01 -0.92959138168E-01  0.40359584082E-01  0.14078350543E+00  0.44285501622E-01 0.  0.
         14    1    1    2    0    0 -0.11661357943E-01  0.23335089260E-02  0.73830685100E-02  0.13997936763E-01  0.00000000000E+00 0.  1.
     999901    1    3    3    0    0 -0.75450595037E-01  0.90625629243E-01 -0.47742652592E-01  0.88914855780E+00  0.88000000000E+00 0.  1.
        -11    1    4    4    0    0  0.35180493664E-01 -0.15570965496E-01 -0.17441785456E-02  0.38515261660E-01  0.51100000000E-03 0. -1.
         11    1    4    4    0    0  0.51931459317E-01 -0.77388172672E-01  0.42103762627E-01  0.10226824377E+00  0.51100000000E-03 0.  1.
</event>
<event>
 8    1  0.2039519E+004  0.1043930E+01  0.7957747E-01            NaN
         13   -1    0    0    0    0  0.00000000000E+00  0.00000000000E+00  0.74505805969E-08  0.10566000000E+00  0.10566000000E+00 0.  1.
     999900   -1    0    0    0    0 -0.00000000000E+00 -0.00000000000E+00 -0.74505805969E-08  0.93827000000E+00  0.93827000000E+00 0. -1.
     999902    2    1    2    0    0  0.12297465671E-01  0.14563192962E-01 -0.39523733504E-03  0.10248650986E+01  0.10246877573E+01 0.  0.
     999903    2    3    3    0    0 -0.41580475840E-01 -0.96050430954E-01  0.69972131759E-01  0.13352354065E+00  0.44472636831E-01 0.  0.
         14    1    1    2    0    0 -0.12297465671E-01 -0.14563192962E-01  0.39523733504E-03  0.19064901356E-01  0.00000000000E+00 0. -1.
     999901    1    3    3    0    0  0.53877941511E-01  0.11061362392E+00 -0.70367369094E-01  0.89134155800E+00  0.88000000000E+00 0. -1.
        -11    1    4    4    0    0  0.15609803402E-02  0.13398275368E-02  0.12128202942E-01  0.12312035780E-01  0.51100000000E-03 0.  1.
         11    1    4    4    0    0 -0.43141456181E-01 -0.97390258491E-01  0.57843928817E-01  0.12121150487E+00  0.51100000000E-03 0. -1.
</event>
<event>
 8    1  0.2039519E+004  0.1043930E+01  0.7957747E-01            NaN
         13   -1    0    0    0    0  0.00000000000E+00  0.00000000000E+00  0.74505805969E-08  0.10566000000E+00  0.10566000000E+00 0. -1.
     999900   -1    0    0    0    0 -0.00000000000E+00 -0.00000000000E+00 -0.74505805969E-08  0.93827000000E+00  0.93827000000E+00 0.  1.
     999902    2    1    2    0    0 -0.29021817945E-02 -0.11027158013E-01  0.75256389148E-02  0.10302677852E+01  0.10301771950E+01 0.  0.
     999903    2    3    3    0    0 -0.22986569464E-01  0.12927778024E+00  0.10645946265E-02  0.13890332356E+00  0.45297605849E-01 0.  0.
         14    1    1    2    0    0  0.29021817945E-02  0.11027158013E-01 -0.75256389148E-02  0.13662214831E-01  0.00000000000E+00 0. -1.
     999901    1    3    3    0    0  0.20084387670E-01 -0.14030493825E+00  0.64610442883E-02  0.89136446161E+00  0.88000000000E+00 0. -1.
        -11    1    4    4    0    0 -0.34709615224E-01  0.70853372428E-01 -0.46620186853E-02  0.79037670212E-01  0.51100000000E-03 0.  1.
         11    1    4    4    0    0  0.11723045760E-01  0.58424407810E-01  0.57266133118E-02  0.59865653348E-01  0.51100000000E-03 0. -1.
</event>
<event>
 7    1  0.2360413E+004  0.1043930E+01  0.7957747E-01            NaN
         13   -1    0    0    0    0  0.00000000000E+00  0.00000000000E+00  0.74505805969E-08  0.10566000000E+00  0.10566000000E+00 0.  1.
     999900   -1    0    0    0    0 -0.00000000000E+00 -0.00000000000E+00 -0.74505805969E-08  0.93827000000E+00  0.93827000000E+00 0.  1.
     999903    2    1    2    0    0 -0.75961588261E-01  0.25887267798E-01  0.79756001309E-01  0.12234268114E+00  0.46544584639E-01 0.  0.
         14    1    1    2    0    0 -0.35152012286E-02 -0.26546103384E-01 -0.24474984303E-01  0.36277776961E-01  0.00000000000E+00 0.  1.
     999901    1    1    2    0    0  0.79476789490E-01  0.65883558645E-03 -0.55281017006E-01  0.88530954190E+00  0.88000000000E+00 0.  1.
        -11    1    3    3    0    0 -0.48131795818E-01  0.36845780689E-01  0.40148257204E-01  0.72707805639E-01  0.51100000000E-03 0.  1.
         11    1    3    3    0    0 -0.27829792443E-01 -0.10958512891E-01  0.39607744105E-01  0.49634875504E-01  0.51100000000E-03 0. -1.
</event>
<event>
 8    1  0.2039519E+004  0.1043930E+01  0.7957747E-01            NaN
         13   -1    0    0    0    0  0.00000000000E+00  0.00000000000E+00  0.74505805969E-08  0.10566000000E+00  0.10566000000E+00 0. -1.
     999900   -1    0    0    0    0 -0.00000000000E+00 -0.00000000000E+00 -0.74505805969E-08  0.93827000000E+00  0.93827000000E+00 0.  1.
     999902    2    1    2    0    0  0.10835577360E-01  0.50187393614E-02  0.65272703561E-02  0.10303210787E+01  0.10302311985E+01 0.  0.
     999903    2    3    3    0    0 -0.11924268688E+00  0.21724726118E-01 -0.50379689012E-01  0.13878428927E+00  0.45079749163E-01 0.  0.
         14    1    1    2    0    0 -0.10835577360E-01 -0.50187393614E-02 -0.65272703561E-02  0.13608921332E-01  0.00000000000E+00 0.  1.
     999901    1    3    3    0    0  0.13007826424E+00 -0.16705986756E-01  0.56906959368E-01  0.89153678940E+00  0.88000000000E+00 0. -1.
        -11    1    4    4    0    0 -0.80602138039E-01  0.15837838761E-01 -0.10282381316E-01  0.82786051239E-01  0.51100000000E-03 0.  1.
         11    1    4    4    0    0 -0.38640548841E-01  0.58868873563E-02 -0.40097307695E-01  0.55998238034E-01  0.51100000000E-03 0. -1.
</event>
<event>
 8    1  0.2039519E+004  0.1043930E+01  0.7957747E-01            NaN
         13   -1    0    0    0    0  0.00000000000E+00  0.00000000000E+00  0.74505805969E-08  0.10566000000E+00  0.10566000000E+00 0.  1.
     999900   -1    0    0    0    0 -0.00000000000E+00 -0.00000000000E+00 -0.74505805969E-08  0.93827000000E+00  0.93827000000E+00 0.  1.
     999902    2    1    2    0    0  0.13168385782E-02 -0.66161325860E-03 -0.11903268034E-01  0.10319358520E+01  0.10318661459E+01 0.  0.
     999903    2    3    3    0    0 -0.30480588006E-01  0.11985896830E+00 -0.53300707662E-01  0.14218867730E+00  0.45622538141E-01 0.  0.
         14    1    1    2    0    0 -0.13168385782E-02  0.66161325861E-03  0.11903268034E-01  0.11994147983E-01  0.00000000000E+00 0.  1.
     999901    1    3    3    0    0  0.31797426585E-01 -0.12052058156E+00  0.41397439628E-01  0.88974717472E+00  0.88000000000E+00 0. -1.
        -11    1    4    4    0    0 -0.41531912023E-01  0.80116666461E-01 -0.41154407352E-01  0.99184304840E-01  0.51100000000E-03 0.  1.
         11    1    4    4    0    0  0.11051324017E-01  0.39742301840E-01 -0.12146300309E-01  0.43004372456E-01  0.51100000000E-03 0. -1.
</event>
<event>
 8    1  0.2039519E+004  0.1043930E+01  0.7957747E-01            NaN
         13   -1    0    0    0    0  0.00000000000E+00  0.00000000000E+00  0.74505805969E-08  0.10566000000E+00  0.10566000000E+00 0. -1.
     999900   -1    0    0    0    0 -0.00000000000E+00 -0.00000000000E+00 -0.74505805969E-08  0.93827000000E+00  0.93827000000E+00 0.  1.
     999902    2    1    2    0    0 -0.76285090718E-02  0.25192710122E-02  0.14199962989E-01  0.10276149816E+01  0.10274854600E+01 0.  0.
     999903    2    3    3    0    0 -0.12829426621E+00  0.53438053743E-02  0.28952569872E-01  0.13925365737E+00  0.45446174659E-01 0.  0.
         14    1    1    2    0    0  0.76285090718E-02 -0.25192710122E-02 -0.14199962989E-01  0.16315018418E-01  0.00000000000E+00 0. -1.
     999901    1    3    3    0    0  0.12066575714E+00 -0.28245343621E-02 -0.14752606883E-01  0.88836132421E+00  0.88000000000E+00 0.  1.
        -11    1    4    4    0    0 -0.59652733919E-01  0.14150728839E-01  0.33559944981E-01  0.69894369007E-01  0.51100000000E-03 0. -1.
         11    1    4    4    0    0 -0.68641532292E-01 -0.88069234651E-02 -0.46073751094E-02  0.69359288366E-01  0.51100000000E-03 0.  1.
</event>
<event>
 8    1  0.2039519E+004  0.1043930E+01  0.7957747E-01            NaN
         13   -1    0    0    0    0  0.00000000000E+00  0.00000000000E+00  0.74505805969E-08  0.10566000000E+00  0.10566000000E+00 0.  1.
     999900   -1    0    0    0    0 -0.00000000000E+00 -0.00000000000E+00 -0.74505805969E-08  0.93827000000E+00  0.93827000000E+00 0.  1.
     999902    2    1    2    0    0  0.79779519237E-02 -0.85344069548E-02 -0.59480721591E-02  0.10308203325E+01  0.10307369667E+01 0.  0.
     999903    2    3    3    0    0 -0.10166626030E+00 -0.12541353546E-01  0.83465808086E-01  0.13951076179E+00  0.44759328681E-01 0.  0.
         14    1    1    2    0    0 -0.79779519237E-02  0.85344069548E-02  0.59480721591E-02  0.13109667478E-01  0.00000000000E+00 0. -1.
     999901    1    3    3    0    0  0.10964421222E+00  0.40069465915E-02 -0.89413880245E-01  0.89130957073E+00  0.88000000000E+00 0.  1.
        -11    1    4    4    0    0 -0.76747069611E-01 -0.97799095778E-02  0.34949765392E-01  0.84897034973E-01  0.51100000000E-03 0.  1.
         11    1    4    4    0    0 -0.24919190690E-01 -0.27614439686E-02  0.48516042694E-01  0.54613726819E-01  0.51100000000E-03 0. -1.
</event>
<event>
 8    1  0.2039519E+004  0.1043930E+01  0.7957747E-01            NaN
         13   -1    0    0    0    0  0.00000000000E+00  0.00000000000E+00  0.74505805969E-08  0.10566000000E+00  0.10566000000E+00 0. -1.
     999900   -1    0    0    0    0 -0.00000000000E+00 -0.00000000000E+00 -0.74505805969E-08  0.93827000000E+00  0.93827000000E+00 0.  1.
     999902    2    1    2    0    0 -0.12671737235E-01 -0.53739481027E-02  0.24639027422E-02  0.10299470440E+01  0.10298521206E+01 0.  0.
     999903    2    3    3    0    0 -0.10637471275E+00 -0.40327871628E-01  0.71191868448E-01  0.14161965068E+00  0.45231919958E-01 0.  0.
         14    1    1    2    0    0  0.12671737235E-01  0.53739481027E-02 -0.24639027422E-02  0.13982956035E-01  0.00000000000E+00 0. -1.
     999901    1    3    3    0    0  0.93702975514E-01  0.34953923525E-01 -0.68727965706E-01  0.88832739328E+00  0.88000000000E+00 0. -1.
        -11    1    4    4    0    0 -0.10530241505E+00 -0.26682638485E-01  0.61403088489E-01  0.12478446301E+00  0.51100000000E-03 0.  1.
         11    1    4    4    0    0 -0.10722977034E-02 -0.13645233143E-01  0.97887799595E-02  0.16835187673E-01  0.51100000000E-03 0. -1.
</event>
<event>
 7    1  0.2039519E+004  0.1043930E+01  0.7957747E-01            NaN
         13   -1    0    0    0    0  0.00000000000E+00  0.00000000000E+00  0.74505805969E-08  0.10566000000E+00  0.10566000000E+00 0.  1.
     999900   -1    0    0    0    0 -0.00000000000E+00 -0.00000000000E+00 -0.74505805969E-08  0.93827000000E+00  0.93827000000E+00 0.  1.
     999902    2    1    2    0    0 -0.83666221537E-02 -0.97395577904E-02  0.26025856520E-02  0.10308291296E+01  0.10307458764E+01 0.  0.
         14    1    1    2    0    0  0.83666221537E-02  0.97395577904E-02 -0.26025856520E-02  0.13100870364E-01  0.00000000000E+00 0. -1.
     999901    1    3    3    0    0  0.59642728242E-01  0.11292543637E+00 -0.27211862702E-02  0.88922258972E+00  0.88000000000E+00 0.  1.
        -11    1    3    3    0    0 -0.45746865673E-01 -0.84130981382E-01  0.12318314349E-01  0.96554646375E-01  0.51100000000E-03 0. -1.
         11    1    3    3    0    0 -0.22262484723E-01 -0.38534012780E-01 -0.69945424272E-02  0.45051893542E-01  0.51100000000E-03 0.  1.
</event>
<event>
 8    1  0.2039519E+004  0.1043930E+01  0.7957747E-01            NaN
         13   -1    0    0    0    0  0.00000000000E+00  0.00000000000E+00  0.74505805969E-08  0.10566000000E+00  0.10566000000E+00 0.  1.
     999900   -1    0    0    0    0 -0.00000000000E+00 -0.00000000000E+00 -0.74505805969E-08  0.93827000000E+00  0.93827000000E+00 0. -1.
     999902    2    1    2    0    0  0.12419061783E-01  0.10807445384E-03 -0.59497444428E-02  0.10301588623E+01  0.10300668120E+01 0.  0.
     999903    2    3    3    0    0 -0.34335351496E-01  0.37679902151E-01  0.12142203173E+00  0.13896798105E+00  0.44385792517E-01 0.  0.
         14    1    1    2    0    0 -0.12419061783E-01 -0.10807445384E-03  0.59497444428E-02  0.13771137738E-01  0.00000000000E+00 0.  1.
     999901    1    3    3    0    0  0.46754413279E-01 -0.37571827697E-01 -0.12737177618E+00  0.89119088122E+00  0.88000000000E+00 0. -1.
        -11    1    4    4    0    0 -0.71345129439E-02 -0.17355473750E-03  0.66699059796E-01  0.67081719528E-01  0.51100000000E-03 0. -1.
         11    1    4    4    0    0 -0.27200838552E-01  0.37853456889E-01  0.54722971936E-01  0.71886261517E-01  0.51100000000E-03 0.  1.
</event>
<event>
 8    1  0.2039519E+004  0.1043930E+01  0.7957747E-01            NaN
         13   -1    0    0    0    0  0.00000000000E+00  0.00000000000E+00  0.74505805969E-08  0.10566000000E+00  0.10566000000E+00 0. -1.
     999900   -1    0    0    0    0 -0.00000000000E+00 -0.00000000000E+00 -0.74505805969E-08  0.93827000000E+00  0.93827000000E+00 0.  1.
     999902    2    1    2    0    0 -0.97358659530E-02 -0.15695782352E-02 -0.10035745152E-01  0.10298599310E+01  0.10297638130E+01 0.  0.
     999903    2    3    3    0    0  0.79586706089E-01 -0.86751956227E-01  0.56673923471E-01  0.13874560650E+00  0.46674018740E-01 0.  0.
         14    1    1    2    0    0  0.97358659530E-02  0.15695782352E-02  0.10035745152E-01  0.14070069028E-01  0.00000000000E+00 0. -1.
     999901    1    3    3    0    0 -0.89322572042E-01  0.85182377992E-01 -0.66709668623E-01  0.89111432447E+00  0.88000000000E+00 0.  1.
        -11    1    4    4    0    0  0.66821080979E-02 -0.24876252277E-01  0.29850297909E-01  0.39430697461E-01  0.51100000000E-03 0.  1.
         11    1    4    4    0    0  0.72904597991E-01 -0.61875703950E-01  0.26823625562E-01  0.99314909036E-01  0.51100000000E-03 0. -1.
</event>
<event>
 8    1  0.2039519E+004  0.1043930E+01  0.7957747E-01            NaN
         13   -1    0    0    0    0  0.00000000000E+00  0.00000000000E+00  0.74505805969E-08  0.10566000000E+00  0.10566000000E+00 0. -1.
     999900   -1    0    0    0    0 -0.00000000000E+00 -0.00000000000E+00 -0.74505805969E-08  0.93827000000E+00  0.93827000000E+00 0. -1.
     999902    2    1    2    0    0  0.10719729358E-01  0.10659256684E-01 -0.11799007133E-01  0.10247532193E+01  0.10245737706E+01 0.  0.
     999903    2    3    3    0    0  0.12185288271E+00  0.41055345441E-01  0.15055635650E-01  0.13683674130E+00  0.44316534036E-01 0.  0.
         14    1    1    2    0    0 -0.10719729358E-01 -0.10659256684E-01  0.11799007133E-01  0.19176780749E-01  0.00000000000E+00 0. -1.
     999901    1    3    3    0    0 -0.11113315335E+00 -0.30396088757E-01 -0.26854642783E-01  0.88791647796E+00  0.88000000000E+00 0. -1.
        -11    1    4    4    0    0  0.18492304232E-01  0.18950939641E-01 -0.98282118752E-02  0.28248155670E-01  0.51100000000E-03 0. -1.
         11    1    4    4    0    0  0.10336057848E+00  0.22104405800E-01  0.24883847525E-01  0.10858858563E+00  0.51100000000E-03 0.  1.
</event>
<event>
 8    1  0.2039519E+004  0.1043930E+01  0.7957747E-01            NaN
         13   -1    0    0    0    0  0.00000000000E+00  0.00000000000E+00  0.74505805969E-08  0.10566000000E+00  0.10566000000E+00 0.  1.
     999900   -1    0    0    0    0 -0.00000000000E+00 -0.00000000000E+00 -0.74505805969E-08  0.93827000000E+00  0.93827000000E+00 0. -1.
     999902    2    1    2    0    0  0.12689408855E-02 -0.65436763307E-02 -0.12099911629E-01  0.10301155955E+01  0.10300229620E+01 0.  0.
     999903    2    3    3    0    0  0.48329491160E-01 -0.44352903799E-01 -0.11665353616E+00  0.14187255808E+00  0.47083494441E-01 0.  0.
         14    1    1    2    0    0 -0.12689408855E-02  0.65436763307E-02  0.12099911629E-01  0.13814404523E-01  0.00000000000E+00 0.  1.
     999901    1    3    3    0    0 -0.47060550275E-01  0.37809227468E-01  0.10455362453E+00  0.88824303739E+00  0.88000000000E+00 0.  1.
        -11    1    4    4    0    0  0.20934235501E-01 -0.37642781995E-01 -0.35059496213E-01  0.55539631328E-01  0.51100000000E-03 0.  1.
         11    1    4    4    0    0  0.27395255659E-01 -0.67101218038E-02 -0.81594039942E-01  0.86332926757E-01  0.51100000000E-03 0. -1.
</event>
<event>
 8    1  0.2039519E+004  0.1043930E+01  0.7957747E-01            NaN
         13   -1    0    0    0    0  0.00000000000E+00  0.00000000000E+00  0.74505805969E-08  0.10566000000E+00  0.10566000000E+00 0. -1.
     999900   -1    0    0    0    0 -0.00000000000E+00 -0.00000000000E+00 -0.74505805969E-08  0.93827000000E+00  0.93827000000E+00 0.  1.
     999902    2    1    2    0    0  0.57013311769E-03  0.13812087303E-01 -0.23673661162E-02  0.10299049071E+01  0.10298094069E+01 0.  0.
     999903    2    3    3    0    0  0.11112099110E+00 -0.63315822776E-01  0.30469804903E-01  0.13903539564E+00  0.45229018929E-01 0.  0.
         14    1    1    2    0    0 -0.57013311769E-03 -0.13812087303E-01  0.23673661162E-02  0.14025092861E-01  0.00000000000E+00 0. -1.
     999901    1    3    3    0    0 -0.11055085798E+00  0.77127910079E-01 -0.32837171019E-01  0.89086951150E+00  0.88000000000E+00 0.  1.
        -11    1    4    4    0    0  0.22247004216E-01 -0.13233659531E-02  0.20384272339E-01  0.30206955720E-01  0.51100000000E-03 0.  1.
         11    1    4    4    0    0  0.88873986885E-01 -0.61992456823E-01  0.10085532564E-01  0.10882843992E+00  0.51100000000E-03 0. -1.
</event>
<event>
 8    1  0.2039519E+004  0.1043930E+01  0.7957747E-01            NaN
         13   -1    0    0    0    0  0.00000000000E+00  0.00000000000E+00  0.74505805969E-08  0.10566000000E+00  0.10566000000E+00 0. -1.
     999900   -1    0    0    0    0 -0.00000000000E+00 -0.00000000000E+00 -0.74505805969E-08  0.93827000000E+00  0.93827000000E+00 0. -1.
     999902    2    1    2    0    0 -0.39714667153E-02 -0.12732537861E-01 -0.56608105412E-02  0.10294408715E+01  0.10293389010E+01 0.  0.
     999903    2    3    3    0    0 -0.29656702100E-01 -0.65065003638E-01  0.11144340984E+00  0.13977137292E+00  0.44759673975E-01 0.  0.
         14    1    1    2    0    0  0.39714667153E-02  0.12732537861E-01  0.56608105412E-02  0.14489128484E-01  0.00000000000E+00 0. -1.
     999901    1    3    3    0    0  0.25685235385E-01  0.52332465777E-01 -0.11710422038E+00  0.88966949859E+00  0.88000000000E+00 0. -1.
        -11    1    4    4    0    0 -0.40501741587E-01 -0.54960304178E-01  0.99783912184E-01  0.12090540252E+00  0.51100000000E-03 0. -1.
         11    1    4    4    0    0  0.10845039487E-01 -0.10104699460E-01  0.11659497657E-01  0.18865970404E-01  0.51100000000E-03 0.  1.
</event>
<event>
 8    1  0.2039519E+004  0.1043930E+01  0.7957747E-01            NaN
         13   -1    0    0    0    0  0.00000000000E+00  0.00000000000E+00  0.74505805969E-08  0.10566000000E+00  0.10566000000E+00 0. -1.
     999900   -1    0    0    0    0 -0.00000000000E+00 -0.00000000000E+00 -0.74505805969E-08  0.93827000000E+00  0.93827000000E+00 0.  1.
     999902    2    1    2    0    0 -0.46754958601E-02  0.49857526122E-02  0.11402886031E-01  0.10306354974E+01  0.10305497487E+01 0.  0.
     999903    2    3    3    0    0  0.31386848613E-01  0.21002480193E-01  0.12894071131E+00  0.14194423003E+00  0.45784483904E-01 0.  0.
         14    1    1    2    0    0  0.46754958601E-02 -0.49857526122E-02 -0.11402886031E-01  0.13294502642E-01  0.00000000000E+00 0.  1.
     999901    1    3    3    0    0 -0.36062344473E-01 -0.16016727581E-01 -0.11753782528E+00  0.88869126733E+00  0.88000000000E+00 0.  1.
        -11    1    4    4    0    0  0.32563607477E-01  0.27049065586E-03  0.45488260499E-01  0.55945550863E-01  0.51100000000E-03 0. -1.
         11    1    4    4    0    0 -0.11767588647E-02  0.20731989537E-01  0.83452450810E-01  0.85998679169E-01  0.51100000000E-03 0.  1.
</event>
<event>
 8    1  0.2039519E+004  0.1043930E+01  0.7957747E-01            NaN
         13   -1    0    0    0    0  0.00000000000E+00  0.00000000000E+00  0.74505805969E-08  0.10566000000E+00  0.10566000000E+00 0. -1.
     999900   -1    0    0    0    0 -0.00000000000E+00 -0.00000000000E+00 -0.74505805969E-08  0.93827000000E+00  0.93827000000E+00 0. -1.
     999902    2    1    2    0    0  0.45749456460E-02 -0.14440389140E-01  0.11319968154E-01  0.10250197741E+01  0.10248453252E+01 0.  0.
     999903    2    3    3    0    0  0.97595277093E-01  0.74397097003E-01 -0.32595331376E-01  0.13458536629E+00  0.44620612256E-01 0.  0.
         14    1    1    2    0    0 -0.45749456460E-02  0.14440389140E-01 -0.11319968154E-01  0.18910225942E-01  0.00000000000E+00 0.  1.
     999901    1    3    3    0    0 -0.93020331447E-01 -0.88837486143E-01  0.43915299530E-01  0.89043440777E+00  0.88000000000E+00 0.  1.
        -11    1    4    4    0    0  0.62621313681E-01  0.60214262822E-01 -0.40769408514E-01  0.95966620061E-01  0.51100000000E-03 0. -1.
         11    1    4    4    0    0  0.34973963412E-01  0.14182834181E-01  0.81740771379E-02  0.38618746228E-01  0.51100000000E-03 0.  1.
</event>
<event>
 7    1  0.2651375E+004  0.1043930E+01  0.7957747E-01            NaN
         13   -1    0    0    0    0  0.00000000000E+00  0.00000000000E+00  0.74505805969E-08  0.10566000000E+00  0.10566000000E+00 0. -1.
     999900   -1    0    0    0    0 -0.00000000000E+00 -0.00000000000E+00 -0.74505805969E-08  0.93827000000E+00  0.93827000000E+00 0. -1.
     999903    2    1    2    0    0  0.46233353669E-02  0.61715296092E-01  0.25812558393E-01  0.80888423506E-01  0.45238212662E-01 0.  0.
         14    1    1    2    0    0 -0.68294266234E-02  0.38184011349E-01  0.61904260378E-01  0.73053386257E-01  0.00000000000E+00 0. -1.
     999901    1    1    2    0    0  0.22060912565E-02 -0.99899307440E-01 -0.87716818771E-01  0.88998819024E+00  0.88000000000E+00 0. -1.
        -11    1    3    3    0    0  0.23545786432E-01  0.35702109120E-01  0.23081899258E-01  0.48601232996E-01  0.51100000000E-03 0. -1.
         11    1    3    3    0    0 -0.18922451066E-01  0.26013186972E-01  0.27306591355E-02  0.32287190510E-01  0.51100000000E-03 0.  1.
</event>
<event>
 8    1  0.2039519E+004  0.1043930E+01  0.7957747E-01            NaN
         13   -1    0    0    0    0  0.00000000000E+00  0.00000000000E+00  0.74505805969E-08  0.10566000000E+00  0.10566000000E+00 0.  1.
     999900   -1    0    0    0    0 -0.00000000000E+00 -0.00000000000E+00 -0.74505805969E-08  0.93827000000E+00  0.93827000000E+00 0. -1.
     999902    2    1    2    0    0 -0.84615307960E-03  0.17909878789E-01  0.12693355152E-01  0.10219618185E+01  0.10217256762E+01 0.  0.
     999903    2    3    3    0    0 -0.94811188525E-01  0.47657572040E-01  0.71747642289E-01  0.13449251652E+00  0.40989110538E-01 0.  0.
         14    1    1    2    0    0  0.84615307960E-03 -0.17909878789E-01 -0.12693355152E-01  0.21968181497E-01  0.00000000000E+00 0. -1.
     999901    1    3    3    0    0  0.93965035445E-01 -0.29747693251E-01 -0.59054287137E-01  0.88746930199E+00  0.88000000000E+00 0. -1.
        -11    1    4    4    0    0 -0.76523171664E-01  0.53768484327E-01  0.65633667593E-01  0.11425797631E+00  0.51100000000E-03 0. -1.
         11    1    4    4    0    0 -0.18288016861E-01 -0.61109122871E-02  0.61139746960E-02  0.20234540204E-01  0.51100000000E-03 0.  1.
</event>
<event>
 8    1  0.2039519E+004  0.1043930E+01  0.7957747E-01            NaN
         13   -1    0    0    0    0  0.00000000000E+00  0.00000000000E+00  0.74505805969E-08  0.10566000000E+00  0.10566000000E+00 0.  1.
     999900   -1    0    0    0    0 -0.00000000000E+00 -0.00000000000E+00 -0.74505805969E-08  0.93827000000E+00  0.93827000000E+00 0. -1.
     999902    2    1    2    0    0  0.79778615895E-02  0.75988940767E-02  0.74285588410E-02  0.10306419244E+01  0.10305562592E+01 0.  0.
     999903    2    3    3    0    0  0.63841518691E-01 -0.68149664172E-01  0.95914280737E-01  0.14121046822E+00  0.44952539971E-01 0.  0.
         14    1    1    2    0    0 -0.79778615895E-02 -0.75988940767E-02 -0.74285588410E-02  0.13288075601E-01  0.00000000000E+00 0. -1.
     999901    1    3    3    0    0 -0.55863657101E-01  0.75748558249E-01 -0.88485721896E-01  0.88943145618E+00  0.88000000000E+00 0.  1.
        -11    1    4    4    0    0  0.65563134208E-01 -0.58639538761E-01  0.66574557880E-01  0.11031569676E+00  0.51100000000E-03 0. -1.
         11    1    4    4    0    0 -0.17216155172E-02 -0.95101254113E-02  0.29339722857E-01  0.30894771462E-01  0.51100000000E-03 0.  1.
</event>
<event>
 8    1  0.2039519E+004  0.1043930E+01  0.7957747E-01            NaN
         13   -1    0    0    0    0  0.00000000000E+00  0.00000000000E+00  0.74505805969E-08  0.10566000000E+00  0.10566000000E+00 0. -1.
     999900   -1    0    0    0    0 -0.00000000000E+00 -0.00000000000E+00 -0.74505805969E-08  0.93827000000E+00  0.93827000000E+00 0.  1.
     999902    2    1    2    0    0 -0.95927469897E-02 -0.10021642324E-01  0.16817216370E-02  0.10299556557E+01  0.10298608501E+01 0.  0.
     999903    2    3    3    0    0 -0.88155843367E-02  0.93624151967E-01 -0.91779041452E-01  0.13895735671E+00  0.45194669751E-01 0.  0.
         14    1    1    2    0    0  0.95927469897E-02  0.10021642324E-01 -0.16817216370E-02  0.13974344254E-01  0.00000000000E+00 0.  1.
     999901    1    3    3    0    0 -0.77716265302E-03 -0.10364579429E+00  0.93460763089E-01  0.89099829904E+00  0.88000000000E+00 0.  1.
        -11    1    4    4    0    0 -0.24060739426E-01  0.31755837974E-01 -0.27269101137E-01  0.48282682455E-01  0.51100000000E-03 0. -1.
         11    1    4    4    0    0  0.15245155090E-01  0.61868313992E-01 -0.64509940315E-01  0.90674674250E-01  0.51100000000E-03 0.  1.
</event>
<event>
 8    1  0.2039519E+004  0.1043930E+01  0.7957747E-01            NaN
         13   -1    0    0    0    0  0.00000000000E+00  0.00000000000E+00  0.74505805969E-08  0.10566000000E+00  0.10566000000E+00 0.  1.
     999900   -1    0    0    0    0 -0.00000000000E+00 -0.00000000000E+00 -0.74505805969E-08  0.93827000000E+00  0.93827000000E+00 0. -1.
     999902    2    1    2    0    0 -0.94092949582E-02  0.98146610834E-02 -0.28436233717E-02  0.10300394061E+01  0.10299457411E+01 0.  0.
     999903    2    3    3    0    0  0.11205186529E+00 -0.31656205142E-01  0.61360034460E-01  0.13841462190E+00  0.42846445465E-01 0.  0.
         14    1    1    2    0    0  0.94092949582E-02 -0.98146610834E-02  0.28436233717E-02  0.13890593856E-01  0.00000000000E+00 0.  1.
     999901    1    3    3    0    0 -0.12146116025E+00  0.41470866226E-01 -0.64203657832E-01  0.89162478424E+00  0.88000000000E+00 0. -1.
        -11    1    4    4    0    0  0.31121637885E-01 -0.22909340985E-02  0.38065132784E-01  0.49224182863E-01  0.51100000000E-03 0.  1.
         11    1    4    4    0    0  0.80930227403E-01 -0.29365271044E-01  0.23294901677E-01  0.89190439040E-01  0.51100000000E-03 0. -1.
</event>
<event>
 8    1  0.2039519E+004  0.1043930E+01  0.7957747E-01            NaN
         13   -1    0    0    0    0  0.00000000000E+00  0.00000000000E+00  0.74505805969E-08  0.10566000000E+00  0.10566000000E+00 0. -1.
     999900   -1    0    0    0    0 -0.00000000000E+00 -0.00000000000E+00 -0.74505805969E-08  0.93827000000E+00  0.93827000000E+00 0. -1.
     999902    2    1    2    0    0  0.92560088180E-02  0.63481357081E-02 -0.65373170728E-02  0.10309411956E+01  0.10308593695E+01 0.  0.
     999903    2    3    3    0    0  0.73439140238E-01 -0.11162938815E+00 -0.47836658448E-02  0.14074950509E+00  0.43967170765E-01 0.  0.
         14    1    1    2    0    0 -0.92560088180E-02 -0.63481357081E-02  0.65373170728E-02  0.12988804438E-01  0.00000000000E+00 0.  1.
     999901    1    3    3    0    0 -0.64183131420E-01  0.11797752386E+00 -0.17536512280E-02  0.89019169047E+00  0.88000000000E+00 0.  1.
        -11    1    4    4    0    0  0.62659193464E-01 -0.62912576076E-01 -0.14340011376E-01  0.89944781958E-01  0.51100000000E-03 0. -1.
         11    1    4    4    0    0  0.10779946774E-01 -0.48716812078E-01  0.95563455312E-02  0.50804723131E-01  0.51100000000E-03 0.  1.
</event>
<event>
 8    1  0.2039519E+004  0.1043930E+01  0.7957747E-01            NaN
         13   -1    0    0    0    0  0.00000000000E+00  0.00000000000E+00  0.74505805969E-08  0.10566000000E+00  0.10566000000E+00 0. -1.
     999900   -1    0    0    0    0 -0.00000000000E+00 -0.00000000000E+00 -0.74505805969E-08  0.93827000000E+00  0.93827000000E+00 0. -1.
     999902    2    1    2    0    0 -0.11575083966E-01  0.20176916103E-02  0.57465476963E-02  0.10308503800E+01  0.10307673984E+01 0.  0.
     999903    2    3    3    0    0 -0.55691749831E-01 -0.10767467650E+00  0.46456855786E-01  0.14201067287E+00  0.57562008327E-01 0.  0.
         14    1    1    2    0    0  0.11575083966E-01 -0.20176916103E-02 -0.57465476963E-02  0.13079619974E-01  0.00000000000E+00 0.  1.
     999901    1    3    3    0    0  0.44116665865E-01  0.10969236811E+00 -0.40710308090E-01  0.88883970715E+00  0.88000000000E+00 0.  1.
        -11    1    4    4    0    0 -0.38341946776E-01 -0.10924073501E+00  0.34257057996E-01  0.12073711199E+00  0.51100000000E-03 0. -1.
         11    1    4    4    0    0 -0.17349803055E-01  0.15660585195E-02  0.12199797789E-01  0.21273560878E-01  0.51100000000E-03 0.  1.
</event>
<event>
 8    1  0.2039519E+004  0.1043930E+01  0.7957747E-01            NaN
         13   -1    0    0    0    0  0.00000000000E+00  0.00000000000E+00  0.74505805969E-08  0.10566000000E+00  0.10566000000E+00 0. -1.
     999900   -1    0    0    0    0 -0.00000000000E+00 -0.00000000000E+00 -0.74505805969E-08  0.93827000000E+00  0.93827000000E+00 0. -1.
     999902    2    1    2    0    0  0.32379759181E-02 -0.13163873273E-01 -0.20556175775E-02  0.10302187779E+01  0.10301275323E+01 0.  0.
     999903    2    3    3    0    0  0.55863298244E-01  0.61296709420E-01  0.10262349390E+00  0.13933633937E+00  0.44777665096E-01 0.  0.
         14    1    1    2    0    0 -0.32379759181E-02  0.13163873273E-01  0.20556175775E-02  0.13711222090E-01  0.00000000000E+00 0. -1.
     999901    1    3    3    0    0 -0.52625322326E-01 -0.74460582693E-01 -0.10467911148E+00  0.89088243854E+00  0.88000000000E+00 0. -1.
        -11    1    4    4    0    0  0.59708495328E-01  0.38346859419E-01  0.78180558364E-01  0.10558431166E+00  0.51100000000E-03 0. -1.
         11    1    4    4    0    0 -0.38451970839E-02  0.22949850001E-01  0.24442935536E-01  0.33752027707E-01  0.51100000000E-03 0.  1.
</event>
<event>
 8    1  0.2039519E+004  0.1043930E+01  0.7957747E-01            NaN
         13   -1    0    0    0    0  0.00000000000E+00  0.00000000000E+00  0.74505805969E-08  0.10566000000E+00  0.10566000000E+00 0.  1.
     999900   -1    0    0    0    0 -0.00000000000E+00 -0.00000000000E+00 -0.74505805969E-08  0.93827000000E+00  0.93827000000E+00 0.  1.
     999902    2    1    2    0    0  0.45901245463E-02 -0.12080490621E-01 -0.52467254886E-02  0.10299823971E+01  0.10298879564E+01 0.  0.
     999903    2    3    3    0    0  0.15730887248E-01 -0.86181671829E-01  0.10023806440E+00  0.14052068209E+00  0.44985010494E-01 0.  0.
         14    1    1    2    0    0 -0.45901245463E-02  0.12080490621E-01  0.52467254886E-02  0.13947602853E-01  0.00000000000E+00 0.  1.
     999901    1    3    3    0    0 -0.11140762702E-01  0.74101181208E-01 -0.10548478989E+00  0.88946171505E+00  0.88000000000E+00 0.  1.
        -11    1    4    4    0    0 -0.11752984844E-01 -0.52431911088E-01  0.66202666463E-01  0.85266008003E-01  0.51100000000E-03 0. -1.
         11    1    4    4    0    0  0.27483872092E-01 -0.33749760741E-01  0.34035397934E-01  0.55254674090E-01  0.51100000000E-03 0.  1.
</event>
<event>
 8    1  0.2039519E+004  0.1043930E+01  0.7957747E-01            NaN
         13   -1    0    0    0    0  0.00000000000E+00  0.00000000000E+00  0.74505805969E-08  0.10566000000E+00  0.10566000000E+00 0. -1.
     999900   -1    0    0    0    0 -0.00000000000E+00 -0.00000000000E+00 -0.74505805969E-08  0.93827000000E+00  0.93827000000E+00 0. -1.
     999902    2    1    2    0    0  0.58513028537E-02  0.75429428007E-02  0.96740781834E-02  0.10303387705E+01  0.10302491254E+01 0.  0.
     999903    2    3    3    0    0  0.45565959792E-01  0.12581126696E+00  0.60698140932E-02  0.14153190665E+00  0.45713306280E-01 0.  0.
         14    1    1    2    0    0 -0.58513028537E-02 -0.75429428007E-02 -0.96740781834E-02  0.13591229521E-01  0.00000000000E+00 0.  1.
     999901    1    3    3    0    0 -0.39714656938E-01 -0.11826832416E+00  0.36042640902E-02  0.88880686383E+00  0.88000000000E+00 0. -1.
        -11    1    4    4    0    0  0.10909395367E-01  0.30449772593E-01 -0.18320322621E-01  0.37176590755E-01  0.51100000000E-03 0. -1.
         11    1    4    4    0    0  0.34656564425E-01  0.95361494365E-01  0.24390136714E-01  0.10435531589E+00  0.51100000000E-03 0.  1.
</event>
<event>
 8    1  0.2039519E+004  0.1043930E+01  0.7957747E-01            NaN
         13   -1    0    0    0    0  0.00000000000E+00  0.00000000000E+00  0.74505805969E-08  0.10566000000E+00  0.10566000000E+00 0. -1.
     999900   -1    0    0    0    0 -0.00000000000E+00 -0.00000000000E+00 -0.74505805969E-08  0.93827000000E+00  0.93827000000E+00 0.  1.
     999902    2    1    2    0    0  0.12762106957E-01  0.38035668574E-02 -0.88036468004E-03  0.10305840816E+01  0.10304976641E+01 0.  0.
     999903    2    3    3    0    0  0.43933288615E-01 -0.11573466482E+00 -0.49362900946E-01  0.14063375285E+00  0.44905567147E-01 0.  0.
         14    1    1    2    0    0 -0.12762106957E-01 -0.38035668574E-02  0.88036468004E-03  0.13345918357E-01  0.00000000000E+00 0.  1.
     999901    1    3    3    0    0 -0.31171181658E-01  0.11953823168E+00  0.48482536265E-01  0.88995032879E+00  0.88000000000E+00 0. -1.
        -11    1    4    4    0    0  0.39919803822E-01 -0.86263871999E-01 -0.55766209689E-01  0.11020516147E+00  0.51100000000E-03 0.  1.
         11    1    4    4    0    0  0.40134847935E-02 -0.29470792821E-01  0.64033087434E-02  0.30428591383E-01  0.51100000000E-03 0. -1.
</event>
<event>
 8    1  0.2039519E+004  0.1043930E+01  0.7957747E-01            NaN
         13   -1    0    0    0    0  0.00000000000E+00  0.00000000000E+00  0.74505805969E-08  0.10566000000E+00  0.10566000000E+00 0.  1.
     999900   -1    0    0    0    0 -0.00000000000E+00 -0.00000000000E+00 -0.74505805969E-08  0.93827000000E+00  0.93827000000E+00 0. -1.
     999902    2    1    2    0    0  0.26726070693E-02  0.42428113451E-02 -0.13883020585E-01  0.10291691553E+01  0.10290632962E+01 0.  0.
     999903    2    3    3    0    0 -0.87478214235E-01 -0.71437292486E-01 -0.68468521015E-01  0.13965567838E+00  0.45387723137E-01 0.  0.
         14    1    1    2    0    0 -0.26726070693E-02 -0.42428113451E-02  0.13883020585E-01  0.14760844733E-01  0.00000000000E+00 0.  1.
     999901    1    3    3    0    0  0.90150821305E-01  0.75680103831E-01  0.54585500430E-01  0.88951347688E+00  0.88000000000E+00 0.  1.
        -11    1    4    4    0    0 -0.47799541377E-01 -0.62288152104E-01 -0.31315768932E-01  0.84531346572E-01  0.51100000000E-03 0. -1.
         11    1    4    4    0    0 -0.39678672859E-01 -0.91491403822E-02 -0.37152752083E-01  0.55124331813E-01  0.51100000000E-03 0.  1.
</event>
<event>
 8    1  0.2039519E+004  0.1043930E+01  0.7957747E-01            NaN
         13   -1    0    0    0    0  0.00000000000E+00  0.00000000000E+00  0.74505805969E-08  0.10566000000E+00  0.10566000000E+00 0.  1.
     999900   -1    0    0    0    0 -0.00000000000E+00 -0.00000000000E+00 -0.74505805969E-08  0.93827000000E+00  0.93827000000E+00 0.  1.
     999902    2    1    2    0    0  0.39503325101E-02 -0.91497211828E-02  0.11598948103E-01  0.10286375796E+01  0.10285238996E+01 0.  0.
     999903    2    3    3    0    0  0.11331610086E+00 -0.52004129523E-01 -0.42637156464E-01  0.13917767233E+00  0.44805459054E-01 0.  0.
         14    1    1    2    0    0 -0.39503325101E-02  0.91497211828E-02 -0.11598948103E-01  0.15292420402E-01  0.00000000000E+00 0.  1.
     999901    1    3    3    0    0 -0.10936576835E+00  0.42854408341E-01  0.54236104567E-01  0.88945990727E+00  0.88000000000E+00 0. -1.
        -11    1    4    4    0    0  0.34980328183E-01 -0.37752236122E-01 -0.26670650962E-01  0.57969297354E-01  0.51100000000E-03 0.  1.
         11    1    4    4    0    0  0.78335772680E-01 -0.14251893401E-01 -0.15966505502E-01  0.81208374974E-01  0.51100000000E-03 0. -1.
</event>
<event>
 8    1  0.2039519E+004  0.1043930E+01  0.7957747E-01            NaN
         13   -1    0    0    0    0  0.00000000000E+00  0.00000000000E+00  0.74505805969E-08  0.10566000000E+00  0.10566000000E+00 0. -1.
     999900   -1    0    0    0    0 -0.00000000000E+00 -0.00000000000E+00 -0.74505805969E-08  0.93827000000E+00  0.93827000000E+00 0. -1.
     999902    2    1    2    0    0 -0.21665495592E-02  0.92939447158E-02  0.11600166581E-01  0.10289088413E+01  0.10287991876E+01 0.  0.
     999903    2    3    3    0    0  0.10614609103E+00  0.73321123443E-03 -0.75502781421E-01  0.13795887755E+00  0.45436237240E-01 0.  0.
         14    1    1    2    0    0  0.21665495592E-02 -0.92939447158E-02 -0.11600166581E-01  0.15021158746E-01  0.00000000000E+00 0.  1.
     999901    1    3    3    0    0 -0.10831264059E+00  0.85607334814E-02  0.87102948002E-01  0.89094996370E+00  0.88000000000E+00 0.  1.
        -11    1    4    4    0    0  0.46126246294E-01 -0.21052158526E-01 -0.42050044842E-01  0.65873297837E-01  0.51100000000E-03 0. -1.
         11    1    4    4    0    0  0.60019844732E-01  0.21785369761E-01 -0.33452736579E-01  0.72085579715E-01  0.51100000000E-03 0.  1.
</event>
<event>
 8    1  0.2262712E+004  0.1043930E+01  0.7957747E-01            NaN
         13   -1    0    0    0    0  0.00000000000E+00  0.00000000000E+00  0.74505805969E-08  0.10566000000E+00  0.10566000000E+00 0.  1.
     999900   -1    0    0    0    0 -0.00000000000E+00 -0.00000000000E+00 -0.74505805969E-08  0.93827000000E+00  0.93827000000E+00 0.  1.
     999902    2    1    2    0    0 -0.47223719089E-02  0.24990006414E-02 -0.12568270282E-01  0.10302732354E+01  0.10301827180E+01 0.  0.
     999903    2    3    3    0    0 -0.71256219449E-01  0.92773869964E-01 -0.65543536183E-01  0.14157605208E+00  0.45424482697E-01 0.  0.
         14    1    1    2    0    0  0.47223719089E-02 -0.24990006414E-02  0.12568270282E-01  0.13656764571E-01  0.00000000000E+00 0.  1.
     999901    1    3    3    0    0  0.66533847540E-01 -0.90274869322E-01  0.52975265901E-01  0.88869718335E+00  0.88000000000E+00 0. -1.
        -11    1    4    4    0    0 -0.27555604013E-01  0.65326536423E-01 -0.22537373741E-01  0.74397997350E-01  0.51100000000E-03 0.  1.
         11    1    4    4    0    0 -0.43700615436E-01  0.27447333540E-01 -0.43006162442E-01  0.67178054727E-01  0.51100000000E-03 0. -1.
</event>
<event>
 8    1  0.2039519E+004  0.1043930E+01  0.7957747E-01            NaN
         13   -1    0    0    0    0  0.00000000000E+00  0.00000000000E+00  0.74505805969E-08  0.10566000000E+00  0.10566000000E+00 0.  1.
     999900   -1    0    0    0    0 -0.00000000000E+00 -0.00000000000E+00 -0.74505805969E-08  0.93827000000E+00  0.93827000000E+00 0. -1.
     999902    2    1    2    0    0 -0.12177011562E-01 -0.23980096115E-02  0.59206718992E-03  0.10315050008E+01  0.10314301654E+01 0.  0.
     999903    2    3    3    0    0  0.11490763586E+00  0.62328119244E-01 -0.23371090814E-02  0.14001828784E+00  0.50110873308E-01 0.  0.
         14    1    1    2    0    0  0.12177011562E-01  0.23980096115E-02 -0.59206718992E-03  0.12424999164E-01  0.00000000000E+00 0. -1.
     999901    1    3    3    0    0 -0.12708464742E+00 -0.64726128855E-01  0.29291762713E-02  0.89148671299E+00  0.88000000000E+00 0.  1.
        -11    1    4    4    0    0  0.10252462340E+00  0.48903708570E-01 -0.19143183143E-01  0.11519372247E+00  0.51100000000E-03 0. -1.
         11    1    4    4    0    0  0.12383012468E-01  0.13424410674E-01  0.16806074062E-01  0.24824565375E-01  0.51100000000E-03 0.  1.
</event>
<event>
 8    1  0.2039519E+004  0.1043930E+01  0.7957747E-01            NaN
         13   -1    0    0    0    0  0.00000000000E+00  0.00000000000E+00  0.74505805969E-08  0.10566000000E+00  0.10566000000E+00 0.  1.
     999900   -1    0    0    0    0 -0.00000000000E+00 -0.00000000000E+00 -0.74505805969E-08  0.93827000000E+00  0.93827000000E+00 0.  1.
     999902    2    1    2    0    0  0.21540343470E-01  0.35087520189E-02  0.41183195819E-03  0.10221018681E+01  0.10218687594E+01 0.  0.
     999903    2    3    3    0    0  0.17396161484E-01 -0.20604286897E-01 -0.12230792430E+00  0.13324937668E+00  0.45486316246E-01 0.  0.
         14    1    1    2    0    0 -0.21540343470E-01 -0.35087520189E-02 -0.41183195819E-03  0.21828131920E-01  0.00000000000E+00 0.  1.
     999901    1    3    3    0    0  0.41441819857E-02  0.24113038916E-01  0.12271975626E+00  0.88885249140E+00  0.88000000000E+00 0. -1.
        -11    1    4    4    0    0  0.23920753055E-01 -0.19166898092E-01 -0.38690143008E-01  0.49363556357E-01  0.51100000000E-03 0.  1.
         11    1    4    4    0    0 -0.65245915711E-02 -0.14373888047E-02 -0.83617781295E-01  0.83885820324E-01  0.51100000000E-03 0. -1.
</event>
<event>
 8    1  0.2039519E+004  0.1043930E+01  0.7957747E-01            NaN
         13   -1    0    0    0    0  0.00000000000E+00  0.00000000000E+00  0.74505805969E-08  0.10566000000E+00  0.10566000000E+00 0. -1.
     999900   -1    0    0    0    0 -0.00000000000E+00 -0.00000000000E+00 -0.74505805969E-08  0.93827000000E+00  0.93827000000E+00 0.  1.
     999902    2    1    2    0    0  0.29553916912E-02  0.11334228853E-01 -0.65036756507E-02  0.10305323554E+01  0.10304452623E+01 0.  0.
     999903    2    3    3    0    0 -0.28113985928E-01  0.16434839506E-01  0.12788363742E+00  0.13977353711E+00  0.46064268185E-01 0.  0.
         14    1    1    2    0    0 -0.29553916912E-02 -0.11334228853E-01  0.65036756507E-02  0.13397644596E-01  0.00000000000E+00 0. -1.
     999901    1    3    3    0    0  0.31069377619E-01 -0.51006106529E-02 -0.13438731307E+00  0.89075881829E+00  0.88000000000E+00 0.  1.
        -11    1    4    4    0    0 -0.29466654426E-01  0.26365189438E-01  0.64918027865E-01  0.76013277787E-01  0.51100000000E-03 0.  1.
         11    1    4    4    0    0  0.13526684978E-02 -0.99303499317E-02  0.62965609551E-01  0.63760259323E-01  0.51100000000E-03 0. -1.
</event>
<event>
 8    1  0.2039519E+004  0.1043930E+01  0.7957747E-01            NaN
         13   -1    0    0    0    0  0.00000000000E+00  0.00000000000E+00  0.74505805969E-08  0.10566000000E+00  0.10566000000E+00 0. -1.
     999900   -1    0    0    0    0 -0.00000000000E+00 -0.00000000000E+00 -0.74505805969E-08  0.93827000000E+00  0.93827000000E+00 0. -1.
     999902    2    1    2    0    0  0.68533104136E-02  0.80187084484E-02  0.79249883890E-02  0.10307363277E+01  0.10306518831E+01 0.  0.
     999903    2    3    3    0    0 -0.56911827909E-01  0.87472312104E-01 -0.82124005925E-01  0.14029391550E+00  0.45251174972E-01 0.  0.
         14    1    1    2    0    0 -0.68533104136E-02 -0.80187084484E-02 -0.79249883890E-02  0.13193672338E-01  0.00000000000E+00 0. -1.
     999901    1    3    3    0    0  0.63765138323E-01 -0.79453603656E-01  0.90048994314E-01  0.89044241216E+00  0.88000000000E+00 0.  1.
        -11    1    4    4    0    0 -0.40974182492E-01  0.33249453681E-01 -0.59193988561E-01  0.79300688545E-01  0.51100000000E-03 0.  1.
         11    1    4    4    0    0 -0.15937645418E-01  0.54222858424E-01 -0.22930017363E-01  0.60993226955E-01  0.51100000000E-03 0. -1.
</event>
<event>
 8    1  0.2039519E+004  0.1043930E+01  0.7957747E-01            NaN
         13   -1    0    0    0    0  0.00000000000E+00  0.00000000000E+00  0.74505805969E-08  0.10566000000E+00  0.10566000000E+00 0.  1.
     999900   -1    0    0    0    0 -0.00000000000E+00 -0.00000000000E+00 -0.74505805969E-08  0.93827000000E+00  0.93827000000E+00 0.  1.
     999902    2    1    2    0    0 -0.18105231868E-02 -0.10180247813E-01  0.89375799240E-02  0.10302626749E+01  0.10301720165E+01 0.  0.
     999903    2    3    3    0    0 -0.14831250319E-01  0.86072147528E-01 -0.97911588661E-01  0.13849431500E+00  0.44335262788E-01 0.  0.
         14    1    1    2    0    0  0.18105231868E-02  0.10180247813E-01 -0.89375799240E-02  0.13667325072E-01  0.00000000000E+00 0. -1.
     999901    1    3    3    0    0  0.13020727132E-01 -0.96252395341E-01  0.10684916859E+00  0.89176835993E+00  0.88000000000E+00 0.  1.
        -11    1    4    4    0    0  0.39621768729E-02  0.75149826520E-01 -0.83501660371E-01  0.11240989137E+00  0.51100000000E-03 0.  1.
         11    1    4    4    0    0 -0.18793427191E-01  0.10922321008E-01 -0.14409928290E-01  0.26084423631E-01  0.51100000000E-03 0. -1.
</event>
<event>
 8    1  0.2039519E+004  0.1043930E+01  0.7957747E-01            NaN
         13   -1    0    0    0    0  0.00000000000E+00  0.00000000000E+00  0.74505805969E-08  0.10566000000E+00  0.10566000000E+00 0. -1.
     999900   -1    0    0    0    0 -0.00000000000E+00 -0.00000000000E+00 -0.74505805969E-08  0.93827000000E+00  0.93827000000E+00 0.  1.
     999902    2    1    2    0    0 -0.60757530124E-02  0.10520337161E-01 -0.64212454679E-02  0.10301886514E+01  0.10300970016E+01 0.  0.
     999903    2    3    3    0    0  0.12622664410E+00  0.13810928790E-01 -0.38276657147E-01  0.13972275111E+00  0.43970868324E-01 0.  0.
         14    1    1    2    0    0  0.60757530124E-02 -0.10520337161E-01  0.64212454679E-02  0.13741348624E-01  0.00000000000E+00 0. -1.
     999901    1    3    3    0    0 -0.13230239711E+00 -0.32905916288E-02  0.31855411679E-01  0.89046590026E+00  0.88000000000E+00 0.  1.
        -11    1    4    4    0    0  0.10488997088E-01  0.28507736177E-02 -0.18976576003E-01  0.21875043495E-01  0.51100000000E-03 0. -1.
         11    1    4    4    0    0  0.11573764701E+00  0.10960155172E-01 -0.19300081144E-01  0.11784770762E+00  0.51100000000E-03 0.  1.
</event>
<event>
 8    1  0.2039519E+004  0.1043930E+01  0.7957747E-01            NaN
         13   -1    0    0    0    0  0.00000000000E+00  0.00000000000E+00  0.74505805969E-08  0.10566000000E+00  0.10566000000E+00 0.  1.
     999900   -1    0    0    0    0 -0.00000000000E+00 -0.00000000000E+00 -0.74505805969E-08  0.93827000000E+00  0.93827000000E+00 0. -1.
     999902    2    1    2    0    0  0.46831722873E-02  0.89672067491E-02 -0.70823084309E-02  0.10315808303E+01  0.10315069110E+01 0.  0.
     999903    2    3    3    0    0  0.13085673704E+00  0.33607849015E-01  0.36526746977E-02  0.14217531561E+00  0.44130547176E-01 0.  0.
         14    1    1    2    0    0 -0.46831722873E-02 -0.89672067491E-02  0.70823084309E-02  0.12349169699E-01  0.00000000000E+00 0.  1.
     999901    1    3    3    0    0 -0.12617356475E+00 -0.24640642266E-01 -0.10734983129E-01  0.88940551469E+00  0.88000000000E+00 0.  1.
        -11    1    4    4    0    0  0.48136680373E-01  0.11234856765E-01  0.22691079748E-01  0.54392170622E-01  0.51100000000E-03 0.  1.
         11    1    4    4    0    0  0.82720056664E-01  0.22372992250E-01 -0.19038405051E-01  0.87783144991E-01  0.51100000000E-03 0. -1.
</event>
<event>
 8    1  0.2039519E+004  0.1043930E+01  0.7957747E-01            NaN
         13   -1    0    0    0    0  0.00000000000E+00  0.00000000000E+00  0.74505805969E-08  0.10566000000E+00  0.10566000000E+00 0. -1.
     999900   -1    0    0    0    0 -0.00000000000E+00 -0.00000000000E+00 -0.74505805969E-08  0.93827000000E+00  0.93827000000E+00 0.  1.
     999902    2    1    2    0    0  0.15899037428E-02 -0.60139186663E-02  0.12270227864E-01  0.10301730562E+01  0.10300811969E+01 0.  0.
     999903    2    3    3    0    0 -0.53611077627E-01  0.11676950814E+00 -0.27995565738E-01  0.13902533981E+00  0.45111281666E-01 0.  0.
         14    1    1    2    0    0 -0.15899037428E-02  0.60139186663E-02 -0.12270227864E-01  0.13756943827E-01  0.00000000000E+00 0.  1.
     999901    1    3    3    0    0  0.55200981370E-01 -0.12278342680E+00  0.40265793602E-01  0.89114771636E+00  0.88000000000E+00 0. -1.
        -11    1    4    4    0    0 -0.59910135922E-02  0.50211940234E-01 -0.26674180433E-01  0.57174331729E-01  0.51100000000E-03 0.  1.
         11    1    4    4    0    0 -0.47620064035E-01  0.66557567904E-01 -0.13213853057E-02  0.81851008082E-01  0.51100000000E-03 0. -1.
</event>
<event>
 8    1  0.2039519E+004  0.1043930E+01  0.7957747E-01            NaN
         13   -1    0    0    0    0  0.00000000000E+00  0.00000000000E+00  0.74505805969E-08  0.10566000000E+00  0.10566000000E+00 0. -1.
     999900   -1    0    0    0    0 -0.00000000000E+00 -0.00000000000E+00 -0.74505805969E-08  0.93827000000E+00  0.93827000000E+00 0.  1.
     999902    2    1    2    0    0 -0.12777227447E-01  0.48062937177E-02 -0.10593237906E-02  0.10302376603E+01  0.10301466675E+01 0.  0.
     999903    2    3    3    0    0 -0.34958011377E-01 -0.12327165459E+00  0.33888344056E-01  0.14000325995E+00  0.45105759595E-01 0.  0.
         14    1    1    2    0    0  0.12777227447E-01 -0.48062937177E-02  0.10593237906E-02  0.13692339735E-01  0.00000000000E+00 0. -1.
     999901    1    3    3    0    0  0.22180783930E-01  0.12807794831E+00 -0.34947667847E-01  0.89023440032E+00  0.88000000000E+00 0. -1.
        -11    1    4    4    0    0 -0.36489087814E-01 -0.58344389215E-01  0.52340747376E-02  0.69015780381E-01  0.51100000000E-03 0.  1.
         11    1    4    4    0    0  0.15310764363E-02 -0.64927265375E-01  0.28654269318E-01  0.70987479567E-01  0.51100000000E-03 0. -1.
</event>
<event>
 7    1  0.2039519E+004  0.1043930E+01  0.7957747E-01            NaN
         13   -1    0    0    0    0  0.00000000000E+00  0.00000000000E+00  0.74505805969E-08  0.10566000000E+00  0.10566000000E+00 0.  1.
     999900   -1    0    0    0    0 -0.00000000000E+00 -0.00000000000E+00 -0.74505805969E-08  0.93827000000E+00  0.93827000000E+00 0. -1.
     999903    2    1    2    0    0 -0.10439785076E+00  0.20589184397E-01  0.33319099651E-01  0.12026233348E+00  0.45055972915E-01 0.  0.
         14    1    1    2    0    0  0.18722669116E-01  0.32072742917E-01 -0.51425413872E-02  0.37491931251E-01  0.00000000000E+00 0. -1.
     999901    1    1    2    0    0  0.85675181647E-01 -0.52661927314E-01 -0.28176558264E-01  0.88617573527E+00  0.88000000000E+00 0.  1.
        -11    1    3    3    0    0 -0.52226549930E-01  0.12302253286E-01 -0.65799248625E-02  0.54060285661E-01  0.51100000000E-03 0. -1.
         11    1    3    3    0    0 -0.52171300832E-01  0.82869311107E-02  0.39899024513E-01  0.66202047822E-01  0.51100000000E-03 0.  1.
</event>
<event>
 8    1  0.2039519E+004  0.1043930E+01  0.7957747E-01            NaN
         13   -1    0    0    0    0  0.00000000000E+00  0.00000000000E+00  0.74505805969E-08  0.10566000000E+00  0.10566000000E+00 0.  1.
     999900   -1    0    0    0    0 -0.00000000000E+00 -0.00000000000E+00 -0.74505805969E-08  0.93827000000E+00  0.93827000000E+00 0. -1.
     999902    2    1    2    0    0  0.50310519889E-02 -0.85652764840E-02  0.12489318124E-01  0.10279719765E+01  0.10278481046E+01 0.  0.
     999903    2    3    3    0    0  0.12322916181E+00 -0.27201702101E-01 -0.35672493782E-01  0.13856899159E+00  0.44760246853E-01 0.  0.
         14    1    1    2    0    0 -0.50310519889E-02  0.85652764840E-02 -0.12489318124E-01  0.15958023454E-01  0.00000000000E+00 0. -1.
     999901    1    3    3    0    0 -0.11819810983E+00  0.18636425617E-01  0.48161811906E-01  0.88940298496E+00  0.88000000000E+00 0. -1.
        -11    1    4    4    0    0  0.93759422822E-01 -0.39421781253E-01 -0.23290758219E-01  0.10434379112E+00  0.51100000000E-03 0. -1.
         11    1    4    4    0    0  0.29469738993E-01  0.12220079152E-01 -0.12381735563E-01  0.34225200472E-01  0.51100000000E-03 0.  1.
</event>
<event>
 8    1  0.2039519E+004  0.1043930E+01  0.7957747E-01            NaN
         13   -1    0    0    0    0  0.00000000000E+00  0.00000000000E+00  0.74505805969E-08  0.10566000000E+00  0.10566000000E+00 0. -1.
     999900   -1    0    0    0    0 -0.00000000000E+00 -0.00000000000E+00 -0.74505805969E-08  0.93827000000E+00  0.93827000000E+00 0.  1.
     999902    2    1    2    0    0  0.41023094073E-02  0.10342141546E-01  0.10274409290E-01  0.10287856175E+01  0.10286741440E+01 0.  0.
     999903    2    3    3    0    0  0.26705098632E-01 -0.12129548567E+00  0.42362353016E-01  0.13812912532E+00  0.43119939368E-01 0.  0.
         14    1    1    2    0    0 -0.41023094073E-02 -0.10342141546E-01 -0.10274409290E-01  0.15144382473E-01  0.00000000000E+00 0.  1.
     999901    1    3    3    0    0 -0.22602789225E-01  0.13163762722E+00 -0.32087943726E-01  0.89065649221E+00  0.88000000000E+00 0.  1.
        -11    1    4    4    0    0  0.37522596660E-01 -0.75990306285E-01  0.24272369819E-01  0.88158272256E-01  0.51100000000E-03 0.  1.
         11    1    4    4    0    0 -0.10817498028E-01 -0.45305179386E-01  0.18089983197E-01  0.49970853063E-01  0.51100000000E-03 0. -1.
</event>
<event>
 8    1  0.2039519E+004  0.1043930E+01  0.7957747E-01            NaN
         13   -1    0    0    0    0  0.00000000000E+00  0.00000000000E+00  0.74505805969E-08  0.10566000000E+00  0.10566000000E+00 0. -1.
     999900   -1    0    0    0    0 -0.00000000000E+00 -0.00000000000E+00 -0.74505805969E-08  0.93827000000E+00  0.93827000000E+00 0. -1.
     999902    2    1    2    0    0 -0.68610559924E-02  0.12195019958E-01 -0.30193766278E-02  0.10296153489E+01  0.10295158364E+01 0.  0.
     999903    2    3    3    0    0  0.42993205152E-01  0.12332884460E+00  0.26992411660E-01  0.14071890848E+00  0.44886538286E-01 0.  0.
         14    1    1    2    0    0  0.68610559924E-02 -0.12195019958E-01  0.30193766278E-02  0.14314651108E-01  0.00000000000E+00 0. -1.
     999901    1    3    3    0    0 -0.49854261144E-01 -0.11113382464E+00 -0.30011788288E-01  0.88889644041E+00  0.88000000000E+00 0. -1.
        -11    1    4    4    0    0  0.48289848018E-02  0.50467224559E-01  0.29063277904E-01  0.58439670536E-01  0.51100000000E-03 0.  1.
         11    1    4    4    0    0  0.38164220350E-01  0.72861620037E-01 -0.20708662437E-02  0.82279237948E-01  0.51100000000E-03 0. -1.
</event>
<event>
 8    1  0.2039519E+004  0.1043930E+01  0.7957747E-01            NaN
         13   -1    0    0    0    0  0.00000000000E+00  0.00000000000E+00  0.74505805969E-08  0.10566000000E+00  0.10566000000E+00 0. -1.
     999900   -1    0    0    0    0 -0.00000000000E+00 -0.00000000000E+00 -0.74505805969E-08  0.93827000000E+00  0.93827000000E+00 0. -1.
     999902    2    1    2    0    0  0.14058124215E-01  0.56060920835E-02  0.11878883682E-02  0.10287487549E+01  0.10286367340E+01 0.  0.
     999903    2    3    3    0    0  0.51556220103E-01  0.12179108656E+00  0.12150725065E-01  0.14025269752E+00  0.45078447698E-01 0.  0.
         14    1    1    2    0    0 -0.14058124215E-01 -0.56060920835E-02 -0.11878883682E-02  0.15181245129E-01  0.00000000000E+00 0. -1.
     999901    1    3    3    0    0 -0.37498095889E-01 -0.11618499447E+00 -0.10962836697E-01  0.88849605735E+00  0.88000000000E+00 0.  1.
        -11    1    4    4    0    0  0.22064562357E-01  0.35876446754E-01 -0.16146559908E-01  0.45110274456E-01  0.51100000000E-03 0.  1.
         11    1    4    4    0    0  0.29491657747E-01  0.85914639803E-01  0.28297284973E-01  0.95142423066E-01  0.51100000000E-03 0. -1.
</event>
<event>
 8    1  0.2039519E+004  0.1043930E+01  0.7957747E-01            NaN
         13   -1    0    0    0    0  0.00000000000E+00  0.00000000000E+00  0.74505805969E-08  0.10566000000E+00  0.10566000000E+00 0. -1.
     999900   -1    0    0    0    0 -0.00000000000E+00 -0.00000000000E+00 -0.74505805969E-08  0.93827000000E+00  0.93827000000E+00 0. -1.
     999902    2    1    2    0    0  0.65748309088E-02  0.79271604437E-02  0.92546027648E-02  0.10300838472E+01  0.10299907846E+01 0.  0.
     999903    2    3    3    0    0 -0.24356810090E-01  0.84672275682E-02 -0.12932307158E+00  0.13870243060E+00  0.42999526400E-01 0.  0.
         14    1    1    2    0    0 -0.65748309088E-02 -0.79271604437E-02 -0.92546027648E-02  0.13846152769E-01  0.00000000000E+00 0.  1.
     999901    1    3    3    0    0  0.30931640998E-01 -0.54006712449E-03  0.13857767435E+00  0.89138141663E+00  0.88000000000E+00 0.  1.
        -11    1    4    4    0    0  0.11046422807E-01  0.96275473932E-02 -0.35065441970E-01  0.38007360697E-01  0.51100000000E-03 0.  1.
         11    1    4    4    0    0 -0.35403232897E-01 -0.11603198249E-02 -0.94257629612E-01  0.10069506990E+00  0.51100000000E-03 0. -1.
</event>
<event>
 8    1  0.2039519E+004  0.1043930E+01  0.7957747E-01            NaN
         13   -1    0    0    0    0  0.00000000000E+00  0.00000000000E+00  0.74505805969E-08  0.10566000000E+00  0.10566000000E+00 0.  1.
     999900   -1    0    0    0    0 -0.00000000000E+00 -0.00000000000E+00 -0.74505805969E-08  0.93827000000E+00  0.93827000000E+00 0. -1.
     999902    2    1    2    0    0 -0.95062787718E-02  0.88919682830E-02  0.20065412458E-02  0.10307594782E+01  0.10306753317E+01 0.  0.
     999903    2    3    3    0    0 -0.26299049739E-01  0.91993009419E-01 -0.93969812053E-01  0.14149054220E+00  0.45109801092E-01 0.  0.
         14    1    1    2    0    0  0.95062787718E-02 -0.88919682830E-02 -0.20065412458E-02  0.13170521774E-01  0.00000000000E+00 0.  1.
     999901    1    3    3    0    0  0.16792770968E-01 -0.83101041136E-01  0.95976353299E-01  0.88926893603E+00  0.88000000000E+00 0.  1.
        -11    1    4    4    0    0 -0.31178845988E-01  0.58120522497E-01 -0.38674203973E-01  0.76459602055E-01  0.51100000000E-03 0. -1.
         11    1    4    4    0    0  0.48797962488E-02  0.33872486922E-01 -0.55295608080E-01  0.65030940141E-01  0.51100000000E-03 0.  1.
</event>
<event>
 8    1  0.2039519E+004  0.1043930E+01  0.7957747E-01            NaN
         13   -1    0    0    0    0  0.00000000000E+00  0.00000000000E+00  0.74505805969E-08  0.10566000000E+00  0.10566000000E+00 0.  1.
     999900   -1    0    0    0    0 -0.00000000000E+00 -0.00000000000E+00 -0.74505805969E-08  0.93827000000E+00  0.93827000000E+00 0. -1.
     999902    2    1    2    0    0 -0.28286615035E-02 -0.15876817846E-02  0.11342795091E-01  0.10321324977E+01  0.10320650715E+01 0.  0.
     999903    2    3    3    0    0 -0.43087470729E-01 -0.46012600340E-01 -0.11730439205E+00  0.14076027252E+00  0.45600925453E-01 0.  0.
         14    1    1    2    0    0  0.28286615035E-02  0.15876817846E-02 -0.11342795091E-01  0.11797502271E-01  0.00000000000E+00 0. -1.
     999901    1    3    3    0    0  0.40258809226E-01  0.44424918555E-01  0.12864718714E+00  0.89137222521E+00  0.88000000000E+00 0.  1.
        -11    1    4    4    0    0 -0.12669847951E-01 -0.29123282345E-01 -0.93111989403E-01  0.98380863552E-01  0.51100000000E-03 0. -1.
         11    1    4    4    0    0 -0.30417622778E-01 -0.16889317994E-01 -0.24192402649E-01  0.42379408971E-01  0.51100000000E-03 0.  1.
</event>
<event>
 8    1  0.2039519E+004  0.1043930E+01  0.7957747E-01            NaN
         13   -1    0    0    0    0  0.00000000000E+00  0.00000000000E+00  0.74505805969E-08  0.10566000000E+00  0.10566000000E+00 0.  1.
     999900   -1    0    0    0    0 -0.00000000000E+00 -0.00000000000E+00 -0.74505805969E-08  0.93827000000E+00  0.93827000000E+00 0. -1.
     999902    2    1    2    0    0 -0.11181688296E-01 -0.14101576778E-02 -0.82300526425E-02  0.10299746260E+01  0.10298800793E+01 0.  0.
     999903    2    3    3    0    0 -0.28051656162E-01 -0.57037711618E-01  0.11557728103E+00  0.13940892012E+00  0.45128075051E-01 0.  0.
         14    1    1    2    0    0  0.11181688296E-01  0.14101576778E-02  0.82300526425E-02  0.13955374030E-01  0.00000000000E+00 0.  1.
     999901    1    3    3    0    0  0.16869967866E-01  0.55627553940E-01 -0.12380733367E+00  0.89056570585E+00  0.88000000000E+00 0. -1.
        -11    1    4    4    0    0 -0.40040966050E-02 -0.52819184162E-01  0.86564903319E-01  0.10148715492E+00  0.51100000000E-03 0.  1.
         11    1    4    4    0    0 -0.24047559557E-01 -0.42185274554E-02  0.29012377710E-01  0.37921765200E-01  0.51100000000E-03 0. -1.
</event>
<event>
 8    1  0.2039519E+004  0.1043930E+01  0.7957747E-01            NaN
         13   -1    0    0    0    0  0.00000000000E+00  0.00000000000E+00  0.74505805969E-08  0.10566000000E+00  0.10566000000E+00 0. -1.
     999900   -1    0    0    0    0 -0.00000000000E+00 -0.00000000000E+00 -0.74505805969E-08  0.93827000000E+00  0.93827000000E+00 0. -1.
     999902    2    1    2    0    0 -0.14997068376E-01  0.50146288654E-02  0.62899843633E-02  0.10269117020E+01  0.10267706761E+01 0.  0.
     999903    2    3    3    0    0  0.22105230745E-01 -0.67135411917E-01  0.10859528069E+00  0.13727774211E+00  0.45347973836E-01 0.  0.
         14    1    1    2    0    0  0.14997068376E-01 -0.50146288654E-02 -0.62899843633E-02  0.17018297970E-01  0.00000000000E+00 0.  1.
     999901    1    3    3    0    0 -0.37102299121E-01  0.72150040782E-01 -0.10230529633E+00  0.88963395992E+00  0.88000000000E+00 0. -1.
        -11    1    4    4    0    0  0.22448861954E-01 -0.29833519904E-01  0.22871184613E-01  0.43787469891E-01  0.51100000000E-03 0. -1.
         11    1    4    4    0    0 -0.34363120918E-03 -0.37301892013E-01  0.85724096078E-01  0.93490272219E-01  0.51100000000E-03 0.  1.
</event>
<event>
 8    1  0.2039519E+004  0.1043930E+01  0.7957747E-01            NaN
         13   -1    0    0    0    0  0.00000000000E+00  0.00000000000E+00  0.74505805969E-08  0.10566000000E+00  0.10566000000E+00 0.  1.
     999900   -1    0    0    0    0 -0.00000000000E+00 -0.00000000000E+00 -0.74505805969E-08  0.93827000000E+00  0.93827000000E+00 0. -1.
     999902    2    1    2    0    0  0.12234552456E-01 -0.15821076904E-02  0.85088853092E-02  0.10289437240E+01  0.10288345828E+01 0.  0.
     999903    2    3    3    0    0 -0.10402019286E+00  0.55274669390E-01  0.56669571453E-01  0.13817590321E+00  0.44784487262E-01 0.  0.
         14    1    1    2    0    0 -0.12234552456E-01  0.15821076904E-02 -0.85088853092E-02  0.14986275980E-01  0.00000000000E+00 0. -1.
     999901    1    3    3    0    0  0.11625474532E+00 -0.56856777080E-01 -0.48160686143E-01  0.89076782081E+00  0.88000000000E+00 0. -1.
        -11    1    4    4    0    0 -0.73522825681E-01  0.54353229788E-01  0.26341118447E-01  0.95152483554E-01  0.51100000000E-03 0.  1.
         11    1    4    4    0    0 -0.30497367179E-01  0.92143960186E-03  0.30328453006E-01  0.43023419652E-01  0.51100000000E-03 0. -1.
</event>
<event>
 8    1  0.2039519E+004  0.1043930E+01  0.7957747E-01            NaN
         13   -1    0    0    0    0  0.00000000000E+00  0.00000000000E+00  0.74505805969E-08  0.10566000000E+00  0.10566000000E+00 0.  1.
     999900   -1    0    0    0    0 -0.00000000000E+00 -0.00000000000E+00 -0.74505805969E-08  0.93827000000E+00  0.93827000000E+00 0. -1.
     999902    2    1    2    0    0 -0.96689958993E-02  0.40815134586E-02 -0.10677723749E-01  0.10289579588E+01  0.10288490263E+01 0.  0.
     999903    2    3    3    0    0 -0.11105149767E+00 -0.47957158191E-01 -0.55456868542E-01  0.14048083087E+00  0.45023054288E-01 0.  0.
         14    1    1    2    0    0  0.96689958993E-02 -0.40815134586E-02  0.10677723749E-01  0.14972041219E-01  0.00000000000E+00 0.  1.
     999901    1    3    3    0    0  0.10138250177E+00  0.52038671649E-01  0.44779144793E-01  0.88847712791E+00  0.88000000000E+00 0.  1.
        -11    1    4    4    0    0 -0.53639125922E-01 -0.46660743341E-01 -0.24234334529E-01  0.75112880985E-01  0.51100000000E-03 0.  1.
         11    1    4    4    0    0 -0.57412371746E-01 -0.12964148497E-02 -0.31222534013E-01  0.65367949885E-01  0.51100000000E-03 0. -1.
</event>
<event>
 8    1  0.2039519E+004  0.1043930E+01  0.7957747E-01            NaN
         13   -1    0    0    0    0  0.00000000000E+00  0.00000000000E+00  0.74505805969E-08  0.10566000000E+00  0.10566000000E+00 0. -1.
     999900   -1    0    0    0    0 -0.00000000000E+00 -0.00000000000E+00 -0.74505805969E-08  0.93827000000E+00  0.93827000000E+00 0.  1.
     999902    2    1    2    0    0  0.96591678715E-02  0.10655290475E-01 -0.21218222284E-02  0.10293925701E+01  0.10292899137E+01 0.  0.
     999903    2    3    3    0    0 -0.54102836073E-01 -0.17705793129E-01 -0.11878432489E+00  0.13895442864E+00  0.44249355000E-01 0.  0.
         14    1    1    2    0    0 -0.96591678715E-02 -0.10655290475E-01  0.21218222284E-02  0.14537429919E-01  0.00000000000E+00 0.  1.
     999901    1    3    3    0    0  0.63762003945E-01  0.28361083605E-01  0.11666250266E+00  0.89043814144E+00  0.88000000000E+00 0. -1.
        -11    1    4    4    0    0 -0.27646887359E-01 -0.94052889394E-02 -0.17738257285E-01  0.34171870496E-01  0.51100000000E-03 0.  1.
         11    1    4    4    0    0 -0.26455948714E-01 -0.83005041899E-02 -0.10104606760E+00  0.10478255814E+00  0.51100000000E-03 0. -1.
</event>
<event>
 8    1  0.2039519E+004  0.1043930E+01  0.7957747E-01            NaN
         13   -1    0    0    0    0  0.00000000000E+00  0.00000000000E+00  0.74505805969E-08  0.10566000000E+00  0.10566000000E+00 0.  1.
     999900   -1    0    0    0    0 -0.00000000000E+00 -0.00000000000E+00 -0.74505805969E-08  0.93827000000E+00  0.93827000000E+00 0. -1.
     999902    2    1    2    0    0  0.67387560027E-02 -0.76103179189E-02  0.12847296967E-01  0.10275476677E+01  0.10274170666E+01 0.  0.
     999903    2    3    3    0    0 -0.28885258417E-01 -0.23496509861E-01 -0.12478004240E+00  0.13599692546E+00  0.39225764808E-01 0.  0.
         14    1    1    2    0    0 -0.67387560027E-02  0.76103179189E-02 -0.12847296967E-01  0.16382332271E-01  0.00000000000E+00 0. -1.
     999901    1    3    3    0    0  0.35624014419E-01  0.15886191942E-01  0.13762733936E+00  0.89155074227E+00  0.88000000000E+00 0.  1.
        -11    1    4    4    0    0 -0.26275726217E-01  0.24433763472E-02 -0.46256580448E-01  0.53257076825E-01  0.51100000000E-03 0.  1.
         11    1    4    4    0    0 -0.26095321994E-02 -0.25939886208E-01 -0.78523461949E-01  0.82739848636E-01  0.51100000000E-03 0. -1.
</event>
<event>
 8    1  0.2039519E+004  0.1043930E+01  0.7957747E-01            NaN
         13   -1    0    0    0    0  0.00000000000E+00  0.00000000000E+00  0.74505805969E-08  0.10566000000E+00  0.10566000000E+00 0.  1.
     999900   -1    0    0    0    0 -0.00000000000E+00 -0.00000000000E+00 -0.74505805969E-08  0.93827000000E+00  0.93827000000E+00 0.  1.
     999902    2    1    2    0    0 -0.13569319317E-01 -0.20134203022E-02  0.91896181989E-02  0.10274185079E+01  0.10272858225E+01 0.  0.
     999903    2    3    3    0    0  0.97370893225E-01  0.63063833840E-01 -0.54364609756E-01  0.13580092193E+00  0.45036003550E-01 0.  0.
         14    1    1    2    0    0  0.13569319317E-01  0.20134203022E-02 -0.91896181989E-02  0.16511492079E-01  0.00000000000E+00 0. -1.
     999901    1    3    3    0    0 -0.11094021254E+00 -0.65077254142E-01  0.63554227955E-01  0.89161758600E+00  0.88000000000E+00 0. -1.
        -11    1    4    4    0    0  0.29446351232E-03  0.16778031339E-01 -0.54367970058E-02  0.17646782343E-01  0.51100000000E-03 0.  1.
         11    1    4    4    0    0  0.97076429713E-01  0.46285802501E-01 -0.48927812750E-01  0.11815413958E+00  0.51100000000E-03 0. -1.
</event>
<event>
 7    1  0.5290139E+004  0.1043930E+01  0.7957747E-01            NaN
         13   -1    0    0    0    0  0.00000000000E+00  0.00000000000E+00  0.74505805969E-08  0.10566000000E+00  0.10566000000E+00 0.  1.
     999900   -1    0    0    0    0 -0.00000000000E+00 -0.00000000000E+00 -0.74505805969E-08  0.93827000000E+00  0.93827000000E+00 0.  1.
     999903    2    1    2    0    0 -0.42493425719E-01  0.83876033430E-01  0.33094420501E-01  0.10941202102E+00  0.45109527403E-01 0.  0.
         14    1    1    2    0    0 -0.39670055807E-01  0.18823787258E-01  0.30008231167E-02  0.44011966939E-01  0.00000000000E+00 0. -1.
     999901    1    1    2    0    0  0.82163481526E-01 -0.10269982069E+00 -0.36095243617E-01  0.89050601204E+00  0.88000000000E+00 0. -1.
        -11    1    3    3    0    0 -0.43243138270E-01  0.41211909107E-01  0.29393706295E-01  0.66578086113E-01  0.51100000000E-03 0.  1.
         11    1    3    3    0    0  0.74971255128E-03  0.42664124323E-01  0.37007142059E-02  0.42833934909E-01  0.51100000000E-03 0. -1.
</event>
<event>
 8    1  0.2039519E+004  0.1043930E+01  0.7957747E-01            NaN
         13   -1    0    0    0    0  0.00000000000E+00  0.00000000000E+00  0.74505805969E-08  0.10566000000E+00  0.10566000000E+00 0.  1.
     999900   -1    0    0    0    0 -0.00000000000E+00 -0.00000000000E+00 -0.74505805969E-08  0.93827000000E+00  0.93827000000E+00 0.  1.
     999902    2    1    2    0    0 -0.11030192287E-01  0.66800192346E-02 -0.61175618368E-02  0.10296572161E+01  0.10295582889E+01 0.  0.
     999903    2    3    3    0    0 -0.30859450254E-02  0.12518189604E+00 -0.46248529188E-01  0.14077235263E+00  0.44697859681E-01 0.  0.
         14    1    1    2    0    0  0.11030192287E-01 -0.66800192346E-02  0.61175618368E-02  0.14272783950E-01  0.00000000000E+00 0. -1.
     999901    1    3    3    0    0 -0.79442472612E-02 -0.11850187681E+00  0.40130967351E-01  0.88888486342E+00  0.88000000000E+00 0. -1.
        -11    1    4    4    0    0  0.75344398823E-02  0.92260727977E-01 -0.51262189976E-01  0.10581532476E+00  0.51100000000E-03 0.  1.
         11    1    4    4    0    0 -0.10620384908E-01  0.32921168067E-01  0.50136607883E-02  0.34957027877E-01  0.51100000000E-03 0. -1.
</event>
<event>
 8    1  0.2039519E+004  0.1043930E+01  0.7957747E-01            NaN
         13   -1    0    0    0    0  0.00000000000E+00  0.00000000000E+00  0.74505805969E-08  0.10566000000E+00  0.10566000000E+00 0. -1.
     999900   -1    0    0    0    0 -0.00000000000E+00 -0.00000000000E+00 -0.74505805969E-08  0.93827000000E+00  0.93827000000E+00 0. -1.
     999902    2    1    2    0    0  0.14259361761E-02  0.11144219875E-01 -0.81182436525E-02  0.10300688020E+01  0.10299755356E+01 0.  0.
     999903    2    3    3    0    0 -0.99362951999E-01  0.91066445522E-01  0.28962827344E-02  0.14064916990E+00  0.40096219402E-01 0.  0.
         14    1    1    2    0    0 -0.14259361761E-02 -0.11144219875E-01  0.81182436525E-02  0.13861198022E-01  0.00000000000E+00 0.  1.
     999901    1    3    3    0    0  0.10078888817E+00 -0.79922225647E-01 -0.11014526387E-01  0.88941963208E+00  0.88000000000E+00 0.  1.
        -11    1    4    4    0    0 -0.56082837183E-01  0.69571170655E-01 -0.11797172583E-01  0.90138043105E-01  0.51100000000E-03 0. -1.
         11    1    4    4    0    0 -0.43280114816E-01  0.21495274867E-01  0.14693455318E-01  0.50511126797E-01  0.51100000000E-03 0.  1.
</event>
<event>
 8    1  0.2591719E+004  0.1043930E+01  0.7957747E-01            NaN
         13   -1    0    0    0    0  0.00000000000E+00  0.00000000000E+00  0.74505805969E-08  0.10566000000E+00  0.10566000000E+00 0.  1.
     999900   -1    0    0    0    0 -0.00000000000E+00 -0.00000000000E+00 -0.74505805969E-08  0.93827000000E+00  0.93827000000E+00 0.  1.
     999902    2    1    2    0    0  0.14006818085E-01  0.20583257014E-02 -0.10763859250E-02  0.10297318922E+01  0.10296340047E+01 0.  0.
     999903    2    3    3    0    0  0.24200887044E-01 -0.64083643479E-01 -0.11271270937E+00  0.14015820341E+00  0.47410661604E-01 0.  0.
         14    1    1    2    0    0 -0.14006818085E-01 -0.20583257014E-02  0.10763859250E-02  0.14198107769E-01  0.00000000000E+00 0. -1.
     999901    1    3    3    0    0 -0.10194068959E-01  0.66141969180E-01  0.11163632345E+00  0.88957368882E+00  0.88000000000E+00 0. -1.
        -11    1    4    4    0    0  0.36458856441E-01 -0.30500843516E-01 -0.62943587363E-01  0.78877791420E-01  0.51100000000E-03 0. -1.
         11    1    4    4    0    0 -0.12257969396E-01 -0.33582799963E-01 -0.49769122010E-01  0.61280411991E-01  0.51100000000E-03 0.  1.
</event>
<event>
 8    1  0.2039519E+004  0.1043930E+01  0.7957747E-01            NaN
         13   -1    0    0    0    0  0.00000000000E+00  0.00000000000E+00  0.74505805969E-08  0.10566000000E+00  0.10566000000E+00 0. -1.
     999900   -1    0    0    0    0 -0.00000000000E+00 -0.00000000000E+00 -0.74505805969E-08  0.93827000000E+00  0.93827000000E+00 0. -1.
     999902    2    1    2    0    0  0.22681060792E-02 -0.13000519736E-01  0.24441015991E-02  0.10305086941E+01  0.10304212911E+01 0.  0.
     999903    2    3    3    0    0  0.18264055021E-01 -0.12333049572E+00  0.51189980247E-01  0.14213673675E+00  0.45149207903E-01 0.  0.
         14    1    1    2    0    0 -0.22681060792E-02  0.13000519736E-01 -0.24441015991E-02  0.13421305868E-01  0.00000000000E+00 0. -1.
     999901    1    3    3    0    0 -0.15995948942E-01  0.11032997599E+00 -0.48745878648E-01  0.88837195739E+00  0.88000000000E+00 0. -1.
        -11    1    4    4    0    0 -0.13685417076E-01 -0.18667006259E-01  0.81470533258E-02  0.24543499386E-01  0.51100000000E-03 0.  1.
         11    1    4    4    0    0  0.31949472097E-01 -0.10466348946E+00  0.43042926921E-01  0.11759323736E+00  0.51100000000E-03 0. -1.
</event>
<event>
 8    1  0.2039519E+004  0.1043930E+01  0.7957747E-01            NaN
         13   -1    0    0    0    0  0.00000000000E+00  0.00000000000E+00  0.74505805969E-08  0.10566000000E+00  0.10566000000E+00 0. -1.
     999900   -1    0    0    0    0 -0.00000000000E+00 -0.00000000000E+00 -0.74505805969E-08  0.93827000000E+00  0.93827000000E+00 0.  1.
     999902    2    1    2    0    0  0.10381402294E-02 -0.23442991091E-02  0.10956669815E-01  0.10326773520E+01  0.10326160425E+01 0.  0.
     999903    2    3    3    0    0 -0.42309643947E-01  0.82947175584E-01  0.98494322420E-01  0.14317383505E+00  0.46122397882E-01 0.  0.
         14    1    1    2    0    0 -0.10381402294E-02  0.23442991091E-02 -0.10956669815E-01  0.11252647995E-01  0.00000000000E+00 0.  1.
     999901    1    3    3    0    0  0.43347784176E-01 -0.85291474693E-01 -0.87537652605E-01  0.88950351695E+00  0.88000000000E+00 0.  1.
        -11    1    4    4    0    0 -0.40272411869E-01  0.55331522697E-01  0.92110645093E-01  0.11475224016E+00  0.51100000000E-03 0.  1.
         11    1    4    4    0    0 -0.20372320775E-02  0.27615652887E-01  0.63836773271E-02  0.28421594890E-01  0.51100000000E-03 0. -1.
</event>
<event>
 8    1  0.2039519E+004  0.1043930E+01  0.7957747E-01            NaN
         13   -1    0    0    0    0  0.00000000000E+00  0.00000000000E+00  0.74505805969E-08  0.10566000000E+00  0.10566000000E+00 0. -1.
     999900   -1    0    0    0    0 -0.00000000000E+00 -0.00000000000E+00 -0.74505805969E-08  0.93827000000E+00  0.93827000000E+00 0. -1.
     999902    2    1    2    0    0  0.91661483137E-02  0.94358600332E-02 -0.58790899032E-02  0.10295210643E+01  0.10294202273E+01 0.  0.
     999903    2    3    3    0    0 -0.33755999679E-01 -0.94840485036E-01  0.82794329280E-01  0.13790520409E+00  0.45041749956E-01 0.  0.
         14    1    1    2    0    0 -0.91661483137E-02 -0.94358600332E-02  0.58790899032E-02  0.14408935685E-01  0.00000000000E+00 0. -1.
     999901    1    3    3    0    0  0.42922147993E-01  0.10427634507E+00 -0.88673419183E-01  0.89161586022E+00  0.88000000000E+00 0. -1.
        -11    1    4    4    0    0 -0.49517120705E-02 -0.42989266270E-01  0.10764871900E-01  0.44595291846E-01  0.51100000000E-03 0. -1.
         11    1    4    4    0    0 -0.28804287609E-01 -0.51851218766E-01  0.72029457380E-01  0.93309912247E-01  0.51100000000E-03 0.  1.
</event>
<event>
 8    1  0.2039519E+004  0.1043930E+01  0.7957747E-01            NaN
         13   -1    0    0    0    0  0.00000000000E+00  0.00000000000E+00  0.74505805969E-08  0.10566000000E+00  0.10566000000E+00 0. -1.
     999900   -1    0    0    0    0 -0.00000000000E+00 -0.00000000000E+00 -0.74505805969E-08  0.93827000000E+00  0.93827000000E+00 0.  1.
     999902    2    1    2    0    0 -0.27110362596E-02  0.57759412227E-02  0.12234732024E-01  0.10301314536E+01  0.10300390341E+01 0.  0.
     999903    2    3    3    0    0  0.10928557828E+00 -0.66973810715E-01  0.33882634046E-01  0.13979196795E+00  0.44327558837E-01 0.  0.
         14    1    1    2    0    0  0.27110362596E-02 -0.57759412227E-02 -0.12234732024E-01  0.13798546384E-01  0.00000000000E+00 0.  1.
     999901    1    3    3    0    0 -0.11199661454E+00  0.72749751938E-01 -0.21647902023E-01  0.89033948567E+00  0.88000000000E+00 0. -1.
        -11    1    4    4    0    0  0.54777694802E-01 -0.10274467243E-01  0.23384322622E-01  0.60442106105E-01  0.51100000000E-03 0.  1.
         11    1    4    4    0    0  0.54507883475E-01 -0.56699343472E-01  0.10498311425E-01  0.79349861845E-01  0.51100000000E-03 0. -1.
</event>
<event>
 8    1  0.2039519E+004  0.1043930E+01  0.7957747E-01            NaN
         13   -1    0    0    0    0  0.00000000000E+00  0.00000000000E+00  0.74505805969E-08  0.10566000000E+00  0.10566000000E+00 0.  1.
     999900   -1    0    0    0    0 -0.00000000000E+00 -0.00000000000E+00 -0.74505805969E-08  0.93827000000E+00  0.93827000000E+00 0.  1.
     999902    2    1    2    0    0 -0.44545129413E-02 -0.96294875534E-02 -0.92390160532E-02  0.10298612711E+01  0.10297651715E+01 0.  0.
     999903    2    3    3    0    0 -0.99348515366E-01 -0.85472780675E-01  0.25206556049E-01  0.14084857473E+00  0.45024735370E-01 0.  0.
         14    1    1    2    0    0  0.44545129413E-02  0.96294875534E-02  0.92390160532E-02  0.14068728930E-01  0.00000000000E+00 0.  1.
     999901    1    3    3    0    0  0.94894002425E-01  0.75843293122E-01 -0.34445572102E-01  0.88901269634E+00  0.88000000000E+00 0. -1.
        -11    1    4    4    0    0 -0.10926263799E-01  0.40676524617E-02 -0.26339208317E-02  0.11963598835E-01  0.51100000000E-03 0. -1.
         11    1    4    4    0    0 -0.88422251567E-01 -0.89540433137E-01  0.27840476880E-01  0.12888497590E+00  0.51100000000E-03 0.  1.
</event>
<event>
 8    1  0.2039519E+004  0.1043930E+01  0.7957747E-01            NaN
         13   -1    0    0    0    0  0.00000000000E+00  0.00000000000E+00  0.74505805969E-08  0.10566000000E+00  0.10566000000E+00 0. -1.
     999900   -1    0    0    0    0 -0.00000000000E+00 -0.00000000000E+00 -0.74505805969E-08  0.93827000000E+00  0.93827000000E+00 0. -1.
     999902    2    1    2    0    0  0.69185423900E-02  0.11895440282E-01  0.65354336380E-03  0.10301533949E+01  0.10300612711E+01 0.  0.
     999903    2    3    3    0    0  0.62321967572E-01 -0.11518341669E+00  0.56410053657E-02  0.13928671007E+00  0.47092669706E-01 0.  0.
         14    1    1    2    0    0 -0.69185423900E-02 -0.11895440282E-01 -0.65354336380E-03  0.13776605069E-01  0.00000000000E+00 0.  1.
     999901    1    3    3    0    0 -0.55403425182E-01  0.12707885697E+00 -0.49874620019E-02  0.89086668486E+00  0.88000000000E+00 0. -1.
        -11    1    4    4    0    0  0.36132187102E-01 -0.37927187713E-01 -0.16206756201E-01  0.54835450031E-01  0.51100000000E-03 0.  1.
         11    1    4    4    0    0  0.26189780471E-01 -0.77256228974E-01  0.21847761567E-01  0.84451260043E-01  0.51100000000E-03 0. -1.
</event>
<event>
 8    1  0.2039519E+004  0.1043930E+01  0.7957747E-01            NaN
         13   -1    0    0    0    0  0.00000000000E+00  0.00000000000E+00  0.74505805969E-08  0.10566000000E+00  0.10566000000E+00 0.  1.
     999900   -1    0    0    0    0 -0.00000000000E+00 -0.00000000000E+00 -0.74505805969E-08  0.93827000000E+00  0.93827000000E+00 0. -1.
     999902    2    1    2    0    0 -0.10845015197E-01  0.44353104838E-02 -0.70752187574E-02  0.10302425951E+01  0.10301516683E+01 0.  0.
     999903    2    3    3    0    0 -0.11325943068E+00  0.66618704235E-01 -0.29751624954E-01  0.14183407058E+00  0.44339530864E-01 0.  0.
         14    1    1    2    0    0  0.10845015197E-01 -0.44353104838E-02  0.70752187574E-02  0.13687404947E-01  0.00000000000E+00 0.  1.
     999901    1    3    3    0    0  0.10241441549E+00 -0.62183393751E-01  0.22676406196E-01  0.88840852447E+00  0.88000000000E+00 0.  1.
        -11    1    4    4    0    0 -0.22771665609E-01  0.10971932215E-01 -0.24911985124E-01  0.35493663871E-01  0.51100000000E-03 0.  1.
         11    1    4    4    0    0 -0.90487765075E-01  0.55646772020E-01 -0.48396398292E-02  0.10634040671E+00  0.51100000000E-03 0. -1.
</event>
<event>
 8    1  0.2039519E+004  0.1043930E+01  0.7957747E-01            NaN
         13   -1    0    0    0    0  0.00000000000E+00  0.00000000000E+00  0.74505805969E-08  0.10566000000E+00  0.10566000000E+00 0. -1.
     999900   -1    0    0    0    0 -0.00000000000E+00 -0.00000000000E+00 -0.74505805969E-08  0.93827000000E+00  0.93827000000E+00 0. -1.
     999902    2    1    2    0    0  0.44132974477E-02 -0.44030504336E-02  0.12154680078E-01  0.10302698281E+01  0.10301792652E+01 0.  0.
     999903    2    3    3    0    0  0.10531927698E+00 -0.39625893001E-01 -0.70311414222E-01  0.13997587553E+00  0.44577901035E-01 0.  0.
         14    1    1    2    0    0 -0.44132974477E-02  0.44030504336E-02 -0.12154680078E-01  0.13660171861E-01  0.00000000000E+00 0.  1.
     999901    1    3    3    0    0 -0.10090597953E+00  0.35222842567E-01  0.82466094299E-01  0.89029395261E+00  0.88000000000E+00 0.  1.
        -11    1    4    4    0    0  0.38803477891E-01 -0.20893246707E-01 -0.52625218240E-01  0.68643370912E-01  0.51100000000E-03 0.  1.
         11    1    4    4    0    0  0.66515799089E-01 -0.18732646294E-01 -0.17686195982E-01  0.71332504617E-01  0.51100000000E-03 0. -1.
</event>
<event>
 8    1  0.2039519E+004  0.1043930E+01  0.7957747E-01            NaN
         13   -1    0    0    0    0  0.00000000000E+00  0.00000000000E+00  0.74505805969E-08  0.10566000000E+00  0.10566000000E+00 0. -1.
     999900   -1    0    0    0    0 -0.00000000000E+00 -0.00000000000E+00 -0.74505805969E-08  0.93827000000E+00  0.93827000000E+00 0. -1.
     999902    2    1    2    0    0  0.10103001327E-01 -0.92381833079E-02  0.14059139141E-02  0.10301680503E+01  0.10300761237E+01 0.  0.
     999903    2    3    3    0    0 -0.12263351093E+00  0.39981567440E-01 -0.22920917026E-01  0.13852161795E+00  0.45004071654E-01 0.  0.
         14    1    1    2    0    0 -0.10103001327E-01  0.92381833079E-02 -0.14059139141E-02  0.13761949737E-01  0.00000000000E+00 0.  1.
     999901    1    3    3    0    0  0.13273651225E+00 -0.49219750748E-01  0.24326830940E-01  0.89164643231E+00  0.88000000000E+00 0. -1.
        -11    1    4    4    0    0 -0.41788481523E-01  0.70467223340E-02 -0.28456403569E-01  0.51048619068E-01  0.51100000000E-03 0.  1.
         11    1    4    4    0    0 -0.80845029404E-01  0.32934845106E-01  0.55354865435E-02  0.87472998884E-01  0.51100000000E-03 0. -1.
</event>
<event>
 8    1  0.2039519E+004  0.1043930E+01  0.7957747E-01            NaN
         13   -1    0    0    0    0  0.00000000000E+00  0.00000000000E+00  0.74505805969E-08  0.10566000000E+00  0.10566000000E+00 0. -1.
     999900   -1    0    0    0    0 -0.00000000000E+00 -0.00000000000E+00 -0.74505805969E-08  0.93827000000E+00  0.93827000000E+00 0.  1.
     999902    2    1    2    0    0  0.13942960573E-02  0.15872973068E-01 -0.39793376172E-02  0.10275065271E+01  0.10273752638E+01 0.  0.
     999903    2    3    3    0    0 -0.63067839002E-01  0.68431559952E-01 -0.90579665885E-01  0.13935260528E+00  0.50537530744E-01 0.  0.
         14    1    1    2    0    0 -0.13942960573E-02 -0.15872973068E-01  0.39793376172E-02  0.16423472939E-01  0.00000000000E+00 0. -1.
     999901    1    3    3    0    0  0.64462135059E-01 -0.52558586884E-01  0.86600328268E-01  0.88815392178E+00  0.88000000000E+00 0. -1.
        -11    1    4    4    0    0 -0.12958140567E-01  0.15269060715E-01  0.33966096761E-02  0.20318850862E-01  0.51100000000E-03 0. -1.
         11    1    4    4    0    0 -0.50109698435E-01  0.53162499237E-01 -0.93976275561E-01  0.11903375442E+00  0.51100000000E-03 0.  1.
</event>
<event>
 8    1  0.2039519E+004  0.1043930E+01  0.7957747E-01            NaN
         13   -1    0    0    0    0  0.00000000000E+00  0.00000000000E+00  0.74505805969E-08  0.10566000000E+00  0.10566000000E+00 0. -1.
     999900   -1    0    0    0    0 -0.00000000000E+00 -0.00000000000E+00 -0.74505805969E-08  0.93827000000E+00  0.93827000000E+00 0.  1.
     999902    2    1    2    0    0  0.12819657846E-01  0.49824160062E-02 -0.34396699257E-02  0.10297525734E+01  0.10296549728E+01 0.  0.
     999903    2    3    3    0    0 -0.11528279844E+00 -0.61803565789E-01  0.85376493518E-02  0.13789268368E+00  0.42798322350E-01 0.  0.
         14    1    1    2    0    0 -0.12819657846E-01 -0.49824160062E-02  0.34396699257E-02  0.14177426626E-01  0.00000000000E+00 0.  1.
     999901    1    3    3    0    0  0.12810245628E+00  0.66785981795E-01 -0.11977319278E-01  0.89185988970E+00  0.88000000000E+00 0. -1.
        -11    1    4    4    0    0 -0.65909792088E-01 -0.23604035938E-01  0.23222097534E-01  0.73761630544E-01  0.51100000000E-03 0. -1.
         11    1    4    4    0    0 -0.49373006349E-01 -0.38199529850E-01 -0.14684448182E-01  0.64131053134E-01  0.51100000000E-03 0.  1.
</event>
<event>
 8    1  0.2039519E+004  0.1043930E+01  0.7957747E-01            NaN
         13   -1    0    0    0    0  0.00000000000E+00  0.00000000000E+00  0.74505805969E-08  0.10566000000E+00  0.10566000000E+00 0. -1.
     999900   -1    0    0    0    0 -0.00000000000E+00 -0.00000000000E+00 -0.74505805969E-08  0.93827000000E+00  0.93827000000E+00 0. -1.
     999902    2    1    2    0    0  0.22871632854E-02  0.98881109360E-02  0.95990888251E-02  0.10299604488E+01  0.10298657086E+01 0.  0.
     999903    2    3    3    0    0  0.70337936882E-01  0.73493395922E-01  0.88584153573E-01  0.14152633167E+00  0.42823424472E-01 0.  0.
         14    1    1    2    0    0 -0.22871632854E-02 -0.98881109360E-02 -0.95990888251E-02  0.13969551176E-01  0.00000000000E+00 0.  1.
     999901    1    3    3    0    0 -0.68050773597E-01 -0.63605284986E-01 -0.78985064748E-01  0.88843411715E+00  0.88000000000E+00 0. -1.
        -11    1    4    4    0    0  0.69946107838E-01  0.61466201939E-01  0.60706219485E-01  0.11115780759E+00  0.51100000000E-03 0.  1.
         11    1    4    4    0    0  0.39182904452E-03  0.12027193983E-01  0.27877934089E-01  0.30368524086E-01  0.51100000000E-03 0. -1.
</event>
<event>
 8    1  0.2039519E+004  0.1043930E+01  0.7957747E-01            NaN
         13   -1    0    0    0    0  0.00000000000E+00  0.00000000000E+00  0.74505805969E-08  0.10566000000E+00  0.10566000000E+00 0. -1.
     999900   -1    0    0    0    0 -0.00000000000E+00 -0.00000000000E+00 -0.74505805969E-08  0.93827000000E+00  0.93827000000E+00 0.  1.
     999902    2    1    2    0    0  0.38706836468E-02 -0.60176831515E-02 -0.12398185349E-01  0.10296153326E+01  0.10295158199E+01 0.  0.
     999903    2    3    3    0    0  0.80563038337E-02  0.15219854127E-03  0.13056200579E+00  0.13804749834E+00  0.44110625108E-01 0.  0.
         14    1    1    2    0    0 -0.38706836468E-02  0.60176831515E-02  0.12398185349E-01  0.14314667385E-01  0.00000000000E+00 0. -1.
     999901    1    3    3    0    0 -0.41856201869E-02 -0.61698816928E-02 -0.14296019114E+00  0.89156783427E+00  0.88000000000E+00 0.  1.
        -11    1    4    4    0    0 -0.14588259867E-02  0.19704471207E-01  0.88662367975E-01  0.90838708570E-01  0.51100000000E-03 0. -1.
         11    1    4    4    0    0  0.95151298204E-02 -0.19552272666E-01  0.41899637815E-01  0.47208789774E-01  0.51100000000E-03 0.  1.
</event>
<event>
 8    1  0.2039519E+004  0.1043930E+01  0.7957747E-01            NaN
         13   -1    0    0    0    0  0.00000000000E+00  0.00000000000E+00  0.74505805969E-08  0.10566000000E+00  0.10566000000E+00 0.  1.
     999900   -1    0    0    0    0 -0.00000000000E+00 -0.00000000000E+00 -0.74505805969E-08  0.93827000000E+00  0.93827000000E+00 0.  1.
     999902    2    1    2    0    0  0.18795280990E-02  0.43649646915E-02  0.14811304807E-01  0.10283749271E+01  0.10282572783E+01 0.  0.
     999903    2    3    3    0    0  0.58852641422E-01  0.11738386693E+00 -0.85112110768E-02  0.13901383753E+00  0.44830800735E-01 0.  0.
         14    1    1    2    0    0 -0.18795280990E-02 -0.43649646915E-02 -0.14811304807E-01  0.15555072893E-01  0.00000000000E+00 0. -1.
     999901    1    3    3    0    0 -0.56973113323E-01 -0.11301890223E+00  0.23322515884E-01  0.88936108958E+00  0.88000000000E+00 0.  1.
        -11    1    4    4    0    0  0.37657362385E-01  0.57066352422E-01 -0.25311833503E-01  0.72908130937E-01  0.51100000000E-03 0. -1.
         11    1    4    4    0    0  0.21195279037E-01  0.60317514504E-01  0.16800622426E-01  0.66105706594E-01  0.51100000000E-03 0.  1.
</event>
<event>
 8    1  0.2039519E+004  0.1043930E+01  0.7957747E-01            NaN
         13   -1    0    0    0    0  0.00000000000E+00  0.00000000000E+00  0.74505805969E-08  0.10566000000E+00  0.10566000000E+00 0. -1.
     999900   -1    0    0    0    0 -0.00000000000E+00 -0.00000000000E+00 -0.74505805969E-08  0.93827000000E+00  0.93827000000E+00 0. -1.
     999902    2    1    2    0    0 -0.13466750718E-01  0.30191075551E-02  0.12071801388E-02  0.10300762760E+01  0.10299831109E+01 0.  0.
     999903    2    3    3    0    0  0.69353122261E-01  0.97936635611E-01  0.51158824655E-01  0.13970352523E+00  0.49984092057E-01 0.  0.
         14    1    1    2    0    0  0.13466750718E-01 -0.30191075551E-02 -0.12071801388E-02  0.13853724020E-01  0.00000000000E+00 0. -1.
     999901    1    3    3    0    0 -0.82819872979E-01 -0.94917528056E-01 -0.49951644516E-01  0.89037275075E+00  0.88000000000E+00 0. -1.
        -11    1    4    4    0    0  0.19159801017E-01  0.19305008166E-01 -0.90545687362E-02  0.28671024594E-01  0.51100000000E-03 0. -1.
         11    1    4    4    0    0  0.50193321244E-01  0.78631627445E-01  0.60213393391E-01  0.11103250063E+00  0.51100000000E-03 0.  1.
</event>
<event>
 8    1  0.2039519E+004  0.1043930E+01  0.7957747E-01            NaN
         13   -1    0    0    0    0  0.00000000000E+00  0.00000000000E+00  0.74505805969E-08  0.10566000000E+00  0.10566000000E+00 0. -1.
     999900   -1    0    0    0    0 -0.00000000000E+00 -0.00000000000E+00 -0.74505805969E-08  0.93827000000E+00  0.93827000000E+00 0. -1.
     999902    2    1    2    0    0  0.76868877763E-02  0.76261647265E-02 -0.82356013640E-02  0.10303258917E+01  0.10302360756E+01 0.  0.
     999903    2    3    3    0    0 -0.63431983727E-01 -0.46418088083E-01  0.10440039457E+00  0.13866141294E+00  0.46360431315E-01 0.  0.
         14    1    1    2    0    0 -0.76868877763E-02 -0.76261647265E-02  0.82356013640E-02  0.13604108275E-01  0.00000000000E+00 0. -1.
     999901    1    3    3    0    0  0.71118871504E-01  0.54044252809E-01 -0.11263599593E+00  0.89166447878E+00  0.88000000000E+00 0. -1.
        -11    1    4    4    0    0 -0.45798664555E-02  0.86457781654E-03  0.37492411427E-01  0.37784450600E-01  0.51100000000E-03 0.  1.
         11    1    4    4    0    0 -0.58852117272E-01 -0.47282665899E-01  0.66907983143E-01  0.10087696234E+00  0.51100000000E-03 0. -1.
</event>
<event>
 8    1  0.2039519E+004  0.1043930E+01  0.7957747E-01            NaN
         13   -1    0    0    0    0  0.00000000000E+00  0.00000000000E+00  0.74505805969E-08  0.10566000000E+00  0.10566000000E+00 0. -1.
     999900   -1    0    0    0    0 -0.00000000000E+00 -0.00000000000E+00 -0.74505805969E-08  0.93827000000E+00  0.93827000000E+00 0. -1.
     999902    2    1    2    0    0  0.67059231708E-02  0.12541194958E-01 -0.54526170783E-02  0.10286990444E+01  0.10285862831E+01 0.  0.
     999903    2    3    3    0    0 -0.64788087269E-01 -0.61417201522E-01 -0.95011069077E-01  0.13819247265E+00  0.45831074132E-01 0.  0.
         14    1    1    2    0    0 -0.67059231708E-02 -0.12541194958E-01  0.54526170783E-02  0.15230955635E-01  0.00000000000E+00 0. -1.
     999901    1    3    3    0    0  0.71494010439E-01  0.73958396480E-01  0.89558451999E-01  0.89050657171E+00  0.88000000000E+00 0.  1.
        -11    1    4    4    0    0 -0.62873156109E-01 -0.38703005623E-01 -0.54727173449E-01  0.91903650842E-01  0.51100000000E-03 0. -1.
         11    1    4    4    0    0 -0.19149311597E-02 -0.22714195900E-01 -0.40283895628E-01  0.46288821811E-01  0.51100000000E-03 0.  1.
</event>
<event>
 8    1  0.2039519E+004  0.1043930E+01  0.7957747E-01            NaN
         13   -1    0    0    0    0  0.00000000000E+00  0.00000000000E+00  0.74505805969E-08  0.10566000000E+00  0.10566000000E+00 0. -1.
     999900   -1    0    0    0    0 -0.00000000000E+00 -0.00000000000E+00 -0.74505805969E-08  0.93827000000E+00  0.93827000000E+00 0. -1.
     999902    2    1    2    0    0  0.12056870805E-01  0.11855919680E-02 -0.59941226587E-02  0.10304132227E+01  0.10303245636E+01 0.  0.
     999903    2    3    3    0    0 -0.24222280741E-01  0.23546080606E-02  0.12950506798E+00  0.13930291859E+00  0.45182711648E-01 0.  0.
         14    1    1    2    0    0 -0.12056870805E-01 -0.11855919680E-02  0.59941226587E-02  0.13516777292E-01  0.00000000000E+00 0. -1.
     999901    1    3    3    0    0  0.36279151546E-01 -0.11690160926E-02 -0.13549919064E+00  0.89111030412E+00  0.88000000000E+00 0. -1.
        -11    1    4    4    0    0 -0.21776649919E-01 -0.13459607187E-01  0.34530731675E-01  0.42988557295E-01  0.51100000000E-03 0. -1.
         11    1    4    4    0    0 -0.24456308223E-02  0.15814215248E-01  0.94974336308E-01  0.96314361298E-01  0.51100000000E-03 0.  1.
</event>
<event>
 8    1  0.2039519E+004  0.1043930E+01  0.7957747E-01            NaN
         13   -1    0    0    0    0  0.00000000000E+00  0.00000000000E+00  0.74505805969E-08  0.10566000000E+00  0.10566000000E+00 0.  1.
     999900   -1    0    0    0    0 -0.00000000000E+00 -0.00000000000E+00 -0.74505805969E-08  0.93827000000E+00  0.93827000000E+00 0.  1.
     999902    2    1    2    0    0 -0.10846722247E-01  0.22441490846E-02  0.97047851266E-02  0.10292034782E+01  0.10290981145E+01 0.  0.
     999903    2    3    3    0    0  0.17909222584E-01  0.35731704867E-01 -0.12396762845E+00  0.13801515084E+00  0.45636761183E-01 0.  0.
         14    1    1    2    0    0  0.10846722247E-01 -0.22441490846E-02 -0.97047851266E-02  0.14726521754E-01  0.00000000000E+00 0. -1.
     999901    1    3    3    0    0 -0.28755944830E-01 -0.33487555783E-01  0.13367241358E+00  0.89118832741E+00  0.88000000000E+00 0. -1.
        -11    1    4    4    0    0 -0.83269021143E-02  0.29075762552E-01 -0.87613688539E-01  0.92688493392E-01  0.51100000000E-03 0.  1.
         11    1    4    4    0    0  0.26236124698E-01  0.66559423150E-02 -0.36353939911E-01  0.45326657447E-01  0.51100000000E-03 0. -1.
</event>
<event>
 8    1  0.2039519E+004  0.1043930E+01  0.7957747E-01            NaN
         13   -1    0    0    0    0  0.00000000000E+00  0.00000000000E+00  0.74505805969E-08  0.10566000000E+00  0.10566000000E+00 0. -1.
     999900   -1    0    0    0    0 -0.00000000000E+00 -0.00000000000E+00 -0.74505805969E-08  0.93827000000E+00  0.93827000000E+00 0. -1.
     999902    2    1    2    0    0 -0.55049163114E-02 -0.11466066537E-01  0.37771471236E-02  0.10306619321E+01  0.10305765263E+01 0.  0.
     999903    2    3    3    0    0  0.60149410178E-01  0.37034966146E-01 -0.11121707541E+00  0.13943440112E+00  0.45641802023E-01 0.  0.
         14    1    1    2    0    0  0.55049163114E-02  0.11466066537E-01 -0.37771471236E-02  0.13268067901E-01  0.00000000000E+00 0. -1.
     999901    1    3    3    0    0 -0.65654326490E-01 -0.48501032683E-01  0.11499422253E+00  0.89122753098E+00  0.88000000000E+00 0. -1.
        -11    1    4    4    0    0  0.67651199532E-01  0.35413241986E-01 -0.99657023235E-01  0.12554905777E+00  0.51100000000E-03 0.  1.
         11    1    4    4    0    0 -0.75017893539E-02  0.16217241602E-02 -0.11560052171E-01  0.13885343350E-01  0.51100000000E-03 0. -1.
</event>
<event>
 8    1  0.2039519E+004  0.1043930E+01  0.7957747E-01            NaN
         13   -1    0    0    0    0  0.00000000000E+00  0.00000000000E+00  0.74505805969E-08  0.10566000000E+00  0.10566000000E+00 0.  1.
     999900   -1    0    0    0    0 -0.00000000000E+00 -0.00000000000E+00 -0.74505805969E-08  0.93827000000E+00  0.93827000000E+00 0.  1.
     999902    2    1    2    0    0  0.10395022227E-02 -0.14913391644E-01  0.57677784001E-02  0.10279063586E+01  0.10277814578E+01 0.  0.
     999903    2    3    3    0    0 -0.12195585809E+00  0.10189410960E-02 -0.45718949501E-01  0.13771953496E+00  0.44745708186E-01 0.  0.
         14    1    1    2    0    0 -0.10395022227E-02  0.14913391644E-01 -0.57677784001E-02  0.16023641373E-01  0.00000000000E+00 0. -1.
     999901    1    3    3    0    0  0.12299536032E+00 -0.15932332740E-01  0.51486727901E-01  0.89018682367E+00  0.88000000000E+00 0.  1.
        -11    1    4    4    0    0 -0.11512340965E+00  0.95013374504E-02 -0.31373720901E-01  0.11970065308E+00  0.51100000000E-03 0. -1.
         11    1    4    4    0    0 -0.68324484432E-02 -0.84823963544E-02 -0.14345228600E-01  0.18018881880E-01  0.51100000000E-03 0.  1.
</event>
<event>
 8    1  0.2039519E+004  0.1043930E+01  0.7957747E-01            NaN
         13   -1    0    0    0    0  0.00000000000E+00  0.00000000000E+00  0.74505805969E-08  0.10566000000E+00  0.10566000000E+00 0.  1.
     999900   -1    0    0    0    0 -0.00000000000E+00 -0.00000000000E+00 -0.74505805969E-08  0.93827000000E+00  0.93827000000E+00 0. -1.
     999902    2    1    2    0    0  0.68589672207E-04 -0.11833344002E-01 -0.79204386869E-02  0.10296904044E+01  0.10295919399E+01 0.  0.
     999903    2    3    3    0    0 -0.11540713691E+00  0.53745047858E-01  0.31735769562E-01  0.13884373756E+00  0.45421217185E-01 0.  0.
         14    1    1    2    0    0 -0.68589672207E-04  0.11833344002E-01  0.79204386869E-02  0.14239595634E-01  0.00000000000E+00 0. -1.
     999901    1    3    3    0    0  0.11547572658E+00 -0.65578391860E-01 -0.39656208249E-01  0.89084666681E+00  0.88000000000E+00 0. -1.
        -11    1    4    4    0    0 -0.79371097370E-01  0.56808188553E-01  0.14157215489E-01  0.98628744572E-01  0.51100000000E-03 0.  1.
         11    1    4    4    0    0 -0.36036039541E-01 -0.30631406950E-02  0.17578554073E-01  0.40214992987E-01  0.51100000000E-03 0. -1.
</event>
<event>
 8    1  0.2039519E+004  0.1043930E+01  0.7957747E-01            NaN
         13   -1    0    0    0    0  0.00000000000E+00  0.00000000000E+00  0.74505805969E-08  0.10566000000E+00  0.10566000000E+00 0.  1.
     999900   -1    0    0    0    0 -0.00000000000E+00 -0.00000000000E+00 -0.74505805969E-08  0.93827000000E+00  0.93827000000E+00 0. -1.
     999902    2    1    2    0    0 -0.10783930918E-01 -0.46210471562E-03 -0.86927533573E-02  0.10300710438E+01  0.10299778078E+01 0.  0.
     999903    2    3    3    0    0  0.10181622470E+00 -0.67752429871E-01  0.48248330155E-01  0.13852796018E+00  0.43648127376E-01 0.  0.
         14    1    1    2    0    0  0.10783930918E-01  0.46210471562E-03  0.86927533573E-02  0.13858956229E-01  0.00000000000E+00 0. -1.
     999901    1    3    3    0    0 -0.11260015562E+00  0.67290325155E-01 -0.56941083513E-01  0.89154308359E+00  0.88000000000E+00 0. -1.
        -11    1    4    4    0    0  0.73946198577E-01 -0.26662673821E-01  0.39983666212E-01  0.88192364432E-01  0.51100000000E-03 0.  1.
         11    1    4    4    0    0  0.27870026124E-01 -0.41089756049E-01  0.82646639429E-02  0.50335595749E-01  0.51100000000E-03 0. -1.
</event>
<event>
 8    1  0.2039519E+004  0.1043930E+01  0.7957747E-01            NaN
         13   -1    0    0    0    0  0.00000000000E+00  0.00000000000E+00  0.74505805969E-08  0.10566000000E+00  0.10566000000E+00 0.  1.
     999900   -1    0    0    0    0 -0.00000000000E+00 -0.00000000000E+00 -0.74505805969E-08  0.93827000000E+00  0.93827000000E+00 0.  1.
     999902    2    1    2    0    0  0.16459764064E-01 -0.63542787009E-03  0.72596234976E-02  0.10259291740E+01  0.10257712418E+01 0.  0.
     999903    2    3    3    0    0 -0.96886763052E-01  0.43646205274E-01  0.70061489820E-01  0.13533814970E+00  0.45997459907E-01 0.  0.
         14    1    1    2    0    0 -0.16459764064E-01  0.63542787009E-03 -0.72596234976E-02  0.18000825952E-01  0.00000000000E+00 0. -1.
     999901    1    3    3    0    0  0.11334652712E+00 -0.44281633144E-01 -0.62801866322E-01  0.89059102435E+00  0.88000000000E+00 0.  1.
        -11    1    4    4    0    0 -0.18674338095E-01  0.21757768458E-01  0.38940713200E-01  0.48360848391E-01  0.51100000000E-03 0. -1.
         11    1    4    4    0    0 -0.78212424957E-01  0.21888436816E-01  0.31120776620E-01  0.86977301305E-01  0.51100000000E-03 0.  1.
</event>
<event>
 8    1  0.2039519E+004  0.1043930E+01  0.7957747E-01            NaN
         13   -1    0    0    0    0  0.00000000000E+00  0.00000000000E+00  0.74505805969E-08  0.10566000000E+00  0.10566000000E+00 0. -1.
     999900   -1    0    0    0    0 -0.00000000000E+00 -0.00000000000E+00 -0.74505805969E-08  0.93827000000E+00  0.93827000000E+00 0. -1.
     999902    2    1    2    0    0  0.41514267247E-02  0.89659142420E-02 -0.89245572126E-02  0.10306157338E+01  0.10305297284E+01 0.  0.
     999903    2    3    3    0    0  0.36448897075E-02  0.13155086457E+00 -0.29005468409E-01  0.14189160925E+00  0.44418423976E-01 0.  0.
         14    1    1    2    0    0 -0.41514267247E-02 -0.89659142420E-02  0.89245572126E-02  0.13314266164E-01  0.00000000000E+00 0. -1.
     999901    1    3    3    0    0  0.50653701719E-03 -0.12258495033E+00  0.20080911196E-01  0.88872412459E+00  0.88000000000E+00 0.  1.
        -11    1    4    4    0    0 -0.12316532854E-01  0.84597194728E-01 -0.34089465836E-01  0.92036596740E-01  0.51100000000E-03 0. -1.
         11    1    4    4    0    0  0.15961422562E-01  0.46953669840E-01  0.50839974271E-02  0.49855012511E-01  0.51100000000E-03 0.  1.
</event>
<event>
 8    1  0.2039519E+004  0.1043930E+01  0.7957747E-01            NaN
         13   -1    0    0    0    0  0.00000000000E+00  0.00000000000E+00  0.74505805969E-08  0.10566000000E+00  0.10566000000E+00 0.  1.
     999900   -1    0    0    0    0 -0.00000000000E+00 -0.00000000000E+00 -0.74505805969E-08  0.93827000000E+00  0.93827000000E+00 0.  1.
     999902    2    1    2    0    0 -0.20389264382E-02  0.11576629381E-01  0.67777437871E-02  0.10303611614E+01  0.10302718135E+01 0.  0.
     999903    2    3    3    0    0  0.46177450541E-01  0.14241883440E-01 -0.12301050558E+00  0.13953182186E+00  0.44747699905E-01 0.  0.
         14    1    1    2    0    0  0.20389264382E-02 -0.11576629381E-01 -0.67777437871E-02  0.13568838554E-01  0.00000000000E+00 0. -1.
     999901    1    3    3    0    0 -0.48216376979E-01 -0.26652540585E-02  0.12978824937E+00  0.89082933958E+00  0.88000000000E+00 0. -1.
        -11    1    4    4    0    0  0.36212013224E-02  0.26152916715E-02 -0.71787090776E-01  0.71927744109E-01  0.51100000000E-03 0. -1.
         11    1    4    4    0    0  0.42556249219E-01  0.11626591768E-01 -0.51223414805E-01  0.67604077754E-01  0.51100000000E-03 0.  1.
</event>
<event>
 8    1  0.2039519E+004  0.1043930E+01  0.7957747E-01            NaN
         13   -1    0    0    0    0  0.00000000000E+00  0.00000000000E+00  0.74505805969E-08  0.10566000000E+00  0.10566000000E+00 0.  1.
     999900   -1    0    0    0    0 -0.00000000000E+00 -0.00000000000E+00 -0.74505805969E-08  0.93827000000E+00  0.93827000000E+00 0. -1.
     999902    2    1    2    0    0  0.14659040298E-01 -0.52313482535E-02 -0.16511723546E-01  0.10212387796E+01  0.10209866569E+01 0.  0.
     999903    2    3    3    0    0 -0.84308924669E-01  0.55336844960E-01 -0.70404293361E-01  0.13198764908E+00  0.47893776186E-01 0.  0.
         14    1    1    2    0    0 -0.14659040298E-01  0.52313482535E-02  0.16511723546E-01  0.22691220361E-01  0.00000000000E+00 0.  1.
     999901    1    3    3    0    0  0.98967964967E-01 -0.60568193213E-01  0.53892569815E-01  0.88925113056E+00  0.88000000000E+00 0.  1.
        -11    1    4    4    0    0 -0.39532937814E-01  0.27727723722E-01 -0.62200761349E-01  0.78745639043E-01  0.51100000000E-03 0.  1.
         11    1    4    4    0    0 -0.44775986854E-01  0.27609121238E-01 -0.82035320121E-02  0.53242010037E-01  0.51100000000E-03 0. -1.
</event>
<event>
 8    1  0.2039519E+004  0.1043930E+01  0.7957747E-01            NaN
         13   -1    0    0    0    0  0.00000000000E+00  0.00000000000E+00  0.74505805969E-08  0.10566000000E+00  0.10566000000E+00 0. -1.
     999900   -1    0    0    0    0 -0.00000000000E+00 -0.00000000000E+00 -0.74505805969E-08  0.93827000000E+00  0.93827000000E+00 0. -1.
     999902    2    1    2    0    0 -0.65362195768E-02 -0.38215598499E-02 -0.10562316178E-01  0.10309342696E+01  0.10308523557E+01 0.  0.
     999903    2    3    3    0    0 -0.99638579569E-01 -0.60177200738E-01  0.65488723526E-01  0.14097485009E+00  0.45121983809E-01 0.  0.
         14    1    1    2    0    0  0.65362195768E-02  0.38215598499E-02  0.10562316178E-01  0.12995730417E-01  0.00000000000E+00 0. -1.
     999901    1    3    3    0    0  0.93102359992E-01  0.56355640888E-01 -0.76051039704E-01  0.88995941949E+00  0.88000000000E+00 0. -1.
        -11    1    4    4    0    0 -0.80927011482E-01 -0.62857434879E-01  0.41812637951E-01  0.11067427940E+00  0.51100000000E-03 0.  1.
         11    1    4    4    0    0 -0.18711568088E-01  0.26802341409E-02  0.23676085575E-01  0.30300570696E-01  0.51100000000E-03 0. -1.
</event>
<event>
 8    1  0.2039519E+004  0.1043930E+01  0.7957747E-01            NaN
         13   -1    0    0    0    0  0.00000000000E+00  0.00000000000E+00  0.74505805969E-08  0.10566000000E+00  0.10566000000E+00 0. -1.
     999900   -1    0    0    0    0 -0.00000000000E+00 -0.00000000000E+00 -0.74505805969E-08  0.93827000000E+00  0.93827000000E+00 0. -1.
     999902    2    1    2    0    0  0.87281860882E-02  0.10352636739E-01  0.45134868013E-03  0.10303814932E+01  0.10302924146E+01 0.  0.
     999903    2    3    3    0    0 -0.48144363703E-01 -0.18896410981E-01  0.12174412937E+00  0.13976264527E+00  0.45133245749E-01 0.  0.
         14    1    1    2    0    0 -0.87281860882E-02 -0.10352636739E-01 -0.45134868013E-03  0.13548506762E-01  0.00000000000E+00 0. -1.
     999901    1    3    3    0    0  0.56872549792E-01  0.29249047720E-01 -0.12129278069E+00  0.89061884797E+00  0.88000000000E+00 0. -1.
        -11    1    4    4    0    0 -0.37361014132E-01 -0.31070821107E-01  0.10812684718E+00  0.11854500201E+00  0.51100000000E-03 0. -1.
         11    1    4    4    0    0 -0.10783349571E-01  0.12174410126E-01  0.13617282194E-01  0.21217643254E-01  0.51100000000E-03 0.  1.
</event>
<event>
 8    1  0.2039519E+004  0.1043930E+01  0.7957747E-01            NaN
         13   -1    0    0    0    0  0.00000000000E+00  0.00000000000E+00  0.74505805969E-08  0.10566000000E+00  0.10566000000E+00 0.  1.
     999900   -1    0    0    0    0 -0.00000000000E+00 -0.00000000000E+00 -0.74505805969E-08  0.93827000000E+00  0.93827000000E+00 0.  1.
     999902    2    1    2    0    0  0.90472166193E-02 -0.67393402436E-02  0.82115108640E-03  0.10326187169E+01  0.10325567633E+01 0.  0.
     999903    2    3    3    0    0  0.94495526784E-01  0.86303426592E-01  0.43169101613E-01  0.14258966174E+00  0.45722579523E-01 0.  0.
         14    1    1    2    0    0 -0.90472166193E-02  0.67393402436E-02 -0.82115108640E-03  0.11311283065E-01  0.00000000000E+00 0. -1.
     999901    1    3    3    0    0 -0.85448310165E-01 -0.93042766836E-01 -0.42347950527E-01  0.89002905519E+00  0.88000000000E+00 0.  1.
        -11    1    4    4    0    0  0.64328665001E-01  0.28623075911E-01  0.17018676861E-01  0.72438622975E-01  0.51100000000E-03 0. -1.
         11    1    4    4    0    0  0.30166861783E-01  0.57680350682E-01  0.26150424752E-01  0.70151038769E-01  0.51100000000E-03 0.  1.
</event>
<event>
 8    1  0.2039519E+004  0.1043930E+01  0.7957747E-01            NaN
         13   -1    0    0    0    0  0.00000000000E+00  0.00000000000E+00  0.74505805969E-08  0.10566000000E+00  0.10566000000E+00 0.  1.
     999900   -1    0    0    0    0 -0.00000000000E+00 -0.00000000000E+00 -0.74505805969E-08  0.93827000000E+00  0.93827000000E+00 0. -1.
     999902    2    1    2    0    0  0.13877123766E-01 -0.26928463284E-02  0.18240442233E-02  0.10296768206E+01  0.10295781669E+01 0.  0.
     999903    2    3    3    0    0 -0.39407711300E-01  0.91548893166E-01  0.89218827874E-01  0.13874549480E+00  0.36825881237E-01 0.  0.
         14    1    1    2    0    0 -0.13877123766E-01  0.26928463284E-02 -0.18240442233E-02  0.14253179389E-01  0.00000000000E+00 0.  1.
     999901    1    3    3    0    0  0.53284835066E-01 -0.94241739494E-01 -0.87394783651E-01  0.89093132582E+00  0.88000000000E+00 0. -1.
        -11    1    4    4    0    0 -0.62508998117E-02  0.54612446951E-01  0.34664179442E-01  0.64988149441E-01  0.51100000000E-03 0. -1.
         11    1    4    4    0    0 -0.33156811488E-01  0.36936446215E-01  0.54554648432E-01  0.73757345354E-01  0.51100000000E-03 0.  1.
</event>
<event>
 8    1  0.2039519E+004  0.1043930E+01  0.7957747E-01            NaN
         13   -1    0    0    0    0  0.00000000000E+00  0.00000000000E+00  0.74505805969E-08  0.10566000000E+00  0.10566000000E+00 0.  1.
     999900   -1    0    0    0    0 -0.00000000000E+00 -0.00000000000E+00 -0.74505805969E-08  0.93827000000E+00  0.93827000000E+00 0. -1.
     999902    2    1    2    0    0  0.89499258343E-02 -0.65648199086E-02 -0.88773701754E-02  0.10297171279E+01  0.10296190352E+01 0.  0.
     999903    2    3    3    0    0  0.12519407083E+00  0.43936851866E-01  0.63309194719E-02  0.14050713458E+00  0.45805807532E-01 0.  0.
         14    1    1    2    0    0 -0.89499258343E-02  0.65648199086E-02  0.88773701754E-02  0.14212872127E-01  0.00000000000E+00 0.  1.
     999901    1    3    3    0    0 -0.11624414500E+00 -0.50501671774E-01 -0.15208289647E-01  0.88920999329E+00  0.88000000000E+00 0. -1.
        -11    1    4    4    0    0  0.44016549746E-01  0.39090875406E-01 -0.74860047616E-03  0.58875926449E-01  0.51100000000E-03 0.  1.
         11    1    4    4    0    0  0.81177521084E-01  0.48459764594E-02  0.70795199480E-02  0.81631208131E-01  0.51100000000E-03 0. -1.
</event>
<event>
 8    1  0.2039519E+004  0.1043930E+01  0.7957747E-01            NaN
         13   -1    0    0    0    0  0.00000000000E+00  0.00000000000E+00  0.74505805969E-08  0.10566000000E+00  0.10566000000E+00 0.  1.
     999900   -1    0    0    0    0 -0.00000000000E+00 -0.00000000000E+00 -0.74505805969E-08  0.93827000000E+00  0.93827000000E+00 0. -1.
     999902    2    1    2    0    0 -0.26220228929E-02 -0.16941617799E-01 -0.53726067052E-02  0.10259645242E+01  0.10258072171E+01 0.  0.
     999903    2    3    3    0    0  0.78232519621E-01 -0.98678776104E-01 -0.34577546577E-01  0.13800543246E+00  0.44632551831E-01 0.  0.
         14    1    1    2    0    0  0.26220228929E-02  0.16941617799E-01  0.53726067052E-02  0.17965475794E-01  0.00000000000E+00 0.  1.
     999901    1    3    3    0    0 -0.80854542514E-01  0.81737158305E-01  0.29204939871E-01  0.88795909174E+00  0.88000000000E+00 0.  1.
        -11    1    4    4    0    0  0.75589261913E-01 -0.10148203083E+00 -0.26853802208E-01  0.12935890736E+00  0.51100000000E-03 0. -1.
         11    1    4    4    0    0  0.26432577080E-02  0.28032547282E-02 -0.77237443688E-02  0.86465251088E-02  0.51100000000E-03 0.  1.
</event>
<event>
 8    1  0.2039519E+004  0.1043930E+01  0.7957747E-01            NaN
         13   -1    0    0    0    0  0.00000000000E+00  0.00000000000E+00  0.74505805969E-08  0.10566000000E+00  0.10566000000E+00 0. -1.
     999900   -1    0    0    0    0 -0.00000000000E+00 -0.00000000000E+00 -0.74505805969E-08  0.93827000000E+00  0.93827000000E+00 0.  1.
     999902    2    1    2    0    0  0.11647170119E-01  0.42639066759E-02  0.56824430094E-02  0.10302871399E+01  0.10301968079E+01 0.  0.
     999903    2    3    3    0    0  0.10106224385E+00  0.87450675491E-01 -0.13532172551E-01  0.14164531369E+00  0.44934145387E-01 0.  0.
         14    1    1    2    0    0 -0.11647170119E-01 -0.42639066759E-02 -0.56824430094E-02  0.13642860055E-01  0.00000000000E+00 0. -1.
     999901    1    3    3    0    0 -0.89415073728E-01 -0.83186768815E-01  0.19214615561E-01  0.88864182625E+00  0.88000000000E+00 0. -1.
        -11    1    4    4    0    0  0.44430246015E-01  0.16740311507E-01  0.89135207907E-02  0.48311455828E-01  0.51100000000E-03 0.  1.
         11    1    4    4    0    0  0.56631997832E-01  0.70710363984E-01 -0.22445693342E-01  0.93333857864E-01  0.51100000000E-03 0. -1.
</event>
<event>
 8    1  0.2039519E+004  0.1043930E+01  0.7957747E-01            NaN
         13   -1    0    0    0    0  0.00000000000E+00  0.00000000000E+00  0.74505805969E-08  0.10566000000E+00  0.10566000000E+00 0. -1.
     999900   -1    0    0    0    0 -0.00000000000E+00 -0.00000000000E+00 -0.74505805969E-08  0.93827000000E+00  0.93827000000E+00 0. -1.
     999902    2    1    2    0    0  0.97025895055E-02 -0.96305442843E-02 -0.30994612411E-02  0.10299123580E+01  0.10298169599E+01 0.  0.
     999903    2    3    3    0    0 -0.91899575703E-01 -0.30174417757E-01 -0.83022744055E-01  0.14023107698E+00  0.58446141194E-01 0.  0.
         14    1    1    2    0    0 -0.97025895055E-02  0.96305442843E-02  0.30994612411E-02  0.14017641967E-01  0.00000000000E+00 0. -1.
     999901    1    3    3    0    0  0.10160216521E+00  0.20543873472E-01  0.79923282814E-01  0.88968128105E+00  0.88000000000E+00 0.  1.
        -11    1    4    4    0    0 -0.30845666405E-01 -0.21421643381E-01 -0.95687367185E-03  0.37570183249E-01  0.51100000000E-03 0. -1.
         11    1    4    4    0    0 -0.61053909298E-01 -0.87527743753E-02 -0.82065870383E-01  0.10266089374E+00  0.51100000000E-03 0.  1.
</event>
<event>
 8    1  0.2039519E+004  0.1043930E+01  0.7957747E-01            NaN
         13   -1    0    0    0    0  0.00000000000E+00  0.00000000000E+00  0.74505805969E-08  0.10566000000E+00  0.10566000000E+00 0.  1.
     999900   -1    0    0    0    0 -0.00000000000E+00 -0.00000000000E+00 -0.74505805969E-08  0.93827000000E+00  0.93827000000E+00 0. -1.
     999902    2    1    2    0    0  0.88524824447E-02  0.71425532240E-02 -0.87657228515E-02  0.10295696236E+01  0.10294694699E+01 0.  0.
     999903    2    3    3    0    0  0.10813514330E+00 -0.22843215554E-01 -0.74776308812E-01  0.14102385075E+00  0.45620263107E-01 0.  0.
         14    1    1    2    0    0 -0.88524824447E-02 -0.71425532240E-02  0.87657228515E-02  0.14360376356E-01  0.00000000000E+00 0. -1.
     999901    1    3    3    0    0 -0.99282660856E-01  0.29985768778E-01  0.66010585961E-01  0.88854577290E+00  0.88000000000E+00 0. -1.
        -11    1    4    4    0    0  0.85872434007E-01 -0.34552376182E-01 -0.47954878903E-01  0.10424909186E+00  0.51100000000E-03 0. -1.
         11    1    4    4    0    0  0.22262709294E-01  0.11709160628E-01 -0.26821429909E-01  0.36774758885E-01  0.51100000000E-03 0.  1.
</event>
<event>
 8    1  0.2039519E+004  0.1043930E+01  0.7957747E-01            NaN
         13   -1    0    0    0    0  0.00000000000E+00  0.00000000000E+00  0.74505805969E-08  0.10566000000E+00  0.10566000000E+00 0.  1.
     999900   -1    0    0    0    0 -0.00000000000E+00 -0.00000000000E+00 -0.74505805969E-08  0.93827000000E+00  0.93827000000E+00 0. -1.
     999902    2    1    2    0    0  0.12534312593E-01 -0.29997212654E-02  0.36974836075E-02  0.10305218419E+01  0.10304346111E+01 0.  0.
     999903    2    3    3    0    0 -0.95578691442E-01 -0.68980977080E-01  0.66450526161E-01  0.13924192392E+00  0.32847823267E-01 0.  0.
         14    1    1    2    0    0 -0.12534312593E-01  0.29997212654E-02 -0.36974836075E-02  0.13408158147E-01  0.00000000000E+00 0. -1.
     999901    1    3    3    0    0  0.10811300404E+00  0.65981255815E-01 -0.62753042553E-01  0.89127991793E+00  0.88000000000E+00 0.  1.
        -11    1    4    4    0    0 -0.36317470599E-01 -0.33106977363E-01  0.10645901510E-01  0.50285454764E-01  0.51100000000E-03 0. -1.
         11    1    4    4    0    0 -0.59261220843E-01 -0.35873999717E-01  0.55804624650E-01  0.88956469157E-01  0.51100000000E-03 0.  1.
</event>
<event>
 8    1  0.2039519E+004  0.1043930E+01  0.7957747E-01            NaN
         13   -1    0    0    0    0  0.00000000000E+00  0.00000000000E+00  0.74505805969E-08  0.10566000000E+00  0.10566000000E+00 0.  1.
     999900   -1    0    0    0    0 -0.00000000000E+00 -0.00000000000E+00 -0.74505805969E-08  0.93827000000E+00  0.93827000000E+00 0.  1.
     999902    2    1    2    0    0 -0.11635330049E-01 -0.90449710557E-02 -0.17581978748E-02  0.10290880437E+01  0.10289810096E+01 0.  0.
     999903    2    3    3    0    0 -0.12981355944E+00  0.23525979850E-01 -0.21931203547E-01  0.14036203931E+00  0.42608595912E-01 0.  0.
         14    1    1    2    0    0  0.11635330049E-01  0.90449710557E-02  0.17581978748E-02  0.14841956290E-01  0.00000000000E+00 0. -1.
     999901    1    3    3    0    0  0.11817822940E+00 -0.32570950906E-01  0.20173005672E-01  0.88872600440E+00  0.88000000000E+00 0.  1.
        -11    1    4    4    0    0 -0.91487660618E-01  0.31962012588E-01 -0.27462678699E-01  0.10072746466E+00  0.51100000000E-03 0. -1.
         11    1    4    4    0    0 -0.38325898826E-01 -0.84360327375E-02  0.55314751523E-02  0.39634574648E-01  0.51100000000E-03 0.  1.
</event>
<event>
 8    1  0.2039519E+004  0.1043930E+01  0.7957747E-01            NaN
         13   -1    0    0    0    0  0.00000000000E+00  0.00000000000E+00  0.74505805969E-08  0.10566000000E+00  0.10566000000E+00 0. -1.
     999900   -1    0    0    0    0 -0.00000000000E+00 -0.00000000000E+00 -0.74505805969E-08  0.93827000000E+00  0.93827000000E+00 0. -1.
     999902    2    1    2    0    0 -0.12628675109E-01  0.14144134076E-02  0.26453298784E-02  0.10309499472E+01  0.10308682321E+01 0.  0.
     999903    2    3    3    0    0 -0.53136423938E-01  0.96696062320E-01  0.76450264544E-01  0.14181180343E+00  0.45742066277E-01 0.  0.
         14    1    1    2    0    0  0.12628675109E-01 -0.14144134076E-02 -0.26453298784E-02  0.12980052791E-01  0.00000000000E+00 0. -1.
     999901    1    3    3    0    0  0.40507748829E-01 -0.95281648913E-01 -0.73804934665E-01  0.88913814378E+00  0.88000000000E+00 0. -1.
        -11    1    4    4    0    0 -0.33408517541E-01  0.81278007535E-01  0.37587507420E-01  0.95578896144E-01  0.51100000000E-03 0. -1.
         11    1    4    4    0    0 -0.19727906397E-01  0.15418054785E-01  0.38862757124E-01  0.46232907290E-01  0.51100000000E-03 0.  1.
</event>
<event>
 8    1  0.2039519E+004  0.1043930E+01  0.7957747E-01            NaN
         13   -1    0    0    0    0  0.00000000000E+00  0.00000000000E+00  0.74505805969E-08  0.10566000000E+00  0.10566000000E+00 0. -1.
     999900   -1    0    0    0    0 -0.00000000000E+00 -0.00000000000E+00 -0.74505805969E-08  0.93827000000E+00  0.93827000000E+00 0. -1.
     999902    2    1    2    0    0 -0.81386793027E-03 -0.67958746935E-02  0.13076504032E-01  0.10291705538E+01  0.10290647150E+01 0.  0.
     999903    2    3    3    0    0 -0.43841458529E-01 -0.11273359389E+00 -0.52702284701E-01  0.13933853431E+00  0.44796871005E-01 0.  0.
         14    1    1    2    0    0  0.81386793027E-03  0.67958746935E-02 -0.13076504032E-01  0.14759446180E-01  0.00000000000E+00 0.  1.
     999901    1    3    3    0    0  0.43027590599E-01  0.10593771920E+00  0.65778788732E-01  0.88983201951E+00  0.88000000000E+00 0.  1.
        -11    1    4    4    0    0 -0.41028764955E-01 -0.79505072130E-01 -0.18102660119E-01  0.91281890167E-01  0.51100000000E-03 0.  1.
         11    1    4    4    0    0 -0.28126935739E-02 -0.33228521765E-01 -0.34599624581E-01  0.48056644140E-01  0.51100000000E-03 0. -1.
</event>
<event>
 8    1  0.2039519E+004  0.1043930E+01  0.7957747E-01            NaN
         13   -1    0    0    0    0  0.00000000000E+00  0.00000000000E+00  0.74505805969E-08  0.10566000000E+00  0.10566000000E+00 0. -1.
     999900   -1    0    0    0    0 -0.00000000000E+00 -0.00000000000E+00 -0.74505805969E-08  0.93827000000E+00  0.93827000000E+00 0.  1.
     999902    2    1    2    0    0  0.28028789155E-02  0.63967472378E-02  0.12503513034E-01  0.10296082563E+01  0.10295086445E+01 0.  0.
     999903    2    3    3    0    0 -0.54831713886E-01 -0.89487643151E-02 -0.11793249386E+00  0.13799691554E+00  0.45260118885E-01 0.  0.
         14    1    1    2    0    0 -0.28028789155E-02 -0.63967472378E-02 -0.12503513034E-01  0.14321743736E-01  0.00000000000E+00 0.  1.
     999901    1    3    3    0    0  0.57634592802E-01  0.15345511553E-01  0.13043600689E+00  0.89161134072E+00  0.88000000000E+00 0. -1.
        -11    1    4    4    0    0 -0.11861554203E-01  0.86375781119E-02 -0.68983190307E-01  0.70528333950E-01  0.51100000000E-03 0.  1.
         11    1    4    4    0    0 -0.42970159683E-01 -0.17586342427E-01 -0.48949303549E-01  0.67468581592E-01  0.51100000000E-03 0. -1.
</event>
<event>
 7    1  0.3162503E+004  0.1043930E+01  0.7957747E-01            NaN
         13   -1    0    0    0    0  0.00000000000E+00  0.00000000000E+00  0.74505805969E-08  0.10566000000E+00  0.10566000000E+00 0.  1.
     999900   -1    0    0    0    0 -0.00000000000E+00 -0.00000000000E+00 -0.74505805969E-08  0.93827000000E+00  0.93827000000E+00 0. -1.
     999903    2    1    2    0    0 -0.36900265533E-01  0.40239072325E-01  0.12165136797E-01  0.65446967107E-01  0.33977969514E-01 0.  0.
         14    1    1    2    0    0 -0.22688421202E-01  0.12155808229E-01 -0.87978439218E-01  0.91666427320E-01  0.00000000000E+00 0. -1.
     999901    1    1    2    0    0  0.59588686735E-01 -0.52394880554E-01  0.75813302422E-01  0.88681660557E+00  0.88000000000E+00 0.  1.
        -11    1    3    3    0    0 -0.10205770685E-01  0.23208543953E-01  0.20603432916E-01  0.32673488284E-01  0.51100000000E-03 0.  1.
         11    1    3    3    0    0 -0.26694494848E-01  0.17030528372E-01 -0.84382961192E-02  0.32773478824E-01  0.51100000000E-03 0. -1.
</event>
<event>
 8    1  0.2039519E+004  0.1043930E+01  0.7957747E-01            NaN
         13   -1    0    0    0    0  0.00000000000E+00  0.00000000000E+00  0.74505805969E-08  0.10566000000E+00  0.10566000000E+00 0.  1.
     999900   -1    0    0    0    0 -0.00000000000E+00 -0.00000000000E+00 -0.74505805969E-08  0.93827000000E+00  0.93827000000E+00 0. -1.
     999902    2    1    2    0    0 -0.10821266884E-01  0.85938311722E-02  0.12447303841E-01  0.10253319054E+01  0.10251632197E+01 0.  0.
     999903    2    3    3    0    0 -0.96463769977E-01  0.75631653500E-01  0.45163673473E-01  0.13803315703E+00  0.44586871474E-01 0.  0.
         14    1    1    2    0    0  0.10821266884E-01 -0.85938311722E-02 -0.12447303841E-01  0.18598094636E-01  0.00000000000E+00 0.  1.
     999901    1    3    3    0    0  0.85642503093E-01 -0.67037822328E-01 -0.32716369632E-01  0.88729874834E+00  0.88000000000E+00 0. -1.
        -11    1    4    4    0    0 -0.54489388205E-01  0.25304960453E-01  0.40243280050E-01  0.72313326301E-01  0.51100000000E-03 0.  1.
         11    1    4    4    0    0 -0.41974381772E-01  0.50326693047E-01  0.49203934227E-02  0.65719830726E-01  0.51100000000E-03 0. -1.
</event>
<event>
 8    1  0.2039519E+004  0.1043930E+01  0.7957747E-01            NaN
         13   -1    0    0    0    0  0.00000000000E+00  0.00000000000E+00  0.74505805969E-08  0.10566000000E+00  0.10566000000E+00 0.  1.
     999900   -1    0    0    0    0 -0.00000000000E+00 -0.00000000000E+00 -0.74505805969E-08  0.93827000000E+00  0.93827000000E+00 0. -1.
     999902    2    1    2    0    0 -0.95544970873E-02  0.29434211129E-02 -0.89770341325E-02  0.10304935092E+01  0.10304059070E+01 0.  0.
     999903    2    3    3    0    0  0.12210732708E+00 -0.12152124932E-01 -0.49949901291E-01  0.13962792605E+00  0.44080512985E-01 0.  0.
         14    1    1    2    0    0  0.95544970873E-02 -0.29434211129E-02  0.89770341325E-02  0.13436490772E-01  0.00000000000E+00 0. -1.
     999901    1    3    3    0    0 -0.13166182417E+00  0.15095546045E-01  0.40972867159E-01  0.89086558318E+00  0.88000000000E+00 0. -1.
        -11    1    4    4    0    0  0.28529048792E-01  0.16812386905E-02 -0.32769714812E-01  0.43483888032E-01  0.51100000000E-03 0. -1.
         11    1    4    4    0    0  0.93578278292E-01 -0.13833363623E-01 -0.17180186479E-01  0.96144038014E-01  0.51100000000E-03 0.  1.
</event>
<event>
 8    1  0.2039519E+004  0.1043930E+01  0.7957747E-01            NaN
         13   -1    0    0    0    0  0.00000000000E+00  0.00000000000E+00  0.74505805969E-08  0.10566000000E+00  0.10566000000E+00 0.  1.
     999900   -1    0    0    0    0 -0.00000000000E+00 -0.00000000000E+00 -0.74505805969E-08  0.93827000000E+00  0.93827000000E+00 0.  1.
     999902    2    1    2    0    0 -0.91673050434E-03 -0.12272450670E-01  0.37088488592E-02  0.10310766347E+01  0.10309965168E+01 0.  0.
     999903    2    3    3    0    0 -0.85653782097E-01  0.27029780174E-01 -0.91390566523E-01  0.14103790964E+00  0.58926029070E-01 0.  0.
         14    1    1    2    0    0  0.91673050434E-03  0.12272450670E-01 -0.37088488592E-02  0.12853365323E-01  0.00000000000E+00 0. -1.
     999901    1    3    3    0    0  0.84737051593E-01 -0.39302230844E-01  0.95099415382E-01  0.89003872504E+00  0.88000000000E+00 0. -1.
        -11    1    4    4    0    0 -0.62731419249E-01  0.70469362125E-02 -0.24789216098E-01  0.67820768403E-01  0.51100000000E-03 0.  1.
         11    1    4    4    0    0 -0.22922362848E-01  0.19982843961E-01 -0.66601350425E-01  0.73217141236E-01  0.51100000000E-03 0. -1.
</event>
<event>
 8    1  0.2039519E+004  0.1043930E+01  0.7957747E-01            NaN
         13   -1    0    0    0    0  0.00000000000E+00  0.00000000000E+00  0.74505805969E-08  0.10566000000E+00  0.10566000000E+00 0. -1.
     999900   -1    0    0    0    0 -0.00000000000E+00 -0.00000000000E+00 -0.74505805969E-08  0.93827000000E+00  0.93827000000E+00 0. -1.
     999902    2    1    2    0    0  0.18081607805E-02 -0.13836661946E-01 -0.91031265160E-02  0.10272689805E+01  0.10271338611E+01 0.  0.
     999903    2    3    3    0    0 -0.36067887019E-01  0.77519864898E-01 -0.97524563813E-01  0.13732574601E+00  0.45134222527E-01 0.  0.
         14    1    1    2    0    0 -0.18081607805E-02  0.13836661946E-01  0.91031265160E-02  0.16661019524E-01  0.00000000000E+00 0. -1.
     999901    1    3    3    0    0  0.37876047800E-01 -0.91356526844E-01  0.88421437297E-01  0.88994323446E+00  0.88000000000E+00 0. -1.
        -11    1    4    4    0    0 -0.12078107005E-01  0.50891355163E-01 -0.28546241677E-01  0.59589929804E-01  0.51100000000E-03 0. -1.
         11    1    4    4    0    0 -0.23989780014E-01  0.26628509734E-01 -0.68978322137E-01  0.77735816208E-01  0.51100000000E-03 0.  1.
</event>
<event>
 8    1  0.2039519E+004  0.1043930E+01  0.7957747E-01            NaN
         13   -1    0    0    0    0  0.00000000000E+00  0.00000000000E+00  0.74505805969E-08  0.10566000000E+00  0.10566000000E+00 0. -1.
     999900   -1    0    0    0    0 -0.00000000000E+00 -0.00000000000E+00 -0.74505805969E-08  0.93827000000E+00  0.93827000000E+00 0.  1.
     999902    2    1    2    0    0 -0.23260051076E-02 -0.35791938796E-03  0.13843137629E-01  0.10298882456E+01  0.10297925168E+01 0.  0.
     999903    2    3    3    0    0  0.11923909299E+00 -0.53666300215E-01  0.19648131424E-01  0.13991433900E+00  0.45737731851E-01 0.  0.
         14    1    1    2    0    0  0.23260051076E-02  0.35791938796E-03 -0.13843137629E-01  0.14041754359E-01  0.00000000000E+00 0.  1.
     999901    1    3    3    0    0 -0.12156509810E+00  0.53308380827E-01 -0.58049937948E-02  0.88997390664E+00  0.88000000000E+00 0. -1.
        -11    1    4    4    0    0  0.77059771236E-01 -0.19678590793E-01 -0.64280830625E-02  0.79793713107E-01  0.51100000000E-03 0.  1.
         11    1    4    4    0    0  0.42179321753E-01 -0.33987709422E-01  0.26076214486E-01  0.60120625897E-01  0.51100000000E-03 0. -1.
</event>
<event>
 8    1  0.2039519E+004  0.1043930E+01  0.7957747E-01            NaN
         13   -1    0    0    0    0  0.00000000000E+00  0.00000000000E+00  0.74505805969E-08  0.10566000000E+00  0.10566000000E+00 0.  1.
     999900   -1    0    0    0    0 -0.00000000000E+00 -0.00000000000E+00 -0.74505805969E-08  0.93827000000E+00  0.93827000000E+00 0. -1.
     999902    2    1    2    0    0  0.92495746211E-02  0.25547642964E-01  0.52754625033E-02  0.10162520811E+01  0.10158751031E+01 0.  0.
     999903    2    3    3    0    0 -0.69992645709E-01  0.22867042651E-01  0.94744905944E-01  0.12816914777E+00  0.45042881189E-01 0.  0.
         14    1    1    2    0    0 -0.92495746211E-02 -0.25547642964E-01 -0.52754625033E-02  0.27677918931E-01  0.00000000000E+00 0. -1.
     999901    1    3    3    0    0  0.79242220330E-01  0.26806003132E-02 -0.89469443440E-01  0.88808293330E+00  0.88000000000E+00 0. -1.
        -11    1    4    4    0    0 -0.46259138000E-01  0.35841862881E-01  0.72303840309E-01  0.93019640011E-01  0.51100000000E-03 0.  1.
         11    1    4    4    0    0 -0.23733507709E-01 -0.12974820230E-01  0.22441065635E-01  0.35149507763E-01  0.51100000000E-03 0. -1.
</event>
<event>
 8    1  0.2039519E+004  0.1043930E+01  0.7957747E-01            NaN
         13   -1    0    0    0    0  0.00000000000E+00  0.00000000000E+00  0.74505805969E-08  0.10566000000E+00  0.10566000000E+00 0. -1.
     999900   -1    0    0    0    0 -0.00000000000E+00 -0.00000000000E+00 -0.74505805969E-08  0.93827000000E+00  0.93827000000E+00 0. -1.
     999902    2    1    2    0    0  0.53323456242E-03 -0.59624411864E-02  0.11225108228E-01  0.10312084396E+01  0.10311299665E+01 0.  0.
     999903    2    3    3    0    0 -0.68567000105E-01 -0.37766030235E-01  0.11004352560E+00  0.14241634338E+00  0.45223122320E-01 0.  0.
         14    1    1    2    0    0 -0.53323456242E-03  0.59624411864E-02 -0.11225108228E-01  0.12721560389E-01  0.00000000000E+00 0.  1.
     999901    1    3    3    0    0  0.69100234667E-01  0.31803589049E-01 -0.98818417374E-01  0.88879209623E+00  0.88000000000E+00 0. -1.
        -11    1    4    4    0    0 -0.73930000952E-01 -0.27958047411E-01  0.99141180048E-01  0.12679326543E+00  0.51100000000E-03 0.  1.
         11    1    4    4    0    0  0.53630008468E-02 -0.98079828244E-02  0.10902345554E-01  0.15623077954E-01  0.51100000000E-03 0. -1.
</event>
<event>
 8    1  0.2039519E+004  0.1043930E+01  0.7957747E-01            NaN
         13   -1    0    0    0    0  0.00000000000E+00  0.00000000000E+00  0.74505805969E-08  0.10566000000E+00  0.10566000000E+00 0. -1.
     999900   -1    0    0    0    0 -0.00000000000E+00 -0.00000000000E+00 -0.74505805969E-08  0.93827000000E+00  0.93827000000E+00 0. -1.
     999902    2    1    2    0    0  0.13836631022E-01 -0.26825200815E-02  0.20687044823E-02  0.10296847267E+01  0.10295861832E+01 0.  0.
     999903    2    3    3    0    0 -0.83196048955E-01 -0.73875795367E-01  0.69654527160E-01  0.13892568701E+00  0.45490412783E-01 0.  0.
         14    1    1    2    0    0 -0.13836631022E-01  0.26825200815E-02 -0.20687044823E-02  0.14245273260E-01  0.00000000000E+00 0.  1.
     999901    1    3    3    0    0  0.97032679977E-01  0.71193275285E-01 -0.67585822678E-01  0.89075903973E+00  0.88000000000E+00 0.  1.
        -11    1    4    4    0    0 -0.69815976022E-01 -0.57141955692E-01  0.74440470241E-01  0.11696631284E+00  0.51100000000E-03 0.  1.
         11    1    4    4    0    0 -0.13380072933E-01 -0.16733839675E-01 -0.47859430810E-02  0.21959374174E-01  0.51100000000E-03 0. -1.
</event>
<event>
 8    1  0.2039519E+004  0.1043930E+01  0.7957747E-01            NaN
         13   -1    0    0    0    0  0.00000000000E+00  0.00000000000E+00  0.74505805969E-08  0.10566000000E+00  0.10566000000E+00 0.  1.
     999900   -1    0    0    0    0 -0.00000000000E+00 -0.00000000000E+00 -0.74505805969E-08  0.93827000000E+00  0.93827000000E+00 0. -1.
     999902    2    1    2    0    0  0.22118040317E-02  0.12027994795E-01 -0.67469676686E-02  0.10299626700E+01  0.10298679601E+01 0.  0.
     999903    2    3    3    0    0 -0.53934752164E-02  0.13216469021E+00  0.15218716935E-01  0.14149592485E+00  0.47884156982E-01 0.  0.
         14    1    1    2    0    0 -0.22118040317E-02 -0.12027994795E-01  0.67469676686E-02  0.13967330045E-01  0.00000000000E+00 0.  1.
     999901    1    3    3    0    0  0.76052792480E-02 -0.12013669542E+00 -0.21965684604E-01  0.88846674511E+00  0.88000000000E+00 0. -1.
        -11    1    4    4    0    0 -0.24408774429E-01  0.92401214296E-01  0.18302928087E-01  0.97308945992E-01  0.51100000000E-03 0. -1.
         11    1    4    4    0    0  0.19015299213E-01  0.39763475917E-01 -0.30842111523E-02  0.44186978858E-01  0.51100000000E-03 0.  1.
</event>
<event>
 8    1  0.2039519E+004  0.1043930E+01  0.7957747E-01            NaN
         13   -1    0    0    0    0  0.00000000000E+00  0.00000000000E+00  0.74505805969E-08  0.10566000000E+00  0.10566000000E+00 0.  1.
     999900   -1    0    0    0    0 -0.00000000000E+00 -0.00000000000E+00 -0.74505805969E-08  0.93827000000E+00  0.93827000000E+00 0. -1.
     999902    2    1    2    0    0 -0.58539000222E-02  0.14574125176E-01  0.96787153747E-02  0.10254814011E+01  0.10253154408E+01 0.  0.
     999903    2    3    3    0    0  0.10943912066E+00 -0.77238122609E-02 -0.64165895115E-01  0.13461513441E+00  0.44355314336E-01 0.  0.
         14    1    1    2    0    0  0.58539000222E-02 -0.14574125176E-01 -0.96787153747E-02  0.18448598901E-01  0.00000000000E+00 0. -1.
     999901    1    3    3    0    0 -0.11529302068E+00  0.22297937437E-01  0.73844610489E-01  0.89086626669E+00  0.88000000000E+00 0. -1.
        -11    1    4    4    0    0  0.35681843778E-01 -0.23569128714E-01 -0.26267877269E-01  0.50189244873E-01  0.51100000000E-03 0. -1.
         11    1    4    4    0    0  0.73757276878E-01  0.15845316454E-01 -0.37898017846E-01  0.84425889534E-01  0.51100000000E-03 0.  1.
</event>
<event>
 8    1  0.2039519E+004  0.1043930E+01  0.7957747E-01            NaN
         13   -1    0    0    0    0  0.00000000000E+00  0.00000000000E+00  0.74505805969E-08  0.10566000000E+00  0.10566000000E+00 0. -1.
     999900   -1    0    0    0    0 -0.00000000000E+00 -0.00000000000E+00 -0.74505805969E-08  0.93827000000E+00  0.93827000000E+00 0. -1.
     999902    2    1    2    0    0  0.12311069793E-01 -0.50998650610E-02 -0.32815700756E-02  0.10302063064E+01  0.10301148936E+01 0.  0.
     999903    2    3    3    0    0 -0.12858837392E+00 -0.24140129931E-01  0.91362210358E-02  0.13870791245E+00  0.45151950794E-01 0.  0.
         14    1    1    2    0    0 -0.12311069793E-01  0.50998650610E-02  0.32815700756E-02  0.13723693572E-01  0.00000000000E+00 0.  1.
     999901    1    3    3    0    0  0.14089944372E+00  0.19040264870E-01 -0.12417791111E-01  0.89149839398E+00  0.88000000000E+00 0.  1.
        -11    1    4    4    0    0 -0.11721525209E+00 -0.17585258266E-01  0.21736908256E-01  0.12050481705E+00  0.51100000000E-03 0.  1.
         11    1    4    4    0    0 -0.11373121835E-01 -0.65548716650E-02 -0.12600687220E-01  0.18203095403E-01  0.51100000000E-03 0. -1.
</event>
<event>
 8    1  0.2039519E+004  0.1043930E+01  0.7957747E-01            NaN
         13   -1    0    0    0    0  0.00000000000E+00  0.00000000000E+00  0.74505805969E-08  0.10566000000E+00  0.10566000000E+00 0. -1.
     999900   -1    0    0    0    0 -0.00000000000E+00 -0.00000000000E+00 -0.74505805969E-08  0.93827000000E+00  0.93827000000E+00 0.  1.
     999902    2    1    2    0    0  0.10273536200E-01  0.71972717394E-02  0.47472540067E-02  0.10305179648E+01  0.10304306833E+01 0.  0.
     999903    2    3    3    0    0  0.11478843456E+00  0.40898731332E-01  0.57234363385E-01  0.14214076510E+00  0.45597519884E-01 0.  0.
         14    1    1    2    0    0 -0.10273536200E-01 -0.71972717394E-02 -0.47472540067E-02  0.13412035161E-01  0.00000000000E+00 0.  1.
     999901    1    3    3    0    0 -0.10451489836E+00 -0.33701459593E-01 -0.52487109378E-01  0.88837719973E+00  0.88000000000E+00 0. -1.
        -11    1    4    4    0    0  0.70481428753E-01  0.47028060143E-01  0.30648470499E-01  0.90104717439E-01  0.51100000000E-03 0. -1.
         11    1    4    4    0    0  0.44307005805E-01 -0.61293288106E-02  0.26585892887E-01  0.52036047665E-01  0.51100000000E-03 0.  1.
</event>
<event>
 8    1  0.2039519E+004  0.1043930E+01  0.7957747E-01            NaN
         13   -1    0    0    0    0  0.00000000000E+00  0.00000000000E+00  0.74505805969E-08  0.10566000000E+00  0.10566000000E+00 0. -1.
     999900   -1    0    0    0    0 -0.00000000000E+00 -0.00000000000E+00 -0.74505805969E-08  0.93827000000E+00  0.93827000000E+00 0.  1.
     999902    2    1    2    0    0  0.75162506290E-02 -0.54902847285E-02 -0.10607384888E-01  0.10298178115E+01  0.10297211132E+01 0.  0.
     999903    2    3    3    0    0 -0.10638272454E+00 -0.78456394658E-02 -0.78603361563E-01  0.13987288226E+00  0.44800631731E-01 0.  0.
         14    1    1    2    0    0 -0.75162506290E-02  0.54902847285E-02  0.10607384888E-01  0.14112188494E-01  0.00000000000E+00 0. -1.
     999901    1    3    3    0    0  0.11389897517E+00  0.23553547373E-02  0.67995976674E-01  0.88994492924E+00  0.88000000000E+00 0. -1.
        -11    1    4    4    0    0 -0.23814895699E-02 -0.75387321351E-02 -0.17595692503E-01  0.19296981381E-01  0.51100000000E-03 0.  1.
         11    1    4    4    0    0 -0.10400123497E+00 -0.30690733066E-03 -0.61007669060E-01  0.12057590088E+00  0.51100000000E-03 0. -1.
</event>
<event>
 8    1  0.2039519E+004  0.1043930E+01  0.7957747E-01            NaN
         13   -1    0    0    0    0  0.00000000000E+00  0.00000000000E+00  0.74505805969E-08  0.10566000000E+00  0.10566000000E+00 0.  1.
     999900   -1    0    0    0    0 -0.00000000000E+00 -0.00000000000E+00 -0.74505805969E-08  0.93827000000E+00  0.93827000000E+00 0. -1.
     999902    2    1    2    0    0  0.18226079568E-01 -0.44425348731E-03 -0.10977112717E-01  0.10226489206E+01  0.10224274695E+01 0.  0.
     999903    2    3    3    0    0 -0.59616633592E-01 -0.21677955853E-01 -0.10871137082E+00  0.13356942846E+00  0.44705182067E-01 0.  0.
         14    1    1    2    0    0 -0.18226079568E-01  0.44425348731E-03  0.10977112717E-01  0.21281079417E-01  0.00000000000E+00 0. -1.
     999901    1    3    3    0    0  0.77842713159E-01  0.21233702365E-01  0.97734258099E-01  0.88907949212E+00  0.88000000000E+00 0.  1.
        -11    1    4    4    0    0 -0.35042554657E-01 -0.12328736356E-01 -0.98648642567E-01  0.10541249536E+00  0.51100000000E-03 0.  1.
         11    1    4    4    0    0 -0.24574078935E-01 -0.93492194964E-02 -0.10062728249E-01  0.28156933098E-01  0.51100000000E-03 0. -1.
</event>
<event>
 8    1  0.2039519E+004  0.1043930E+01  0.7957747E-01            NaN
         13   -1    0    0    0    0  0.00000000000E+00  0.00000000000E+00  0.74505805969E-08  0.10566000000E+00  0.10566000000E+00 0.  1.
     999900   -1    0    0    0    0 -0.00000000000E+00 -0.00000000000E+00 -0.74505805969E-08  0.93827000000E+00  0.93827000000E+00 0. -1.
     999902    2    1    2    0    0  0.99452627876E-02 -0.60827065780E-02  0.77395709314E-02  0.10299368399E+01  0.10298417770E+01 0.  0.
     999903    2    3    3    0    0 -0.40512213390E-01 -0.61426934681E-01  0.11110138708E+00  0.14072786249E+00  0.45236106483E-01 0.  0.
         14    1    1    2    0    0 -0.99452627876E-02  0.60827065780E-02 -0.77395709314E-02  0.13993160094E-01  0.00000000000E+00 0. -1.
     999901    1    3    3    0    0  0.50457476178E-01  0.55344228102E-01 -0.10336181615E+00  0.88920897742E+00  0.88000000000E+00 0. -1.
        -11    1    4    4    0    0 -0.36186256590E-01 -0.62433471129E-01  0.74013158365E-01  0.10337113821E+00  0.51100000000E-03 0. -1.
         11    1    4    4    0    0 -0.43259568005E-02  0.10065364490E-02  0.37088228719E-01  0.37356724273E-01  0.51100000000E-03 0.  1.
</event>
<event>
 8    1  0.2039519E+004  0.1043930E+01  0.7957747E-01            NaN
         13   -1    0    0    0    0  0.00000000000E+00  0.00000000000E+00  0.74505805969E-08  0.10566000000E+00  0.10566000000E+00 0.  1.
     999900   -1    0    0    0    0 -0.00000000000E+00 -0.00000000000E+00 -0.74505805969E-08  0.93827000000E+00  0.93827000000E+00 0. -1.
     999902    2    1    2    0    0 -0.51498304466E-02  0.90342688712E-02 -0.76981615750E-02  0.10309916671E+01  0.10309104797E+01 0.  0.
     999903    2    3    3    0    0  0.40761626794E-02 -0.12024832107E-01 -0.13368322971E+00  0.14172183058E+00  0.45306287281E-01 0.  0.
         14    1    1    2    0    0  0.51498304466E-02 -0.90342688712E-02  0.76981615750E-02  0.12938332941E-01  0.00000000000E+00 0.  1.
     999901    1    3    3    0    0 -0.92259931260E-02  0.21059100978E-01  0.12598506813E+00  0.88926983648E+00  0.88000000000E+00 0.  1.
        -11    1    4    4    0    0 -0.20501285314E-01 -0.35247116531E-02 -0.66481551649E-01  0.69661927353E-01  0.51100000000E-03 0. -1.
         11    1    4    4    0    0  0.24577447994E-01 -0.85001204539E-02 -0.67201678060E-01  0.72059903224E-01  0.51100000000E-03 0.  1.
</event>
<event>
 8    1  0.2039519E+004  0.1043930E+01  0.7957747E-01            NaN
         13   -1    0    0    0    0  0.00000000000E+00  0.00000000000E+00  0.74505805969E-08  0.10566000000E+00  0.10566000000E+00 0.  1.
     999900   -1    0    0    0    0 -0.00000000000E+00 -0.00000000000E+00 -0.74505805969E-08  0.93827000000E+00  0.93827000000E+00 0.  1.
     999902    2    1    2    0    0  0.52531341389E-02  0.39015584026E-02 -0.12502169000E-01  0.10298189474E+01  0.10297222648E+01 0.  0.
     999903    2    3    3    0    0 -0.12420019184E+00  0.30093627860E-02  0.43173320002E-01  0.13860700867E+00  0.43740408965E-01 0.  0.
         14    1    1    2    0    0 -0.52531341389E-02 -0.39015584026E-02  0.12502169000E-01  0.14111052617E-01  0.00000000000E+00 0.  1.
     999901    1    3    3    0    0  0.12945332598E+00  0.89219561662E-03 -0.55675489003E-01  0.89121193871E+00  0.88000000000E+00 0.  1.
        -11    1    4    4    0    0 -0.11041594382E+00 -0.11867690121E-01  0.32654615111E-01  0.11575451493E+00  0.51100000000E-03 0.  1.
         11    1    4    4    0    0 -0.13784248023E-01  0.14877052907E-01  0.10518704891E-01  0.22852493745E-01  0.51100000000E-03 0. -1.
</event>
<event>
 8    1  0.2039519E+004  0.1043930E+01  0.7957747E-01            NaN
         13   -1    0    0    0    0  0.00000000000E+00  0.00000000000E+00  0.74505805969E-08  0.10566000000E+00  0.10566000000E+00 0. -1.
     999900   -1    0    0    0    0 -0.00000000000E+00 -0.00000000000E+00 -0.74505805969E-08  0.93827000000E+00  0.93827000000E+00 0. -1.
     999902    2    1    2    0    0  0.11204308627E-01  0.14528578408E-02 -0.76254799277E-02  0.10302993261E+01  0.10302091564E+01 0.  0.
     999903    2    3    3    0    0  0.11494232872E+00 -0.26973439132E-01  0.62478080930E-01  0.14098265557E+00  0.45092052799E-01 0.  0.
         14    1    1    2    0    0 -0.11204308627E-01 -0.14528578408E-02  0.76254799277E-02  0.13630673933E-01  0.00000000000E+00 0.  1.
     999901    1    3    3    0    0 -0.10373802009E+00  0.28426296973E-01 -0.70103560858E-01  0.88931667049E+00  0.88000000000E+00 0. -1.
        -11    1    4    4    0    0  0.41416592960E-01 -0.30390997428E-01  0.36113997420E-01  0.62796726250E-01  0.51100000000E-03 0. -1.
         11    1    4    4    0    0  0.73525735761E-01  0.34175582961E-02  0.26364083510E-01  0.78185929324E-01  0.51100000000E-03 0.  1.
</event>
<event>
 8    1  0.2039519E+004  0.1043930E+01  0.7957747E-01            NaN
         13   -1    0    0    0    0  0.00000000000E+00  0.00000000000E+00  0.74505805969E-08  0.10566000000E+00  0.10566000000E+00 0.  1.
     999900   -1    0    0    0    0 -0.00000000000E+00 -0.00000000000E+00 -0.74505805969E-08  0.93827000000E+00  0.93827000000E+00 0.  1.
     999902    2    1    2    0    0 -0.93944864916E-02 -0.87186665256E-02 -0.45867813542E-02  0.10303171353E+01  0.10302272027E+01 0.  0.
     999903    2    3    3    0    0 -0.11434054584E+00 -0.70812454938E-01  0.56122323230E-03  0.14189391639E+00  0.45226146638E-01 0.  0.
         14    1    1    2    0    0  0.93944864916E-02  0.87186665256E-02  0.45867813542E-02  0.13612864710E-01  0.00000000000E+00 0.  1.
     999901    1    3    3    0    0  0.10494605935E+00  0.62093788412E-01 -0.51480045865E-02  0.88842321890E+00  0.88000000000E+00 0. -1.
        -11    1    4    4    0    0 -0.10994708898E+00 -0.64633294962E-01  0.12063827888E-01  0.12810785401E+00  0.51100000000E-03 0.  1.
         11    1    4    4    0    0 -0.43934568530E-02 -0.61791599764E-02 -0.11502604656E-01  0.13786062382E-01  0.51100000000E-03 0. -1.
</event>
<event>
 8    1  0.2039519E+004  0.1043930E+01  0.7957747E-01            NaN
         13   -1    0    0    0    0  0.00000000000E+00  0.00000000000E+00  0.74505805969E-08  0.10566000000E+00  0.10566000000E+00 0. -1.
     999900   -1    0    0    0    0 -0.00000000000E+00 -0.00000000000E+00 -0.74505805969E-08  0.93827000000E+00  0.93827000000E+00 0. -1.
     999902    2    1    2    0    0  0.72981341312E-02 -0.11006264289E-01  0.30673634435E-02  0.10303723699E+01  0.10302831705E+01 0.  0.
     999903    2    3    3    0    0 -0.41554660737E-01 -0.12712709238E+00 -0.56587384531E-02  0.14135786657E+00  0.45408563867E-01 0.  0.
         14    1    1    2    0    0 -0.72981341312E-02  0.11006264289E-01 -0.30673634435E-02  0.13557630098E-01  0.00000000000E+00 0.  1.
     999901    1    3    3    0    0  0.48852794868E-01  0.11612082810E+00  0.87261018966E-02  0.88901450333E+00  0.88000000000E+00 0. -1.
        -11    1    4    4    0    0 -0.46602616667E-01 -0.72483076569E-01 -0.70483984902E-02  0.86461212757E-01  0.51100000000E-03 0. -1.
         11    1    4    4    0    0  0.50479559307E-02 -0.54644015816E-01  0.13896600370E-02  0.54896653811E-01  0.51100000000E-03 0.  1.
</event>
<event>
 8    1  0.2039519E+004  0.1043930E+01  0.7957747E-01            NaN
         13   -1    0    0    0    0  0.00000000000E+00  0.00000000000E+00  0.74505805969E-08  0.10566000000E+00  0.10566000000E+00 0. -1.
     999900   -1    0    0    0    0 -0.00000000000E+00 -0.00000000000E+00 -0.74505805969E-08  0.93827000000E+00  0.93827000000E+00 0.  1.
     999902    2    1    2    0    0  0.10527573757E-01  0.80769852772E-02  0.28858724974E-02  0.10303507599E+01  0.10302612740E+01 0.  0.
     999903    2    3    3    0    0  0.33282042652E-01  0.12517860775E+00  0.36339268320E-01  0.14167214226E+00  0.44419311892E-01 0.  0.
         14    1    1    2    0    0 -0.10527573757E-01 -0.80769852772E-02 -0.28858724974E-02  0.13579240054E-01  0.00000000000E+00 0.  1.
     999901    1    3    3    0    0 -0.22754468895E-01 -0.11710162247E+00 -0.33453395823E-01  0.88867861769E+00  0.88000000000E+00 0. -1.
        -11    1    4    4    0    0  0.14586123545E-01  0.80243214691E-01  0.43566287941E-01  0.92466269904E-01  0.51100000000E-03 0.  1.
         11    1    4    4    0    0  0.18695919107E-01  0.44935393059E-01 -0.72270196209E-02  0.49205872355E-01  0.51100000000E-03 0. -1.
</event>
<event>
 8    1  0.2039519E+004  0.1043930E+01  0.7957747E-01            NaN
         13   -1    0    0    0    0  0.00000000000E+00  0.00000000000E+00  0.74505805969E-08  0.10566000000E+00  0.10566000000E+00 0.  1.
     999900   -1    0    0    0    0 -0.00000000000E+00 -0.00000000000E+00 -0.74505805969E-08  0.93827000000E+00  0.93827000000E+00 0. -1.
     999902    2    1    2    0    0 -0.61750431401E-02 -0.97467097203E-02 -0.85666314234E-02  0.10295593117E+01  0.10294590131E+01 0.  0.
     999903    2    3    3    0    0 -0.68881589489E-01 -0.20800246169E-01 -0.11250260274E+00  0.14115795097E+00  0.45731913236E-01 0.  0.
         14    1    1    2    0    0  0.61750431401E-02  0.97467097203E-02  0.85666314234E-02  0.14370688296E-01  0.00000000000E+00 0.  1.
     999901    1    3    3    0    0  0.62706546349E-01  0.11053536449E-01  0.10393597131E+00  0.88840136073E+00  0.88000000000E+00 0.  1.
        -11    1    4    4    0    0 -0.53781397375E-01  0.40439782798E-02 -0.56834763737E-01  0.78353327651E-01  0.51100000000E-03 0.  1.
         11    1    4    4    0    0 -0.15100192115E-01 -0.24844224449E-01 -0.55667838999E-01  0.62804623318E-01  0.51100000000E-03 0. -1.
</event>
<event>
 8    1  0.2039519E+004  0.1043930E+01  0.7957747E-01            NaN
         13   -1    0    0    0    0  0.00000000000E+00  0.00000000000E+00  0.74505805969E-08  0.10566000000E+00  0.10566000000E+00 0.  1.
     999900   -1    0    0    0    0 -0.00000000000E+00 -0.00000000000E+00 -0.74505805969E-08  0.93827000000E+00  0.93827000000E+00 0. -1.
     999902    2    1    2    0    0  0.14177879460E-01  0.27095051972E-03  0.22299041674E-02  0.10295752742E+01  0.10294751998E+01 0.  0.
     999903    2    3    3    0    0 -0.33773322105E-01 -0.45518248863E-01  0.11984117116E+00  0.13927848176E+00  0.42708791947E-01 0.  0.
         14    1    1    2    0    0 -0.14177879460E-01 -0.27095051972E-03 -0.22299041674E-02  0.14354725799E-01  0.00000000000E+00 0.  1.
     999901    1    3    3    0    0  0.47951201565E-01  0.45789199382E-01 -0.11761126699E+00  0.89029679244E+00  0.88000000000E+00 0. -1.
        -11    1    4    4    0    0  0.97402513683E-02 -0.14316688925E-01  0.26217539704E-01  0.31423885623E-01  0.51100000000E-03 0. -1.
         11    1    4    4    0    0 -0.43513573473E-01 -0.31201559938E-01  0.93623631458E-01  0.10785459613E+00  0.51100000000E-03 0.  1.
</event>
<event>
 8    1  0.2039519E+004  0.1043930E+01  0.7957747E-01            NaN
         13   -1    0    0    0    0  0.00000000000E+00  0.00000000000E+00  0.74505805969E-08  0.10566000000E+00  0.10566000000E+00 0. -1.
     999900   -1    0    0    0    0 -0.00000000000E+00 -0.00000000000E+00 -0.74505805969E-08  0.93827000000E+00  0.93827000000E+00 0.  1.
     999902    2    1    2    0    0  0.71690561607E-02 -0.94896113229E-02  0.50595123957E-02  0.10310053431E+01  0.10309243284E+01 0.  0.
     999903    2    3    3    0    0  0.54156650463E-01  0.11751628196E+00  0.30232026057E-01  0.14029103070E+00  0.44995317295E-01 0.  0.
         14    1    1    2    0    0 -0.71690561607E-02  0.94896113229E-02 -0.50595123957E-02  0.12924656861E-01  0.00000000000E+00 0.  1.
     999901    1    3    3    0    0 -0.46987594302E-01 -0.12700589329E+00 -0.25172513662E-01  0.89071431244E+00  0.88000000000E+00 0.  1.
        -11    1    4    4    0    0 -0.66639036884E-02  0.27295005003E-01  0.82135687576E-02  0.29277102712E-01  0.51100000000E-03 0. -1.
         11    1    4    4    0    0  0.60820554151E-01  0.90221276960E-01  0.22018457300E-01  0.11101392798E+00  0.51100000000E-03 0.  1.
</event>
<event>
 8    1  0.2039519E+004  0.1043930E+01  0.7957747E-01            NaN
         13   -1    0    0    0    0  0.00000000000E+00  0.00000000000E+00  0.74505805969E-08  0.10566000000E+00  0.10566000000E+00 0. -1.
     999900   -1    0    0    0    0 -0.00000000000E+00 -0.00000000000E+00 -0.74505805969E-08  0.93827000000E+00  0.93827000000E+00 0. -1.
     999902    2    1    2    0    0 -0.73939431694E-03 -0.11118391545E-01 -0.70405500736E-02  0.10307491548E+01  0.10306648754E+01 0.  0.
     999903    2    3    3    0    0 -0.42082074491E-01 -0.12723945197E+00 -0.14984627157E-01  0.14212300944E+00  0.44873507016E-01 0.  0.
         14    1    1    2    0    0  0.73939431694E-03  0.11118391545E-01  0.70405500736E-02  0.13180845187E-01  0.00000000000E+00 0. -1.
     999901    1    3    3    0    0  0.41342680174E-01  0.11612106042E+00  0.79440770837E-02  0.88862614537E+00  0.88000000000E+00 0. -1.
        -11    1    4    4    0    0 -0.40105957332E-01 -0.52582142300E-01 -0.13074091159E-01  0.67413370210E-01  0.51100000000E-03 0.  1.
         11    1    4    4    0    0 -0.19761171589E-02 -0.74657309665E-01 -0.19105359986E-02  0.74709639232E-01  0.51100000000E-03 0. -1.
</event>
<event>
 8    1  0.2039519E+004  0.1043930E+01  0.7957747E-01            NaN
         13   -1    0    0    0    0  0.00000000000E+00  0.00000000000E+00  0.74505805969E-08  0.10566000000E+00  0.10566000000E+00 0.  1.
     999900   -1    0    0    0    0 -0.00000000000E+00 -0.00000000000E+00 -0.74505805969E-08  0.93827000000E+00  0.93827000000E+00 0. -1.
     999902    2    1    2    0    0  0.20740179798E-02  0.88454776065E-02 -0.11184092082E-01  0.10295206995E+01  0.10294198574E+01 0.  0.
     999903    2    3    3    0    0  0.96749676532E-01 -0.53727424919E-01 -0.73336412364E-01  0.14005919986E+00  0.44623020858E-01 0.  0.
         14    1    1    2    0    0 -0.20740179798E-02 -0.88454776065E-02  0.11184092082E-01  0.14409300482E-01  0.00000000000E+00 0.  1.
     999901    1    3    3    0    0 -0.94675658552E-01  0.62572902525E-01  0.62152320282E-01  0.88946149966E+00  0.88000000000E+00 0.  1.
        -11    1    4    4    0    0  0.59315153617E-01 -0.11380501390E-01 -0.23861674660E-01  0.64941850136E-01  0.51100000000E-03 0. -1.
         11    1    4    4    0    0  0.37434522915E-01 -0.42346923529E-01 -0.49474737703E-01  0.75117349728E-01  0.51100000000E-03 0.  1.
</event>
<event>
 8    1  0.2039519E+004  0.1043930E+01  0.7957747E-01            NaN
         13   -1    0    0    0    0  0.00000000000E+00  0.00000000000E+00  0.74505805969E-08  0.10566000000E+00  0.10566000000E+00 0. -1.
     999900   -1    0    0    0    0 -0.00000000000E+00 -0.00000000000E+00 -0.74505805969E-08  0.93827000000E+00  0.93827000000E+00 0.  1.
     999902    2    1    2    0    0 -0.68535668654E-02  0.10945085350E-01 -0.75599795832E-02  0.10289660579E+01  0.10288572441E+01 0.  0.
     999903    2    3    3    0    0 -0.11576996466E-01 -0.10644911932E+00  0.73376763828E-01  0.13747603186E+00  0.45277676790E-01 0.  0.
         14    1    1    2    0    0  0.68535668654E-02 -0.10945085350E-01  0.75599795832E-02  0.14963942108E-01  0.00000000000E+00 0.  1.
     999901    1    3    3    0    0  0.47234296003E-02  0.11739420467E+00 -0.80936743411E-01  0.89149002603E+00  0.88000000000E+00 0.  1.
        -11    1    4    4    0    0  0.14540679807E-01 -0.43037913897E-01  0.16351555027E-01  0.48283826222E-01  0.51100000000E-03 0. -1.
         11    1    4    4    0    0 -0.26117676273E-01 -0.63411205423E-01  0.57025208801E-01  0.89192205640E-01  0.51100000000E-03 0.  1.
</event>
<event>
 8    1  0.2039519E+004  0.1043930E+01  0.7957747E-01            NaN
         13   -1    0    0    0    0  0.00000000000E+00  0.00000000000E+00  0.74505805969E-08  0.10566000000E+00  0.10566000000E+00 0. -1.
     999900   -1    0    0    0    0 -0.00000000000E+00 -0.00000000000E+00 -0.74505805969E-08  0.93827000000E+00  0.93827000000E+00 0.  1.
     999902    2    1    2    0    0 -0.69750945527E-02 -0.65498394360E-02 -0.11221708465E-01  0.10291828280E+01  0.10290771664E+01 0.  0.
     999903    2    3    3    0    0  0.37196313633E-01  0.71399374307E-01 -0.10501580547E+00  0.13967480340E+00  0.44713475682E-01 0.  0.
         14    1    1    2    0    0  0.69750945527E-02  0.65498394360E-02  0.11221708465E-01  0.14747171984E-01  0.00000000000E+00 0.  1.
     999901    1    3    3    0    0 -0.44171408185E-01 -0.77949213743E-01  0.93794097002E-01  0.88950802462E+00  0.88000000000E+00 0. -1.
        -11    1    4    4    0    0  0.11960240375E-01  0.49535659843E-01 -0.89185749504E-01  0.10271897576E+00  0.51100000000E-03 0. -1.
         11    1    4    4    0    0  0.25236073258E-01  0.21863714464E-01 -0.15830055963E-01  0.36955827638E-01  0.51100000000E-03 0.  1.
</event>
<event>
 8    1  0.2039519E+004  0.1043930E+01  0.7957747E-01            NaN
         13   -1    0    0    0    0  0.00000000000E+00  0.00000000000E+00  0.74505805969E-08  0.10566000000E+00  0.10566000000E+00 0. -1.
     999900   -1    0    0    0    0 -0.00000000000E+00 -0.00000000000E+00 -0.74505805969E-08  0.93827000000E+00  0.93827000000E+00 0. -1.
     999902    2    1    2    0    0 -0.14032938063E-01  0.47030694059E-03 -0.24673658988E-02  0.10296740387E+01  0.10295753462E+01 0.  0.
     999903    2    3    3    0    0  0.56315684558E-01 -0.11206219820E+00  0.37018826866E-01  0.13884765106E+00  0.46678518308E-01 0.  0.
         14    1    1    2    0    0  0.14032938063E-01 -0.47030694059E-03  0.24673658988E-02  0.14255961341E-01  0.00000000000E+00 0. -1.
     999901    1    3    3    0    0 -0.70348622621E-01  0.11253250514E+00 -0.39486192765E-01  0.89082638760E+00  0.88000000000E+00 0.  1.
        -11    1    4    4    0    0  0.57447922029E-01 -0.87429896720E-01  0.43573871168E-01  0.11332781634E+00  0.51100000000E-03 0.  1.
         11    1    4    4    0    0 -0.11322374706E-02 -0.24632301477E-01 -0.65550443018E-02  0.25519834728E-01  0.51100000000E-03 0. -1.
</event>
<event>
 8    1  0.2039519E+004  0.1043930E+01  0.7957747E-01            NaN
         13   -1    0    0    0    0  0.00000000000E+00  0.00000000000E+00  0.74505805969E-08  0.10566000000E+00  0.10566000000E+00 0.  1.
     999900   -1    0    0    0    0 -0.00000000000E+00 -0.00000000000E+00 -0.74505805969E-08  0.93827000000E+00  0.93827000000E+00 0. -1.
     999902    2    1    2    0    0  0.40628284766E-02 -0.13531093028E-01 -0.16810514800E-01  0.10219711644E+01  0.10217352252E+01 0.  0.
     999903    2    3    3    0    0 -0.12210221845E+00  0.20303204299E-01  0.35453044004E-02  0.13209660125E+00  0.45997511034E-01 0.  0.
         14    1    1    2    0    0 -0.40628284766E-02  0.13531093028E-01  0.16810514800E-01  0.21958835616E-01  0.00000000000E+00 0.  1.
     999901    1    3    3    0    0  0.12616504693E+00 -0.33834297328E-01 -0.20355819200E-01  0.88987456314E+00  0.88000000000E+00 0.  1.
        -11    1    4    4    0    0 -0.57307474119E-01  0.27917792607E-01 -0.12378686409E-01  0.64938761400E-01  0.51100000000E-03 0.  1.
         11    1    4    4    0    0 -0.64794744336E-01 -0.76145883076E-02  0.15923990810E-01  0.67157839847E-01  0.51100000000E-03 0. -1.
</event>
<event>
 8    1  0.2039519E+004  0.1043930E+01  0.7957747E-01            NaN
         13   -1    0    0    0    0  0.00000000000E+00  0.00000000000E+00  0.74505805969E-08  0.10566000000E+00  0.10566000000E+00 0. -1.
     999900   -1    0    0    0    0 -0.00000000000E+00 -0.00000000000E+00 -0.74505805969E-08  0.93827000000E+00  0.93827000000E+00 0.  1.
     999902    2    1    2    0    0 -0.84630485355E-02  0.78524358473E-02 -0.78005122512E-02  0.10299968765E+01  0.10299026331E+01 0.  0.
     999903    2    3    3    0    0  0.12316057522E+00 -0.44207367144E-01  0.81066402200E-02  0.13854410774E+00  0.44787649806E-01 0.  0.
         14    1    1    2    0    0  0.84630485355E-02 -0.78524358473E-02  0.78005122512E-02  0.13933123506E-01  0.00000000000E+00 0.  1.
     999901    1    3    3    0    0 -0.13162362376E+00  0.52059802991E-01 -0.15907152471E-01  0.89145276875E+00  0.88000000000E+00 0.  1.
        -11    1    4    4    0    0  0.61604154882E-01  0.13404399595E-02  0.63457160801E-02  0.61946734471E-01  0.51100000000E-03 0.  1.
         11    1    4    4    0    0  0.61556420340E-01 -0.45547807103E-01  0.17609241399E-02  0.76597373270E-01  0.51100000000E-03 0. -1.
</event>
<event>
 8    1  0.2039519E+004  0.1043930E+01  0.7957747E-01            NaN
         13   -1    0    0    0    0  0.00000000000E+00  0.00000000000E+00  0.74505805969E-08  0.10566000000E+00  0.10566000000E+00 0.  1.
     999900   -1    0    0    0    0 -0.00000000000E+00 -0.00000000000E+00 -0.74505805969E-08  0.93827000000E+00  0.93827000000E+00 0. -1.
     999902    2    1    2    0    0 -0.88963763815E-02 -0.33496239311E-02 -0.86517403922E-02  0.10310762805E+01  0.10309961581E+01 0.  0.
     999903    2    3    3    0    0  0.80418421556E-01  0.96191926648E-01  0.42127337386E-01  0.13952472946E+00  0.44412028746E-01 0.  0.
         14    1    1    2    0    0  0.88963763815E-02  0.33496239311E-02  0.86517403922E-02  0.12853719501E-01  0.00000000000E+00 0.  1.
     999901    1    3    3    0    0 -0.89314797937E-01 -0.99541550579E-01 -0.50779077779E-01  0.89155155104E+00  0.88000000000E+00 0. -1.
        -11    1    4    4    0    0  0.27831408584E-01  0.58143032133E-01  0.47870825283E-02  0.64640364862E-01  0.51100000000E-03 0. -1.
         11    1    4    4    0    0  0.52587012972E-01  0.38048894515E-01  0.37340254858E-01  0.74884364597E-01  0.51100000000E-03 0.  1.
</event>
<event>
 8    1  0.2039519E+004  0.1043930E+01  0.7957747E-01            NaN
         13   -1    0    0    0    0  0.00000000000E+00  0.00000000000E+00  0.74505805969E-08  0.10566000000E+00  0.10566000000E+00 0. -1.
     999900   -1    0    0    0    0 -0.00000000000E+00 -0.00000000000E+00 -0.74505805969E-08  0.93827000000E+00  0.93827000000E+00 0. -1.
     999902    2    1    2    0    0  0.77818203328E-02  0.11885620897E-02  0.69003684514E-03  0.10360277498E+01  0.10359976123E+01 0.  0.
     999903    2    3    3    0    0  0.37883110358E-01  0.13274081045E+00 -0.12291594099E-01  0.14564546984E+00  0.44791369596E-01 0.  0.
         14    1    1    2    0    0 -0.77818203328E-02 -0.11885620897E-02 -0.69003684514E-03  0.79022502099E-02  0.00000000000E+00 0. -1.
     999901    1    3    3    0    0 -0.30101290025E-01 -0.13155224836E+00  0.12981630944E-01  0.89038227995E+00  0.88000000000E+00 0.  1.
        -11    1    4    4    0    0  0.16110896583E-01  0.10604238109E+00  0.44214765615E-02  0.10735156334E+00  0.51100000000E-03 0. -1.
         11    1    4    4    0    0  0.21772213775E-01  0.26698429356E-01 -0.16713070661E-01  0.38293906495E-01  0.51100000000E-03 0.  1.
</event>
<event>
 8    1  0.2039519E+004  0.1043930E+01  0.7957747E-01            NaN
         13   -1    0    0    0    0  0.00000000000E+00  0.00000000000E+00  0.74505805969E-08  0.10566000000E+00  0.10566000000E+00 0.  1.
     999900   -1    0    0    0    0 -0.00000000000E+00 -0.00000000000E+00 -0.74505805969E-08  0.93827000000E+00  0.93827000000E+00 0. -1.
     999902    2    1    2    0    0  0.12073064720E-01  0.15119326854E-02  0.53153910371E-02  0.10306522662E+01  0.10305667352E+01 0.  0.
     999903    2    3    3    0    0  0.80637047570E-01  0.79694798699E-01  0.72382650499E-01  0.14199507835E+00  0.45494612881E-01 0.  0.
         14    1    1    2    0    0 -0.12073064720E-01 -0.15119326854E-02 -0.53153910371E-02  0.13277733770E-01  0.00000000000E+00 0. -1.
     999901    1    3    3    0    0 -0.68563982850E-01 -0.78182866014E-01 -0.67067259462E-01  0.88865718788E+00  0.88000000000E+00 0.  1.
        -11    1    4    4    0    0  0.64301110082E-01  0.38260784186E-01  0.30328613029E-01  0.80737886110E-01  0.51100000000E-03 0. -1.
         11    1    4    4    0    0  0.16335937488E-01  0.41434014513E-01  0.42054037470E-01  0.61257192238E-01  0.51100000000E-03 0.  1.
</event>
<event>
 8    1  0.2039519E+004  0.1043930E+01  0.7957747E-01            NaN
         13   -1    0    0    0    0  0.00000000000E+00  0.00000000000E+00  0.74505805969E-08  0.10566000000E+00  0.10566000000E+00 0. -1.
     999900   -1    0    0    0    0 -0.00000000000E+00 -0.00000000000E+00 -0.74505805969E-08  0.93827000000E+00  0.93827000000E+00 0. -1.
     999902    2    1    2    0    0 -0.52703400626E-03 -0.21009174033E-02  0.13529039130E-01  0.10302286673E+01  0.10301375541E+01 0.  0.
     999903    2    3    3    0    0  0.10507297448E-02 -0.10874370304E+00  0.78476127717E-01  0.14141299606E+00  0.44864639208E-01 0.  0.
         14    1    1    2    0    0  0.52703400626E-03  0.21009174033E-02 -0.13529039130E-01  0.13701332729E-01  0.00000000000E+00 0.  1.
     999901    1    3    3    0    0 -0.15777637511E-02  0.10664278563E+00 -0.64947088587E-01  0.88881567121E+00  0.88000000000E+00 0. -1.
        -11    1    4    4    0    0  0.20616198881E-01 -0.81188198865E-01  0.58170007274E-01  0.10198314644E+00  0.51100000000E-03 0. -1.
         11    1    4    4    0    0 -0.19565469136E-01 -0.27555504171E-01  0.20306120444E-01  0.39429849621E-01  0.51100000000E-03 0.  1.
</event>
<event>
 8    1  0.2039519E+004  0.1043930E+01  0.7957747E-01            NaN
         13   -1    0    0    0    0  0.00000000000E+00  0.00000000000E+00  0.74505805969E-08  0.10566000000E+00  0.10566000000E+00 0. -1.
     999900   -1    0    0    0    0 -0.00000000000E+00 -0.00000000000E+00 -0.74505805969E-08  0.93827000000E+00  0.93827000000E+00 0.  1.
     999902    2    1    2    0    0  0.61942827116E-02  0.79287876993E-02  0.87340025716E-02  0.10306064264E+01  0.10305202999E+01 0.  0.
     999903    2    3    3    0    0  0.53827206540E-01  0.34230297889E-01 -0.11595470791E+00  0.14015264354E+00  0.46132285317E-01 0.  0.
         14    1    1    2    0    0 -0.61942827116E-02 -0.79287876993E-02 -0.87340025716E-02  0.13323573605E-01  0.00000000000E+00 0.  1.
     999901    1    3    3    0    0 -0.47632923829E-01 -0.26301510190E-01  0.12468871048E+00  0.89045378285E+00  0.88000000000E+00 0. -1.
        -11    1    4    4    0    0 -0.14543210902E-02 -0.83996505158E-02 -0.17334804110E-01  0.19324226587E-01  0.51100000000E-03 0.  1.
         11    1    4    4    0    0  0.55281527631E-01  0.42629948405E-01 -0.98619903799E-01  0.12082841696E+00  0.51100000000E-03 0. -1.
</event>
<event>
 8    1  0.2039519E+004  0.1043930E+01  0.7957747E-01            NaN
         13   -1    0    0    0    0  0.00000000000E+00  0.00000000000E+00  0.74505805969E-08  0.10566000000E+00  0.10566000000E+00 0.  1.
     999900   -1    0    0    0    0 -0.00000000000E+00 -0.00000000000E+00 -0.74505805969E-08  0.93827000000E+00  0.93827000000E+00 0. -1.
     999902    2    1    2    0    0  0.12091032910E-01  0.46012484615E-02  0.72636884258E-02  0.10290933651E+01  0.10289864083E+01 0.  0.
     999903    2    3    3    0    0  0.71913754950E-01  0.11162326754E+00  0.74786217257E-02  0.14059321499E+00  0.45598029675E-01 0.  0.
         14    1    1    2    0    0 -0.12091032910E-01 -0.46012484615E-02 -0.72636884258E-02  0.14836634854E-01  0.00000000000E+00 0. -1.
     999901    1    3    3    0    0 -0.59822722040E-01 -0.10702201908E+00 -0.21493329986E-03  0.88850015016E+00  0.88000000000E+00 0. -1.
        -11    1    4    4    0    0  0.51514022390E-01  0.52434788067E-01  0.21192290636E-01  0.76501475841E-01  0.51100000000E-03 0. -1.
         11    1    4    4    0    0  0.20399732560E-01  0.59188479471E-01 -0.13713668911E-01  0.64091739145E-01  0.51100000000E-03 0.  1.
</event>
<event>
 8    1  0.2039519E+004  0.1043930E+01  0.7957747E-01            NaN
         13   -1    0    0    0    0  0.00000000000E+00  0.00000000000E+00  0.74505805969E-08  0.10566000000E+00  0.10566000000E+00 0.  1.
     999900   -1    0    0    0    0 -0.00000000000E+00 -0.00000000000E+00 -0.74505805969E-08  0.93827000000E+00  0.93827000000E+00 0.  1.
     999902    2    1    2    0    0  0.13153487694E-01 -0.95644997427E-03 -0.49318728167E-02  0.10298497868E+01  0.10297535292E+01 0.  0.
     999903    2    3    3    0    0  0.65486004358E-01  0.52833955491E-01  0.10246560218E+00  0.14014965883E+00  0.45418978633E-01 0.  0.
         14    1    1    2    0    0 -0.13153487694E-01  0.95644997427E-03  0.49318728167E-02  0.14080213228E-01  0.00000000000E+00 0. -1.
     999901    1    3    3    0    0 -0.52332516664E-01 -0.53790405465E-01 -0.10739747500E+00  0.88970012794E+00  0.88000000000E+00 0.  1.
        -11    1    4    4    0    0  0.11668932370E-01 -0.64343005390E-02  0.27078041811E-01  0.30183533183E-01  0.51100000000E-03 0.  1.
         11    1    4    4    0    0  0.53817071988E-01  0.59268256030E-01  0.75387560373E-01  0.10996612565E+00  0.51100000000E-03 0. -1.
</event>
<event>
 8    1  0.2039519E+004  0.1043930E+01  0.7957747E-01            NaN
         13   -1    0    0    0    0  0.00000000000E+00  0.00000000000E+00  0.74505805969E-08  0.10566000000E+00  0.10566000000E+00 0. -1.
     999900   -1    0    0    0    0 -0.00000000000E+00 -0.00000000000E+00 -0.74505805969E-08  0.93827000000E+00  0.93827000000E+00 0.  1.
     999902    2    1    2    0    0  0.27898600438E-02  0.41464897577E-02 -0.12060053339E-01  0.10308754382E+01  0.10307927763E+01 0.  0.
     999903    2    3    3    0    0 -0.85964255514E-01 -0.45174582410E-02  0.99952653943E-01  0.13930423882E+00  0.44775855875E-01 0.  0.
         14    1    1    2    0    0 -0.27898600438E-02 -0.41464897577E-02  0.12060053339E-01  0.13054561766E-01  0.00000000000E+00 0. -1.
     999901    1    3    3    0    0  0.88754115557E-01  0.86639479986E-02 -0.11201270728E+00  0.89157119941E+00  0.88000000000E+00 0.  1.
        -11    1    4    4    0    0 -0.84121972688E-01 -0.68754365366E-02  0.71292459644E-01  0.11048372658E+00  0.51100000000E-03 0.  1.
         11    1    4    4    0    0 -0.18422828258E-02  0.23579782956E-02  0.28660194299E-01  0.28820512243E-01  0.51100000000E-03 0. -1.
</event>
<event>
 8    1  0.2039519E+004  0.1043930E+01  0.7957747E-01            NaN
         13   -1    0    0    0    0  0.00000000000E+00  0.00000000000E+00  0.74505805969E-08  0.10566000000E+00  0.10566000000E+00 0.  1.
     999900   -1    0    0    0    0 -0.00000000000E+00 -0.00000000000E+00 -0.74505805969E-08  0.93827000000E+00  0.93827000000E+00 0.  1.
     999902    2    1    2    0    0 -0.10425601868E-01 -0.87543551422E-02 -0.45677880720E-02  0.10295704528E+01  0.10294703107E+01 0.  0.
     999903    2    3    3    0    0  0.52543783523E-01 -0.69662778788E-01  0.98812689822E-01  0.13919833801E+00  0.44704336469E-01 0.  0.
         14    1    1    2    0    0  0.10425601868E-01  0.87543551422E-02  0.45677880720E-02  0.14359547212E-01  0.00000000000E+00 0. -1.
     999901    1    3    3    0    0 -0.62969385391E-01  0.60908423646E-01 -0.10338047789E+00  0.89037211478E+00  0.88000000000E+00 0.  1.
        -11    1    4    4    0    0  0.26491651095E-01 -0.32468769299E-02  0.26451642447E-01  0.37580584039E-01  0.51100000000E-03 0.  1.
         11    1    4    4    0    0  0.26052132427E-01 -0.66415901858E-01  0.72361047374E-01  0.10161775397E+00  0.51100000000E-03 0. -1.
</event>
<event>
 8    1  0.2039519E+004  0.1043930E+01  0.7957747E-01            NaN
         13   -1    0    0    0    0  0.00000000000E+00  0.00000000000E+00  0.74505805969E-08  0.10566000000E+00  0.10566000000E+00 0. -1.
     999900   -1    0    0    0    0 -0.00000000000E+00 -0.00000000000E+00 -0.74505805969E-08  0.93827000000E+00  0.93827000000E+00 0. -1.
     999902    2    1    2    0    0  0.12328657201E-01  0.46525078980E-02 -0.37443780284E-02  0.10302310225E+01  0.10301399408E+01 0.  0.
     999903    2    3    3    0    0  0.91131757727E-01 -0.97266660152E-01  0.55824574784E-02  0.14080174743E+00  0.45035184065E-01 0.  0.
         14    1    1    2    0    0 -0.12328657201E-01 -0.46525078980E-02  0.37443780284E-02  0.13698977514E-01  0.00000000000E+00 0. -1.
     999901    1    3    3    0    0 -0.78803100527E-01  0.10191916805E+00 -0.93268355067E-02  0.88942927506E+00  0.88000000000E+00 0. -1.
        -11    1    4    4    0    0  0.59440300467E-01 -0.39481796415E-01  0.18323422018E-01  0.73674761508E-01  0.51100000000E-03 0.  1.
         11    1    4    4    0    0  0.31691457260E-01 -0.57784863737E-01 -0.12740964539E-01  0.67126985920E-01  0.51100000000E-03 0. -1.
</event>
<event>
 8    1  0.2039519E+004  0.1043930E+01  0.7957747E-01            NaN
         13   -1    0    0    0    0  0.00000000000E+00  0.00000000000E+00  0.74505805969E-08  0.10566000000E+00  0.10566000000E+00 0.  1.
     999900   -1    0    0    0    0 -0.00000000000E+00 -0.00000000000E+00 -0.74505805969E-08  0.93827000000E+00  0.93827000000E+00 0.  1.
     999902    2    1    2    0    0  0.60168795468E-02  0.77722469470E-02 -0.96963691568E-02  0.10301231091E+01  0.10300305770E+01 0.  0.
     999903    2    3    3    0    0  0.83807040957E-01  0.98879285707E-01 -0.35449772930E-01  0.14163279426E+00  0.44748505591E-01 0.  0.
         14    1    1    2    0    0 -0.60168795468E-02 -0.77722469470E-02  0.96963691568E-02  0.13806890921E-01  0.00000000000E+00 0.  1.
     999901    1    3    3    0    0 -0.77790161410E-01 -0.91107038760E-01  0.25753403774E-01  0.88849031482E+00  0.88000000000E+00 0.  1.
        -11    1    4    4    0    0  0.16019477245E-01  0.12801807803E-03 -0.10843559317E-01  0.19351587518E-01  0.51100000000E-03 0. -1.
         11    1    4    4    0    0  0.67787563712E-01  0.98751267629E-01 -0.24606213614E-01  0.12228120674E+00  0.51100000000E-03 0.  1.
</event>
<event>
 8    1  0.2039519E+004  0.1043930E+01  0.7957747E-01            NaN
         13   -1    0    0    0    0  0.00000000000E+00  0.00000000000E+00  0.74505805969E-08  0.10566000000E+00  0.10566000000E+00 0. -1.
     999900   -1    0    0    0    0 -0.00000000000E+00 -0.00000000000E+00 -0.74505805969E-08  0.93827000000E+00  0.93827000000E+00 0. -1.
     999902    2    1    2    0    0 -0.36405114267E-03  0.61119275045E-02 -0.13620071250E-01  0.10289969986E+01  0.10288886376E+01 0.  0.
     999903    2    3    3    0    0 -0.67152440402E-01 -0.10981219683E+00 -0.26754007191E-01  0.13878826359E+00  0.44477369367E-01 0.  0.
         14    1    1    2    0    0  0.36405114267E-03 -0.61119275045E-02  0.13620071250E-01  0.14933001437E-01  0.00000000000E+00 0. -1.
     999901    1    3    3    0    0  0.66788389260E-01  0.11592412434E+00  0.13133935941E-01  0.89020873497E+00  0.88000000000E+00 0. -1.
        -11    1    4    4    0    0 -0.24451092577E-01 -0.31226679905E-01  0.11816850879E-01  0.41386719510E-01  0.51100000000E-03 0.  1.
         11    1    4    4    0    0 -0.42701347825E-01 -0.78585516925E-01 -0.38570858071E-01  0.97401544083E-01  0.51100000000E-03 0. -1.
</event>
<event>
 8    1  0.2039519E+004  0.1043930E+01  0.7957747E-01            NaN
         13   -1    0    0    0    0  0.00000000000E+00  0.00000000000E+00  0.74505805969E-08  0.10566000000E+00  0.10566000000E+00 0. -1.
     999900   -1    0    0    0    0 -0.00000000000E+00 -0.00000000000E+00 -0.74505805969E-08  0.93827000000E+00  0.93827000000E+00 0. -1.
     999902    2    1    2    0    0  0.54550207545E-02  0.54621547842E-02  0.12090239681E-01  0.10295854442E+01  0.10294855126E+01 0.  0.
     999903    2    3    3    0    0  0.82234613546E-01  0.21443733094E-01 -0.10030920137E+00  0.13897657881E+00  0.45057610064E-01 0.  0.
         14    1    1    2    0    0 -0.54550207545E-02 -0.54621547842E-02 -0.12090239681E-01  0.14344555826E-01  0.00000000000E+00 0.  1.
     999901    1    3    3    0    0 -0.76779592791E-01 -0.15981578310E-01  0.11239944105E+00  0.89060886536E+00  0.88000000000E+00 0.  1.
        -11    1    4    4    0    0  0.43566192172E-01 -0.10805052907E-01 -0.37619750647E-01  0.58568498602E-01  0.51100000000E-03 0.  1.
         11    1    4    4    0    0  0.38668421374E-01  0.32248786002E-01 -0.62689450722E-01  0.80408080209E-01  0.51100000000E-03 0. -1.
</event>
<event>
 8    1  0.2039519E+004  0.1043930E+01  0.7957747E-01            NaN
         13   -1    0    0    0    0  0.00000000000E+00  0.00000000000E+00  0.74505805969E-08  0.10566000000E+00  0.10566000000E+00 0.  1.
     999900   -1    0    0    0    0 -0.00000000000E+00 -0.00000000000E+00 -0.74505805969E-08  0.93827000000E+00  0.93827000000E+00 0. -1.
     999902    2    1    2    0    0 -0.10151898142E-01 -0.11333352320E-02 -0.95881668934E-02  0.10299200596E+01  0.10298247670E+01 0.  0.
     999903    2    3    3    0    0 -0.53555794443E-01 -0.53137449286E-01 -0.11090005221E+00  0.14152126169E+00  0.45140162771E-01 0.  0.
         14    1    1    2    0    0  0.10151898142E-01  0.11333352320E-02  0.95881668934E-02  0.14009940365E-01  0.00000000000E+00 0.  1.
     999901    1    3    3    0    0  0.43403896300E-01  0.52004114054E-01  0.10131188531E+00  0.88839879795E+00  0.88000000000E+00 0.  1.
        -11    1    4    4    0    0 -0.32982638227E-01 -0.39465461741E-01 -0.36350317873E-01  0.62983996582E-01  0.51100000000E-03 0.  1.
         11    1    4    4    0    0 -0.20573156216E-01 -0.13671987544E-01 -0.74549734332E-01  0.78537265104E-01  0.51100000000E-03 0. -1.
</event>
<event>
 8    1  0.2039519E+004  0.1043930E+01  0.7957747E-01            NaN
         13   -1    0    0    0    0  0.00000000000E+00  0.00000000000E+00  0.74505805969E-08  0.10566000000E+00  0.10566000000E+00 0. -1.
     999900   -1    0    0    0    0 -0.00000000000E+00 -0.00000000000E+00 -0.74505805969E-08  0.93827000000E+00  0.93827000000E+00 0. -1.
     999902    2    1    2    0    0 -0.14805311742E-01  0.17447839749E-02  0.84736910910E-02  0.10267822606E+01  0.10266390630E+01 0.  0.
     999903    2    3    3    0    0  0.11607700725E+00 -0.13412008034E-02  0.55388861750E-01  0.13586097450E+00  0.43756233332E-01 0.  0.
         14    1    1    2    0    0  0.14805311742E-01 -0.17447839749E-02 -0.84736910910E-02  0.17147739431E-01  0.00000000000E+00 0. -1.
     999901    1    3    3    0    0 -0.13088231899E+00  0.30859847783E-02 -0.46915170659E-01  0.89092128607E+00  0.88000000000E+00 0. -1.
        -11    1    4    4    0    0  0.98249449979E-01  0.15374361046E-01  0.41604535548E-01  0.10779853384E+00  0.51100000000E-03 0. -1.
         11    1    4    4    0    0  0.17827557270E-01 -0.16715561849E-01  0.13784326202E-01  0.28062440664E-01  0.51100000000E-03 0.  1.
</event>
<event>
 8    1  0.2039519E+004  0.1043930E+01  0.7957747E-01            NaN
         13   -1    0    0    0    0  0.00000000000E+00  0.00000000000E+00  0.74505805969E-08  0.10566000000E+00  0.10566000000E+00 0. -1.
     999900   -1    0    0    0    0 -0.00000000000E+00 -0.00000000000E+00 -0.74505805969E-08  0.93827000000E+00  0.93827000000E+00 0. -1.
     999902    2    1    2    0    0 -0.55438735036E-02  0.87600818322E-02  0.12917904733E-01  0.10273666118E+01  0.10272330841E+01 0.  0.
     999903    2    3    3    0    0  0.90814914728E-01 -0.43647977215E-01  0.81997288063E-01  0.13787035999E+00  0.46175602452E-01 0.  0.
         14    1    1    2    0    0  0.55438735036E-02 -0.87600818322E-02 -0.12917904733E-01  0.16563388235E-01  0.00000000000E+00 0.  1.
     999901    1    3    3    0    0 -0.96358788232E-01  0.52408059047E-01 -0.69079383330E-01  0.88949625178E+00  0.88000000000E+00 0. -1.
        -11    1    4    4    0    0  0.49598798443E-01 -0.20074483051E-01  0.14672439895E-01  0.55484838382E-01  0.51100000000E-03 0.  1.
         11    1    4    4    0    0  0.41216116285E-01 -0.23573494163E-01  0.67324848168E-01  0.82385521607E-01  0.51100000000E-03 0. -1.
</event>
<event>
 8    1  0.2039519E+004  0.1043930E+01  0.7957747E-01            NaN
         13   -1    0    0    0    0  0.00000000000E+00  0.00000000000E+00  0.74505805969E-08  0.10566000000E+00  0.10566000000E+00 0. -1.
     999900   -1    0    0    0    0 -0.00000000000E+00 -0.00000000000E+00 -0.74505805969E-08  0.93827000000E+00  0.93827000000E+00 0. -1.
     999902    2    1    2    0    0  0.10234732686E-01  0.86035341724E-02  0.20863393513E-02  0.10303976918E+01  0.10303088274E+01 0.  0.
     999903    2    3    3    0    0 -0.41095109858E-01  0.11490095686E+00  0.54451604730E-01  0.14097314985E+00  0.44915629566E-01 0.  0.
         14    1    1    2    0    0 -0.10234732686E-01 -0.86035341724E-02 -0.20863393513E-02  0.13532308203E-01  0.00000000000E+00 0.  1.
     999901    1    3    3    0    0  0.51329842545E-01 -0.10629742268E+00 -0.52365265378E-01  0.88942454195E+00  0.88000000000E+00 0.  1.
        -11    1    4    4    0    0  0.45115220408E-02  0.33215561288E-01  0.28189214061E-01  0.43800916123E-01  0.51100000000E-03 0.  1.
         11    1    4    4    0    0 -0.45606631899E-01  0.81685395568E-01  0.26262390669E-01  0.97172233724E-01  0.51100000000E-03 0. -1.
</event>
<event>
 8    1  0.2039519E+004  0.1043930E+01  0.7957747E-01            NaN
         13   -1    0    0    0    0  0.00000000000E+00  0.00000000000E+00  0.74505805969E-08  0.10566000000E+00  0.10566000000E+00 0.  1.
     999900   -1    0    0    0    0 -0.00000000000E+00 -0.00000000000E+00 -0.74505805969E-08  0.93827000000E+00  0.93827000000E+00 0. -1.
     999902    2    1    2    0    0  0.12486792762E-02 -0.98674614905E-02 -0.10327815177E-01  0.10295915983E+01  0.10294917530E+01 0.  0.
     999903    2    3    3    0    0  0.20577734733E-01 -0.12368680564E+00  0.43918428733E-01  0.14039470761E+00  0.45386963821E-01 0.  0.
         14    1    1    2    0    0 -0.12486792762E-02  0.98674614905E-02  0.10327815177E-01  0.14338401673E-01  0.00000000000E+00 0.  1.
     999901    1    3    3    0    0 -0.19329055457E-01  0.11381934415E+00 -0.54246243910E-01  0.88919689072E+00  0.88000000000E+00 0. -1.
        -11    1    4    4    0    0  0.13476361978E-01 -0.81136062552E-02  0.13343472982E-01  0.20633766763E-01  0.51100000000E-03 0.  1.
         11    1    4    4    0    0  0.71013727555E-02 -0.11557319939E+00  0.30574955750E-01  0.11976094084E+00  0.51100000000E-03 0. -1.
</event>
<event>
 8    1  0.2039519E+004  0.1043930E+01  0.7957747E-01            NaN
         13   -1    0    0    0    0  0.00000000000E+00  0.00000000000E+00  0.74505805969E-08  0.10566000000E+00  0.10566000000E+00 0. -1.
     999900   -1    0    0    0    0 -0.00000000000E+00 -0.00000000000E+00 -0.74505805969E-08  0.93827000000E+00  0.93827000000E+00 0. -1.
     999902    2    1    2    0    0 -0.28956444464E-02  0.78059875384E-02 -0.10448181479E-01  0.10305702584E+01  0.10304836607E+01 0.  0.
     999903    2    3    3    0    0 -0.11588084995E+00  0.50116325973E-01 -0.45486062752E-01  0.14164761022E+00  0.45332615875E-01 0.  0.
         14    1    1    2    0    0  0.28956444464E-02 -0.78059875384E-02  0.10448181479E-01  0.13359741555E-01  0.00000000000E+00 0.  1.
     999901    1    3    3    0    0  0.11298520550E+00 -0.42310338435E-01  0.35037881273E-01  0.88892264822E+00  0.88000000000E+00 0. -1.
        -11    1    4    4    0    0 -0.89121921387E-01  0.44933915403E-01 -0.15303456453E-01  0.10097638598E+00  0.51100000000E-03 0. -1.
         11    1    4    4    0    0 -0.26758928564E-01  0.51824105702E-02 -0.30182606299E-01  0.40671224241E-01  0.51100000000E-03 0.  1.
</event>
<event>
 8    1  0.2039519E+004  0.1043930E+01  0.7957747E-01            NaN
         13   -1    0    0    0    0  0.00000000000E+00  0.00000000000E+00  0.74505805969E-08  0.10566000000E+00  0.10566000000E+00 0.  1.
     999900   -1    0    0    0    0 -0.00000000000E+00 -0.00000000000E+00 -0.74505805969E-08  0.93827000000E+00  0.93827000000E+00 0.  1.
     999902    2    1    2    0    0  0.42743091589E-02  0.98770029185E-02  0.86071621169E-02  0.10301492836E+01  0.10300571044E+01 0.  0.
     999903    2    3    3    0    0  0.97572742337E-01  0.23266671708E-02 -0.88853876990E-01  0.13983458677E+00  0.46182754078E-01 0.  0.
         14    1    1    2    0    0 -0.42743091589E-02 -0.98770029185E-02 -0.86071621169E-02  0.13780716423E-01  0.00000000000E+00 0. -1.
     999901    1    3    3    0    0 -0.93298433178E-01  0.75503357477E-02  0.97461039107E-01  0.89031469681E+00  0.88000000000E+00 0. -1.
        -11    1    4    4    0    0  0.27010079562E-01 -0.20045427801E-01 -0.32765423498E-01  0.46959532277E-01  0.51100000000E-03 0.  1.
         11    1    4    4    0    0  0.70562662775E-01  0.22372094971E-01 -0.56088453492E-01  0.92875054495E-01  0.51100000000E-03 0. -1.
</event>
<event>
 8    1  0.2039519E+004  0.1043930E+01  0.7957747E-01            NaN
         13   -1    0    0    0    0  0.00000000000E+00  0.00000000000E+00  0.74505805969E-08  0.10566000000E+00  0.10566000000E+00 0.  1.
     999900   -1    0    0    0    0 -0.00000000000E+00 -0.00000000000E+00 -0.74505805969E-08  0.93827000000E+00  0.93827000000E+00 0.  1.
     999902    2    1    2    0    0  0.14804672291E-01 -0.35405816496E-02 -0.42228374831E-02  0.10281329624E+01  0.10280115962E+01 0.  0.
     999903    2    3    3    0    0  0.97713105836E-01  0.84285647900E-01 -0.27362529910E-01  0.13958206330E+00  0.45634667285E-01 0.  0.
         14    1    1    2    0    0 -0.14804672291E-01  0.35405816496E-02  0.42228374831E-02  0.15797037585E-01  0.00000000000E+00 0.  1.
     999901    1    3    3    0    0 -0.82908433546E-01 -0.87826229550E-01  0.23139692427E-01  0.88855089911E+00  0.88000000000E+00 0. -1.
        -11    1    4    4    0    0  0.77419991295E-01  0.47096338065E-01 -0.33815398206E-01  0.96724673109E-01  0.51100000000E-03 0.  1.
         11    1    4    4    0    0  0.20293114541E-01  0.37189309836E-01  0.64528682961E-02  0.42857390192E-01  0.51100000000E-03 0. -1.
</event>
<event>
 8    1  0.2039519E+004  0.1043930E+01  0.7957747E-01            NaN
         13   -1    0    0    0    0  0.00000000000E+00  0.00000000000E+00  0.74505805969E-08  0.10566000000E+00  0.10566000000E+00 0.  1.
     999900   -1    0    0    0    0 -0.00000000000E+00 -0.00000000000E+00 -0.74505805969E-08  0.93827000000E+00  0.93827000000E+00 0. -1.
     999902    2    1    2    0    0  0.71559972807E-02 -0.11010730824E-01  0.42562193075E-02  0.10301256567E+01  0.10300331591E+01 0.  0.
     999903    2    3    3    0    0  0.85944965541E-01  0.52966965877E-01 -0.85621159402E-01  0.13974439547E+00  0.44782547405E-01 0.  0.
         14    1    1    2    0    0 -0.71559972807E-02  0.11010730824E-01 -0.42562193075E-02  0.13804343272E-01  0.00000000000E+00 0. -1.
     999901    1    3    3    0    0 -0.78788968260E-01 -0.63977696701E-01  0.89877378710E-01  0.89038126126E+00  0.88000000000E+00 0.  1.
        -11    1    4    4    0    0  0.51415150892E-01  0.21412676514E-01 -0.20049156859E-01  0.59196708257E-01  0.51100000000E-03 0. -1.
         11    1    4    4    0    0  0.34529814649E-01  0.31554289362E-01 -0.65572002544E-01  0.80547687213E-01  0.51100000000E-03 0.  1.
</event>
<event>
 8    1  0.2039519E+004  0.1043930E+01  0.7957747E-01            NaN
         13   -1    0    0    0    0  0.00000000000E+00  0.00000000000E+00  0.74505805969E-08  0.10566000000E+00  0.10566000000E+00 0.  1.
     999900   -1    0    0    0    0 -0.00000000000E+00 -0.00000000000E+00 -0.74505805969E-08  0.93827000000E+00  0.93827000000E+00 0.  1.
     999902    2    1    2    0    0  0.22649261853E-02  0.85444719014E-02  0.28261063600E-04  0.10350903909E+01  0.10350526453E+01 0.  0.
     999903    2    3    3    0    0  0.12287430774E-01  0.10390133024E+00  0.89760396735E-01  0.14534591228E+00  0.46065583825E-01 0.  0.
         14    1    1    2    0    0 -0.22649261853E-02 -0.85444719014E-02 -0.28261063600E-04  0.88396091196E-02  0.00000000000E+00 0. -1.
     999901    1    3    3    0    0 -0.10022504589E-01 -0.95356858340E-01 -0.89732135671E-01  0.88974447860E+00  0.88000000000E+00 0.  1.
        -11    1    4    4    0    0  0.21990164256E-01  0.66060178269E-01  0.34594191674E-01  0.77746599254E-01  0.51100000000E-03 0. -1.
         11    1    4    4    0    0 -0.97027334819E-02  0.37841151972E-01  0.55166205061E-01  0.67599313024E-01  0.51100000000E-03 0.  1.
</event>
<event>
 8    1  0.2039519E+004  0.1043930E+01  0.7957747E-01            NaN
         13   -1    0    0    0    0  0.00000000000E+00  0.00000000000E+00  0.74505805969E-08  0.10566000000E+00  0.10566000000E+00 0.  1.
     999900   -1    0    0    0    0 -0.00000000000E+00 -0.00000000000E+00 -0.74505805969E-08  0.93827000000E+00  0.93827000000E+00 0. -1.
     999902    2    1    2    0    0 -0.58113078852E-02  0.11372129521E-01  0.78452580809E-02  0.10289418479E+01  0.10288326791E+01 0.  0.
     999903    2    3    3    0    0  0.53815011771E-01  0.10729110599E+00 -0.55497290740E-01  0.13946558259E+00  0.44308718468E-01 0.  0.
         14    1    1    2    0    0  0.58113078852E-02 -0.11372129521E-01 -0.78452580809E-02  0.14988152106E-01  0.00000000000E+00 0. -1.
     999901    1    3    3    0    0 -0.59626319656E-01 -0.95918976468E-01  0.63342548821E-01  0.88947626530E+00  0.88000000000E+00 0. -1.
        -11    1    4    4    0    0  0.32693463338E-01  0.42712379081E-01 -0.34984212639E-02  0.53904637501E-01  0.51100000000E-03 0. -1.
         11    1    4    4    0    0  0.21121548433E-01  0.64578726909E-01 -0.51998869476E-01  0.85560945093E-01  0.51100000000E-03 0.  1.
</event>
<event>
 8    1  0.2039519E+004  0.1043930E+01  0.7957747E-01            NaN
         13   -1    0    0    0    0  0.00000000000E+00  0.00000000000E+00  0.74505805969E-08  0.10566000000E+00  0.10566000000E+00 0. -1.
     999900   -1    0    0    0    0 -0.00000000000E+00 -0.00000000000E+00 -0.74505805969E-08  0.93827000000E+00  0.93827000000E+00 0.  1.
     999902    2    1    2    0    0 -0.35092807913E-02 -0.64444317644E-02  0.12323661978E-01  0.10295871134E+01  0.10294872052E+01 0.  0.
     999903    2    3    3    0    0  0.26472914082E-01  0.11779589308E+00 -0.50115858133E-01  0.13816505620E+00  0.44735845937E-01 0.  0.
         14    1    1    2    0    0  0.35092807913E-02  0.64444317644E-02 -0.12323661978E-01  0.14342886633E-01  0.00000000000E+00 0.  1.
     999901    1    3    3    0    0 -0.29982194873E-01 -0.12424032485E+00  0.62439520110E-01  0.89142205716E+00  0.88000000000E+00 0. -1.
        -11    1    4    4    0    0  0.19547935371E-01  0.29618842482E-01 -0.32193667091E-01  0.47917543019E-01  0.51100000000E-03 0.  1.
         11    1    4    4    0    0  0.69249787102E-02  0.88177050602E-01 -0.17922191042E-01  0.90247513183E-01  0.51100000000E-03 0. -1.
</event>
<event>
 8    1  0.2181500E+004  0.1043930E+01  0.7957747E-01            NaN
         13   -1    0    0    0    0  0.00000000000E+00  0.00000000000E+00  0.74505805969E-08  0.10566000000E+00  0.10566000000E+00 0.  1.
     999900   -1    0    0    0    0 -0.00000000000E+00 -0.00000000000E+00 -0.74505805969E-08  0.93827000000E+00  0.93827000000E+00 0.  1.
     999902    2    1    2    0    0  0.12267102874E-01 -0.61145270819E-02 -0.21725900523E-02  0.10300523416E+01  0.10299588521E+01 0.  0.
     999903    2    3    3    0    0 -0.10029920117E-01 -0.12924334428E+00 -0.30979168672E-01  0.14073368005E+00  0.45186485497E-01 0.  0.
         14    1    1    2    0    0 -0.12267102874E-01  0.61145270819E-02  0.21725900523E-02  0.13877658372E-01  0.00000000000E+00 0.  1.
     999901    1    3    3    0    0  0.22297022991E-01  0.12312881719E+00  0.28806578620E-01  0.88931866158E+00  0.88000000000E+00 0. -1.
        -11    1    4    4    0    0  0.13260023651E-01 -0.74832415565E-01 -0.52071122743E-02  0.76178040050E-01  0.51100000000E-03 0.  1.
         11    1    4    4    0    0 -0.23289943768E-01 -0.54410928711E-01 -0.25772056397E-01  0.64555640001E-01  0.51100000000E-03 0. -1.
</event>
<event>
 8    1  0.2039519E+004  0.1043930E+01  0.7957747E-01            NaN
         13   -1    0    0    0    0  0.00000000000E+00  0.00000000000E+00  0.74505805969E-08  0.10566000000E+00  0.10566000000E+00 0.  1.
     999900   -1    0    0    0    0 -0.00000000000E+00 -0.00000000000E+00 -0.74505805969E-08  0.93827000000E+00  0.93827000000E+00 0. -1.
     999902    2    1    2    0    0  0.10651028794E-01 -0.80915579315E-02  0.29124453064E-02  0.10302405858E+01  0.10301496321E+01 0.  0.
     999903    2    3    3    0    0 -0.65123794069E-01  0.51995865671E-01 -0.10218081700E+00  0.13872675188E+00  0.43122079297E-01 0.  0.
         14    1    1    2    0    0 -0.10651028794E-01  0.80915579315E-02 -0.29124453064E-02  0.13689414223E-01  0.00000000000E+00 0. -1.
     999901    1    3    3    0    0  0.75774822863E-01 -0.60087423603E-01  0.10509326230E+00  0.89151383390E+00  0.88000000000E+00 0.  1.
        -11    1    4    4    0    0 -0.13104889916E-01  0.34904338351E-01 -0.54994757612E-01  0.66443475686E-01  0.51100000000E-03 0. -1.
         11    1    4    4    0    0 -0.52018904153E-01  0.17091527321E-01 -0.47186059385E-01  0.72283276190E-01  0.51100000000E-03 0.  1.
</event>
<event>
 8    1  0.2039519E+004  0.1043930E+01  0.7957747E-01            NaN
         13   -1    0    0    0    0  0.00000000000E+00  0.00000000000E+00  0.74505805969E-08  0.10566000000E+00  0.10566000000E+00 0. -1.
     999900   -1    0    0    0    0 -0.00000000000E+00 -0.00000000000E+00 -0.74505805969E-08  0.93827000000E+00  0.93827000000E+00 0. -1.
     999902    2    1    2    0    0 -0.42429636083E-02  0.97766197441E-03  0.13245091413E-01  0.10299875824E+01  0.10298932123E+01 0.  0.
     999903    2    3    3    0    0  0.22306605969E-01 -0.12339084205E+00 -0.39686322639E-01  0.13927206154E+00  0.45812862263E-01 0.  0.
         14    1    1    2    0    0  0.42429636083E-02 -0.97766197441E-03 -0.13245091413E-01  0.13942417640E-01  0.00000000000E+00 0.  1.
     999901    1    3    3    0    0 -0.26549569577E-01  0.12436850403E+00  0.52931414052E-01  0.89071552082E+00  0.88000000000E+00 0.  1.
        -11    1    4    4    0    0  0.36456397715E-01 -0.95372630629E-01 -0.30113345030E-01  0.10645225351E+00  0.51100000000E-03 0.  1.
         11    1    4    4    0    0 -0.14149791746E-01 -0.28018211422E-01 -0.95729776085E-02  0.32819808029E-01  0.51100000000E-03 0. -1.
</event>
<event>
 8    1  0.2039519E+004  0.1043930E+01  0.7957747E-01            NaN
         13   -1    0    0    0    0  0.00000000000E+00  0.00000000000E+00  0.74505805969E-08  0.10566000000E+00  0.10566000000E+00 0. -1.
     999900   -1    0    0    0    0 -0.00000000000E+00 -0.00000000000E+00 -0.74505805969E-08  0.93827000000E+00  0.93827000000E+00 0.  1.
     999902    2    1    2    0    0  0.11834511092E-01  0.48764685124E-02 -0.45389404696E-02  0.10303492203E+01  0.10302597139E+01 0.  0.
     999903    2    3    3    0    0  0.20692973213E-01  0.10491733397E+00  0.80556780145E-01  0.14055827358E+00  0.42794711562E-01 0.  0.
         14    1    1    2    0    0 -0.11834511092E-01 -0.48764685124E-02  0.45389404696E-02  0.13580779747E-01  0.00000000000E+00 0. -1.
     999901    1    3    3    0    0 -0.88584621204E-02 -0.10004086546E+00 -0.85095720614E-01  0.88979094667E+00  0.88000000000E+00 0.  1.
        -11    1    4    4    0    0 -0.18818551356E-02  0.45523888832E-01  0.12074487481E-01  0.47138309283E-01  0.51100000000E-03 0.  1.
         11    1    4    4    0    0  0.22574828348E-01  0.59393445135E-01  0.68482292663E-01  0.93419964298E-01  0.51100000000E-03 0. -1.
</event>
<event>
 8    1  0.2039519E+004  0.1043930E+01  0.7957747E-01            NaN
         13   -1    0    0    0    0  0.00000000000E+00  0.00000000000E+00  0.74505805969E-08  0.10566000000E+00  0.10566000000E+00 0.  1.
     999900   -1    0    0    0    0 -0.00000000000E+00 -0.00000000000E+00 -0.74505805969E-08  0.93827000000E+00  0.93827000000E+00 0. -1.
     999902    2    1    2    0    0  0.13321751080E-01  0.28404340915E-02 -0.11373509641E-02  0.10302613978E+01  0.10301707224E+01 0.  0.
     999903    2    3    3    0    0 -0.26491346890E-01  0.33866741801E-01 -0.12544726716E+00  0.14009249825E+00  0.45167948459E-01 0.  0.
         14    1    1    2    0    0 -0.13321751080E-01 -0.28404340915E-02  0.11373509641E-02  0.13668602156E-01  0.00000000000E+00 0.  1.
     999901    1    3    3    0    0  0.39813097971E-01 -0.31026307710E-01  0.12430991620E+00  0.89016889959E+00  0.88000000000E+00 0.  1.
        -11    1    4    4    0    0 -0.88699702133E-02 -0.68584165027E-02 -0.59857918857E-01  0.60901115091E-01  0.51100000000E-03 0.  1.
         11    1    4    4    0    0 -0.17621376677E-01  0.40725158304E-01 -0.65589348303E-01  0.79191383159E-01  0.51100000000E-03 0. -1.
</event>
<event>
 8    1  0.2039519E+004  0.1043930E+01  0.7957747E-01            NaN
         13   -1    0    0    0    0  0.00000000000E+00  0.00000000000E+00  0.74505805969E-08  0.10566000000E+00  0.10566000000E+00 0.  1.
     999900   -1    0    0    0    0 -0.00000000000E+00 -0.00000000000E+00 -0.74505805969E-08  0.93827000000E+00  0.93827000000E+00 0. -1.
     999902    2    1    2    0    0  0.26956636319E-02  0.12011031336E-01 -0.61034302805E-02  0.10301901551E+01  0.10300985256E+01 0.  0.
     999903    2    3    3    0    0 -0.10288989844E+00  0.72629326666E-01 -0.44504370304E-01  0.14097841383E+00  0.45087957333E-01 0.  0.
         14    1    1    2    0    0 -0.26956636319E-02 -0.12011031336E-01  0.61034302805E-02  0.13739844881E-01  0.00000000000E+00 0. -1.
     999901    1    3    3    0    0  0.10558556208E+00 -0.60618295330E-01  0.38400940023E-01  0.88921174129E+00  0.88000000000E+00 0. -1.
        -11    1    4    4    0    0 -0.14346522988E-01  0.33389446967E-01 -0.18051003290E-01  0.40580509255E-01  0.51100000000E-03 0. -1.
         11    1    4    4    0    0 -0.88543375456E-01  0.39239879699E-01 -0.26453367014E-01  0.10039790458E+00  0.51100000000E-03 0.  1.
</event>
<event>
 8    1  0.2039519E+004  0.1043930E+01  0.7957747E-01            NaN
         13   -1    0    0    0    0  0.00000000000E+00  0.00000000000E+00  0.74505805969E-08  0.10566000000E+00  0.10566000000E+00 0.  1.
     999900   -1    0    0    0    0 -0.00000000000E+00 -0.00000000000E+00 -0.74505805969E-08  0.93827000000E+00  0.93827000000E+00 0. -1.
     999902    2    1    2    0    0 -0.62091935623E-02 -0.11432977601E-01  0.30596673413E-02  0.10305647980E+01  0.10304781289E+01 0.  0.
     999903    2    3    3    0    0 -0.39530880594E-01 -0.71309554207E-01 -0.10611333997E+00  0.14117495948E+00  0.44973161136E-01 0.  0.
         14    1    1    2    0    0  0.62091935623E-02  0.11432977601E-01 -0.30596673413E-02  0.13365202047E-01  0.00000000000E+00 0. -1.
     999901    1    3    3    0    0  0.33321687032E-01  0.59876576606E-01  0.10917300731E+00  0.88938983847E+00  0.88000000000E+00 0.  1.
        -11    1    4    4    0    0 -0.30788199895E-01 -0.27528995397E-01 -0.78429529421E-01  0.88640910682E-01  0.51100000000E-03 0.  1.
         11    1    4    4    0    0 -0.87426806997E-02 -0.43780558810E-01 -0.27683810551E-01  0.52534048798E-01  0.51100000000E-03 0. -1.
</event>
<event>
 8    1  0.2039519E+004  0.1043930E+01  0.7957747E-01            NaN
         13   -1    0    0    0    0  0.00000000000E+00  0.00000000000E+00  0.74505805969E-08  0.10566000000E+00  0.10566000000E+00 0. -1.
     999900   -1    0    0    0    0 -0.00000000000E+00 -0.00000000000E+00 -0.74505805969E-08  0.93827000000E+00  0.93827000000E+00 0. -1.
     999902    2    1    2    0    0 -0.12802486248E-01  0.64178086406E-02 -0.11850054347E-02  0.10295600258E+01  0.10294597372E+01 0.  0.
     999903    2    3    3    0    0 -0.11831853828E+00 -0.52788043959E-01 -0.31752812786E-01  0.14075556972E+00  0.44922546720E-01 0.  0.
         14    1    1    2    0    0  0.12802486248E-01 -0.64178086406E-02  0.11850054347E-02  0.14369974243E-01  0.00000000000E+00 0. -1.
     999901    1    3    3    0    0  0.10551605203E+00  0.59205852600E-01  0.30567807352E-01  0.88880445603E+00  0.88000000000E+00 0. -1.
        -11    1    4    4    0    0 -0.92754474094E-01 -0.46050788582E-01 -0.42857819260E-01  0.11207640870E+00  0.51100000000E-03 0.  1.
         11    1    4    4    0    0 -0.25564064181E-01 -0.67372553769E-02  0.11105006473E-01  0.28679161027E-01  0.51100000000E-03 0. -1.
</event>
<event>
 8    1  0.2039519E+004  0.1043930E+01  0.7957747E-01            NaN
         13   -1    0    0    0    0  0.00000000000E+00  0.00000000000E+00  0.74505805969E-08  0.10566000000E+00  0.10566000000E+00 0.  1.
     999900   -1    0    0    0    0 -0.00000000000E+00 -0.00000000000E+00 -0.74505805969E-08  0.93827000000E+00  0.93827000000E+00 0.  1.
     999902    2    1    2    0    0 -0.75368094984E-02  0.13619225570E-01  0.17988418550E-02  0.10282608381E+01  0.10281414438E+01 0.  0.
     999903    2    3    3    0    0  0.92142618291E-01  0.88125508280E-01 -0.32846154204E-01  0.13882986819E+00  0.44028344741E-01 0.  0.
         14    1    1    2    0    0  0.75368094984E-02 -0.13619225570E-01 -0.17988418550E-02  0.15669161897E-01  0.00000000000E+00 0. -1.
     999901    1    3    3    0    0 -0.99679427790E-01 -0.74506282710E-01  0.34644996059E-01  0.88943096991E+00  0.88000000000E+00 0. -1.
        -11    1    4    4    0    0  0.86154054582E-01  0.90390894506E-01 -0.38073592133E-01  0.13054843725E+00  0.51100000000E-03 0. -1.
         11    1    4    4    0    0  0.59885637099E-02 -0.22653862264E-02  0.52274379289E-02  0.82814309369E-02  0.51100000000E-03 0.  1.
</event>
<event>
 8    1  0.2039519E+004  0.1043930E+01  0.7957747E-01            NaN
         13   -1    0    0    0    0  0.00000000000E+00  0.00000000000E+00  0.74505805969E-08  0.10566000000E+00  0.10566000000E+00 0.  1.
     999900   -1    0    0    0    0 -0.00000000000E+00 -0.00000000000E+00 -0.74505805969E-08  0.93827000000E+00  0.93827000000E+00 0. -1.
     999902    2    1    2    0    0 -0.77412305002E-02 -0.36007941547E-02 -0.14744814836E-01  0.10268917509E+01  0.10267503913E+01 0.  0.
     999903    2    3    3    0    0  0.11669952205E+00  0.20705146586E-01 -0.52569002819E-01  0.13700021320E+00  0.44250161796E-01 0.  0.
         14    1    1    2    0    0  0.77412305002E-02  0.36007941547E-02  0.14744814836E-01  0.17038249110E-01  0.00000000000E+00 0.  1.
     999901    1    3    3    0    0 -0.12444075255E+00 -0.24305940741E-01  0.37824187983E-01  0.88989153769E+00  0.88000000000E+00 0.  1.
        -11    1    4    4    0    0  0.90572877157E-01  0.20801095544E-01 -0.59012472561E-01  0.11008571520E+00  0.51100000000E-03 0.  1.
         11    1    4    4    0    0  0.26126644890E-01 -0.95948958008E-04  0.64434697420E-02  0.26914498003E-01  0.51100000000E-03 0. -1.
</event>
<event>
 8    1  0.2039519E+004  0.1043930E+01  0.7957747E-01            NaN
         13   -1    0    0    0    0  0.00000000000E+00  0.00000000000E+00  0.74505805969E-08  0.10566000000E+00  0.10566000000E+00 0. -1.
     999900   -1    0    0    0    0 -0.00000000000E+00 -0.00000000000E+00 -0.74505805969E-08  0.93827000000E+00  0.93827000000E+00 0. -1.
     999902    2    1    2    0    0 -0.33868661354E-02 -0.12690192525E-01  0.32800314073E-02  0.10303922581E+01  0.10303033219E+01 0.  0.
     999903    2    3    3    0    0 -0.25545198802E-01  0.11613713002E+00  0.57105716126E-01  0.13910965701E+00  0.44159299224E-01 0.  0.
         14    1    1    2    0    0  0.33868661354E-02  0.12690192525E-01 -0.32800314073E-02  0.13537741856E-01  0.00000000000E+00 0.  1.
     999901    1    3    3    0    0  0.22158332667E-01 -0.12882732255E+00 -0.53825684719E-01  0.89128260113E+00  0.88000000000E+00 0.  1.
        -11    1    4    4    0    0 -0.20801668530E-02  0.48224820257E-01  0.15737070815E-02  0.48298012981E-01  0.51100000000E-03 0. -1.
         11    1    4    4    0    0 -0.23465031949E-01  0.67912309768E-01  0.55532009045E-01  0.90811644033E-01  0.51100000000E-03 0.  1.
</event>
<event>
 8    1  0.2039519E+004  0.1043930E+01  0.7957747E-01            NaN
         13   -1    0    0    0    0  0.00000000000E+00  0.00000000000E+00  0.74505805969E-08  0.10566000000E+00  0.10566000000E+00 0. -1.
     999900   -1    0    0    0    0 -0.00000000000E+00 -0.00000000000E+00 -0.74505805969E-08  0.93827000000E+00  0.93827000000E+00 0. -1.
     999902    2    1    2    0    0 -0.11121413116E-01  0.65691351495E-02 -0.66641452597E-02  0.10293955513E+01  0.10292929374E+01 0.  0.
     999903    2    3    3    0    0  0.15437982908E-02  0.12622628958E+00 -0.41992878304E-01  0.14050502850E+00  0.45197363975E-01 0.  0.
         14    1    1    2    0    0  0.11121413116E-01 -0.65691351495E-02  0.66641452597E-02  0.14534448677E-01  0.00000000000E+00 0. -1.
     999901    1    3    3    0    0 -0.12665211406E-01 -0.11965715443E+00  0.35328733044E-01  0.88889052282E+00  0.88000000000E+00 0.  1.
        -11    1    4    4    0    0  0.22063151489E-01  0.74108020851E-01 -0.17016774725E-01  0.79174573893E-01  0.51100000000E-03 0. -1.
         11    1    4    4    0    0 -0.20519353198E-01  0.52118268732E-01 -0.24976103578E-01  0.61330454607E-01  0.51100000000E-03 0.  1.
</event>
<event>
 8    1  0.2039519E+004  0.1043930E+01  0.7957747E-01            NaN
         13   -1    0    0    0    0  0.00000000000E+00  0.00000000000E+00  0.74505805969E-08  0.10566000000E+00  0.10566000000E+00 0. -1.
     999900   -1    0    0    0    0 -0.00000000000E+00 -0.00000000000E+00 -0.74505805969E-08  0.93827000000E+00  0.93827000000E+00 0.  1.
     999902    2    1    2    0    0 -0.11756235899E-01 -0.77740937051E-02 -0.26908646908E-03  0.10298332620E+01  0.10297367768E+01 0.  0.
     999903    2    3    3    0    0 -0.75808259843E-01 -0.93164459819E-01  0.59543503524E-01  0.14136732435E+00  0.44864047391E-01 0.  0.
         14    1    1    2    0    0  0.11756235899E-01  0.77740937051E-02  0.26908646908E-03  0.14096738026E-01  0.00000000000E+00 0. -1.
     999901    1    3    3    0    0  0.64052023944E-01  0.85390366114E-01 -0.59812589993E-01  0.88846593762E+00  0.88000000000E+00 0. -1.
        -11    1    4    4    0    0 -0.15984372122E-01 -0.12360024856E-01  0.30725749171E-01  0.36777753462E-01  0.51100000000E-03 0. -1.
         11    1    4    4    0    0 -0.59823887721E-01 -0.80804434963E-01  0.28817754352E-01  0.10458957089E+00  0.51100000000E-03 0.  1.
</event>
<event>
 8    1  0.2039519E+004  0.1043930E+01  0.7957747E-01            NaN
         13   -1    0    0    0    0  0.00000000000E+00  0.00000000000E+00  0.74505805969E-08  0.10566000000E+00  0.10566000000E+00 0.  1.
     999900   -1    0    0    0    0 -0.00000000000E+00 -0.00000000000E+00 -0.74505805969E-08  0.93827000000E+00  0.93827000000E+00 0. -1.
     999902    2    1    2    0    0  0.10671198580E-01  0.29190812895E-02 -0.89674754701E-02  0.10296888227E+01  0.10295903362E+01 0.  0.
     999903    2    3    3    0    0  0.73859690102E-01  0.10745037265E+00 -0.29378695045E-01  0.14101779570E+00  0.44967483563E-01 0.  0.
         14    1    1    2    0    0 -0.10671198580E-01 -0.29190812895E-02  0.89674754701E-02  0.14241177304E-01  0.00000000000E+00 0.  1.
     999901    1    3    3    0    0 -0.63188491522E-01 -0.10453129136E+00  0.20411219575E-01  0.88867102699E+00  0.88000000000E+00 0.  1.
        -11    1    4    4    0    0  0.58598120784E-01  0.96812017233E-01 -0.39464568387E-01  0.11984998840E+00  0.51100000000E-03 0.  1.
         11    1    4    4    0    0  0.15261569318E-01  0.10638355415E-01  0.10085873341E-01  0.21167807303E-01  0.51100000000E-03 0. -1.
</event>
<event>
 8    1  0.2039519E+004  0.1043930E+01  0.7957747E-01            NaN
         13   -1    0    0    0    0  0.00000000000E+00  0.00000000000E+00  0.74505805969E-08  0.10566000000E+00  0.10566000000E+00 0. -1.
     999900   -1    0    0    0    0 -0.00000000000E+00 -0.00000000000E+00 -0.74505805969E-08  0.93827000000E+00  0.93827000000E+00 0. -1.
     999902    2    1    2    0    0 -0.12123775439E-01  0.17280091375E-02 -0.36350470634E-02  0.10311555915E+01  0.10310764609E+01 0.  0.
     999903    2    3    3    0    0  0.77142841481E-01  0.87084971907E-02 -0.10936176856E+00  0.14031587762E+00  0.41251583902E-01 0.  0.
         14    1    1    2    0    0  0.12123775439E-01 -0.17280091375E-02  0.36350470634E-02  0.12774408543E-01  0.00000000000E+00 0. -1.
     999901    1    3    3    0    0 -0.89266616920E-01 -0.69804880532E-02  0.10572672150E+00  0.89083971384E+00  0.88000000000E+00 0.  1.
        -11    1    4    4    0    0  0.66185490520E-01  0.17797325326E-01 -0.67910308891E-01  0.96484895807E-01  0.51100000000E-03 0.  1.
         11    1    4    4    0    0  0.10957350961E-01 -0.90888281355E-02 -0.41451459670E-01  0.43830981813E-01  0.51100000000E-03 0. -1.
</event>
<event>
 8    1  0.2039519E+004  0.1043930E+01  0.7957747E-01            NaN
         13   -1    0    0    0    0  0.00000000000E+00  0.00000000000E+00  0.74505805969E-08  0.10566000000E+00  0.10566000000E+00 0.  1.
     999900   -1    0    0    0    0 -0.00000000000E+00 -0.00000000000E+00 -0.74505805969E-08  0.93827000000E+00  0.93827000000E+00 0. -1.
     999902    2    1    2    0    0 -0.54697334922E-02  0.80151438551E-02 -0.95966678271E-02  0.10302824160E+01  0.10301920210E+01 0.  0.
     999903    2    3    3    0    0  0.68588969613E-01 -0.50440322025E-01 -0.10223939230E+00  0.14040354369E+00  0.44850740284E-01 0.  0.
         14    1    1    2    0    0  0.54697334922E-02 -0.80151438551E-02  0.95966678271E-02  0.13647583994E-01  0.00000000000E+00 0.  1.
     999901    1    3    3    0    0 -0.74058703105E-01  0.58455465881E-01  0.92642724473E-01  0.88987887232E+00  0.88000000000E+00 0.  1.
        -11    1    4    4    0    0  0.59403090046E-01 -0.17459509710E-01 -0.68419633929E-01  0.92277131589E-01  0.51100000000E-03 0.  1.
         11    1    4    4    0    0  0.91858795673E-02 -0.32980812315E-01 -0.33819758372E-01  0.48126412101E-01  0.51100000000E-03 0. -1.
</event>
<event>
 8    1  0.2039519E+004  0.1043930E+01  0.7957747E-01            NaN
         13   -1    0    0    0    0  0.00000000000E+00  0.00000000000E+00  0.74505805969E-08  0.10566000000E+00  0.10566000000E+00 0. -1.
     999900   -1    0    0    0    0 -0.00000000000E+00 -0.00000000000E+00 -0.74505805969E-08  0.93827000000E+00  0.93827000000E+00 0.  1.
     999902    2    1    2    0    0  0.12038303665E-01 -0.40344482246E-02 -0.49593576382E-02  0.10302994184E+01  0.10302092500E+01 0.  0.
     999903    2    3    3    0    0 -0.28657036367E-02 -0.55691636521E-01 -0.12147728102E+00  0.14099237296E+00  0.44859210773E-01 0.  0.
         14    1    1    2    0    0 -0.12038303665E-01  0.40344482246E-02  0.49593576382E-02  0.13630581638E-01  0.00000000000E+00 0. -1.
     999901    1    3    3    0    0  0.14904007302E-01  0.51657188296E-01  0.11651792339E+00  0.88930704540E+00  0.88000000000E+00 0. -1.
        -11    1    4    4    0    0 -0.47236373745E-02  0.10760243181E-02 -0.47376965369E-01  0.47626762928E-01  0.51100000000E-03 0.  1.
         11    1    4    4    0    0  0.18579337378E-02 -0.56767660839E-01 -0.74100315655E-01  0.93365610029E-01  0.51100000000E-03 0. -1.
</event>
<event>
 8    1  0.2435781E+004  0.1043930E+01  0.7957747E-01            NaN
         13   -1    0    0    0    0  0.00000000000E+00  0.00000000000E+00  0.74505805969E-08  0.10566000000E+00  0.10566000000E+00 0. -1.
     999900   -1    0    0    0    0 -0.00000000000E+00 -0.00000000000E+00 -0.74505805969E-08  0.93827000000E+00  0.93827000000E+00 0.  1.
     999902    2    1    2    0    0 -0.16772336231E-01  0.12658711808E-01  0.14314599130E-02  0.10228681073E+01  0.10226512414E+01 0.  0.
     999903    2    3    3    0    0  0.11829933943E+00  0.70694508387E-02  0.36368066093E-01  0.13185959787E+00  0.44940031976E-01 0.  0.
         14    1    1    2    0    0  0.16772336231E-01 -0.12658711808E-01 -0.14314599130E-02  0.21061892716E-01  0.00000000000E+00 0. -1.
     999901    1    3    3    0    0 -0.13507167566E+00  0.55892609695E-02 -0.34936606180E-01  0.89100850942E+00  0.88000000000E+00 0.  1.
        -11    1    4    4    0    0  0.45157237173E-01 -0.14734194147E-01  0.27840481556E-01  0.55060204145E-01  0.51100000000E-03 0. -1.
         11    1    4    4    0    0  0.73142102254E-01  0.21803644986E-01  0.85275845363E-02  0.76799393721E-01  0.51100000000E-03 0.  1.
</event>
<event>
 8    1  0.2039519E+004  0.1043930E+01  0.7957747E-01            NaN
         13   -1    0    0    0    0  0.00000000000E+00  0.00000000000E+00  0.74505805969E-08  0.10566000000E+00  0.10566000000E+00 0.  1.
     999900   -1    0    0    0    0 -0.00000000000E+00 -0.00000000000E+00 -0.74505805969E-08  0.93827000000E+00  0.93827000000E+00 0. -1.
     999902    2    1    2    0    0  0.85472895864E-02 -0.20991069350E-02 -0.45572630785E-02  0.10340188418E+01  0.10339713411E+01 0.  0.
     999903    2    3    3    0    0 -0.10044859379E+00 -0.91866330890E-01 -0.17743889195E-01  0.14266473477E+00  0.38846340856E-01 0.  0.
         14    1    1    2    0    0 -0.85472895864E-02  0.20991069350E-02  0.45572630785E-02  0.99111581546E-02  0.00000000000E+00 0.  1.
     999901    1    3    3    0    0  0.10899588338E+00  0.89767223955E-01  0.13186626117E-01  0.89135410707E+00  0.88000000000E+00 0. -1.
        -11    1    4    4    0    0 -0.76587987914E-01 -0.62529918468E-01  0.41604699953E-02  0.98961008624E-01  0.51100000000E-03 0.  1.
         11    1    4    4    0    0 -0.23860605876E-01 -0.29336412422E-01 -0.21904359191E-01  0.43703726147E-01  0.51100000000E-03 0. -1.
</event>
<event>
 8    1  0.2039519E+004  0.1043930E+01  0.7957747E-01            NaN
         13   -1    0    0    0    0  0.00000000000E+00  0.00000000000E+00  0.74505805969E-08  0.10566000000E+00  0.10566000000E+00 0. -1.
     999900   -1    0    0    0    0 -0.00000000000E+00 -0.00000000000E+00 -0.74505805969E-08  0.93827000000E+00  0.93827000000E+00 0. -1.
     999902    2    1    2    0    0 -0.39591354312E-02  0.16458586381E-02  0.13649530290E-01  0.10296228940E+01  0.10295234872E+01 0.  0.
     999903    2    3    3    0    0  0.10626213553E+00 -0.63486156808E-01  0.46347315433E-01  0.13975770584E+00  0.45409350782E-01 0.  0.
         14    1    1    2    0    0  0.39591354312E-02 -0.16458586381E-02 -0.13649530290E-01  0.14307105968E-01  0.00000000000E+00 0.  1.
     999901    1    3    3    0    0 -0.11022127097E+00  0.65132015446E-01 -0.32697785143E-01  0.88986518820E+00  0.88000000000E+00 0.  1.
        -11    1    4    4    0    0  0.36634592322E-01 -0.25361227833E-01 -0.55670555296E-02  0.44905884470E-01  0.51100000000E-03 0. -1.
         11    1    4    4    0    0  0.69627543212E-01 -0.38124928976E-01  0.51914370963E-01  0.94851821366E-01  0.51100000000E-03 0.  1.
</event>
<event>
 8    1  0.2039519E+004  0.1043930E+01  0.7957747E-01            NaN
         13   -1    0    0    0    0  0.00000000000E+00  0.00000000000E+00  0.74505805969E-08  0.10566000000E+00  0.10566000000E+00 0.  1.
     999900   -1    0    0    0    0 -0.00000000000E+00 -0.00000000000E+00 -0.74505805969E-08  0.93827000000E+00  0.93827000000E+00 0.  1.
     999902    2    1    2    0    0 -0.47941269253E-02  0.29074310253E-02  0.14873768778E-01  0.10280345351E+01  0.10279116399E+01 0.  0.
     999903    2    3    3    0    0 -0.46390903242E-01 -0.19495031019E-01 -0.11831539641E+00  0.13675931615E+00  0.46609069811E-01 0.  0.
         14    1    1    2    0    0  0.47941269253E-02 -0.29074310253E-02 -0.14873768778E-01  0.15895464944E-01  0.00000000000E+00 0. -1.
     999901    1    3    3    0    0  0.41596776316E-01  0.22402462045E-01  0.13318916519E+00  0.89127521890E+00  0.88000000000E+00 0. -1.
        -11    1    4    4    0    0 -0.31022027842E-01  0.35483453057E-02 -0.96711164609E-01  0.10162808395E+00  0.51100000000E-03 0.  1.
         11    1    4    4    0    0 -0.15368875399E-01 -0.23043376325E-01 -0.21604231803E-01  0.35131232206E-01  0.51100000000E-03 0. -1.
</event>
<event>
 8    1  0.2039519E+004  0.1043930E+01  0.7957747E-01            NaN
         13   -1    0    0    0    0  0.00000000000E+00  0.00000000000E+00  0.74505805969E-08  0.10566000000E+00  0.10566000000E+00 0.  1.
     999900   -1    0    0    0    0 -0.00000000000E+00 -0.00000000000E+00 -0.74505805969E-08  0.93827000000E+00  0.93827000000E+00 0. -1.
     999902    2    1    2    0    0  0.80769019437E-02  0.78080957212E-02 -0.67922401180E-02  0.10308022725E+01  0.10307186754E+01 0.  0.
     999903    2    3    3    0    0  0.12870228405E+00  0.30350450173E-01  0.23580659100E-01  0.14176844098E+00  0.45352129283E-01 0.  0.
         14    1    1    2    0    0 -0.80769019437E-02 -0.78080957212E-02  0.67922401180E-02  0.13127727512E-01  0.00000000000E+00 0.  1.
     999901    1    3    3    0    0 -0.12062538210E+00 -0.22542354452E-01 -0.30372899218E-01  0.88903383150E+00  0.88000000000E+00 0. -1.
        -11    1    4    4    0    0  0.25344947801E-01  0.19858540178E-01  0.19815217950E-01  0.37810474481E-01  0.51100000000E-03 0.  1.
         11    1    4    4    0    0  0.10335733625E+00  0.10491909995E-01  0.37654411492E-02  0.10395796650E+00  0.51100000000E-03 0. -1.
</event>
<event>
 8    1  0.2039519E+004  0.1043930E+01  0.7957747E-01            NaN
         13   -1    0    0    0    0  0.00000000000E+00  0.00000000000E+00  0.74505805969E-08  0.10566000000E+00  0.10566000000E+00 0.  1.
     999900   -1    0    0    0    0 -0.00000000000E+00 -0.00000000000E+00 -0.74505805969E-08  0.93827000000E+00  0.93827000000E+00 0.  1.
     999902    2    1    2    0    0  0.22105234299E-02  0.30438394620E-02  0.13392711387E-01  0.10300189939E+01  0.10299250515E+01 0.  0.
     999903    2    3    3    0    0  0.10153113218E-01 -0.68845304537E-01 -0.11301544789E+00  0.13804917575E+00  0.37977911960E-01 0.  0.
         14    1    1    2    0    0 -0.22105234299E-02 -0.30438394620E-02 -0.13392711387E-01  0.13911006103E-01  0.00000000000E+00 0. -1.
     999901    1    3    3    0    0 -0.79425897884E-02  0.71889143999E-01  0.12640815928E+00  0.89196981815E+00  0.88000000000E+00 0. -1.
        -11    1    4    4    0    0  0.18954471078E-01 -0.55786499038E-01 -0.66051006660E-01  0.88512157642E-01  0.51100000000E-03 0.  1.
         11    1    4    4    0    0 -0.88013578593E-02 -0.13058805500E-01 -0.46964441235E-01  0.49537018105E-01  0.51100000000E-03 0. -1.
</event>
<event>
 8    1  0.2039519E+004  0.1043930E+01  0.7957747E-01            NaN
         13   -1    0    0    0    0  0.00000000000E+00  0.00000000000E+00  0.74505805969E-08  0.10566000000E+00  0.10566000000E+00 0. -1.
     999900   -1    0    0    0    0 -0.00000000000E+00 -0.00000000000E+00 -0.74505805969E-08  0.93827000000E+00  0.93827000000E+00 0. -1.
     999902    2    1    2    0    0 -0.65307001925E-02 -0.10529603793E-01 -0.73890553674E-02  0.10295036096E+01  0.10294025264E+01 0.  0.
     999903    2    3    3    0    0 -0.70177014384E-01 -0.11053851279E+00 -0.27668441366E-01  0.14132351035E+00  0.45422635010E-01 0.  0.
         14    1    1    2    0    0  0.65307001925E-02  0.10529603793E-01  0.73890553674E-02  0.14426390410E-01  0.00000000000E+00 0. -1.
     999901    1    3    3    0    0  0.63646314192E-01  0.10000890900E+00  0.20279385999E-01  0.88818009924E+00  0.88000000000E+00 0.  1.
        -11    1    4    4    0    0 -0.23959335938E-01 -0.59930848559E-01  0.62595442204E-02  0.64847508838E-01  0.51100000000E-03 0. -1.
         11    1    4    4    0    0 -0.46217678446E-01 -0.50607664236E-01 -0.33927985587E-01  0.76476001512E-01  0.51100000000E-03 0.  1.
</event>
<event>
 8    1  0.2039519E+004  0.1043930E+01  0.7957747E-01            NaN
         13   -1    0    0    0    0  0.00000000000E+00  0.00000000000E+00  0.74505805969E-08  0.10566000000E+00  0.10566000000E+00 0.  1.
     999900   -1    0    0    0    0 -0.00000000000E+00 -0.00000000000E+00 -0.74505805969E-08  0.93827000000E+00  0.93827000000E+00 0. -1.
     999902    2    1    2    0    0 -0.11565806801E-01  0.38401523218E-02 -0.30206811623E-03  0.10317395980E+01  0.10316675783E+01 0.  0.
     999903    2    3    3    0    0  0.74725468545E-01 -0.20325121246E-01 -0.10876538401E+00  0.14056372556E+00  0.43945943866E-01 0.  0.
         14    1    1    2    0    0  0.11565806801E-01 -0.38401523218E-02  0.30206811623E-03  0.12190402042E-01  0.00000000000E+00 0. -1.
     999901    1    3    3    0    0 -0.86291275346E-01  0.24165273568E-01  0.10846331589E+00  0.89117587240E+00  0.88000000000E+00 0.  1.
        -11    1    4    4    0    0  0.35786713127E-01  0.10202527625E-01 -0.62952696103E-01  0.73130591916E-01  0.51100000000E-03 0.  1.
         11    1    4    4    0    0  0.38938755418E-01 -0.30527648871E-01 -0.45812687905E-01  0.67433133645E-01  0.51100000000E-03 0. -1.
</event>
<event>
 8    1  0.2039519E+004  0.1043930E+01  0.7957747E-01            NaN
         13   -1    0    0    0    0  0.00000000000E+00  0.00000000000E+00  0.74505805969E-08  0.10566000000E+00  0.10566000000E+00 0.  1.
     999900   -1    0    0    0    0 -0.00000000000E+00 -0.00000000000E+00 -0.74505805969E-08  0.93827000000E+00  0.93827000000E+00 0. -1.
     999902    2    1    2    0    0  0.10642233796E-01  0.31528741393E-02 -0.78531621548E-02  0.10303333125E+01  0.10302435949E+01 0.  0.
     999903    2    3    3    0    0 -0.11353249499E+00 -0.19695109633E-01  0.62801455294E-01  0.13851860718E+00  0.44337985821E-01 0.  0.
         14    1    1    2    0    0 -0.10642233796E-01 -0.31528741393E-02  0.78531621548E-02  0.13596687513E-01  0.00000000000E+00 0. -1.
     999901    1    3    3    0    0  0.12417472878E+00  0.22847983773E-01 -0.70654617449E-01  0.89181470530E+00  0.88000000000E+00 0. -1.
        -11    1    4    4    0    0 -0.87048738189E-01  0.10906577325E-02  0.57753155635E-01  0.10447181659E+00  0.51100000000E-03 0. -1.
         11    1    4    4    0    0 -0.26483756800E-01 -0.20785767366E-01  0.50482996588E-02  0.34046790593E-01  0.51100000000E-03 0.  1.
</event>
<event>
 8    1  0.2039519E+004  0.1043930E+01  0.7957747E-01            NaN
         13   -1    0    0    0    0  0.00000000000E+00  0.00000000000E+00  0.74505805969E-08  0.10566000000E+00  0.10566000000E+00 0.  1.
     999900   -1    0    0    0    0 -0.00000000000E+00 -0.00000000000E+00 -0.74505805969E-08  0.93827000000E+00  0.93827000000E+00 0.  1.
     999902    2    1    2    0    0  0.58107737224E-02  0.32699321043E-02  0.12346913539E-01  0.10298977578E+01  0.10298021595E+01 0.  0.
     999903    2    3    3    0    0  0.73244431669E-01 -0.72450141017E-01  0.86589632083E-01  0.14096985917E+00  0.41963878606E-01 0.  0.
         14    1    1    2    0    0 -0.58107737224E-02 -0.32699321043E-02 -0.12346913539E-01  0.14032242200E-01  0.00000000000E+00 0. -1.
     999901    1    3    3    0    0 -0.67433657947E-01  0.75720073121E-01 -0.74242718544E-01  0.88892789863E+00  0.88000000000E+00 0. -1.
        -11    1    4    4    0    0  0.10378446842E-01 -0.29768700532E-01  0.99931772609E-02  0.33075858311E-01  0.51100000000E-03 0. -1.
         11    1    4    4    0    0  0.62865984827E-01 -0.42681440484E-01  0.76596454822E-01  0.10789400086E+00  0.51100000000E-03 0.  1.
</event>
<event>
 8    1  0.2039519E+004  0.1043930E+01  0.7957747E-01            NaN
         13   -1    0    0    0    0  0.00000000000E+00  0.00000000000E+00  0.74505805969E-08  0.10566000000E+00  0.10566000000E+00 0.  1.
     999900   -1    0    0    0    0 -0.00000000000E+00 -0.00000000000E+00 -0.74505805969E-08  0.93827000000E+00  0.93827000000E+00 0. -1.
     999902    2    1    2    0    0  0.12916230760E-01 -0.46743270831E-02  0.28486912282E-02  0.10299016932E+01  0.10298061488E+01 0.  0.
     999903    2    3    3    0    0 -0.12883601107E-01 -0.57856198466E-01  0.11946451204E+00  0.14024266162E+00  0.43392483483E-01 0.  0.
         14    1    1    2    0    0 -0.12916230760E-01  0.46743270831E-02 -0.28486912282E-02  0.14028306827E-01  0.00000000000E+00 0. -1.
     999901    1    3    3    0    0  0.25799831867E-01  0.53181871383E-01 -0.11661582081E+00  0.88965903156E+00  0.88000000000E+00 0. -1.
        -11    1    4    4    0    0 -0.14554821919E-01 -0.56848556913E-01  0.72678610910E-01  0.93413290644E-01  0.51100000000E-03 0. -1.
         11    1    4    4    0    0  0.16712208117E-02 -0.10076415532E-02  0.46785901125E-01  0.46829370971E-01  0.51100000000E-03 0.  1.
</event>
<event>
 8    1  0.2039519E+004  0.1043930E+01  0.7957747E-01            NaN
         13   -1    0    0    0    0  0.00000000000E+00  0.00000000000E+00  0.74505805969E-08  0.10566000000E+00  0.10566000000E+00 0.  1.
     999900   -1    0    0    0    0 -0.00000000000E+00 -0.00000000000E+00 -0.74505805969E-08  0.93827000000E+00  0.93827000000E+00 0. -1.
     999902    2    1    2    0    0 -0.12827264658E-01  0.19045693332E-02  0.64464156823E-02  0.10294482053E+01  0.10293463387E+01 0.  0.
     999903    2    3    3    0    0 -0.95111853097E-01  0.17211515926E-01  0.92468047856E-01  0.14130138335E+00  0.45532847303E-01 0.  0.
         14    1    1    2    0    0  0.12827264658E-01 -0.19045693332E-02 -0.64464156823E-02  0.14481794713E-01  0.00000000000E+00 0.  1.
     999901    1    3    3    0    0  0.82284588439E-01 -0.15306946592E-01 -0.86021632174E-01  0.88814682193E+00  0.88000000000E+00 0. -1.
        -11    1    4    4    0    0 -0.28130211890E-01  0.26258475405E-01  0.25593734376E-01  0.46218142670E-01  0.51100000000E-03 0.  1.
         11    1    4    4    0    0 -0.66981641207E-01 -0.90469594789E-02  0.66874313480E-01  0.95083240684E-01  0.51100000000E-03 0. -1.
</event>
<event>
 8    1  0.2039519E+004  0.1043930E+01  0.7957747E-01            NaN
         13   -1    0    0    0    0  0.00000000000E+00  0.00000000000E+00  0.74505805969E-08  0.10566000000E+00  0.10566000000E+00 0. -1.
     999900   -1    0    0    0    0 -0.00000000000E+00 -0.00000000000E+00 -0.74505805969E-08  0.93827000000E+00  0.93827000000E+00 0.  1.
     999902    2    1    2    0    0  0.65385664776E-02 -0.95424604165E-02 -0.49808221979E-02  0.10313355571E+01  0.10312586539E+01 0.  0.
     999903    2    3    3    0    0 -0.86122404484E-01 -0.64807426433E-01 -0.79592152716E-01  0.14161249757E+00  0.45848856239E-01 0.  0.
         14    1    1    2    0    0 -0.65385664776E-02  0.95424604165E-02  0.49808221979E-02  0.12594442907E-01  0.00000000000E+00 0. -1.
     999901    1    3    3    0    0  0.92660970962E-01  0.55264966017E-01  0.74611330518E-01  0.88972305952E+00  0.88000000000E+00 0. -1.
        -11    1    4    4    0    0 -0.70471985758E-01 -0.39100143098E-01 -0.35125642168E-01  0.87915833760E-01  0.51100000000E-03 0. -1.
         11    1    4    4    0    0 -0.15650418726E-01 -0.25707283336E-01 -0.44466510548E-01  0.53696663808E-01  0.51100000000E-03 0.  1.
</event>
<event>
 8    1  0.2039519E+004  0.1043930E+01  0.7957747E-01            NaN
         13   -1    0    0    0    0  0.00000000000E+00  0.00000000000E+00  0.74505805969E-08  0.10566000000E+00  0.10566000000E+00 0.  1.
     999900   -1    0    0    0    0 -0.00000000000E+00 -0.00000000000E+00 -0.74505805969E-08  0.93827000000E+00  0.93827000000E+00 0.  1.
     999902    2    1    2    0    0  0.17165643651E-02  0.73416887039E-02  0.10779779418E-01  0.10307751290E+01  0.10306911836E+01 0.  0.
     999903    2    3    3    0    0  0.52415929920E-02 -0.12374833627E+00  0.48109466437E-01  0.14027497404E+00  0.44960233035E-01 0.  0.
         14    1    1    2    0    0 -0.17165643651E-02 -0.73416887039E-02 -0.10779779418E-01  0.13154870982E-01  0.00000000000E+00 0.  1.
     999901    1    3    3    0    0 -0.35250286268E-02  0.13109002498E+00 -0.37329687019E-01  0.89050015497E+00  0.88000000000E+00 0.  1.
        -11    1    4    4    0    0 -0.79631192533E-02 -0.21341222986E-01  0.26197720582E-01  0.34719457822E-01  0.51100000000E-03 0.  1.
         11    1    4    4    0    0  0.13204712245E-01 -0.10240711329E+00  0.21911745855E-01  0.10555551622E+00  0.51100000000E-03 0. -1.
</event>
<event>
 8    1  0.2039519E+004  0.1043930E+01  0.7957747E-01            NaN
         13   -1    0    0    0    0  0.00000000000E+00  0.00000000000E+00  0.74505805969E-08  0.10566000000E+00  0.10566000000E+00 0. -1.
     999900   -1    0    0    0    0 -0.00000000000E+00 -0.00000000000E+00 -0.74505805969E-08  0.93827000000E+00  0.93827000000E+00 0. -1.
     999902    2    1    2    0    0 -0.52117448215E-02  0.12870841968E-01 -0.18327084948E-02  0.10299235844E+01  0.10298283401E+01 0.  0.
     999903    2    3    3    0    0  0.52464509240E-01 -0.75432010141E-01 -0.93784271492E-01  0.13886857270E+00  0.45238015210E-01 0.  0.
         14    1    1    2    0    0  0.52117448215E-02 -0.12870841968E-01  0.18327084948E-02  0.14006415582E-01  0.00000000000E+00 0. -1.
     999901    1    3    3    0    0 -0.57676254062E-01  0.88302852109E-01  0.91951562997E-01  0.89105501172E+00  0.88000000000E+00 0.  1.
        -11    1    4    4    0    0 -0.43760208326E-02 -0.25537132898E-01 -0.32200325381E-01  0.41332998810E-01  0.51100000000E-03 0. -1.
         11    1    4    4    0    0  0.56840530073E-01 -0.49894877243E-01 -0.61583946111E-01  0.97535573888E-01  0.51100000000E-03 0.  1.
</event>
<event>
 8    1  0.2039519E+004  0.1043930E+01  0.7957747E-01            NaN
         13   -1    0    0    0    0  0.00000000000E+00  0.00000000000E+00  0.74505805969E-08  0.10566000000E+00  0.10566000000E+00 0.  1.
     999900   -1    0    0    0    0 -0.00000000000E+00 -0.00000000000E+00 -0.74505805969E-08  0.93827000000E+00  0.93827000000E+00 0.  1.
     999902    2    1    2    0    0 -0.49326583578E-03  0.10767644014E-01 -0.69328815481E-02  0.10311139821E+01  0.10310343320E+01 0.  0.
     999903    2    3    3    0    0  0.63030819888E-01 -0.11546466799E+00  0.15167519106E-01  0.13956570309E+00  0.44085803084E-01 0.  0.
         14    1    1    2    0    0  0.49326583578E-03 -0.10767644014E-01  0.69328815481E-02  0.12816017921E-01  0.00000000000E+00 0.  1.
     999901    1    3    3    0    0 -0.63524085724E-01  0.12623231200E+00 -0.22100400654E-01  0.89154827899E+00  0.88000000000E+00 0. -1.
        -11    1    4    4    0    0  0.32038170149E-02 -0.25960271802E-01 -0.11615346867E-01  0.28624771778E-01  0.51100000000E-03 0. -1.
         11    1    4    4    0    0  0.59827002873E-01 -0.89504396186E-01  0.26782865974E-01  0.11094093131E+00  0.51100000000E-03 0.  1.
</event>
<event>
 8    1  0.2039519E+004  0.1043930E+01  0.7957747E-01            NaN
         13   -1    0    0    0    0  0.00000000000E+00  0.00000000000E+00  0.74505805969E-08  0.10566000000E+00  0.10566000000E+00 0. -1.
     999900   -1    0    0    0    0 -0.00000000000E+00 -0.00000000000E+00 -0.74505805969E-08  0.93827000000E+00  0.93827000000E+00 0.  1.
     999902    2    1    2    0    0 -0.11807635406E-02 -0.30342373434E-02 -0.13553878629E-01  0.10299905443E+01  0.10298962147E+01 0.  0.
     999903    2    3    3    0    0  0.50886769023E-01 -0.11862947911E+00  0.29843546922E-01  0.13984638498E+00  0.44765584134E-01 0.  0.
         14    1    1    2    0    0  0.11807635406E-02  0.30342373434E-02  0.13553878629E-01  0.13939455681E-01  0.00000000000E+00 0. -1.
     999901    1    3    3    0    0 -0.52067532563E-01  0.11559524177E+00 -0.43397425552E-01  0.89014415934E+00  0.88000000000E+00 0.  1.
        -11    1    4    4    0    0  0.33570974261E-01 -0.42196241383E-01 -0.48443837036E-02  0.54141132923E-01  0.51100000000E-03 0.  1.
         11    1    4    4    0    0  0.17315794762E-01 -0.76433237726E-01  0.34687930626E-01  0.85705252054E-01  0.51100000000E-03 0. -1.
</event>
<event>
 8    1  0.2039519E+004  0.1043930E+01  0.7957747E-01            NaN
         13   -1    0    0    0    0  0.00000000000E+00  0.00000000000E+00  0.74505805969E-08  0.10566000000E+00  0.10566000000E+00 0. -1.
     999900   -1    0    0    0    0 -0.00000000000E+00 -0.00000000000E+00 -0.74505805969E-08  0.93827000000E+00  0.93827000000E+00 0. -1.
     999902    2    1    2    0    0  0.28467455957E-02 -0.98312978517E-02 -0.89000174164E-02  0.10303664943E+01  0.10302772170E+01 0.  0.
     999903    2    3    3    0    0 -0.12302864998E+00 -0.28402274584E-01  0.40195399110E-01  0.13986110050E+00  0.44751753122E-01 0.  0.
         14    1    1    2    0    0 -0.28467455957E-02  0.98312978517E-02  0.89000174164E-02  0.13563505740E-01  0.00000000000E+00 0. -1.
     999901    1    3    3    0    0  0.12587539557E+00  0.18570976732E-01 -0.49095416526E-01  0.89050539376E+00  0.88000000000E+00 0. -1.
        -11    1    4    4    0    0 -0.83175209092E-01 -0.76980890458E-02  0.44668434228E-01  0.94725424886E-01  0.51100000000E-03 0.  1.
         11    1    4    4    0    0 -0.39853440885E-01 -0.20704185538E-01 -0.44730351185E-02  0.45135675616E-01  0.51100000000E-03 0. -1.
</event>
<event>
 8    1  0.2039519E+004  0.1043930E+01  0.7957747E-01            NaN
         13   -1    0    0    0    0  0.00000000000E+00  0.00000000000E+00  0.74505805969E-08  0.10566000000E+00  0.10566000000E+00 0.  1.
     999900   -1    0    0    0    0 -0.00000000000E+00 -0.00000000000E+00 -0.74505805969E-08  0.93827000000E+00  0.93827000000E+00 0. -1.
     999902    2    1    2    0    0 -0.11919056418E-01 -0.62908639594E-02 -0.63456143195E-02  0.10290335005E+01  0.10289256725E+01 0.  0.
     999903    2    3    3    0    0  0.60549849555E-01  0.11510221218E+00  0.55617101181E-02  0.13766948643E+00  0.44801242654E-01 0.  0.
         14    1    1    2    0    0  0.11919056418E-01  0.62908639594E-02  0.63456143195E-02  0.14896499466E-01  0.00000000000E+00 0.  1.
     999901    1    3    3    0    0 -0.72468905973E-01 -0.12139307614E+00 -0.11907324438E-01  0.89136401411E+00  0.88000000000E+00 0.  1.
        -11    1    4    4    0    0  0.17775750945E-01  0.44995424554E-01  0.23219943107E-01  0.53665560944E-01  0.51100000000E-03 0. -1.
         11    1    4    4    0    0  0.42774098610E-01  0.70106787628E-01 -0.17658232989E-01  0.84003925484E-01  0.51100000000E-03 0.  1.
</event>
<event>
 8    1  0.2039519E+004  0.1043930E+01  0.7957747E-01            NaN
         13   -1    0    0    0    0  0.00000000000E+00  0.00000000000E+00  0.74505805969E-08  0.10566000000E+00  0.10566000000E+00 0. -1.
     999900   -1    0    0    0    0 -0.00000000000E+00 -0.00000000000E+00 -0.74505805969E-08  0.93827000000E+00  0.93827000000E+00 0.  1.
     999902    2    1    2    0    0  0.12753359031E-01  0.42572811032E-03  0.29318264361E-02  0.10308370623E+01  0.10307539105E+01 0.  0.
     999903    2    3    3    0    0 -0.82144991333E-01  0.98771949562E-01 -0.30867830938E-01  0.13964679474E+00  0.45218432895E-01 0.  0.
         14    1    1    2    0    0 -0.12753359031E-01 -0.42572811032E-03 -0.29318264361E-02  0.13092937686E-01  0.00000000000E+00 0.  1.
     999901    1    3    3    0    0  0.94898350364E-01 -0.98346221452E-01  0.33799657375E-01  0.89119026757E+00  0.88000000000E+00 0.  1.
        -11    1    4    4    0    0 -0.28936722716E-01  0.18024768802E-01 -0.25898483894E-01  0.42816104458E-01  0.51100000000E-03 0.  1.
         11    1    4    4    0    0 -0.53208268617E-01  0.80747180760E-01 -0.49693470440E-02  0.96830690284E-01  0.51100000000E-03 0. -1.
</event>
<event>
 8    1  0.2039519E+004  0.1043930E+01  0.7957747E-01            NaN
         13   -1    0    0    0    0  0.00000000000E+00  0.00000000000E+00  0.74505805969E-08  0.10566000000E+00  0.10566000000E+00 0. -1.
     999900   -1    0    0    0    0 -0.00000000000E+00 -0.00000000000E+00 -0.74505805969E-08  0.93827000000E+00  0.93827000000E+00 0.  1.
     999902    2    1    2    0    0  0.19900621278E-02 -0.12469447326E-01  0.96202867023E-03  0.10312661553E+01  0.10311883970E+01 0.  0.
     999903    2    3    3    0    0 -0.65711102792E-01 -0.87090538492E-02  0.11631755763E+00  0.14115128272E+00  0.44722631327E-01 0.  0.
         14    1    1    2    0    0 -0.19900621278E-02  0.12469447326E-01 -0.96202867023E-03  0.12663844718E-01  0.00000000000E+00 0. -1.
     999901    1    3    3    0    0  0.67701164920E-01 -0.37603934765E-02 -0.11535552896E+00  0.89011487256E+00  0.88000000000E+00 0.  1.
        -11    1    4    4    0    0 -0.70847275333E-03 -0.98509422786E-02  0.38494172559E-01  0.39744250394E-01  0.51100000000E-03 0. -1.
         11    1    4    4    0    0 -0.65002630039E-01  0.11418884294E-02  0.77823385068E-01  0.10140703233E+00  0.51100000000E-03 0.  1.
</event>
<event>
 8    1  0.2039519E+004  0.1043930E+01  0.7957747E-01            NaN
         13   -1    0    0    0    0  0.00000000000E+00  0.00000000000E+00  0.74505805969E-08  0.10566000000E+00  0.10566000000E+00 0. -1.
     999900   -1    0    0    0    0 -0.00000000000E+00 -0.00000000000E+00 -0.74505805969E-08  0.93827000000E+00  0.93827000000E+00 0.  1.
     999902    2    1    2    0    0  0.46079345483E-03  0.57426024195E-02 -0.12631503478E-01  0.10300467477E+01  0.10299531824E+01 0.  0.
     999903    2    3    3    0    0  0.54637701776E-01 -0.91237337880E-01  0.75829164453E-01  0.13866269135E+00  0.46559096989E-01 0.  0.
         14    1    1    2    0    0 -0.46079345483E-03 -0.57426024195E-02  0.12631503478E-01  0.13883252259E-01  0.00000000000E+00 0. -1.
     999901    1    3    3    0    0 -0.54176908321E-01  0.96979940299E-01 -0.88460667931E-01  0.89138405639E+00  0.88000000000E+00 0. -1.
        -11    1    4    4    0    0  0.24329664745E-01 -0.67470628789E-01  0.69032657409E-01  0.99548918858E-01  0.51100000000E-03 0. -1.
         11    1    4    4    0    0  0.30308037031E-01 -0.23766709091E-01  0.67965070438E-02  0.39113772494E-01  0.51100000000E-03 0.  1.
</event>
<event>
 8    1  0.2039519E+004  0.1043930E+01  0.7957747E-01            NaN
         13   -1    0    0    0    0  0.00000000000E+00  0.00000000000E+00  0.74505805969E-08  0.10566000000E+00  0.10566000000E+00 0. -1.
     999900   -1    0    0    0    0 -0.00000000000E+00 -0.00000000000E+00 -0.74505805969E-08  0.93827000000E+00  0.93827000000E+00 0.  1.
     999902    2    1    2    0    0 -0.53025940030E-02 -0.60459149033E-02 -0.12532338941E-01  0.10290393953E+01  0.10289316532E+01 0.  0.
     999903    2    3    3    0    0  0.40204044927E-03  0.98930162139E-02 -0.13242596301E+00  0.14074829800E+00  0.46641336872E-01 0.  0.
         14    1    1    2    0    0  0.53025940030E-02  0.60459149033E-02  0.12532338941E-01  0.14890604740E-01  0.00000000000E+00 0.  1.
     999901    1    3    3    0    0 -0.57046344523E-02 -0.15938931117E-01  0.11989362407E+00  0.88829109726E+00  0.88000000000E+00 0. -1.
        -11    1    4    4    0    0  0.10436240773E-01 -0.15452617571E-01 -0.73343439807E-01  0.75678397149E-01  0.51100000000E-03 0. -1.
         11    1    4    4    0    0 -0.10034200324E-01  0.25345633785E-01 -0.59082523200E-01  0.65069900852E-01  0.51100000000E-03 0.  1.
</event>
<event>
 7    1  0.2039519E+004  0.1043930E+01  0.7957747E-01            NaN
         13   -1    0    0    0    0  0.00000000000E+00  0.00000000000E+00  0.74505805969E-08  0.10566000000E+00  0.10566000000E+00 0.  1.
     999900   -1    0    0    0    0 -0.00000000000E+00 -0.00000000000E+00 -0.74505805969E-08  0.93827000000E+00  0.93827000000E+00 0.  1.
     999902    2    1    2    0    0  0.84107639338E-02 -0.10200099288E-01 -0.47218303867E-02  0.10298915294E+01  0.10297958456E+01 0.  0.
         14    1    1    2    0    0 -0.84107639338E-02  0.10200099288E-01  0.47218303867E-02  0.14038470630E-01  0.00000000000E+00 0.  1.
     999901    1    3    3    0    0  0.48190319435E-02 -0.56600190955E-01 -0.11446673301E+00  0.88922968779E+00  0.88000000000E+00 0.  1.
        -11    1    3    3    0    0  0.19084210286E-01  0.58524113819E-01  0.55229748539E-01  0.82703477710E-01  0.51100000000E-03 0.  1.
         11    1    3    3    0    0 -0.15492478295E-01 -0.12124022151E-01  0.54515154081E-01  0.57958363868E-01  0.51100000000E-03 0. -1.
</event>
<event>
 8    1  0.2039519E+004  0.1043930E+01  0.7957747E-01            NaN
         13   -1    0    0    0    0  0.00000000000E+00  0.00000000000E+00  0.74505805969E-08  0.10566000000E+00  0.10566000000E+00 0. -1.
     999900   -1    0    0    0    0 -0.00000000000E+00 -0.00000000000E+00 -0.74505805969E-08  0.93827000000E+00  0.93827000000E+00 0. -1.
     999902    2    1    2    0    0 -0.13446521538E-01 -0.56991363845E-02 -0.72285723716E-03  0.10293077013E+01  0.10292038342E+01 0.  0.
     999903    2    3    3    0    0 -0.11601521123E+00  0.48770025445E-01 -0.43533792678E-01  0.14064578476E+00  0.45254845568E-01 0.  0.
         14    1    1    2    0    0  0.13446521538E-01  0.56991363845E-02  0.72285723716E-03  0.14622298711E-01  0.00000000000E+00 0. -1.
     999901    1    3    3    0    0  0.10256868969E+00 -0.54469161830E-01  0.42810935441E-01  0.88866191653E+00  0.88000000000E+00 0.  1.
        -11    1    4    4    0    0 -0.72499465744E-02 -0.77806419499E-02 -0.69479791087E-02  0.12713600952E-01  0.51100000000E-03 0. -1.
         11    1    4    4    0    0 -0.10876526466E+00  0.56550667395E-01 -0.36585813569E-01  0.12793218381E+00  0.51100000000E-03 0.  1.
</event>
<event>
 8    1  0.2039519E+004  0.1043930E+01  0.7957747E-01            NaN
         13   -1    0    0    0    0  0.00000000000E+00  0.00000000000E+00  0.74505805969E-08  0.10566000000E+00  0.10566000000E+00 0.  1.
     999900   -1    0    0    0    0 -0.00000000000E+00 -0.00000000000E+00 -0.74505805969E-08  0.93827000000E+00  0.93827000000E+00 0. -1.
     999902    2    1    2    0    0  0.18906673817E-01  0.49888093015E-02  0.97329464900E-02  0.10220878211E+01  0.10218544090E+01 0.  0.
     999903    2    3    3    0    0  0.80911515046E-01  0.78134081008E-01  0.60537984621E-01  0.13542216649E+00  0.44974522932E-01 0.  0.
         14    1    1    2    0    0 -0.18906673817E-01 -0.49888093015E-02 -0.97329464900E-02  0.21842178931E-01  0.00000000000E+00 0. -1.
     999901    1    3    3    0    0 -0.62004841229E-01 -0.73145271706E-01 -0.50805038131E-01  0.88666565458E+00  0.88000000000E+00 0. -1.
        -11    1    4    4    0    0  0.59988015111E-01  0.28108622762E-01  0.40287471931E-01  0.77537075945E-01  0.51100000000E-03 0. -1.
         11    1    4    4    0    0  0.20923499935E-01  0.50025458246E-01  0.20250512690E-01  0.57885090545E-01  0.51100000000E-03 0.  1.
</event>
<event>
 8    1  0.2039519E+004  0.1043930E+01  0.7957747E-01            NaN
         13   -1    0    0    0    0  0.00000000000E+00  0.00000000000E+00  0.74505805969E-08  0.10566000000E+00  0.10566000000E+00 0.  1.
     999900   -1    0    0    0    0 -0.00000000000E+00 -0.00000000000E+00 -0.74505805969E-08  0.93827000000E+00  0.93827000000E+00 0.  1.
     999902    2    1    2    0    0 -0.60418901364E-02 -0.11892126676E-01 -0.26720586273E-02  0.10303260664E+01  0.10302362525E+01 0.  0.
     999903    2    3    3    0    0  0.11750387667E+00 -0.59598444528E-01  0.17619109524E-01  0.14018496475E+00  0.44522530254E-01 0.  0.
         14    1    1    2    0    0  0.60418901364E-02  0.11892126676E-01  0.26720586273E-02  0.13603933645E-01  0.00000000000E+00 0.  1.
     999901    1    3    3    0    0 -0.12354576680E+00  0.47706317851E-01 -0.20291168151E-01  0.89014110160E+00  0.88000000000E+00 0.  1.
        -11    1    4    4    0    0  0.55649876085E-01 -0.72332508775E-02  0.18635759740E-01  0.59133588498E-01  0.51100000000E-03 0. -1.
         11    1    4    4    0    0  0.61854000582E-01 -0.52365193650E-01 -0.10166502164E-02  0.81051376254E-01  0.51100000000E-03 0.  1.
</event>
<event>
 8    1  0.2039519E+004  0.1043930E+01  0.7957747E-01            NaN
         13   -1    0    0    0    0  0.00000000000E+00  0.00000000000E+00  0.74505805969E-08  0.10566000000E+00  0.10566000000E+00 0. -1.
     999900   -1    0    0    0    0 -0.00000000000E+00 -0.00000000000E+00 -0.74505805969E-08  0.93827000000E+00  0.93827000000E+00 0.  1.
     999902    2    1    2    0    0 -0.13225474301E-01 -0.26823503048E-03 -0.55706226347E-02  0.10295767092E+01  0.10294766550E+01 0.  0.
     999903    2    3    3    0    0 -0.56400232846E-02 -0.41804844293E-01 -0.12588955072E+00  0.14038636206E+00  0.45614655577E-01 0.  0.
         14    1    1    2    0    0  0.13225474301E-01  0.26823503048E-03  0.55706226347E-02  0.14353290809E-01  0.00000000000E+00 0.  1.
     999901    1    3    3    0    0 -0.75854510166E-02  0.41536609262E-01  0.12031892808E+00  0.88919034713E+00  0.88000000000E+00 0. -1.
        -11    1    4    4    0    0 -0.23185072456E-01 -0.33087288939E-01 -0.66145824930E-01  0.77510306094E-01  0.51100000000E-03 0.  1.
         11    1    4    4    0    0  0.17545049171E-01 -0.87175553535E-02 -0.59743725788E-01  0.62876055965E-01  0.51100000000E-03 0. -1.
</event>
<event>
 8    1  0.2039519E+004  0.1043930E+01  0.7957747E-01            NaN
         13   -1    0    0    0    0  0.00000000000E+00  0.00000000000E+00  0.74505805969E-08  0.10566000000E+00  0.10566000000E+00 0.  1.
     999900   -1    0    0    0    0 -0.00000000000E+00 -0.00000000000E+00 -0.74505805969E-08  0.93827000000E+00  0.93827000000E+00 0. -1.
     999902    2    1    2    0    0 -0.11592383528E-02  0.16515824714E-02  0.13361184164E-01  0.10304173097E+01  0.10303287045E+01 0.  0.
     999903    2    3    3    0    0 -0.30090803178E-01  0.12846763019E+00  0.18206273486E-01  0.14084279321E+00  0.45780296675E-01 0.  0.
         14    1    1    2    0    0  0.11592383528E-02 -0.16515824714E-02 -0.13361184164E-01  0.13512690350E-01  0.00000000000E+00 0. -1.
     999901    1    3    3    0    0  0.28931564825E-01 -0.12681604772E+00 -0.48450893220E-02  0.88957451644E+00  0.88000000000E+00 0.  1.
        -11    1    4    4    0    0 -0.38135379469E-01  0.12533291240E+00  0.17364462192E-01  0.13215306188E+00  0.51100000000E-03 0. -1.
         11    1    4    4    0    0  0.80445762914E-02  0.31347177946E-02  0.84181129382E-03  0.86897313315E-02  0.51100000000E-03 0.  1.
</event>
<event>
 8    1  0.2039519E+004  0.1043930E+01  0.7957747E-01            NaN
         13   -1    0    0    0    0  0.00000000000E+00  0.00000000000E+00  0.74505805969E-08  0.10566000000E+00  0.10566000000E+00 0. -1.
     999900   -1    0    0    0    0 -0.00000000000E+00 -0.00000000000E+00 -0.74505805969E-08  0.93827000000E+00  0.93827000000E+00 0. -1.
     999902    2    1    2    0    0  0.88306957287E-02 -0.67320123929E-02  0.70613782733E-02  0.10307708115E+01  0.10306868107E+01 0.  0.
     999903    2    3    3    0    0  0.35352354006E-01 -0.53254144173E-01  0.11892577217E+00  0.14207437871E+00  0.44226654768E-01 0.  0.
         14    1    1    2    0    0 -0.88306957287E-02  0.67320123929E-02 -0.70613782733E-02  0.13159188464E-01  0.00000000000E+00 0.  1.
     999901    1    3    3    0    0 -0.26521658277E-01  0.46522131781E-01 -0.11186439390E+00  0.88869643283E+00  0.88000000000E+00 0. -1.
        -11    1    4    4    0    0  0.28291696645E-01 -0.29265047985E-01  0.32464157800E-01  0.52067703956E-01  0.51100000000E-03 0.  1.
         11    1    4    4    0    0  0.70606573609E-02 -0.23989096189E-01  0.86461614374E-01  0.90006674750E-01  0.51100000000E-03 0. -1.
</event>
<event>
 7    1  0.2039519E+004  0.1043930E+01  0.7957747E-01            NaN
         13   -1    0    0    0    0  0.00000000000E+00  0.00000000000E+00  0.74505805969E-08  0.10566000000E+00  0.10566000000E+00 0.  1.
     999900   -1    0    0    0    0 -0.00000000000E+00 -0.00000000000E+00 -0.74505805969E-08  0.93827000000E+00  0.93827000000E+00 0. -1.
     999903    2    1    2    0    0 -0.97836451093E-01  0.29229138362E-02 -0.38031326725E-01  0.11444676867E+00  0.45510069856E-01 0.  0.
         14    1    1    2    0    0  0.24858825737E-01  0.75814352434E-02 -0.34763862092E-01  0.43404671234E-01  0.00000000000E+00 0. -1.
     999901    1    1    2    0    0  0.72977625356E-01 -0.10504349080E-01  0.72795188817E-01  0.88607856010E+00  0.88000000000E+00 0.  1.
        -11    1    3    3    0    0 -0.34430868546E-01 -0.53338257632E-02 -0.36533084564E-01  0.50486253523E-01  0.51100000000E-03 0.  1.
         11    1    3    3    0    0 -0.63405582547E-01  0.82567395994E-02 -0.14982421610E-02  0.63960515144E-01  0.51100000000E-03 0. -1.
</event>
<event>
 8    1  0.2039519E+004  0.1043930E+01  0.7957747E-01            NaN
         13   -1    0    0    0    0  0.00000000000E+00  0.00000000000E+00  0.74505805969E-08  0.10566000000E+00  0.10566000000E+00 0.  1.
     999900   -1    0    0    0    0 -0.00000000000E+00 -0.00000000000E+00 -0.74505805969E-08  0.93827000000E+00  0.93827000000E+00 0. -1.
     999902    2    1    2    0    0  0.20182377180E-02 -0.10758269044E-02  0.16872776648E-01  0.10269029251E+01  0.10267617525E+01 0.  0.
     999903    2    3    3    0    0 -0.32563611681E-01  0.84361482402E-01  0.95023804565E-01  0.13864450479E+00  0.44894618339E-01 0.  0.
         14    1    1    2    0    0 -0.20182377180E-02  0.10758269044E-02 -0.16872776648E-01  0.17027074876E-01  0.00000000000E+00 0. -1.
     999901    1    3    3    0    0  0.34581849399E-01 -0.85437309306E-01 -0.78151027917E-01  0.88825842033E+00  0.88000000000E+00 0. -1.
        -11    1    4    4    0    0 -0.22964082388E-01  0.56455891575E-01  0.31521809791E-01  0.68618528015E-01  0.51100000000E-03 0. -1.
         11    1    4    4    0    0 -0.95995292936E-02  0.27905590826E-01  0.63501994774E-01  0.70025976775E-01  0.51100000000E-03 0.  1.
</event>
<event>
 8    1  0.2439956E+004  0.1043930E+01  0.7957747E-01            NaN
         13   -1    0    0    0    0  0.00000000000E+00  0.00000000000E+00  0.74505805969E-08  0.10566000000E+00  0.10566000000E+00 0.  1.
     999900   -1    0    0    0    0 -0.00000000000E+00 -0.00000000000E+00 -0.74505805969E-08  0.93827000000E+00  0.93827000000E+00 0.  1.
     999902    2    1    2    0    0  0.42901376516E-02 -0.16732932523E-02  0.13414340053E-01  0.10297472742E+01  0.10296496001E+01 0.  0.
     999903    2    3    3    0    0 -0.15335006580E-01 -0.51201039251E-01  0.12294084765E+00  0.14135873323E+00  0.44845630691E-01 0.  0.
         14    1    1    2    0    0 -0.42901376516E-02  0.16732932523E-02 -0.13414340053E-01  0.14182725776E-01  0.00000000000E+00 0. -1.
     999901    1    3    3    0    0  0.19625144231E-01  0.49527745999E-01 -0.10952650759E+00  0.88838854100E+00  0.88000000000E+00 0.  1.
        -11    1    4    4    0    0  0.13333494719E-01 -0.30135056381E-01  0.45980174325E-01  0.56571558724E-01  0.51100000000E-03 0.  1.
         11    1    4    4    0    0 -0.28668501298E-01 -0.21065982870E-01  0.76960673322E-01  0.84787174503E-01  0.51100000000E-03 0. -1.
</event>
<event>
 8    1  0.2039519E+004  0.1043930E+01  0.7957747E-01            NaN
         13   -1    0    0    0    0  0.00000000000E+00  0.00000000000E+00  0.74505805969E-08  0.10566000000E+00  0.10566000000E+00 0. -1.
     999900   -1    0    0    0    0 -0.00000000000E+00 -0.00000000000E+00 -0.74505805969E-08  0.93827000000E+00  0.93827000000E+00 0. -1.
     999902    2    1    2    0    0  0.40987471152E-02  0.68973060904E-02 -0.11203035922E-01  0.10301502840E+01  0.10300581183E+01 0.  0.
     999903    2    3    3    0    0  0.98988106902E-01 -0.30258834629E-01  0.81707854763E-01  0.13941070196E+00  0.45220879151E-01 0.  0.
         14    1    1    2    0    0 -0.40987471152E-02 -0.68973060904E-02  0.11203035922E-01  0.13779716002E-01  0.00000000000E+00 0. -1.
     999901    1    3    3    0    0 -0.94889359786E-01  0.37156140720E-01 -0.92910890685E-01  0.89073958203E+00  0.88000000000E+00 0.  1.
        -11    1    4    4    0    0  0.56576153695E-01 -0.39494960911E-01  0.43387050039E-01  0.81507118317E-01  0.51100000000E-03 0.  1.
         11    1    4    4    0    0  0.42411953206E-01  0.92361262818E-02  0.38320804724E-01  0.57903583647E-01  0.51100000000E-03 0. -1.
</event>
<event>
 8    1  0.2039519E+004  0.1043930E+01  0.7957747E-01            NaN
         13   -1    0    0    0    0  0.00000000000E+00  0.00000000000E+00  0.74505805969E-08  0.10566000000E+00  0.10566000000E+00 0. -1.
     999900   -1    0    0    0    0 -0.00000000000E+00 -0.00000000000E+00 -0.74505805969E-08  0.93827000000E+00  0.93827000000E+00 0.  1.
     999902    2    1    2    0    0 -0.82737084045E-03  0.83600469032E-02 -0.95475419635E-02  0.10312126699E+01  0.10311342493E+01 0.  0.
     999903    2    3    3    0    0 -0.81930650610E-01 -0.38332583114E-01 -0.10013132027E+00  0.14162660631E+00  0.43009253388E-01 0.  0.
         14    1    1    2    0    0  0.82737084045E-03 -0.83600469032E-02  0.95475419635E-02  0.12717330077E-01  0.00000000000E+00 0. -1.
     999901    1    3    3    0    0  0.81103279769E-01  0.46692630018E-01  0.90583778309E-01  0.88958606362E+00  0.88000000000E+00 0. -1.
        -11    1    4    4    0    0 -0.44299699541E-01 -0.40173696576E-01 -0.44976938998E-01  0.74830310962E-01  0.51100000000E-03 0.  1.
         11    1    4    4    0    0 -0.37630951069E-01  0.18411134612E-02 -0.55154381275E-01  0.66796295346E-01  0.51100000000E-03 0. -1.
</event>
<event>
 8    1  0.2039519E+004  0.1043930E+01  0.7957747E-01            NaN
         13   -1    0    0    0    0  0.00000000000E+00  0.00000000000E+00  0.74505805969E-08  0.10566000000E+00  0.10566000000E+00 0. -1.
     999900   -1    0    0    0    0 -0.00000000000E+00 -0.00000000000E+00 -0.74505805969E-08  0.93827000000E+00  0.93827000000E+00 0. -1.
     999902    2    1    2    0    0  0.10811203334E-01  0.33903875487E-02  0.78929839817E-02  0.10301214504E+01  0.10300288960E+01 0.  0.
     999903    2    3    3    0    0  0.18322702644E-01 -0.45169468725E-01 -0.12196615654E+00  0.13923544277E+00  0.46203493852E-01 0.  0.
         14    1    1    2    0    0 -0.10811203334E-01 -0.33903875487E-02 -0.78929839817E-02  0.13808549576E-01  0.00000000000E+00 0.  1.
     999901    1    3    3    0    0 -0.75114993100E-02  0.48559856273E-01  0.12985914052E+00  0.89088600766E+00  0.88000000000E+00 0.  1.
        -11    1    4    4    0    0  0.30229252241E-01 -0.24102371249E-01 -0.97189729234E-01  0.10459845401E+00  0.51100000000E-03 0.  1.
         11    1    4    4    0    0 -0.11906549596E-01 -0.21067097475E-01 -0.24776427305E-01  0.34636988760E-01  0.51100000000E-03 0. -1.
</event>
<event>
 8    1  0.2039519E+004  0.1043930E+01  0.7957747E-01            NaN
         13   -1    0    0    0    0  0.00000000000E+00  0.00000000000E+00  0.74505805969E-08  0.10566000000E+00  0.10566000000E+00 0. -1.
     999900   -1    0    0    0    0 -0.00000000000E+00 -0.00000000000E+00 -0.74505805969E-08  0.93827000000E+00  0.93827000000E+00 0.  1.
     999902    2    1    2    0    0 -0.16209418026E-02  0.13081699995E-01  0.56897272560E-02  0.10295727258E+01  0.10294726156E+01 0.  0.
     999903    2    3    3    0    0 -0.40896461811E-01 -0.11955720102E+00  0.31016934863E-01  0.13840657292E+00  0.47200469028E-01 0.  0.
         14    1    1    2    0    0  0.16209418026E-02 -0.13081699995E-01 -0.56897272560E-02  0.14357274230E-01  0.00000000000E+00 0.  1.
     999901    1    3    3    0    0  0.39275520009E-01  0.13263890101E+00 -0.25327207607E-01  0.89116615285E+00  0.88000000000E+00 0.  1.
        -11    1    4    4    0    0 -0.14072969917E-01 -0.89353826546E-01  0.54982634755E-02  0.90623654875E-01  0.51100000000E-03 0. -1.
         11    1    4    4    0    0 -0.26823491895E-01 -0.30203374471E-01  0.25518671387E-01  0.47782918048E-01  0.51100000000E-03 0.  1.
</event>
<event>
 8    1  0.2039519E+004  0.1043930E+01  0.7957747E-01            NaN
         13   -1    0    0    0    0  0.00000000000E+00  0.00000000000E+00  0.74505805969E-08  0.10566000000E+00  0.10566000000E+00 0.  1.
     999900   -1    0    0    0    0 -0.00000000000E+00 -0.00000000000E+00 -0.74505805969E-08  0.93827000000E+00  0.93827000000E+00 0. -1.
     999902    2    1    2    0    0 -0.13311209649E-01  0.15954943184E-02  0.56879162454E-02  0.10293668171E+01  0.10292637941E+01 0.  0.
     999903    2    3    3    0    0 -0.37928837062E-01  0.25625671575E-01  0.12488369949E+00  0.14066489198E+00  0.45775558018E-01 0.  0.
         14    1    1    2    0    0  0.13311209649E-01 -0.15954943184E-02 -0.56879162454E-02  0.14563182882E-01  0.00000000000E+00 0.  1.
     999901    1    3    3    0    0  0.24617627412E-01 -0.24030177257E-01 -0.11919578325E+00  0.88870192514E+00  0.88000000000E+00 0. -1.
        -11    1    4    4    0    0 -0.40403632659E-01  0.24698647716E-02  0.67142552349E-01  0.78402405709E-01  0.51100000000E-03 0.  1.
         11    1    4    4    0    0  0.24747955973E-02  0.23155806804E-01  0.57741147145E-01  0.62262486271E-01  0.51100000000E-03 0. -1.
</event>
<event>
 8    1  0.2039519E+004  0.1043930E+01  0.7957747E-01            NaN
         13   -1    0    0    0    0  0.00000000000E+00  0.00000000000E+00  0.74505805969E-08  0.10566000000E+00  0.10566000000E+00 0. -1.
     999900   -1    0    0    0    0 -0.00000000000E+00 -0.00000000000E+00 -0.74505805969E-08  0.93827000000E+00  0.93827000000E+00 0.  1.
     999902    2    1    2    0    0  0.79202497743E-02 -0.11236740537E-01 -0.55437540371E-02  0.10291067782E+01  0.10290000161E+01 0.  0.
     999903    2    3    3    0    0 -0.43143518993E-01  0.56882347094E-01 -0.11028583715E+00  0.13881546493E+00  0.44830824071E-01 0.  0.
         14    1    1    2    0    0 -0.79202497743E-02  0.11236740537E-01  0.55437540371E-02  0.14823221756E-01  0.00000000000E+00 0.  1.
     999901    1    3    3    0    0  0.51063768767E-01 -0.68119087631E-01  0.10474208311E+00  0.89029131331E+00  0.88000000000E+00 0. -1.
        -11    1    4    4    0    0 -0.29184201573E-01  0.38538189365E-02 -0.37017498548E-01  0.47298264890E-01  0.51100000000E-03 0. -1.
         11    1    4    4    0    0 -0.13959317420E-01  0.53028528157E-01 -0.73268338603E-01  0.91517200044E-01  0.51100000000E-03 0.  1.
</event>
<event>
 8    1  0.2039519E+004  0.1043930E+01  0.7957747E-01            NaN
         13   -1    0    0    0    0  0.00000000000E+00  0.00000000000E+00  0.74505805969E-08  0.10566000000E+00  0.10566000000E+00 0. -1.
     999900   -1    0    0    0    0 -0.00000000000E+00 -0.00000000000E+00 -0.74505805969E-08  0.93827000000E+00  0.93827000000E+00 0.  1.
     999902    2    1    2    0    0  0.52923187952E-02  0.13119542099E-01  0.37422968642E-02  0.10292966200E+01  0.10291925943E+01 0.  0.
     999903    2    3    3    0    0 -0.54225226816E-01  0.12167102700E+00 -0.71321529798E-02  0.14056493007E+00  0.44310471942E-01 0.  0.
         14    1    1    2    0    0 -0.52923187952E-02 -0.13119542099E-01 -0.37422968642E-02  0.14633379956E-01  0.00000000000E+00 0.  1.
     999901    1    3    3    0    0  0.59517545611E-01 -0.10855148490E+00  0.10874449844E-01  0.88873168998E+00  0.88000000000E+00 0.  1.
        -11    1    4    4    0    0 -0.46293296652E-01  0.66240000893E-01  0.11322546932E-01  0.81604339488E-01  0.51100000000E-03 0. -1.
         11    1    4    4    0    0 -0.79319301641E-02  0.55431026109E-01 -0.18454699912E-01  0.58960590579E-01  0.51100000000E-03 0.  1.
</event>
<event>
 8    1  0.2039519E+004  0.1043930E+01  0.7957747E-01            NaN
         13   -1    0    0    0    0  0.00000000000E+00  0.00000000000E+00  0.74505805969E-08  0.10566000000E+00  0.10566000000E+00 0.  1.
     999900   -1    0    0    0    0 -0.00000000000E+00 -0.00000000000E+00 -0.74505805969E-08  0.93827000000E+00  0.93827000000E+00 0. -1.
     999902    2    1    2    0    0 -0.17406608339E-02  0.64407979524E-02  0.12703471202E-01  0.10295810642E+01  0.10294810711E+01 0.  0.
     999903    2    3    3    0    0 -0.20044022172E-01 -0.12957636952E+00  0.56974520432E-02  0.13891571335E+00  0.45533680849E-01 0.  0.
         14    1    1    2    0    0  0.17406608339E-02 -0.64407979524E-02 -0.12703471202E-01  0.14348935813E-01  0.00000000000E+00 0. -1.
     999901    1    3    3    0    0  0.18303361338E-01  0.13601716747E+00  0.70060191587E-02  0.89066535084E+00  0.88000000000E+00 0. -1.
        -11    1    4    4    0    0 -0.36184115050E-02 -0.72196387912E-01  0.24515366788E-01  0.76332664431E-01  0.51100000000E-03 0.  1.
         11    1    4    4    0    0 -0.16425610667E-01 -0.57379981608E-01 -0.18817914745E-01  0.62583048915E-01  0.51100000000E-03 0. -1.
</event>
<event>
 8    1  0.2039519E+004  0.1043930E+01  0.7957747E-01            NaN
         13   -1    0    0    0    0  0.00000000000E+00  0.00000000000E+00  0.74505805969E-08  0.10566000000E+00  0.10566000000E+00 0. -1.
     999900   -1    0    0    0    0 -0.00000000000E+00 -0.00000000000E+00 -0.74505805969E-08  0.93827000000E+00  0.93827000000E+00 0. -1.
     999902    2    1    2    0    0 -0.12265313521E-01 -0.39625284680E-02 -0.63116122428E-02  0.10295781361E+01  0.10294781019E+01 0.  0.
     999903    2    3    3    0    0  0.73226723459E-02 -0.13181292250E+00  0.93970305134E-02  0.13998487294E+00  0.45598162270E-01 0.  0.
         14    1    1    2    0    0  0.12265313521E-01  0.39625284680E-02  0.63116122428E-02  0.14351863877E-01  0.00000000000E+00 0. -1.
     999901    1    3    3    0    0 -0.19587985867E-01  0.12785039403E+00 -0.15708642756E-01  0.88959326318E+00  0.88000000000E+00 0. -1.
        -11    1    4    4    0    0  0.21201348429E-01 -0.86705197407E-01  0.20309453118E-01  0.91542467957E-01  0.51100000000E-03 0.  1.
         11    1    4    4    0    0 -0.13878676083E-01 -0.45107725089E-01 -0.10912422605E-01  0.48442404984E-01  0.51100000000E-03 0. -1.
</event>
<event>
 8    1  0.2039519E+004  0.1043930E+01  0.7957747E-01            NaN
         13   -1    0    0    0    0  0.00000000000E+00  0.00000000000E+00  0.74505805969E-08  0.10566000000E+00  0.10566000000E+00 0.  1.
     999900   -1    0    0    0    0 -0.00000000000E+00 -0.00000000000E+00 -0.74505805969E-08  0.93827000000E+00  0.93827000000E+00 0. -1.
     999902    2    1    2    0    0 -0.30500920825E-02 -0.80731380123E-02  0.10606456828E-01  0.10302560998E+01  0.10301653536E+01 0.  0.
     999903    2    3    3    0    0  0.10085228670E+00 -0.74464908352E-01  0.46350329406E-01  0.14094108484E+00  0.44719459416E-01 0.  0.
         14    1    1    2    0    0  0.30500920825E-02  0.80731380123E-02 -0.10606456828E-01  0.13673900157E-01  0.00000000000E+00 0.  1.
     999901    1    3    3    0    0 -0.10390237878E+00  0.66391770340E-01 -0.35743872578E-01  0.88931501500E+00  0.88000000000E+00 0. -1.
        -11    1    4    4    0    0  0.19197146918E-01 -0.85341429154E-02 -0.83232094983E-02  0.22603074624E-01  0.51100000000E-03 0. -1.
         11    1    4    4    0    0  0.81655139784E-01 -0.65930765437E-01  0.54673538904E-01  0.11833801021E+00  0.51100000000E-03 0.  1.
</event>
<event>
 7    1  0.2452744E+004  0.1043930E+01  0.7957747E-01            NaN
         13   -1    0    0    0    0  0.00000000000E+00  0.00000000000E+00  0.74505805969E-08  0.10566000000E+00  0.10566000000E+00 0. -1.
     999900   -1    0    0    0    0 -0.00000000000E+00 -0.00000000000E+00 -0.74505805969E-08  0.93827000000E+00  0.93827000000E+00 0.  1.
     999903    2    1    2    0    0 -0.48108269402E-01  0.49618175460E-01 -0.38893763927E-01  0.91131388723E-01  0.44898064738E-01 0.  0.
         14    1    1    2    0    0 -0.35886225829E-01 -0.27006143378E-01 -0.46190572934E-01  0.64426097293E-01  0.00000000000E+00 0.  1.
     999901    1    1    2    0    0  0.83994495231E-01 -0.22612032082E-01  0.85084336862E-01  0.88837251398E+00  0.88000000000E+00 0.  1.
        -11    1    3    3    0    0 -0.51911673246E-01  0.25709479722E-01 -0.30730973742E-01  0.65577839511E-01  0.51100000000E-03 0. -1.
         11    1    3    3    0    0  0.38034038447E-02  0.23908695738E-01 -0.81627901858E-02  0.25553549211E-01  0.51100000000E-03 0.  1.
</event>
<event>
 8    1  0.2039519E+004  0.1043930E+01  0.7957747E-01            NaN
         13   -1    0    0    0    0  0.00000000000E+00  0.00000000000E+00  0.74505805969E-08  0.10566000000E+00  0.10566000000E+00 0.  1.
     999900   -1    0    0    0    0 -0.00000000000E+00 -0.00000000000E+00 -0.74505805969E-08  0.93827000000E+00  0.93827000000E+00 0. -1.
     999902    2    1    2    0    0 -0.13610858074E-01 -0.41040010292E-03 -0.43518318754E-02  0.10296344648E+01  0.10295352198E+01 0.  0.
     999903    2    3    3    0    0  0.65707994502E-01  0.10427940274E+00 -0.45405009319E-01  0.13893990517E+00  0.45287393395E-01 0.  0.
         14    1    1    2    0    0  0.13610858074E-01  0.41040010292E-03  0.43518318754E-02  0.14295535192E-01  0.00000000000E+00 0. -1.
     999901    1    3    3    0    0 -0.79318852576E-01 -0.10468980284E+00  0.41053177443E-01  0.89069455964E+00  0.88000000000E+00 0. -1.
        -11    1    4    4    0    0  0.38167021746E-01  0.67900720518E-01 -0.51056786492E-02  0.78061248205E-01  0.51100000000E-03 0.  1.
         11    1    4    4    0    0  0.27540972755E-01  0.36378682219E-01 -0.40299330670E-01  0.60878656964E-01  0.51100000000E-03 0. -1.
</event>
<event>
 8    1  0.2039519E+004  0.1043930E+01  0.7957747E-01            NaN
         13   -1    0    0    0    0  0.00000000000E+00  0.00000000000E+00  0.74505805969E-08  0.10566000000E+00  0.10566000000E+00 0. -1.
     999900   -1    0    0    0    0 -0.00000000000E+00 -0.00000000000E+00 -0.74505805969E-08  0.93827000000E+00  0.93827000000E+00 0.  1.
     999902    2    1    2    0    0  0.71538961477E-02  0.11296817181E-01  0.23511711646E-02  0.10303533909E+01  0.10302639399E+01 0.  0.
     999903    2    3    3    0    0 -0.12113829724E+00 -0.34905166858E-01 -0.36963665998E-01  0.13898412588E+00  0.45358757847E-01 0.  0.
         14    1    1    2    0    0 -0.71538961477E-02 -0.11296817181E-01 -0.23511711646E-02  0.13576609089E-01  0.00000000000E+00 0.  1.
     999901    1    3    3    0    0  0.12829219338E+00  0.46201984039E-01  0.39314837162E-01  0.89136926503E+00  0.88000000000E+00 0.  1.
        -11    1    4    4    0    0 -0.73635310954E-01  0.14791261132E-02 -0.26277572243E-01  0.78199224788E-01  0.51100000000E-03 0.  1.
         11    1    4    4    0    0 -0.47502986281E-01 -0.36384292971E-01 -0.10686093755E-01  0.60784901097E-01  0.51100000000E-03 0. -1.
</event>
<event>
 8    1  0.2039519E+004  0.1043930E+01  0.7957747E-01            NaN
         13   -1    0    0    0    0  0.00000000000E+00  0.00000000000E+00  0.74505805969E-08  0.10566000000E+00  0.10566000000E+00 0. -1.
     999900   -1    0    0    0    0 -0.00000000000E+00 -0.00000000000E+00 -0.74505805969E-08  0.93827000000E+00  0.93827000000E+00 0. -1.
     999902    2    1    2    0    0 -0.40055414235E-02 -0.13276469620E-01 -0.10938492808E-02  0.10300193741E+01  0.10299254368E+01 0.  0.
     999903    2    3    3    0    0 -0.89963245111E-01 -0.25878993949E-01 -0.95028704871E-01  0.14076614380E+00  0.44961591299E-01 0.  0.
         14    1    1    2    0    0  0.40055414235E-02  0.13276469620E-01  0.10938492808E-02  0.13910625935E-01  0.00000000000E+00 0. -1.
     999901    1    3    3    0    0  0.85957703687E-01  0.12602524329E-01  0.93934855590E-01  0.88925323027E+00  0.88000000000E+00 0.  1.
        -11    1    4    4    0    0 -0.65028755368E-01 -0.38735918991E-01 -0.66582818744E-01  0.10081043258E+00  0.51100000000E-03 0. -1.
         11    1    4    4    0    0 -0.24934489743E-01  0.12856925042E-01 -0.28445886127E-01  0.39955711216E-01  0.51100000000E-03 0.  1.
</event>
<event>
 8    1  0.2039519E+004  0.1043930E+01  0.7957747E-01            NaN
         13   -1    0    0    0    0  0.00000000000E+00  0.00000000000E+00  0.74505805969E-08  0.10566000000E+00  0.10566000000E+00 0.  1.
     999900   -1    0    0    0    0 -0.00000000000E+00 -0.00000000000E+00 -0.74505805969E-08  0.93827000000E+00  0.93827000000E+00 0.  1.
     999902    2    1    2    0    0 -0.93030253380E-02  0.36328920978E-03 -0.58121550272E-02  0.10329546000E+01  0.10328962902E+01 0.  0.
     999903    2    3    3    0    0 -0.11759953615E+00  0.46854867908E-01  0.50936097549E-01  0.14328614190E+00  0.43719593740E-01 0.  0.
         14    1    1    2    0    0  0.93030253380E-02 -0.36328920978E-03  0.58121550272E-02  0.10975400018E-01  0.00000000000E+00 0.  1.
     999901    1    3    3    0    0  0.10829651081E+00 -0.46491578699E-01 -0.56748252576E-01  0.88966845809E+00  0.88000000000E+00 0. -1.
        -11    1    4    4    0    0 -0.12242519088E-01  0.21395870641E-02  0.21932301858E-01  0.25213966214E-01  0.51100000000E-03 0. -1.
         11    1    4    4    0    0 -0.10535701706E+00  0.44715280844E-01  0.29003795691E-01  0.11807217568E+00  0.51100000000E-03 0.  1.
</event>
<event>
 8    1  0.2039519E+004  0.1043930E+01  0.7957747E-01            NaN
         13   -1    0    0    0    0  0.00000000000E+00  0.00000000000E+00  0.74505805969E-08  0.10566000000E+00  0.10566000000E+00 0.  1.
     999900   -1    0    0    0    0 -0.00000000000E+00 -0.00000000000E+00 -0.74505805969E-08  0.93827000000E+00  0.93827000000E+00 0.  1.
     999902    2    1    2    0    0  0.21822455128E-03  0.53463603534E-03  0.14826852087E-01  0.10290919071E+01  0.10289849291E+01 0.  0.
     999903    2    3    3    0    0 -0.66418237006E-01 -0.78005254623E-01 -0.80621154518E-01  0.13795821658E+00  0.45127563766E-01 0.  0.
         14    1    1    2    0    0 -0.21822455128E-03 -0.53463603534E-03 -0.14826852087E-01  0.14838092885E-01  0.00000000000E+00 0. -1.
     999901    1    3    3    0    0  0.66636461557E-01  0.78539890659E-01  0.95448006605E-01  0.89113369053E+00  0.88000000000E+00 0.  1.
        -11    1    4    4    0    0 -0.53048300001E-01 -0.48474137672E-01 -0.30060347220E-01  0.77895762093E-01  0.51100000000E-03 0.  1.
         11    1    4    4    0    0 -0.13369937005E-01 -0.29531116951E-01 -0.50560807298E-01  0.60062454491E-01  0.51100000000E-03 0. -1.
</event>
<event>
 8    1  0.2039519E+004  0.1043930E+01  0.7957747E-01            NaN
         13   -1    0    0    0    0  0.00000000000E+00  0.00000000000E+00  0.74505805969E-08  0.10566000000E+00  0.10566000000E+00 0.  1.
     999900   -1    0    0    0    0 -0.00000000000E+00 -0.00000000000E+00 -0.74505805969E-08  0.93827000000E+00  0.93827000000E+00 0. -1.
     999902    2    1    2    0    0  0.13477912893E-01 -0.32747374549E-03 -0.22553285745E-02  0.10302607688E+01  0.10301700849E+01 0.  0.
     999903    2    3    3    0    0 -0.10580976392E+00 -0.24530193276E-01 -0.74540462774E-01  0.13894687228E+00  0.44187285540E-01 0.  0.
         14    1    1    2    0    0 -0.13477912893E-01  0.32747374549E-03  0.22553285745E-02  0.13669231214E-01  0.00000000000E+00 0.  1.
     999901    1    3    3    0    0  0.11928767681E+00  0.24202719531E-01  0.72285134199E-01  0.89131389650E+00  0.88000000000E+00 0.  1.
        -11    1    4    4    0    0 -0.20441289536E-01 -0.19703791816E-01 -0.34054068996E-01  0.44339897001E-01  0.51100000000E-03 0.  1.
         11    1    4    4    0    0 -0.85368474386E-01 -0.48264014601E-02 -0.40486393778E-01  0.94606975283E-01  0.51100000000E-03 0. -1.
</event>
<event>
 8    1  0.2039519E+004  0.1043930E+01  0.7957747E-01            NaN
         13   -1    0    0    0    0  0.00000000000E+00  0.00000000000E+00  0.74505805969E-08  0.10566000000E+00  0.10566000000E+00 0. -1.
     999900   -1    0    0    0    0 -0.00000000000E+00 -0.00000000000E+00 -0.74505805969E-08  0.93827000000E+00  0.93827000000E+00 0.  1.
     999902    2    1    2    0    0  0.78514706030E-02 -0.47800777159E-02 -0.10457124133E-01  0.10300071347E+01  0.10299130309E+01 0.  0.
     999903    2    3    3    0    0  0.11391573313E+00 -0.42902295895E-01  0.54405274416E-01  0.14045103074E+00  0.44149257127E-01 0.  0.
         14    1    1    2    0    0 -0.78514706030E-02  0.47800777159E-02  0.10457124133E-01  0.13922865321E-01  0.00000000000E+00 0. -1.
     999901    1    3    3    0    0 -0.10606426253E+00  0.38122218179E-01 -0.64862398549E-01  0.88955610394E+00  0.88000000000E+00 0.  1.
        -11    1    4    4    0    0  0.63416996538E-01 -0.24414792478E-02  0.16983634115E-01  0.65699172138E-01  0.51100000000E-03 0.  1.
         11    1    4    4    0    0  0.50498736593E-01 -0.40460816647E-01  0.37421640300E-01  0.74751858605E-01  0.51100000000E-03 0. -1.
</event>
<event>
 8    1  0.2039519E+004  0.1043930E+01  0.7957747E-01            NaN
         13   -1    0    0    0    0  0.00000000000E+00  0.00000000000E+00  0.74505805969E-08  0.10566000000E+00  0.10566000000E+00 0.  1.
     999900   -1    0    0    0    0 -0.00000000000E+00 -0.00000000000E+00 -0.74505805969E-08  0.93827000000E+00  0.93827000000E+00 0.  1.
     999902    2    1    2    0    0 -0.43729393789E-02  0.12103791968E-01 -0.37509533540E-02  0.10305249998E+01  0.10304378105E+01 0.  0.
     999903    2    3    3    0    0 -0.12867544259E+00  0.23168360895E-01  0.27689076063E-01  0.14116454846E+00  0.45459898096E-01 0.  0.
         14    1    1    2    0    0  0.43729393789E-02 -0.12103791968E-01  0.37509533540E-02  0.13405000182E-01  0.00000000000E+00 0.  1.
     999901    1    3    3    0    0  0.12430250322E+00 -0.11064568927E-01 -0.31440029417E-01  0.88936045136E+00  0.88000000000E+00 0. -1.
        -11    1    4    4    0    0 -0.36912869615E-01  0.27938681163E-01  0.13196152883E-01  0.48140725174E-01  0.51100000000E-03 0. -1.
         11    1    4    4    0    0 -0.91762572980E-01 -0.47703202675E-02  0.14492923180E-01  0.93023823285E-01  0.51100000000E-03 0.  1.
</event>
<event>
 8    1  0.2039519E+004  0.1043930E+01  0.7957747E-01            NaN
         13   -1    0    0    0    0  0.00000000000E+00  0.00000000000E+00  0.74505805969E-08  0.10566000000E+00  0.10566000000E+00 0.  1.
     999900   -1    0    0    0    0 -0.00000000000E+00 -0.00000000000E+00 -0.74505805969E-08  0.93827000000E+00  0.93827000000E+00 0.  1.
     999902    2    1    2    0    0  0.71852123463E-02 -0.11337484423E-01 -0.23031008113E-02  0.10303112591E+01  0.10302212484E+01 0.  0.
     999903    2    3    3    0    0 -0.11978825831E-01  0.26875877485E-01 -0.12980371574E+00  0.14009559526E+00  0.43726034959E-01 0.  0.
         14    1    1    2    0    0 -0.71852123463E-02  0.11337484423E-01  0.23031008113E-02  0.13618740869E-01  0.00000000000E+00 0. -1.
     999901    1    3    3    0    0  0.19164038178E-01 -0.38213361908E-01  0.12750061493E+00  0.89021566387E+00  0.88000000000E+00 0. -1.
        -11    1    4    4    0    0 -0.24152692092E-01  0.37203404199E-02 -0.82412041073E-01  0.85960450807E-01  0.51100000000E-03 0. -1.
         11    1    4    4    0    0  0.12173866261E-01  0.23155537065E-01 -0.47391674668E-01  0.54135144457E-01  0.51100000000E-03 0.  1.
</event>
<event>
 8    1  0.2039519E+004  0.1043930E+01  0.7957747E-01            NaN
         13   -1    0    0    0    0  0.00000000000E+00  0.00000000000E+00  0.74505805969E-08  0.10566000000E+00  0.10566000000E+00 0.  1.
     999900   -1    0    0    0    0 -0.00000000000E+00 -0.00000000000E+00 -0.74505805969E-08  0.93827000000E+00  0.93827000000E+00 0. -1.
     999902    2    1    2    0    0 -0.13541134972E-01 -0.33814387905E-02  0.31135629399E-02  0.10296299742E+01  0.10295306664E+01 0.  0.
     999903    2    3    3    0    0  0.81294733326E-01 -0.37952160684E-01 -0.92886010750E-01  0.13867268289E+00  0.50528227955E-01 0.  0.
         14    1    1    2    0    0  0.13541134972E-01  0.33814387905E-02 -0.31135629399E-02  0.14300025833E-01  0.00000000000E+00 0.  1.
     999901    1    3    3    0    0 -0.94835868298E-01  0.34570721893E-01  0.95999573690E-01  0.89095729128E+00  0.88000000000E+00 0.  1.
        -11    1    4    4    0    0  0.71255543965E-01 -0.89433976467E-02 -0.70843529886E-01  0.10087816292E+00  0.51100000000E-03 0. -1.
         11    1    4    4    0    0  0.10039189361E-01 -0.29008763037E-01 -0.22042480865E-01  0.37794519968E-01  0.51100000000E-03 0.  1.
</event>
<event>
 8    1  0.2039519E+004  0.1043930E+01  0.7957747E-01            NaN
         13   -1    0    0    0    0  0.00000000000E+00  0.00000000000E+00  0.74505805969E-08  0.10566000000E+00  0.10566000000E+00 0.  1.
     999900   -1    0    0    0    0 -0.00000000000E+00 -0.00000000000E+00 -0.74505805969E-08  0.93827000000E+00  0.93827000000E+00 0.  1.
     999902    2    1    2    0    0  0.91012443014E-02  0.37625626927E-02 -0.86368206687E-02  0.10308309849E+01  0.10307477554E+01 0.  0.
     999903    2    3    3    0    0 -0.12098836520E+00  0.24116404906E-01 -0.48369313411E-01  0.14014795688E+00  0.45629747297E-01 0.  0.
         14    1    1    2    0    0 -0.91012443014E-02 -0.37625626927E-02  0.86368206687E-02  0.13099015120E-01  0.00000000000E+00 0.  1.
     999901    1    3    3    0    0  0.13008960950E+00 -0.20353842213E-01  0.39732492742E-01  0.89068302800E+00  0.88000000000E+00 0. -1.
        -11    1    4    4    0    0 -0.44121641357E-01  0.70019666182E-02  0.50907911175E-02  0.44965809765E-01  0.51100000000E-03 0.  1.
         11    1    4    4    0    0 -0.76866723840E-01  0.17114438288E-01 -0.53460104529E-01  0.95182147113E-01  0.51100000000E-03 0. -1.
</event>
<event>
 8    1  0.2039519E+004  0.1043930E+01  0.7957747E-01            NaN
         13   -1    0    0    0    0  0.00000000000E+00  0.00000000000E+00  0.74505805969E-08  0.10566000000E+00  0.10566000000E+00 0. -1.
     999900   -1    0    0    0    0 -0.00000000000E+00 -0.00000000000E+00 -0.74505805969E-08  0.93827000000E+00  0.93827000000E+00 0. -1.
     999902    2    1    2    0    0  0.35057720881E-02 -0.82629793608E-02 -0.11030783467E-01  0.10297086973E+01  0.10296104875E+01 0.  0.
     999903    2    3    3    0    0  0.11880239565E+00 -0.36705788636E-01 -0.50759761740E-01  0.14084386141E+00  0.42415984650E-01 0.  0.
         14    1    1    2    0    0 -0.35057720881E-02  0.82629793608E-02  0.11030783467E-01  0.14221302674E-01  0.00000000000E+00 0.  1.
     999901    1    3    3    0    0 -0.11529662357E+00  0.28442809276E-01  0.39728978273E-01  0.88886483591E+00  0.88000000000E+00 0.  1.
        -11    1    4    4    0    0  0.10436643480E+00 -0.15198563484E-01 -0.40398266614E-01  0.11294082570E+00  0.51100000000E-03 0. -1.
         11    1    4    4    0    0  0.14435960856E-01 -0.21507225153E-01 -0.10361495126E-01  0.27903035711E-01  0.51100000000E-03 0.  1.
</event>
<event>
 8    1  0.2039519E+004  0.1043930E+01  0.7957747E-01            NaN
         13   -1    0    0    0    0  0.00000000000E+00  0.00000000000E+00  0.74505805969E-08  0.10566000000E+00  0.10566000000E+00 0.  1.
     999900   -1    0    0    0    0 -0.00000000000E+00 -0.00000000000E+00 -0.74505805969E-08  0.93827000000E+00  0.93827000000E+00 0. -1.
     999902    2    1    2    0    0  0.13775619822E-01 -0.24298666167E-02 -0.74230997771E-02  0.10280941431E+01  0.10279721751E+01 0.  0.
     999903    2    3    3    0    0 -0.90439113301E-01  0.87268045976E-01  0.29832124529E-01  0.13663781896E+00  0.44553258611E-01 0.  0.
         14    1    1    2    0    0 -0.13775619822E-01  0.24298666167E-02  0.74230997771E-02  0.15835856894E-01  0.00000000000E+00 0.  1.
     999901    1    3    3    0    0  0.10421473312E+00 -0.89697912593E-01 -0.37255224306E-01  0.89145632415E+00  0.88000000000E+00 0. -1.
        -11    1    4    4    0    0 -0.23421836348E-01  0.53075190992E-01  0.10530732979E-01  0.58963681829E-01  0.51100000000E-03 0. -1.
         11    1    4    4    0    0 -0.67017276953E-01  0.34192854984E-01  0.19301391550E-01  0.77674137131E-01  0.51100000000E-03 0.  1.
</event>
<event>
 8    1  0.2039519E+004  0.1043930E+01  0.7957747E-01            NaN
         13   -1    0    0    0    0  0.00000000000E+00  0.00000000000E+00  0.74505805969E-08  0.10566000000E+00  0.10566000000E+00 0. -1.
     999900   -1    0    0    0    0 -0.00000000000E+00 -0.00000000000E+00 -0.74505805969E-08  0.93827000000E+00  0.93827000000E+00 0. -1.
     999902    2    1    2    0    0 -0.12802420808E-01 -0.64541825605E-02  0.94074419027E-03  0.10295618599E+01  0.10294615971E+01 0.  0.
     999903    2    3    3    0    0  0.37675564321E-01  0.63273781899E-01 -0.10913418680E+00  0.13853632351E+00  0.43116384159E-01 0.  0.
         14    1    1    2    0    0  0.12802420808E-01  0.64541825605E-02 -0.94074419027E-03  0.14368140127E-01  0.00000000000E+00 0. -1.
     999901    1    3    3    0    0 -0.50477985130E-01 -0.69727964459E-01  0.11007493099E+00  0.89102553636E+00  0.88000000000E+00 0.  1.
        -11    1    4    4    0    0  0.42909292987E-01  0.34374501478E-01 -0.60776809067E-01  0.81956667929E-01  0.51100000000E-03 0.  1.
         11    1    4    4    0    0 -0.52337286661E-02  0.28899280420E-01 -0.48357377728E-01  0.56579655586E-01  0.51100000000E-03 0. -1.
</event>
<event>
 8    1  0.2039519E+004  0.1043930E+01  0.7957747E-01            NaN
         13   -1    0    0    0    0  0.00000000000E+00  0.00000000000E+00  0.74505805969E-08  0.10566000000E+00  0.10566000000E+00 0. -1.
     999900   -1    0    0    0    0 -0.00000000000E+00 -0.00000000000E+00 -0.74505805969E-08  0.93827000000E+00  0.93827000000E+00 0. -1.
     999902    2    1    2    0    0  0.81459593758E-03  0.15506590840E-01 -0.17789456958E-02  0.10283004583E+01  0.10281816717E+01 0.  0.
     999903    2    3    3    0    0 -0.93933080953E-01  0.34856442736E-01  0.84785791662E-01  0.13878092912E+00  0.45090137732E-01 0.  0.
         14    1    1    2    0    0 -0.81459593758E-03 -0.15506590840E-01  0.17789456958E-02  0.15629541702E-01  0.00000000000E+00 0. -1.
     999901    1    3    3    0    0  0.94747676891E-01 -0.19349851896E-01 -0.86564737358E-01  0.88951952918E+00  0.88000000000E+00 0. -1.
        -11    1    4    4    0    0 -0.20688795701E-01  0.17134121112E-01  0.47802293277E-01  0.54835433228E-01  0.51100000000E-03 0.  1.
         11    1    4    4    0    0 -0.73244285252E-01  0.17722321624E-01  0.36983498385E-01  0.83945495887E-01  0.51100000000E-03 0. -1.
</event>
<event>
 8    1  0.2039519E+004  0.1043930E+01  0.7957747E-01            NaN
         13   -1    0    0    0    0  0.00000000000E+00  0.00000000000E+00  0.74505805969E-08  0.10566000000E+00  0.10566000000E+00 0. -1.
     999900   -1    0    0    0    0 -0.00000000000E+00 -0.00000000000E+00 -0.74505805969E-08  0.93827000000E+00  0.93827000000E+00 0.  1.
     999902    2    1    2    0    0  0.63451838336E-02 -0.51526879171E-02 -0.11313390663E-01  0.10299727668E+01  0.10298781947E+01 0.  0.
     999903    2    3    3    0    0  0.71744861685E-01 -0.11140813491E+00 -0.16673648408E-01  0.14115553572E+00  0.45692198573E-01 0.  0.
         14    1    1    2    0    0 -0.63451838336E-02  0.51526879171E-02  0.11313390663E-01  0.13957233213E-01  0.00000000000E+00 0. -1.
     999901    1    3    3    0    0 -0.65399677852E-01  0.10625544699E+00  0.53602577448E-02  0.88881723107E+00  0.88000000000E+00 0.  1.
        -11    1    4    4    0    0  0.38608842593E-01 -0.46253443560E-01 -0.29260878391E-01  0.66981220448E-01  0.51100000000E-03 0.  1.
         11    1    4    4    0    0  0.33136019092E-01 -0.65154691351E-01  0.12587229983E-01  0.74174315272E-01  0.51100000000E-03 0. -1.
</event>
<event>
 8    1  0.2039519E+004  0.1043930E+01  0.7957747E-01            NaN
         13   -1    0    0    0    0  0.00000000000E+00  0.00000000000E+00  0.74505805969E-08  0.10566000000E+00  0.10566000000E+00 0.  1.
     999900   -1    0    0    0    0 -0.00000000000E+00 -0.00000000000E+00 -0.74505805969E-08  0.93827000000E+00  0.93827000000E+00 0. -1.
     999902    2    1    2    0    0  0.11040042024E-02 -0.12833114215E-01 -0.50077319066E-02  0.10301102668E+01  0.10300175614E+01 0.  0.
     999903    2    3    3    0    0 -0.16539061689E-01 -0.61111571379E-01  0.11660784899E+00  0.14026059599E+00  0.45469546112E-01 0.  0.
         14    1    1    2    0    0 -0.11040042024E-02  0.12833114215E-01  0.50077319066E-02  0.13819733159E-01  0.00000000000E+00 0.  1.
     999901    1    3    3    0    0  0.17643065892E-01  0.48278457163E-01 -0.12161558089E+00  0.88984967085E+00  0.88000000000E+00 0. -1.
        -11    1    4    4    0    0 -0.22165003676E-01 -0.19467634655E-01  0.77211177045E-01  0.82656537362E-01  0.51100000000E-03 0. -1.
         11    1    4    4    0    0  0.56259419865E-02 -0.41643936724E-01  0.39396671942E-01  0.57604058626E-01  0.51100000000E-03 0.  1.
</event>
<event>
 8    1  0.2039519E+004  0.1043930E+01  0.7957747E-01            NaN
         13   -1    0    0    0    0  0.00000000000E+00  0.00000000000E+00  0.74505805969E-08  0.10566000000E+00  0.10566000000E+00 0. -1.
     999900   -1    0    0    0    0 -0.00000000000E+00 -0.00000000000E+00 -0.74505805969E-08  0.93827000000E+00  0.93827000000E+00 0. -1.
     999902    2    1    2    0    0  0.98011182899E-02 -0.95250978032E-02  0.19710834934E-02  0.10301215034E+01  0.10300289497E+01 0.  0.
     999903    2    3    3    0    0  0.87522579104E-01 -0.91871210764E-01  0.45731641066E-01  0.14178795446E+00  0.43725505320E-01 0.  0.
         14    1    1    2    0    0 -0.98011182899E-02  0.95250978032E-02 -0.19710834934E-02  0.13808496588E-01  0.00000000000E+00 0.  1.
     999901    1    3    3    0    0 -0.77721460814E-01  0.82346112961E-01 -0.43760557572E-01  0.88833354895E+00  0.88000000000E+00 0. -1.
        -11    1    4    4    0    0  0.45740259294E-01 -0.17649611126E-01  0.16123684001E-01  0.51613122362E-01  0.51100000000E-03 0. -1.
         11    1    4    4    0    0  0.41782319810E-01 -0.74221599639E-01  0.29607957065E-01  0.90174832100E-01  0.51100000000E-03 0.  1.
</event>
<event>
 8    1  0.2039519E+004  0.1043930E+01  0.7957747E-01            NaN
         13   -1    0    0    0    0  0.00000000000E+00  0.00000000000E+00  0.74505805969E-08  0.10566000000E+00  0.10566000000E+00 0.  1.
     999900   -1    0    0    0    0 -0.00000000000E+00 -0.00000000000E+00 -0.74505805969E-08  0.93827000000E+00  0.93827000000E+00 0.  1.
     999902    2    1    2    0    0 -0.16003188094E-01  0.21249177904E-01 -0.30467922692E-02  0.10171547776E+01  0.10168023058E+01 0.  0.
     999903    2    3    3    0    0  0.67776007815E-01 -0.67894132850E-01 -0.70977198650E-01  0.12609921053E+00  0.40743682417E-01 0.  0.
         14    1    1    2    0    0  0.16003188094E-01 -0.21249177904E-01  0.30467922692E-02  0.26775222388E-01  0.00000000000E+00 0. -1.
     999901    1    3    3    0    0 -0.83779195909E-01  0.89143310754E-01  0.67930406381E-01  0.89105556708E+00  0.88000000000E+00 0. -1.
        -11    1    4    4    0    0  0.89447032814E-02 -0.35499287864E-01 -0.30739084401E-01  0.47805434696E-01  0.51100000000E-03 0. -1.
         11    1    4    4    0    0  0.58831304534E-01 -0.32394844985E-01 -0.40238114249E-01  0.78293775833E-01  0.51100000000E-03 0.  1.
</event>
<event>
 8    1  0.2039519E+004  0.1043930E+01  0.7957747E-01            NaN
         13   -1    0    0    0    0  0.00000000000E+00  0.00000000000E+00  0.74505805969E-08  0.10566000000E+00  0.10566000000E+00 0. -1.
     999900   -1    0    0    0    0 -0.00000000000E+00 -0.00000000000E+00 -0.74505805969E-08  0.93827000000E+00  0.93827000000E+00 0. -1.
     999902    2    1    2    0    0 -0.14054677755E-01 -0.30387070548E-02  0.69680260320E-02  0.10279512299E+01  0.10278270331E+01 0.  0.
     999903    2    3    3    0    0 -0.22778144436E-01 -0.12899716525E+00  0.10957420469E-01  0.13893067483E+00  0.44972823326E-01 0.  0.
         14    1    1    2    0    0  0.14054677755E-01  0.30387070548E-02 -0.69680260320E-02  0.15978770108E-01  0.00000000000E+00 0.  1.
     999901    1    3    3    0    0  0.87234666810E-02  0.12595845820E+00 -0.39893944367E-02  0.88902055507E+00  0.88000000000E+00 0.  1.
        -11    1    4    4    0    0 -0.14424049851E-01 -0.12140707352E-01  0.10882674230E-01  0.21774841182E-01  0.51100000000E-03 0. -1.
         11    1    4    4    0    0 -0.83540945851E-02 -0.11685645790E+00  0.74746238594E-04  0.11715583364E+00  0.51100000000E-03 0.  1.
</event>
<event>
 8    1  0.2039519E+004  0.1043930E+01  0.7957747E-01            NaN
         13   -1    0    0    0    0  0.00000000000E+00  0.00000000000E+00  0.74505805969E-08  0.10566000000E+00  0.10566000000E+00 0. -1.
     999900   -1    0    0    0    0 -0.00000000000E+00 -0.00000000000E+00 -0.74505805969E-08  0.93827000000E+00  0.93827000000E+00 0. -1.
     999902    2    1    2    0    0  0.49021850728E-02  0.36160059601E-02  0.11685996275E-01  0.10307516304E+01  0.10306673828E+01 0.  0.
     999903    2    3    3    0    0  0.11398766851E+00  0.33547647055E-01 -0.60004555279E-01  0.14061957216E+00  0.45328624809E-01 0.  0.
         14    1    1    2    0    0 -0.49021850728E-02 -0.36160059601E-02 -0.11685996275E-01  0.13178369646E-01  0.00000000000E+00 0.  1.
     999901    1    3    3    0    0 -0.10908548343E+00 -0.29931641095E-01  0.71690551554E-01  0.89013205819E+00  0.88000000000E+00 0.  1.
        -11    1    4    4    0    0  0.93610797391E-01  0.17189105918E-01 -0.27820252712E-01  0.99159842338E-01  0.51100000000E-03 0.  1.
         11    1    4    4    0    0  0.20376871115E-01  0.16358541137E-01 -0.32184302568E-01  0.41459729827E-01  0.51100000000E-03 0. -1.
</event>
<event>
 8    1  0.2039519E+004  0.1043930E+01  0.7957747E-01            NaN
         13   -1    0    0    0    0  0.00000000000E+00  0.00000000000E+00  0.74505805969E-08  0.10566000000E+00  0.10566000000E+00 0.  1.
     999900   -1    0    0    0    0 -0.00000000000E+00 -0.00000000000E+00 -0.74505805969E-08  0.93827000000E+00  0.93827000000E+00 0. -1.
     999902    2    1    2    0    0  0.97817101205E-02  0.22994015157E-02  0.97027982327E-02  0.10299617004E+01  0.10298669773E+01 0.  0.
     999903    2    3    3    0    0 -0.10313672919E+00  0.23158223304E-01 -0.76963566122E-01  0.13827973742E+00  0.44993411275E-01 0.  0.
         14    1    1    2    0    0 -0.97817101205E-02 -0.22994015157E-02 -0.97027982327E-02  0.13968299601E-01  0.00000000000E+00 0. -1.
     999901    1    3    3    0    0  0.11291843931E+00 -0.20858821789E-01  0.86666364354E-01  0.89168196297E+00  0.88000000000E+00 0.  1.
        -11    1    4    4    0    0 -0.74761196807E-01  0.19603613692E-01 -0.77799458468E-01  0.10966565131E+00  0.51100000000E-03 0.  1.
         11    1    4    4    0    0 -0.28375532380E-01  0.35546096125E-02  0.83589234586E-03  0.28614086118E-01  0.51100000000E-03 0. -1.
</event>
<event>
 8    1  0.2039519E+004  0.1043930E+01  0.7957747E-01            NaN
         13   -1    0    0    0    0  0.00000000000E+00  0.00000000000E+00  0.74505805969E-08  0.10566000000E+00  0.10566000000E+00 0. -1.
     999900   -1    0    0    0    0 -0.00000000000E+00 -0.00000000000E+00 -0.74505805969E-08  0.93827000000E+00  0.93827000000E+00 0. -1.
     999902    2    1    2    0    0  0.20236269023E-02  0.45523989439E-02 -0.85903351938E-02  0.10339995790E+01  0.10339518926E+01 0.  0.
     999903    2    3    3    0    0 -0.87780859239E-01 -0.44493307267E-01 -0.93002511549E-01  0.14405815256E+00  0.49174693932E-01 0.  0.
         14    1    1    2    0    0 -0.20236269023E-02 -0.45523989439E-02  0.85903351938E-02  0.99304209743E-02  0.00000000000E+00 0. -1.
     999901    1    3    3    0    0  0.89804486141E-01  0.49045706211E-01  0.84412176355E-01  0.88994142647E+00  0.88000000000E+00 0.  1.
        -11    1    4    4    0    0 -0.55381610291E-01 -0.18690461846E-01 -0.23195351830E-01  0.62886736200E-01  0.51100000000E-03 0.  1.
         11    1    4    4    0    0 -0.32399248948E-01 -0.25802845421E-01 -0.69807159719E-01  0.81171416356E-01  0.51100000000E-03 0. -1.
</event>
<event>
 8    1  0.2039519E+004  0.1043930E+01  0.7957747E-01            NaN
         13   -1    0    0    0    0  0.00000000000E+00  0.00000000000E+00  0.74505805969E-08  0.10566000000E+00  0.10566000000E+00 0.  1.
     999900   -1    0    0    0    0 -0.00000000000E+00 -0.00000000000E+00 -0.74505805969E-08  0.93827000000E+00  0.93827000000E+00 0. -1.
     999902    2    1    2    0    0 -0.11930137773E-01  0.52122825345E-02 -0.50405133950E-02  0.10299692389E+01  0.10298746186E+01 0.  0.
     999903    2    3    3    0    0  0.98423812898E-03 -0.42198716135E-01 -0.12595326478E+00  0.14034320655E+00  0.45280131938E-01 0.  0.
         14    1    1    2    0    0  0.11930137773E-01 -0.52122825345E-02  0.50405133950E-02  0.13960761147E-01  0.00000000000E+00 0.  1.
     999901    1    3    3    0    0 -0.12914375902E-01  0.47410998669E-01  0.12091275139E+00  0.88962603230E+00  0.88000000000E+00 0.  1.
        -11    1    4    4    0    0  0.11405070454E-01 -0.43193162429E-02 -0.75071942968E-01  0.76057806087E-01  0.51100000000E-03 0.  1.
         11    1    4    4    0    0 -0.10420832325E-01 -0.37879399892E-01 -0.50881321813E-01  0.64285400465E-01  0.51100000000E-03 0. -1.
</event>
<event>
 8    1  0.2039519E+004  0.1043930E+01  0.7957747E-01            NaN
         13   -1    0    0    0    0  0.00000000000E+00  0.00000000000E+00  0.74505805969E-08  0.10566000000E+00  0.10566000000E+00 0.  1.
     999900   -1    0    0    0    0 -0.00000000000E+00 -0.00000000000E+00 -0.74505805969E-08  0.93827000000E+00  0.93827000000E+00 0.  1.
     999902    2    1    2    0    0 -0.82959571792E-02  0.10738862636E-01  0.21790861693E-02  0.10301861107E+01  0.10300944268E+01 0.  0.
     999903    2    3    3    0    0  0.96180217161E-02  0.73699415804E-01  0.11096503765E+00  0.14107457376E+00  0.45438811066E-01 0.  0.
         14    1    1    2    0    0  0.82959571792E-02 -0.10738862636E-01 -0.21790861693E-02  0.13743889288E-01  0.00000000000E+00 0. -1.
     999901    1    3    3    0    0 -0.17913978895E-01 -0.62960553168E-01 -0.10878595148E+00  0.88911153695E+00  0.88000000000E+00 0.  1.
        -11    1    4    4    0    0  0.15887095510E-01  0.35048521162E-02  0.16085912067E-01  0.22884524905E-01  0.51100000000E-03 0.  1.
         11    1    4    4    0    0 -0.62690737935E-02  0.70194563687E-01  0.94879125580E-01  0.11819004886E+00  0.51100000000E-03 0. -1.
</event>
<event>
 8    1  0.2039519E+004  0.1043930E+01  0.7957747E-01            NaN
         13   -1    0    0    0    0  0.00000000000E+00  0.00000000000E+00  0.74505805969E-08  0.10566000000E+00  0.10566000000E+00 0.  1.
     999900   -1    0    0    0    0 -0.00000000000E+00 -0.00000000000E+00 -0.74505805969E-08  0.93827000000E+00  0.93827000000E+00 0.  1.
     999902    2    1    2    0    0 -0.10706267723E-01 -0.17146554473E-02  0.88503689142E-02  0.10299338133E+01  0.10298387090E+01 0.  0.
     999903    2    3    3    0    0 -0.27383127656E-01 -0.12751423228E+00  0.27068218288E-01  0.14064446714E+00  0.45149336439E-01 0.  0.
         14    1    1    2    0    0  0.10706267723E-01  0.17146554473E-02 -0.88503689142E-02  0.13996186687E-01  0.00000000000E+00 0.  1.
     999901    1    3    3    0    0  0.16676859933E-01  0.12579957683E+00 -0.18217849374E-01  0.88928934618E+00  0.88000000000E+00 0.  1.
        -11    1    4    4    0    0  0.88254677672E-02 -0.53721163327E-01  0.20528516509E-01  0.58185336483E-01  0.51100000000E-03 0. -1.
         11    1    4    4    0    0 -0.36208595423E-01 -0.73793068951E-01  0.65397017792E-02  0.82459130653E-01  0.51100000000E-03 0.  1.
</event>
<event>
 8    1  0.2039519E+004  0.1043930E+01  0.7957747E-01            NaN
         13   -1    0    0    0    0  0.00000000000E+00  0.00000000000E+00  0.74505805969E-08  0.10566000000E+00  0.10566000000E+00 0. -1.
     999900   -1    0    0    0    0 -0.00000000000E+00 -0.00000000000E+00 -0.74505805969E-08  0.93827000000E+00  0.93827000000E+00 0. -1.
     999902    2    1    2    0    0 -0.11764952175E-01  0.57463756760E-02  0.47349961673E-02  0.10300068135E+01  0.10299127054E+01 0.  0.
     999903    2    3    3    0    0 -0.27359095312E-02  0.51960109842E-01 -0.12106354762E+00  0.13981441496E+00  0.46737028701E-01 0.  0.
         14    1    1    2    0    0  0.11764952175E-01 -0.57463756760E-02 -0.47349961673E-02  0.13923186481E-01  0.00000000000E+00 0.  1.
     999901    1    3    3    0    0 -0.90290426438E-02 -0.46213734166E-01  0.12579854379E+00  0.89019239856E+00  0.88000000000E+00 0.  1.
        -11    1    4    4    0    0 -0.19638826343E-01  0.41307182725E-01 -0.10369679823E+00  0.11333690453E+00  0.51100000000E-03 0.  1.
         11    1    4    4    0    0  0.16902916812E-01  0.10652927117E-01 -0.17366749388E-01  0.26477510423E-01  0.51100000000E-03 0. -1.
</event>
<event>
 8    1  0.2039519E+004  0.1043930E+01  0.7957747E-01            NaN
         13   -1    0    0    0    0  0.00000000000E+00  0.00000000000E+00  0.74505805969E-08  0.10566000000E+00  0.10566000000E+00 0. -1.
     999900   -1    0    0    0    0 -0.00000000000E+00 -0.00000000000E+00 -0.74505805969E-08  0.93827000000E+00  0.93827000000E+00 0. -1.
     999902    2    1    2    0    0  0.22500238347E-02 -0.94476659396E-02 -0.90118899591E-02  0.10306810318E+01  0.10305958733E+01 0.  0.
     999903    2    3    3    0    0 -0.12971557373E+00 -0.28953604464E-01  0.57348685159E-02  0.14050528087E+00  0.45215085486E-01 0.  0.
         14    1    1    2    0    0 -0.22500238347E-02  0.94476659396E-02  0.90118899591E-02  0.13248968247E-01  0.00000000000E+00 0. -1.
     999901    1    3    3    0    0  0.13196559756E+00  0.19505938525E-01 -0.14746758475E-01  0.89017575089E+00  0.88000000000E+00 0.  1.
        -11    1    4    4    0    0 -0.60129086502E-01 -0.33034799658E-01 -0.91802752909E-02  0.69219531979E-01  0.51100000000E-03 0. -1.
         11    1    4    4    0    0 -0.69586487228E-01  0.40811951940E-02  0.14915143807E-01  0.71285748889E-01  0.51100000000E-03 0.  1.
</event>
<event>
 8    1  0.2039519E+004  0.1043930E+01  0.7957747E-01            NaN
         13   -1    0    0    0    0  0.00000000000E+00  0.00000000000E+00  0.74505805969E-08  0.10566000000E+00  0.10566000000E+00 0. -1.
     999900   -1    0    0    0    0 -0.00000000000E+00 -0.00000000000E+00 -0.74505805969E-08  0.93827000000E+00  0.93827000000E+00 0. -1.
     999902    2    1    2    0    0  0.15354901727E-02 -0.14419058904E-01 -0.14326323982E-01  0.10235459241E+01  0.10233429280E+01 0.  0.
     999903    2    3    3    0    0 -0.38491810146E-01 -0.55320738236E-01 -0.10968837533E+00  0.13654589428E+00  0.45510856225E-01 0.  0.
         14    1    1    2    0    0 -0.15354901727E-02  0.14419058904E-01  0.14326323982E-01  0.20384075858E-01  0.00000000000E+00 0. -1.
     999901    1    3    3    0    0  0.40027300319E-01  0.40901679332E-01  0.95362051347E-01  0.88700002986E+00  0.88000000000E+00 0.  1.
        -11    1    4    4    0    0 -0.41249445738E-01 -0.22411267933E-01 -0.76262604141E-01  0.89554606891E-01  0.51100000000E-03 0.  1.
         11    1    4    4    0    0  0.27576355923E-02 -0.32909470303E-01 -0.33425771189E-01  0.46991287387E-01  0.51100000000E-03 0. -1.
</event>
<event>
 8    1  0.2039519E+004  0.1043930E+01  0.7957747E-01            NaN
         13   -1    0    0    0    0  0.00000000000E+00  0.00000000000E+00  0.74505805969E-08  0.10566000000E+00  0.10566000000E+00 0.  1.
     999900   -1    0    0    0    0 -0.00000000000E+00 -0.00000000000E+00 -0.74505805969E-08  0.93827000000E+00  0.93827000000E+00 0.  1.
     999902    2    1    2    0    0  0.12734655835E-01 -0.38216579180E-03 -0.42852379943E-02  0.10304882451E+01  0.10304005738E+01 0.  0.
     999903    2    3    3    0    0 -0.55374736546E-02  0.12688637698E+00  0.41879315274E-01  0.13994778074E+00  0.41239398754E-01 0.  0.
         14    1    1    2    0    0 -0.12734655835E-01  0.38216579180E-03  0.42852379943E-02  0.13441754893E-01  0.00000000000E+00 0. -1.
     999901    1    3    3    0    0  0.18272129490E-01 -0.12726854277E+00 -0.46164553268E-01  0.89054046437E+00  0.88000000000E+00 0. -1.
        -11    1    4    4    0    0 -0.31506271941E-02  0.27044016863E-01  0.28098721036E-01  0.39129331002E-01  0.51100000000E-03 0. -1.
         11    1    4    4    0    0 -0.23868464605E-02  0.99842360114E-01  0.13780594238E-01  0.10081844974E+00  0.51100000000E-03 0.  1.
</event>
<event>
 7    1  0.2039519E+004  0.1043930E+01  0.7957747E-01            NaN
         13   -1    0    0    0    0  0.00000000000E+00  0.00000000000E+00  0.74505805969E-08  0.10566000000E+00  0.10566000000E+00 0.  1.
     999900   -1    0    0    0    0 -0.00000000000E+00 -0.00000000000E+00 -0.74505805969E-08  0.93827000000E+00  0.93827000000E+00 0. -1.
     999902    2    1    2    0    0 -0.11440245709E-01  0.61085967008E-02 -0.78251763517E-03  0.10309374441E+01  0.10308555704E+01 0.  0.
         14    1    1    2    0    0  0.11440245709E-01 -0.61085967008E-02  0.78251763517E-03  0.12992555922E-01  0.00000000000E+00 0. -1.
     999901    1    3    3    0    0  0.72120097151E-01 -0.10519781989E+00 -0.19565612865E-01  0.88941031191E+00  0.88000000000E+00 0. -1.
        -11    1    3    3    0    0 -0.70731460011E-01  0.83935013938E-01  0.11041198430E-01  0.11031860760E+00  0.51100000000E-03 0. -1.
         11    1    3    3    0    0 -0.12828882850E-01  0.27371402655E-01  0.77418968001E-02  0.31208524565E-01  0.51100000000E-03 0.  1.
</event>
<event>
 8    1  0.2039519E+004  0.1043930E+01  0.7957747E-01            NaN
         13   -1    0    0    0    0  0.00000000000E+00  0.00000000000E+00  0.74505805969E-08  0.10566000000E+00  0.10566000000E+00 0.  1.
     999900   -1    0    0    0    0 -0.00000000000E+00 -0.00000000000E+00 -0.74505805969E-08  0.93827000000E+00  0.93827000000E+00 0. -1.
     999902    2    1    2    0    0  0.67847184560E-02  0.10243725320E-01  0.50576783714E-02  0.10306429227E+01  0.10305572704E+01 0.  0.
     999903    2    3    3    0    0  0.12068975707E+00 -0.34266630819E-01 -0.45212727500E-01  0.14076504156E+00  0.45059812991E-01 0.  0.
         14    1    1    2    0    0 -0.67847184560E-02 -0.10243725320E-01 -0.50576783714E-02  0.13287077311E-01  0.00000000000E+00 0. -1.
     999901    1    3    3    0    0 -0.11390503861E+00  0.44510356139E-01  0.50270405871E-01  0.88987788113E+00  0.88000000000E+00 0.  1.
        -11    1    4    4    0    0  0.72816272060E-01 -0.42975586024E-01 -0.31187658399E-01  0.90122370298E-01  0.51100000000E-03 0. -1.
         11    1    4    4    0    0  0.47873485010E-01  0.87089552045E-02 -0.14025069101E-01  0.50642671257E-01  0.51100000000E-03 0.  1.
</event>
<event>
 8    1  0.2039519E+004  0.1043930E+01  0.7957747E-01            NaN
         13   -1    0    0    0    0  0.00000000000E+00  0.00000000000E+00  0.74505805969E-08  0.10566000000E+00  0.10566000000E+00 0.  1.
     999900   -1    0    0    0    0 -0.00000000000E+00 -0.00000000000E+00 -0.74505805969E-08  0.93827000000E+00  0.93827000000E+00 0.  1.
     999902    2    1    2    0    0 -0.82119006598E-02 -0.11032693311E-01  0.30321603651E-02  0.10298463346E+01  0.10297500295E+01 0.  0.
     999903    2    3    3    0    0  0.64727180981E-01  0.89988895854E-01 -0.69106970602E-01  0.13814597837E+00  0.44954739689E-01 0.  0.
         14    1    1    2    0    0  0.82119006598E-02  0.11032693311E-01 -0.30321603651E-02  0.14083665383E-01  0.00000000000E+00 0. -1.
     999901    1    3    3    0    0 -0.72939081641E-01 -0.10102158916E+00  0.72139130967E-01  0.89170035624E+00  0.88000000000E+00 0. -1.
        -11    1    4    4    0    0  0.32749008898E-01  0.17410804344E-01 -0.78072726986E-02  0.37905782141E-01  0.51100000000E-03 0. -1.
         11    1    4    4    0    0  0.31978172083E-01  0.72578091509E-01 -0.61299697903E-01  0.10024019623E+00  0.51100000000E-03 0.  1.
</event>
<event>
 8    1  0.2039519E+004  0.1043930E+01  0.7957747E-01            NaN
         13   -1    0    0    0    0  0.00000000000E+00  0.00000000000E+00  0.74505805969E-08  0.10566000000E+00  0.10566000000E+00 0. -1.
     999900   -1    0    0    0    0 -0.00000000000E+00 -0.00000000000E+00 -0.74505805969E-08  0.93827000000E+00  0.93827000000E+00 0.  1.
     999902    2    1    2    0    0  0.50992165659E-02 -0.20010371954E-01  0.18524600255E-01  0.10161887345E+01  0.10158100051E+01 0.  0.
     999903    2    3    3    0    0  0.11090240956E+00  0.43646351758E-01  0.92585866427E-02  0.12751986868E+00  0.44398727607E-01 0.  0.
         14    1    1    2    0    0 -0.50992165659E-02  0.20010371954E-01 -0.18524600255E-01  0.27741265470E-01  0.00000000000E+00 0.  1.
     999901    1    3    3    0    0 -0.10580319300E+00 -0.63656723712E-01  0.92660136119E-02  0.88866886585E+00  0.88000000000E+00 0.  1.
        -11    1    4    4    0    0  0.55089186249E-01  0.16216741533E-01  0.26110492205E-01  0.63085815139E-01  0.51100000000E-03 0. -1.
         11    1    4    4    0    0  0.55813223313E-01  0.27429610225E-01 -0.16851905562E-01  0.64434053541E-01  0.51100000000E-03 0.  1.
</event>
<event>
 8    1  0.2039519E+004  0.1043930E+01  0.7957747E-01            NaN
         13   -1    0    0    0    0  0.00000000000E+00  0.00000000000E+00  0.74505805969E-08  0.10566000000E+00  0.10566000000E+00 0.  1.
     999900   -1    0    0    0    0 -0.00000000000E+00 -0.00000000000E+00 -0.74505805969E-08  0.93827000000E+00  0.93827000000E+00 0.  1.
     999902    2    1    2    0    0 -0.79186263429E-02  0.60700386048E-02 -0.11581969174E-01  0.10286430114E+01  0.10285294127E+01 0.  0.
     999903    2    3    3    0    0  0.12803464322E+00  0.30956340707E-01 -0.23580236812E-01  0.13777457103E+00  0.32781701610E-01 0.  0.
         14    1    1    2    0    0  0.79186263429E-02 -0.60700386048E-02  0.11581969174E-01  0.15286988643E-01  0.00000000000E+00 0.  1.
     999901    1    3    3    0    0 -0.13595326957E+00 -0.24886302102E-01  0.11998267638E-01  0.89086844032E+00  0.88000000000E+00 0. -1.
        -11    1    4    4    0    0  0.25476805829E-01  0.19758766976E-01 -0.15631891375E-02  0.32282831179E-01  0.51100000000E-03 0.  1.
         11    1    4    4    0    0  0.10255783739E+00  0.11197573731E-01 -0.22017047674E-01  0.10549173985E+00  0.51100000000E-03 0. -1.
</event>
<event>
 8    1  0.2039519E+004  0.1043930E+01  0.7957747E-01            NaN
         13   -1    0    0    0    0  0.00000000000E+00  0.00000000000E+00  0.74505805969E-08  0.10566000000E+00  0.10566000000E+00 0. -1.
     999900   -1    0    0    0    0 -0.00000000000E+00 -0.00000000000E+00 -0.74505805969E-08  0.93827000000E+00  0.93827000000E+00 0. -1.
     999902    2    1    2    0    0  0.89712732080E-02  0.54484011645E-02 -0.33483481088E-02  0.10329127293E+01  0.10328539714E+01 0.  0.
     999903    2    3    3    0    0 -0.13300097366E+00  0.17586041627E-01  0.33963010906E-02  0.14142580766E+00  0.44622823278E-01 0.  0.
         14    1    1    2    0    0 -0.89712732080E-02 -0.54484011645E-02  0.33483481088E-02  0.11017270682E-01  0.00000000000E+00 0. -1.
     999901    1    3    3    0    0  0.14197224686E+00 -0.12137640463E-01 -0.67446491994E-02  0.89148692166E+00  0.88000000000E+00 0.  1.
        -11    1    4    4    0    0 -0.77556194873E-01  0.17152516204E-01 -0.18920851378E-01  0.81654344117E-01  0.51100000000E-03 0.  1.
         11    1    4    4    0    0 -0.55444778784E-01  0.43352542323E-03  0.22317152469E-01  0.59771463542E-01  0.51100000000E-03 0. -1.
</event>
<event>
 8    1  0.2039519E+004  0.1043930E+01  0.7957747E-01            NaN
         13   -1    0    0    0    0  0.00000000000E+00  0.00000000000E+00  0.74505805969E-08  0.10566000000E+00  0.10566000000E+00 0.  1.
     999900   -1    0    0    0    0 -0.00000000000E+00 -0.00000000000E+00 -0.74505805969E-08  0.93827000000E+00  0.93827000000E+00 0.  1.
     999902    2    1    2    0    0 -0.25938812531E-02  0.12509149158E-01 -0.66027843014E-02  0.10295493257E+01  0.10294488867E+01 0.  0.
     999903    2    3    3    0    0  0.12831299352E+00  0.91410817867E-02  0.28482478253E-01  0.13916798640E+00  0.44818446950E-01 0.  0.
         14    1    1    2    0    0  0.25938812531E-02 -0.12509149158E-01  0.66027843014E-02  0.14380674294E-01  0.00000000000E+00 0.  1.
     999901    1    3    3    0    0 -0.13090687478E+00  0.33680673713E-02 -0.35085262555E-01  0.89038133931E+00  0.88000000000E+00 0. -1.
        -11    1    4    4    0    0  0.27169893959E-01  0.13993269790E-01  0.22076703647E-01  0.37704863110E-01  0.51100000000E-03 0.  1.
         11    1    4    4    0    0  0.10114309956E+00 -0.48521880029E-02  0.64057746060E-02  0.10146312329E+00  0.51100000000E-03 0. -1.
</event>
<event>
 7    1  0.2039519E+004  0.1043930E+01  0.7957747E-01            NaN
         13   -1    0    0    0    0  0.00000000000E+00  0.00000000000E+00  0.74505805969E-08  0.10566000000E+00  0.10566000000E+00 0. -1.
     999900   -1    0    0    0    0 -0.00000000000E+00 -0.00000000000E+00 -0.74505805969E-08  0.93827000000E+00  0.93827000000E+00 0. -1.
     999903    2    1    2    0    0 -0.51815412212E-01  0.79099624699E-01 -0.48584480841E-01  0.11541512409E+00  0.44928960817E-01 0.  0.
         14    1    1    2    0    0  0.34819906848E-01  0.21358385578E-02  0.27394520993E-01  0.44355918429E-01  0.00000000000E+00 0.  1.
     999901    1    1    2    0    0  0.16995505364E-01 -0.81235463257E-01  0.21189959849E-01  0.88415895748E+00  0.88000000000E+00 0.  1.
        -11    1    3    3    0    0 -0.14584504066E-01  0.14887720902E-01 -0.33828116523E-01  0.39736061468E-01  0.51100000000E-03 0. -1.
         11    1    3    3    0    0 -0.37230908146E-01  0.64211903797E-01 -0.14756364318E-01  0.75679062623E-01  0.51100000000E-03 0.  1.
</event>
<event>
 8    1  0.2039519E+004  0.1043930E+01  0.7957747E-01            NaN
         13   -1    0    0    0    0  0.00000000000E+00  0.00000000000E+00  0.74505805969E-08  0.10566000000E+00  0.10566000000E+00 0.  1.
     999900   -1    0    0    0    0 -0.00000000000E+00 -0.00000000000E+00 -0.74505805969E-08  0.93827000000E+00  0.93827000000E+00 0.  1.
     999902    2    1    2    0    0 -0.47319856431E-02 -0.12963436839E-01  0.65370565488E-02  0.10286599152E+01  0.10285465695E+01 0.  0.
     999903    2    3    3    0    0  0.32903672310E-01 -0.75568405300E-01  0.10406446246E+00  0.14026393378E+00  0.45291536091E-01 0.  0.
         14    1    1    2    0    0  0.47319856431E-02  0.12963436839E-01 -0.65370565488E-02  0.15270084844E-01  0.00000000000E+00 0. -1.
     999901    1    3    3    0    0 -0.37635657953E-01  0.62604968461E-01 -0.97527405908E-01  0.88839598138E+00  0.88000000000E+00 0.  1.
        -11    1    4    4    0    0  0.23126237536E-02 -0.53887134812E-01  0.44728014431E-01  0.70071591411E-01  0.51100000000E-03 0. -1.
         11    1    4    4    0    0  0.30591048556E-01 -0.21681270488E-01  0.59336448026E-01  0.70192342367E-01  0.51100000000E-03 0.  1.
</event>
<event>
 8    1  0.2039519E+004  0.1043930E+01  0.7957747E-01            NaN
         13   -1    0    0    0    0  0.00000000000E+00  0.00000000000E+00  0.74505805969E-08  0.10566000000E+00  0.10566000000E+00 0.  1.
     999900   -1    0    0    0    0 -0.00000000000E+00 -0.00000000000E+00 -0.74505805969E-08  0.93827000000E+00  0.93827000000E+00 0.  1.
     999902    2    1    2    0    0  0.15510316439E-02  0.13867343482E-01  0.22738676875E-02  0.10297921293E+01  0.10296950763E+01 0.  0.
     999903    2    3    3    0    0 -0.37460749179E-01 -0.20321444289E-01  0.12524005287E+00  0.13972950510E+00  0.44977715877E-01 0.  0.
         14    1    1    2    0    0 -0.15510316439E-02 -0.13867343482E-01 -0.22738676875E-02  0.14137870726E-01  0.00000000000E+00 0.  1.
     999901    1    3    3    0    0  0.39011780823E-01  0.34188787771E-01 -0.12296618518E+00  0.89006262417E+00  0.88000000000E+00 0.  1.
        -11    1    4    4    0    0 -0.25535649285E-01  0.59222521321E-02  0.28234852395E-01  0.38530643201E-01  0.51100000000E-03 0. -1.
         11    1    4    4    0    0 -0.11925099894E-01 -0.26243696421E-01  0.97005200476E-01  0.10119886190E+00  0.51100000000E-03 0.  1.
</event>
<event>
 7    1  0.2039519E+004  0.1043930E+01  0.7957747E-01            NaN
         13   -1    0    0    0    0  0.00000000000E+00  0.00000000000E+00  0.74505805969E-08  0.10566000000E+00  0.10566000000E+00 0.  1.
     999900   -1    0    0    0    0 -0.00000000000E+00 -0.00000000000E+00 -0.74505805969E-08  0.93827000000E+00  0.93827000000E+00 0.  1.
     999902    2    1    2    0    0 -0.70256730417E-02 -0.75366177363E-02  0.86978495532E-02  0.10304461847E+01  0.10303579603E+01 0.  0.
         14    1    1    2    0    0  0.70256730417E-02  0.75366177363E-02 -0.86978495532E-02  0.13483815315E-01  0.00000000000E+00 0. -1.
     999901    1    3    3    0    0 -0.24729049334E-01  0.10786418246E+00  0.36801317318E-01  0.88769394765E+00  0.88000000000E+00 0.  1.
        -11    1    3    3    0    0  0.39998278536E-01 -0.66761818860E-01  0.79470929071E-02  0.78233114152E-01  0.51100000000E-03 0. -1.
         11    1    3    3    0    0 -0.22294902244E-01 -0.48638981339E-01 -0.36050560672E-01  0.64519122882E-01  0.51100000000E-03 0.  1.
</event>
<event>
 8    1  0.2039519E+004  0.1043930E+01  0.7957747E-01            NaN
         13   -1    0    0    0    0  0.00000000000E+00  0.00000000000E+00  0.74505805969E-08  0.10566000000E+00  0.10566000000E+00 0. -1.
     999900   -1    0    0    0    0 -0.00000000000E+00 -0.00000000000E+00 -0.74505805969E-08  0.93827000000E+00  0.93827000000E+00 0. -1.
     999902    2    1    2    0    0  0.28064314949E-02 -0.64224016516E-02 -0.55284293246E-02  0.10350032519E+01  0.10349647553E+01 0.  0.
     999903    2    3    3    0    0  0.84438580205E-01  0.10234710588E+00 -0.32948554695E-01  0.14413486839E+00  0.45655767656E-01 0.  0.
         14    1    1    2    0    0 -0.28064314949E-02  0.64224016516E-02  0.55284293246E-02  0.89267480925E-02  0.00000000000E+00 0. -1.
     999901    1    3    3    0    0 -0.81632148710E-01 -0.10876950753E+00  0.27420125370E-01  0.89086838352E+00  0.88000000000E+00 0. -1.
        -11    1    4    4    0    0  0.32589049921E-01  0.62483229030E-01 -0.35025711136E-01  0.78697278519E-01  0.51100000000E-03 0.  1.
         11    1    4    4    0    0  0.51849530284E-01  0.39863876853E-01  0.20771564414E-02  0.65437589873E-01  0.51100000000E-03 0. -1.
</event>
<event>
 8    1  0.2039519E+004  0.1043930E+01  0.7957747E-01            NaN
         13   -1    0    0    0    0  0.00000000000E+00  0.00000000000E+00  0.74505805969E-08  0.10566000000E+00  0.10566000000E+00 0. -1.
     999900   -1    0    0    0    0 -0.00000000000E+00 -0.00000000000E+00 -0.74505805969E-08  0.93827000000E+00  0.93827000000E+00 0. -1.
     999902    2    1    2    0    0  0.47328059814E-02  0.48357999242E-02 -0.12035385203E-01  0.10301229398E+01  0.10300304055E+01 0.  0.
     999903    2    3    3    0    0 -0.54212064221E-01  0.31240654679E-01 -0.11862864589E+00  0.14134071831E+00  0.44603997752E-01 0.  0.
         14    1    1    2    0    0 -0.47328059814E-02 -0.48357999242E-02  0.12035385203E-01  0.13807060163E-01  0.00000000000E+00 0. -1.
     999901    1    3    3    0    0  0.58944870203E-01 -0.26404854755E-01  0.10659326068E+00  0.88878222153E+00  0.88000000000E+00 0.  1.
        -11    1    4    4    0    0 -0.13243513928E-01  0.20672142081E-01 -0.81259434788E-01  0.84888662273E-01  0.51100000000E-03 0. -1.
         11    1    4    4    0    0 -0.40968550293E-01  0.10568512598E-01 -0.37369211100E-01  0.56452056038E-01  0.51100000000E-03 0.  1.
</event>
<event>
 8    1  0.2257436E+004  0.1043930E+01  0.7957747E-01            NaN
         13   -1    0    0    0    0  0.00000000000E+00  0.00000000000E+00  0.74505805969E-08  0.10566000000E+00  0.10566000000E+00 0. -1.
     999900   -1    0    0    0    0 -0.00000000000E+00 -0.00000000000E+00 -0.74505805969E-08  0.93827000000E+00  0.93827000000E+00 0. -1.
     999902    2    1    2    0    0 -0.92425250942E-02 -0.51369612972E-02  0.94818181336E-02  0.10297272708E+01  0.10296293191E+01 0.  0.
     999903    2    3    3    0    0  0.87763668310E-01 -0.15978198835E-01  0.97043704864E-01  0.14001112618E+00  0.47200322970E-01 0.  0.
         14    1    1    2    0    0  0.92425250942E-02  0.51369612972E-02 -0.94818181336E-02  0.14202729196E-01  0.00000000000E+00 0.  1.
     999901    1    3    3    0    0 -0.97006193404E-01  0.10841237538E-01 -0.87561886730E-01  0.88971614462E+00  0.88000000000E+00 0. -1.
        -11    1    4    4    0    0  0.53901506374E-01 -0.31809358154E-01  0.69808292136E-01  0.93758553890E-01  0.51100000000E-03 0.  1.
         11    1    4    4    0    0  0.33862161936E-01  0.15831159320E-01  0.27235412728E-01  0.46252572294E-01  0.51100000000E-03 0. -1.
</event>
<event>
 8    1  0.2039519E+004  0.1043930E+01  0.7957747E-01            NaN
         13   -1    0    0    0    0  0.00000000000E+00  0.00000000000E+00  0.74505805969E-08  0.10566000000E+00  0.10566000000E+00 0.  1.
     999900   -1    0    0    0    0 -0.00000000000E+00 -0.00000000000E+00 -0.74505805969E-08  0.93827000000E+00  0.93827000000E+00 0. -1.
     999902    2    1    2    0    0  0.65085701914E-02  0.10211677162E-01  0.65940864877E-02  0.10301415333E+01  0.10300492497E+01 0.  0.
     999903    2    3    3    0    0 -0.73428639397E-01  0.52287733357E-01  0.98224392901E-01  0.14078420074E+00  0.45237016640E-01 0.  0.
         14    1    1    2    0    0 -0.65085701914E-02 -0.10211677162E-01 -0.65940864877E-02  0.13788466667E-01  0.00000000000E+00 0. -1.
     999901    1    3    3    0    0  0.79937209588E-01 -0.42076056194E-01 -0.91630306413E-01  0.88935733259E+00  0.88000000000E+00 0. -1.
        -11    1    4    4    0    0 -0.28980213465E-01  0.19732720823E-01  0.71309393863E-01  0.79463978114E-01  0.51100000000E-03 0.  1.
         11    1    4    4    0    0 -0.44448425932E-01  0.32555012534E-01  0.26914999037E-01  0.61320222627E-01  0.51100000000E-03 0. -1.
</event>
<event>
 8    1  0.2039519E+004  0.1043930E+01  0.7957747E-01            NaN
         13   -1    0    0    0    0  0.00000000000E+00  0.00000000000E+00  0.74505805969E-08  0.10566000000E+00  0.10566000000E+00 0. -1.
     999900   -1    0    0    0    0 -0.00000000000E+00 -0.00000000000E+00 -0.74505805969E-08  0.93827000000E+00  0.93827000000E+00 0.  1.
     999902    2    1    2    0    0  0.66815862687E-02  0.10677719444E-01 -0.49841109138E-02  0.10303838327E+01  0.10302947850E+01 0.  0.
     999903    2    3    3    0    0  0.49248764108E-01  0.44440329963E-01  0.11531281730E+00  0.14053933534E+00  0.45319700467E-01 0.  0.
         14    1    1    2    0    0 -0.66815862687E-02 -0.10677719444E-01  0.49841109138E-02  0.13546167325E-01  0.00000000000E+00 0. -1.
     999901    1    3    3    0    0 -0.42567177839E-01 -0.33762610520E-01 -0.12029692822E+00  0.88984449733E+00  0.88000000000E+00 0.  1.
        -11    1    4    4    0    0  0.33761745427E-01  0.16435013385E-01  0.26028152813E-01  0.45691257141E-01  0.51100000000E-03 0. -1.
         11    1    4    4    0    0  0.15487018681E-01  0.28005316579E-01  0.89284664489E-01  0.94848078200E-01  0.51100000000E-03 0.  1.
</event>
<event>
 7    1  0.2039519E+004  0.1043930E+01  0.7957747E-01            NaN
         13   -1    0    0    0    0  0.00000000000E+00  0.00000000000E+00  0.74505805969E-08  0.10566000000E+00  0.10566000000E+00 0. -1.
     999900   -1    0    0    0    0 -0.00000000000E+00 -0.00000000000E+00 -0.74505805969E-08  0.93827000000E+00  0.93827000000E+00 0. -1.
     999903    2    1    2    0    0  0.11277039988E+00  0.42373788272E-02  0.29794736426E-01  0.12548694277E+00  0.46088263348E-01 0.  0.
         14    1    1    2    0    0 -0.12654239340E-01  0.25729743004E-01 -0.14492078646E-01  0.32127399394E-01  0.00000000000E+00 0. -1.
     999901    1    1    2    0    0 -0.10011616054E+00 -0.29967121831E-01 -0.15302657780E-01  0.88631565784E+00  0.88000000000E+00 0. -1.
        -11    1    3    3    0    0  0.60693319712E-01  0.23322005377E-01  0.65644593842E-02  0.65352492228E-01  0.51100000000E-03 0.  1.
         11    1    3    3    0    0  0.52077080168E-01 -0.19084626550E-01  0.23230277041E-01  0.60134450541E-01  0.51100000000E-03 0. -1.
</event>
<event>
 8    1  0.2039519E+004  0.1043930E+01  0.7957747E-01            NaN
         13   -1    0    0    0    0  0.00000000000E+00  0.00000000000E+00  0.74505805969E-08  0.10566000000E+00  0.10566000000E+00 0. -1.
     999900   -1    0    0    0    0 -0.00000000000E+00 -0.00000000000E+00 -0.74505805969E-08  0.93827000000E+00  0.93827000000E+00 0. -1.
     999902    2    1    2    0    0  0.28250348119E-02  0.39978052367E-02  0.12703050215E-01  0.10303163762E+01  0.10302264335E+01 0.  0.
     999903    2    3    3    0    0 -0.35345951387E-01 -0.49588597333E-01  0.11964597218E+00  0.14140394221E+00  0.44402150276E-01 0.  0.
         14    1    1    2    0    0 -0.28250348119E-02 -0.39978052367E-02 -0.12703050215E-01  0.13613623807E-01  0.00000000000E+00 0.  1.
     999901    1    3    3    0    0  0.38170986199E-01  0.53586402570E-01 -0.10694292197E+00  0.88891243398E+00  0.88000000000E+00 0. -1.
        -11    1    4    4    0    0 -0.21226961912E-01 -0.11968776977E-01  0.13405289257E-01  0.27817232705E-01  0.51100000000E-03 0.  1.
         11    1    4    4    0    0 -0.14118989476E-01 -0.37619820356E-01  0.10624068292E+00  0.11358670951E+00  0.51100000000E-03 0. -1.
</event>
<event>
 8    1  0.2039519E+004  0.1043930E+01  0.7957747E-01            NaN
         13   -1    0    0    0    0  0.00000000000E+00  0.00000000000E+00  0.74505805969E-08  0.10566000000E+00  0.10566000000E+00 0. -1.
     999900   -1    0    0    0    0 -0.00000000000E+00 -0.00000000000E+00 -0.74505805969E-08  0.93827000000E+00  0.93827000000E+00 0. -1.
     999902    2    1    2    0    0  0.98770955057E-02  0.96253043832E-04  0.93984157716E-02  0.10302956134E+01  0.10302053943E+01 0.  0.
     999903    2    3    3    0    0 -0.11916944115E+00  0.59978180454E-02 -0.53465143307E-01  0.13864564607E+00  0.46116852683E-01 0.  0.
         14    1    1    2    0    0 -0.98770955057E-02 -0.96253043832E-04 -0.93984157716E-02  0.13634386649E-01  0.00000000000E+00 0.  1.
     999901    1    3    3    0    0  0.12904653665E+00 -0.59015650015E-02  0.62863559079E-01  0.89164996728E+00  0.88000000000E+00 0.  1.
        -11    1    4    4    0    0 -0.57932435949E-01 -0.76387769235E-02 -0.48084528330E-01  0.75676291093E-01  0.51100000000E-03 0.  1.
         11    1    4    4    0    0 -0.61237005196E-01  0.13636594969E-01 -0.53806149766E-02  0.62969354978E-01  0.51100000000E-03 0. -1.
</event>
<event>
 8    1  0.2039519E+004  0.1043930E+01  0.7957747E-01            NaN
         13   -1    0    0    0    0  0.00000000000E+00  0.00000000000E+00  0.74505805969E-08  0.10566000000E+00  0.10566000000E+00 0.  1.
     999900   -1    0    0    0    0 -0.00000000000E+00 -0.00000000000E+00 -0.74505805969E-08  0.93827000000E+00  0.93827000000E+00 0. -1.
     999902    2    1    2    0    0 -0.31375228323E-02  0.21808017092E-02 -0.13338285995E-01  0.10300552092E+01  0.10299617586E+01 0.  0.
     999903    2    3    3    0    0 -0.81855040220E-01  0.96939714238E-01 -0.41272519145E-01  0.14103551292E+00  0.45716947206E-01 0.  0.
         14    1    1    2    0    0  0.31375228323E-02 -0.21808017092E-02  0.13338285995E-01  0.13874790770E-01  0.00000000000E+00 0.  1.
     999901    1    3    3    0    0  0.78717517387E-01 -0.94758912529E-01  0.27934233150E-01  0.88901969631E+00  0.88000000000E+00 0. -1.
        -11    1    4    4    0    0 -0.43125905661E-01  0.43698386762E-01  0.33669412281E-02  0.61489756536E-01  0.51100000000E-03 0. -1.
         11    1    4    4    0    0 -0.38729134559E-01  0.53241327476E-01 -0.44639460373E-01  0.79545756383E-01  0.51100000000E-03 0.  1.
</event>
<event>
 8    1  0.2039519E+004  0.1043930E+01  0.7957747E-01            NaN
         13   -1    0    0    0    0  0.00000000000E+00  0.00000000000E+00  0.74505805969E-08  0.10566000000E+00  0.10566000000E+00 0.  1.
     999900   -1    0    0    0    0 -0.00000000000E+00 -0.00000000000E+00 -0.74505805969E-08  0.93827000000E+00  0.93827000000E+00 0. -1.
     999902    2    1    2    0    0 -0.15138575159E-02 -0.96293825618E-02  0.11416352187E-01  0.10289183422E+01  0.10288088282E+01 0.  0.
     999903    2    3    3    0    0 -0.56415660214E-02  0.12713117408E+00  0.34489201330E-01  0.13804638494E+00  0.40903993671E-01 0.  0.
         14    1    1    2    0    0  0.15138575159E-02  0.96293825618E-02 -0.11416352187E-01  0.15011657815E-01  0.00000000000E+00 0. -1.
     999901    1    3    3    0    0  0.41277085056E-02 -0.13676055664E+00 -0.23072849143E-01  0.89087195724E+00  0.88000000000E+00 0. -1.
        -11    1    4    4    0    0 -0.18700308751E-01  0.10071591558E+00  0.17183700382E-01  0.10386981216E+00  0.51100000000E-03 0. -1.
         11    1    4    4    0    0  0.13058742729E-01  0.26415258498E-01  0.17305500948E-01  0.34176572784E-01  0.51100000000E-03 0.  1.
</event>
<event>
 8    1  0.2039519E+004  0.1043930E+01  0.7957747E-01            NaN
         13   -1    0    0    0    0  0.00000000000E+00  0.00000000000E+00  0.74505805969E-08  0.10566000000E+00  0.10566000000E+00 0. -1.
     999900   -1    0    0    0    0 -0.00000000000E+00 -0.00000000000E+00 -0.74505805969E-08  0.93827000000E+00  0.93827000000E+00 0.  1.
     999902    2    1    2    0    0 -0.12685768928E-01 -0.27699549772E-02 -0.21167194171E-02  0.10307739411E+01  0.10306899805E+01 0.  0.
     999903    2    3    3    0    0  0.11864173390E+00  0.42859477295E-01 -0.37819784437E-01  0.13914415981E+00  0.44921768641E-01 0.  0.
         14    1    1    2    0    0  0.12685768928E-01  0.27699549772E-02  0.21167194171E-02  0.13156058869E-01  0.00000000000E+00 0. -1.
     999901    1    3    3    0    0 -0.13132750283E+00 -0.45629432272E-01  0.35703065019E-01  0.89162978132E+00  0.88000000000E+00 0.  1.
        -11    1    4    4    0    0  0.47440638506E-01 -0.16585471911E-02 -0.26618757387E-01  0.54425952692E-01  0.51100000000E-03 0.  1.
         11    1    4    4    0    0  0.71201095392E-01  0.44518024486E-01 -0.11201027050E-01  0.84718207117E-01  0.51100000000E-03 0. -1.
</event>
<event>
 8    1  0.2039519E+004  0.1043930E+01  0.7957747E-01            NaN
         13   -1    0    0    0    0  0.00000000000E+00  0.00000000000E+00  0.74505805969E-08  0.10566000000E+00  0.10566000000E+00 0. -1.
     999900   -1    0    0    0    0 -0.00000000000E+00 -0.00000000000E+00 -0.74505805969E-08  0.93827000000E+00  0.93827000000E+00 0. -1.
     999902    2    1    2    0    0 -0.83827717218E-02 -0.16050541183E-02 -0.11837556173E-01  0.10293363440E+01  0.10292328863E+01 0.  0.
     999903    2    3    3    0    0  0.11890165517E+00 -0.16124914852E-01 -0.54030668211E-01  0.13905975189E+00  0.44952030053E-01 0.  0.
         14    1    1    2    0    0  0.83827717218E-02  0.16050541183E-02  0.11837556173E-01  0.14593656040E-01  0.00000000000E+00 0.  1.
     999901    1    3    3    0    0 -0.12728442690E+00  0.14519860734E-01  0.42193112038E-01  0.89027659207E+00  0.88000000000E+00 0. -1.
        -11    1    4    4    0    0  0.59143927965E-01 -0.27798595059E-01 -0.39837805039E-01  0.76538081592E-01  0.51100000000E-03 0.  1.
         11    1    4    4    0    0  0.59757727209E-01  0.11673680206E-01 -0.14192863172E-01  0.62521670297E-01  0.51100000000E-03 0. -1.
</event>
<event>
 8    1  0.2039519E+004  0.1043930E+01  0.7957747E-01            NaN
         13   -1    0    0    0    0  0.00000000000E+00  0.00000000000E+00  0.74505805969E-08  0.10566000000E+00  0.10566000000E+00 0.  1.
     999900   -1    0    0    0    0 -0.00000000000E+00 -0.00000000000E+00 -0.74505805969E-08  0.93827000000E+00  0.93827000000E+00 0. -1.
     999902    2    1    2    0    0  0.76602450119E-02 -0.89350919409E-02  0.48889866187E-02  0.10311856910E+01  0.10311069352E+01 0.  0.
     999903    2    3    3    0    0 -0.66931292711E-01  0.32513544904E-01 -0.10911646520E+00  0.13973791909E+00  0.45643778420E-01 0.  0.
         14    1    1    2    0    0 -0.76602450119E-02  0.89350919409E-02 -0.48889866187E-02  0.12744308996E-01  0.00000000000E+00 0. -1.
     999901    1    3    3    0    0  0.74591537723E-01 -0.41448636845E-01  0.11400545182E+00  0.89144777191E+00  0.88000000000E+00 0.  1.
        -11    1    4    4    0    0 -0.47203450670E-01  0.14971617047E-02 -0.41955495871E-01  0.63173823717E-01  0.51100000000E-03 0.  1.
         11    1    4    4    0    0 -0.19727842041E-01  0.31016383199E-01 -0.67160969332E-01  0.76564095378E-01  0.51100000000E-03 0. -1.
</event>
<event>
 8    1  0.2039519E+004  0.1043930E+01  0.7957747E-01            NaN
         13   -1    0    0    0    0  0.00000000000E+00  0.00000000000E+00  0.74505805969E-08  0.10566000000E+00  0.10566000000E+00 0.  1.
     999900   -1    0    0    0    0 -0.00000000000E+00 -0.00000000000E+00 -0.74505805969E-08  0.93827000000E+00  0.93827000000E+00 0.  1.
     999902    2    1    2    0    0  0.82817263328E-02  0.24589915442E-02 -0.10591180462E-01  0.10302622740E+01  0.10301716102E+01 0.  0.
     999903    2    3    3    0    0  0.36189569894E-01 -0.64429199035E-01 -0.11236999954E+00  0.14143619102E+00  0.43776394036E-01 0.  0.
         14    1    1    2    0    0 -0.82817263328E-02 -0.24589915442E-02  0.10591180462E-01  0.13667726001E-01  0.00000000000E+00 0.  1.
     999901    1    3    3    0    0 -0.27907843561E-01  0.66888190580E-01  0.10177881908E+00  0.88882608298E+00  0.88000000000E+00 0. -1.
        -11    1    4    4    0    0 -0.48357281116E-02  0.92847323265E-03 -0.22237842007E-01  0.22782209441E-01  0.51100000000E-03 0. -1.
         11    1    4    4    0    0  0.41025298006E-01 -0.65357672268E-01 -0.90132157538E-01  0.11865398158E+00  0.51100000000E-03 0.  1.
</event>
<event>
 8    1  0.2039519E+004  0.1043930E+01  0.7957747E-01            NaN
         13   -1    0    0    0    0  0.00000000000E+00  0.00000000000E+00  0.74505805969E-08  0.10566000000E+00  0.10566000000E+00 0.  1.
     999900   -1    0    0    0    0 -0.00000000000E+00 -0.00000000000E+00 -0.74505805969E-08  0.93827000000E+00  0.93827000000E+00 0. -1.
     999902    2    1    2    0    0  0.59720408640E-02 -0.14719511599E-01  0.14860421542E-02  0.10279757650E+01  0.10278519523E+01 0.  0.
     999903    2    3    3    0    0 -0.56173417998E-02  0.12528837363E+00  0.28835834441E-01  0.13641279308E+00  0.45257194702E-01 0.  0.
         14    1    1    2    0    0 -0.59720408640E-02  0.14719511599E-01 -0.14860421542E-02  0.15954235020E-01  0.00000000000E+00 0.  1.
     999901    1    3    3    0    0  0.11589382664E-01 -0.14000788523E+00 -0.27349792287E-01  0.89156297190E+00  0.88000000000E+00 0. -1.
        -11    1    4    4    0    0 -0.22011720305E-01  0.66150342749E-01  0.27734673971E-01  0.75032372599E-01  0.51100000000E-03 0.  1.
         11    1    4    4    0    0  0.16394378505E-01  0.59138030885E-01  0.11011604709E-02  0.61380420485E-01  0.51100000000E-03 0. -1.
</event>
<event>
 8    1  0.2039519E+004  0.1043930E+01  0.7957747E-01            NaN
         13   -1    0    0    0    0  0.00000000000E+00  0.00000000000E+00  0.74505805969E-08  0.10566000000E+00  0.10566000000E+00 0. -1.
     999900   -1    0    0    0    0 -0.00000000000E+00 -0.00000000000E+00 -0.74505805969E-08  0.93827000000E+00  0.93827000000E+00 0. -1.
     999902    2    1    2    0    0  0.49186984893E-02 -0.11926426876E-01  0.36654711027E-02  0.10305184777E+01  0.10304312029E+01 0.  0.
     999903    2    3    3    0    0  0.12341904155E+00 -0.14525983742E-01  0.50663199689E-01  0.14132902907E+00  0.44315580036E-01 0.  0.
         14    1    1    2    0    0 -0.49186984893E-02  0.11926426876E-01 -0.36654711027E-02  0.13411522332E-01  0.00000000000E+00 0. -1.
     999901    1    3    3    0    0 -0.11850034306E+00  0.25995568664E-02 -0.46997728586E-01  0.88918944860E+00  0.88000000000E+00 0. -1.
        -11    1    4    4    0    0  0.32893272578E-01 -0.26450895632E-04 -0.61567047438E-02  0.33468406219E-01  0.51100000000E-03 0. -1.
         11    1    4    4    0    0  0.90525768976E-01 -0.14499532846E-01  0.56819904433E-01  0.10786062285E+00  0.51100000000E-03 0.  1.
</event>
<event>
 8    1  0.2039519E+004  0.1043930E+01  0.7957747E-01            NaN
         13   -1    0    0    0    0  0.00000000000E+00  0.00000000000E+00  0.74505805969E-08  0.10566000000E+00  0.10566000000E+00 0.  1.
     999900   -1    0    0    0    0 -0.00000000000E+00 -0.00000000000E+00 -0.74505805969E-08  0.93827000000E+00  0.93827000000E+00 0. -1.
     999902    2    1    2    0    0 -0.11711887426E-01  0.67302195899E-02  0.34795831556E-02  0.10299811054E+01  0.10298866470E+01 0.  0.
     999903    2    3    3    0    0  0.98943437967E-02 -0.10130651815E+00  0.84043325964E-01  0.13945918952E+00  0.44996402566E-01 0.  0.
         14    1    1    2    0    0  0.11711887426E-01 -0.67302195899E-02 -0.34795831556E-02  0.13948894643E-01  0.00000000000E+00 0. -1.
     999901    1    3    3    0    0 -0.21606231223E-01  0.10803673774E+00 -0.80563742809E-01  0.89052191584E+00  0.88000000000E+00 0.  1.
        -11    1    4    4    0    0  0.21250322970E-01 -0.29056530040E-01  0.41128655410E-01  0.54659725403E-01  0.51100000000E-03 0. -1.
         11    1    4    4    0    0 -0.11355979174E-01 -0.72249988110E-01  0.42914670554E-01  0.84799464118E-01  0.51100000000E-03 0.  1.
</event>
<event>
 8    1  0.2039519E+004  0.1043930E+01  0.7957747E-01            NaN
         13   -1    0    0    0    0  0.00000000000E+00  0.00000000000E+00  0.74505805969E-08  0.10566000000E+00  0.10566000000E+00 0.  1.
     999900   -1    0    0    0    0 -0.00000000000E+00 -0.00000000000E+00 -0.74505805969E-08  0.93827000000E+00  0.93827000000E+00 0.  1.
     999902    2    1    2    0    0  0.96705819989E-02  0.67898969154E-02 -0.86209065114E-02  0.10293032134E+01  0.10291992821E+01 0.  0.
     999903    2    3    3    0    0  0.78326032383E-01 -0.10013451463E+00  0.34291621484E-01  0.13914149458E+00  0.44972789995E-01 0.  0.
         14    1    1    2    0    0 -0.96705819989E-02 -0.67898969154E-02  0.86209065114E-02  0.14626786571E-01  0.00000000000E+00 0.  1.
     999901    1    3    3    0    0 -0.68655450384E-01  0.10692441155E+00 -0.42912527995E-01  0.89016171885E+00  0.88000000000E+00 0. -1.
        -11    1    4    4    0    0  0.45157832520E-01 -0.28011778411E-01  0.12591978154E-02  0.53157654838E-01  0.51100000000E-03 0. -1.
         11    1    4    4    0    0  0.33168199862E-01 -0.72122736219E-01  0.33032423669E-01  0.85983839739E-01  0.51100000000E-03 0.  1.
</event>
<event>
 8    1  0.2039519E+004  0.1043930E+01  0.7957747E-01            NaN
         13   -1    0    0    0    0  0.00000000000E+00  0.00000000000E+00  0.74505805969E-08  0.10566000000E+00  0.10566000000E+00 0. -1.
     999900   -1    0    0    0    0 -0.00000000000E+00 -0.00000000000E+00 -0.74505805969E-08  0.93827000000E+00  0.93827000000E+00 0.  1.
     999902    2    1    2    0    0  0.18897787495E-04  0.13674159843E-01 -0.29678830020E-02  0.10299374543E+01  0.10298423998E+01 0.  0.
     999903    2    3    3    0    0  0.88997343318E-01 -0.88615275078E-01 -0.38091022090E-01  0.13886286309E+00  0.45373722436E-01 0.  0.
         14    1    1    2    0    0 -0.18897787495E-04 -0.13674159843E-01  0.29678830020E-02  0.13992545660E-01  0.00000000000E+00 0. -1.
     999901    1    3    3    0    0 -0.88978445531E-01  0.10228943492E+00  0.35123139088E-01  0.89107459125E+00  0.88000000000E+00 0.  1.
        -11    1    4    4    0    0  0.61316886130E-01 -0.69238182064E-01 -0.47240117067E-01  0.10385362854E+00  0.51100000000E-03 0.  1.
         11    1    4    4    0    0  0.27680457189E-01 -0.19377093014E-01  0.91490949771E-02  0.35009234550E-01  0.51100000000E-03 0. -1.
</event>
<event>
 8    1  0.2039519E+004  0.1043930E+01  0.7957747E-01            NaN
         13   -1    0    0    0    0  0.00000000000E+00  0.00000000000E+00  0.74505805969E-08  0.10566000000E+00  0.10566000000E+00 0. -1.
     999900   -1    0    0    0    0 -0.00000000000E+00 -0.00000000000E+00 -0.74505805969E-08  0.93827000000E+00  0.93827000000E+00 0. -1.
     999902    2    1    2    0    0  0.13472916015E-01 -0.47314741598E-02 -0.42988737474E-02  0.10290173668E+01  0.10289093034E+01 0.  0.
     999903    2    3    3    0    0 -0.11777198920E+00 -0.17410229993E-01  0.51635981551E-01  0.13743748589E+00  0.45270634941E-01 0.  0.
         14    1    1    2    0    0 -0.13472916015E-01  0.47314741598E-02  0.42988737474E-02  0.14912633207E-01  0.00000000000E+00 0. -1.
     999901    1    3    3    0    0  0.13124490522E+00  0.12678755833E-01 -0.55934855298E-01  0.89157988090E+00  0.88000000000E+00 0. -1.
        -11    1    4    4    0    0 -0.43882324850E-01  0.14536155195E-01  0.25516716059E-01  0.52804565726E-01  0.51100000000E-03 0.  1.
         11    1    4    4    0    0 -0.73889664351E-01 -0.31946385188E-01  0.26119265492E-01  0.84632920163E-01  0.51100000000E-03 0. -1.
</event>
<event>
 8    1  0.2039519E+004  0.1043930E+01  0.7957747E-01            NaN
         13   -1    0    0    0    0  0.00000000000E+00  0.00000000000E+00  0.74505805969E-08  0.10566000000E+00  0.10566000000E+00 0. -1.
     999900   -1    0    0    0    0 -0.00000000000E+00 -0.00000000000E+00 -0.74505805969E-08  0.93827000000E+00  0.93827000000E+00 0.  1.
     999902    2    1    2    0    0  0.57473595103E-02 -0.85240210556E-02 -0.90272569845E-02  0.10302485364E+01  0.10301576891E+01 0.  0.
     999903    2    3    3    0    0  0.48688312494E-01 -0.11542673949E+00  0.46514226943E-01  0.14100336604E+00  0.44994354803E-01 0.  0.
         14    1    1    2    0    0 -0.57473595103E-02  0.85240210556E-02  0.90272569845E-02  0.13681463553E-01  0.00000000000E+00 0. -1.
     999901    1    3    3    0    0 -0.42940952983E-01  0.10690271843E+00 -0.55541483928E-01  0.88924517041E+00  0.88000000000E+00 0.  1.
        -11    1    4    4    0    0  0.13917521366E-03 -0.35122621637E-01  0.28981559969E-01  0.45539102534E-01  0.51100000000E-03 0. -1.
         11    1    4    4    0    0  0.48549137280E-01 -0.80304117854E-01  0.17532666974E-01  0.95464263508E-01  0.51100000000E-03 0.  1.
</event>
<event>
 8    1  0.2039519E+004  0.1043930E+01  0.7957747E-01            NaN
         13   -1    0    0    0    0  0.00000000000E+00  0.00000000000E+00  0.74505805969E-08  0.10566000000E+00  0.10566000000E+00 0. -1.
     999900   -1    0    0    0    0 -0.00000000000E+00 -0.00000000000E+00 -0.74505805969E-08  0.93827000000E+00  0.93827000000E+00 0. -1.
     999902    2    1    2    0    0 -0.49775872351E-02  0.97629671219E-02  0.14043446652E-01  0.10261167943E+01  0.10259621657E+01 0.  0.
     999903    2    3    3    0    0  0.69588322450E-01 -0.47622782053E-01 -0.94470082922E-01  0.13447315186E+00  0.45254480565E-01 0.  0.
         14    1    1    2    0    0  0.49775872351E-02 -0.97629671219E-02 -0.14043446652E-01  0.17813205651E-01  0.00000000000E+00 0.  1.
     999901    1    3    3    0    0 -0.74565909685E-01  0.57385749175E-01  0.10851352957E+00  0.89164364249E+00  0.88000000000E+00 0.  1.
        -11    1    4    4    0    0  0.41655940365E-01 -0.52806261675E-01 -0.67816566814E-01  0.95514744910E-01  0.51100000000E-03 0.  1.
         11    1    4    4    0    0  0.27932382085E-01  0.51834796222E-02 -0.26653516109E-01  0.38958406947E-01  0.51100000000E-03 0. -1.
</event>
<event>
 8    1  0.2039519E+004  0.1043930E+01  0.7957747E-01            NaN
         13   -1    0    0    0    0  0.00000000000E+00  0.00000000000E+00  0.74505805969E-08  0.10566000000E+00  0.10566000000E+00 0. -1.
     999900   -1    0    0    0    0 -0.00000000000E+00 -0.00000000000E+00 -0.74505805969E-08  0.93827000000E+00  0.93827000000E+00 0. -1.
     999902    2    1    2    0    0 -0.24521512547E-02 -0.59995801939E-03  0.12602204521E-01  0.10310774301E+01  0.10309973221E+01 0.  0.
     999903    2    3    3    0    0  0.10855907429E+00  0.48343736213E-01 -0.62212804508E-01  0.13960883107E+00  0.38704046639E-01 0.  0.
         14    1    1    2    0    0  0.24521512547E-02  0.59995801939E-03 -0.12602204521E-01  0.12852569945E-01  0.00000000000E+00 0.  1.
     999901    1    3    3    0    0 -0.11101122554E+00 -0.48943694233E-01  0.74815009029E-01  0.89146859899E+00  0.88000000000E+00 0.  1.
        -11    1    4    4    0    0  0.10214457530E+00  0.31966891939E-01 -0.56970117880E-01  0.12124871915E+00  0.51100000000E-03 0.  1.
         11    1    4    4    0    0  0.64144989930E-02  0.16376844274E-01 -0.52426866275E-02  0.18360111922E-01  0.51100000000E-03 0. -1.
</event>
<event>
 8    1  0.2039519E+004  0.1043930E+01  0.7957747E-01            NaN
         13   -1    0    0    0    0  0.00000000000E+00  0.00000000000E+00  0.74505805969E-08  0.10566000000E+00  0.10566000000E+00 0. -1.
     999900   -1    0    0    0    0 -0.00000000000E+00 -0.00000000000E+00 -0.74505805969E-08  0.93827000000E+00  0.93827000000E+00 0. -1.
     999902    2    1    2    0    0  0.58399132160E-02  0.45128707764E-02 -0.12470302816E-01  0.10294393464E+01  0.10293373543E+01 0.  0.
     999903    2    3    3    0    0  0.40629292773E-01 -0.62371540357E-01  0.10729951833E+00  0.13813208433E+00  0.45014859882E-01 0.  0.
         14    1    1    2    0    0 -0.58399132160E-02 -0.45128707764E-02  0.12470302816E-01  0.14490653586E-01  0.00000000000E+00 0. -1.
     999901    1    3    3    0    0 -0.34789379557E-01  0.66884411133E-01 -0.11976982115E+00  0.89130726208E+00  0.88000000000E+00 0. -1.
        -11    1    4    4    0    0  0.18975404667E-01 -0.12796739580E-02  0.42080960030E-01  0.46181943071E-01  0.51100000000E-03 0.  1.
         11    1    4    4    0    0  0.21653888105E-01 -0.61091866399E-01  0.65218558301E-01  0.91950141262E-01  0.51100000000E-03 0. -1.
</event>
<event>
 8    1  0.2039519E+004  0.1043930E+01  0.7957747E-01            NaN
         13   -1    0    0    0    0  0.00000000000E+00  0.00000000000E+00  0.74505805969E-08  0.10566000000E+00  0.10566000000E+00 0. -1.
     999900   -1    0    0    0    0 -0.00000000000E+00 -0.00000000000E+00 -0.74505805969E-08  0.93827000000E+00  0.93827000000E+00 0.  1.
     999902    2    1    2    0    0  0.17725014558E-02 -0.10049889407E-01 -0.98454920044E-02  0.10297498818E+01  0.10296522439E+01 0.  0.
     999903    2    3    3    0    0  0.88848394865E-02 -0.11220741554E+00  0.70768896690E-01  0.14015141895E+00  0.44325376700E-01 0.  0.
         14    1    1    2    0    0 -0.17725014558E-02  0.10049889407E-01  0.98454920044E-02  0.14180118170E-01  0.00000000000E+00 0.  1.
     999901    1    3    3    0    0 -0.71123380307E-02  0.10215752613E+00 -0.80614388694E-01  0.88959846288E+00  0.88000000000E+00 0.  1.
        -11    1    4    4    0    0 -0.37673724561E-02 -0.57192975941E-02  0.20682769769E-01  0.21793153662E-01  0.51100000000E-03 0. -1.
         11    1    4    4    0    0  0.12652211943E-01 -0.10648811795E+00  0.50086126920E-01  0.11835826529E+00  0.51100000000E-03 0.  1.
</event>
<event>
 8    1  0.2039519E+004  0.1043930E+01  0.7957747E-01            NaN
         13   -1    0    0    0    0  0.00000000000E+00  0.00000000000E+00  0.74505805969E-08  0.10566000000E+00  0.10566000000E+00 0. -1.
     999900   -1    0    0    0    0 -0.00000000000E+00 -0.00000000000E+00 -0.74505805969E-08  0.93827000000E+00  0.93827000000E+00 0. -1.
     999902    2    1    2    0    0 -0.68770421560E-02 -0.99357055927E-02  0.28885268855E-02  0.10315060094E+01  0.10314311862E+01 0.  0.
     999903    2    3    3    0    0  0.71687296873E-01  0.94718680393E-01 -0.58598356858E-01  0.13970696661E+00  0.44424904562E-01 0.  0.
         14    1    1    2    0    0  0.68770421560E-02  0.99357055927E-02 -0.28885268855E-02  0.12423990583E-01  0.00000000000E+00 0.  1.
     999901    1    3    3    0    0 -0.78564339029E-01 -0.10465438599E+00  0.61486883743E-01  0.89179904280E+00  0.88000000000E+00 0.  1.
        -11    1    4    4    0    0  0.28007003304E-02  0.77661108802E-02 -0.21006957079E-01  0.22576752806E-01  0.51100000000E-03 0. -1.
         11    1    4    4    0    0  0.68886596543E-01  0.86952569513E-01 -0.37591399779E-01  0.11713021381E+00  0.51100000000E-03 0.  1.
</event>
<event>
 8    1  0.2039519E+004  0.1043930E+01  0.7957747E-01            NaN
         13   -1    0    0    0    0  0.00000000000E+00  0.00000000000E+00  0.74505805969E-08  0.10566000000E+00  0.10566000000E+00 0.  1.
     999900   -1    0    0    0    0 -0.00000000000E+00 -0.00000000000E+00 -0.74505805969E-08  0.93827000000E+00  0.93827000000E+00 0. -1.
     999902    2    1    2    0    0  0.14123945561E-02  0.68099052692E-02  0.11445286645E-01  0.10305373059E+01  0.10304502776E+01 0.  0.
     999903    2    3    3    0    0 -0.12048718092E-01 -0.12661973580E+00  0.37484604030E-01  0.13999661807E+00  0.44902432344E-01 0.  0.
         14    1    1    2    0    0 -0.14123945561E-02 -0.68099052692E-02 -0.11445286645E-01  0.13392694074E-01  0.00000000000E+00 0. -1.
     999901    1    3    3    0    0  0.13461112649E-01  0.13342964107E+00 -0.26039317385E-01  0.89054068785E+00  0.88000000000E+00 0.  1.
        -11    1    4    4    0    0 -0.57407417302E-02 -0.46815690999E-01  0.36985594736E-01  0.59940473624E-01  0.51100000000E-03 0. -1.
         11    1    4    4    0    0 -0.63079763623E-02 -0.79804044804E-01  0.49900929372E-03  0.80056144450E-01  0.51100000000E-03 0.  1.
</event>
<event>
 8    1  0.2039519E+004  0.1043930E+01  0.7957747E-01            NaN
         13   -1    0    0    0    0  0.00000000000E+00  0.00000000000E+00  0.74505805969E-08  0.10566000000E+00  0.10566000000E+00 0.  1.
     999900   -1    0    0    0    0 -0.00000000000E+00 -0.00000000000E+00 -0.74505805969E-08  0.93827000000E+00  0.93827000000E+00 0.  1.
     999902    2    1    2    0    0 -0.48621773509E-02 -0.10796799098E-01  0.65062760297E-02  0.10304191426E+01  0.10303305616E+01 0.  0.
     999903    2    3    3    0    0 -0.27944451217E-01  0.18368022192E-01  0.12886553334E+00  0.14117498829E+00  0.46965679401E-01 0.  0.
         14    1    1    2    0    0  0.48621773509E-02  0.10796799098E-01 -0.65062760297E-02  0.13510857379E-01  0.00000000000E+00 0. -1.
     999901    1    3    3    0    0  0.23082273866E-01 -0.29164821290E-01 -0.12235925731E+00  0.88924415433E+00  0.88000000000E+00 0.  1.
        -11    1    4    4    0    0 -0.58952339931E-02  0.22718593796E-01  0.22703084127E-01  0.32658527796E-01  0.51100000000E-03 0.  1.
         11    1    4    4    0    0 -0.22049217224E-01 -0.43505716043E-02  0.10616244921E+00  0.10851646049E+00  0.51100000000E-03 0. -1.
</event>
<event>
 8    1  0.2039519E+004  0.1043930E+01  0.7957747E-01            NaN
         13   -1    0    0    0    0  0.00000000000E+00  0.00000000000E+00  0.74505805969E-08  0.10566000000E+00  0.10566000000E+00 0. -1.
     999900   -1    0    0    0    0 -0.00000000000E+00 -0.00000000000E+00 -0.74505805969E-08  0.93827000000E+00  0.93827000000E+00 0. -1.
     999902    2    1    2    0    0 -0.13444403295E-01 -0.75812456832E-03  0.17848260978E-03  0.10304630557E+01  0.10303750534E+01 0.  0.
     999903    2    3    3    0    0  0.26459424281E-01 -0.24874979976E-01  0.12822434611E+00  0.13997460472E+00  0.42808191588E-01 0.  0.
         14    1    1    2    0    0  0.13444403295E-01  0.75812456832E-03 -0.17848260978E-03  0.13466944303E-01  0.00000000000E+00 0. -1.
     999901    1    3    3    0    0 -0.39903827576E-01  0.24116855408E-01 -0.12804586350E+00  0.89048845098E+00  0.88000000000E+00 0. -1.
        -11    1    4    4    0    0  0.23277541648E-01 -0.29612338677E-01  0.55805216313E-01  0.67329175220E-01  0.51100000000E-03 0.  1.
         11    1    4    4    0    0  0.31818826335E-02  0.47373587013E-02  0.72419129801E-01  0.72645429496E-01  0.51100000000E-03 0. -1.
</event>
<event>
 8    1  0.2039519E+004  0.1043930E+01  0.7957747E-01            NaN
         13   -1    0    0    0    0  0.00000000000E+00  0.00000000000E+00  0.74505805969E-08  0.10566000000E+00  0.10566000000E+00 0. -1.
     999900   -1    0    0    0    0 -0.00000000000E+00 -0.00000000000E+00 -0.74505805969E-08  0.93827000000E+00  0.93827000000E+00 0. -1.
     999902    2    1    2    0    0  0.80002561583E-02 -0.59616554540E-02  0.85832158153E-02  0.10307688060E+01  0.10306847793E+01 0.  0.
     999903    2    3    3    0    0  0.39291358562E-01  0.12058695924E+00 -0.39427155610E-01  0.13987112345E+00  0.43868040512E-01 0.  0.
         14    1    1    2    0    0 -0.80002561583E-02  0.59616554540E-02 -0.85832158153E-02  0.13161194022E-01  0.00000000000E+00 0.  1.
     999901    1    3    3    0    0 -0.31291102404E-01 -0.12654861470E+00  0.48010371426E-01  0.89089768253E+00  0.88000000000E+00 0. -1.
        -11    1    4    4    0    0  0.19430925227E-02  0.38574784038E-01  0.57685551293E-02  0.39055433955E-01  0.51100000000E-03 0. -1.
         11    1    4    4    0    0  0.37348266039E-01  0.82012175204E-01 -0.45195710740E-01  0.10081568949E+00  0.51100000000E-03 0.  1.
</event>
<event>
 8    1  0.2039519E+004  0.1043930E+01  0.7957747E-01            NaN
         13   -1    0    0    0    0  0.00000000000E+00  0.00000000000E+00  0.74505805969E-08  0.10566000000E+00  0.10566000000E+00 0. -1.
     999900   -1    0    0    0    0 -0.00000000000E+00 -0.00000000000E+00 -0.74505805969E-08  0.93827000000E+00  0.93827000000E+00 0. -1.
     999902    2    1    2    0    0 -0.15786457911E-02  0.10607303396E-01  0.91433033691E-02  0.10298372003E+01  0.10297407693E+01 0.  0.
     999903    2    3    3    0    0  0.12618937377E+00 -0.38598698364E-01  0.22569490800E-02  0.13922318774E+00  0.44321378780E-01 0.  0.
         14    1    1    2    0    0  0.15786457911E-02 -0.10607303396E-01 -0.91433033691E-02  0.14092799735E-01  0.00000000000E+00 0.  1.
     999901    1    3    3    0    0 -0.12776801956E+00  0.49206001760E-01  0.68863542890E-02  0.89061401253E+00  0.88000000000E+00 0.  1.
        -11    1    4    4    0    0  0.96042389316E-01 -0.22601326201E-01  0.20122022108E-01  0.10069814987E+00  0.51100000000E-03 0.  1.
         11    1    4    4    0    0  0.30146984455E-01 -0.15997372163E-01 -0.17865073028E-01  0.38525037874E-01  0.51100000000E-03 0. -1.
</event>
<event>
 8    1  0.2039519E+004  0.1043930E+01  0.7957747E-01            NaN
         13   -1    0    0    0    0  0.00000000000E+00  0.00000000000E+00  0.74505805969E-08  0.10566000000E+00  0.10566000000E+00 0. -1.
     999900   -1    0    0    0    0 -0.00000000000E+00 -0.00000000000E+00 -0.74505805969E-08  0.93827000000E+00  0.93827000000E+00 0. -1.
     999902    2    1    2    0    0 -0.12290392252E-01 -0.29779586939E-02 -0.54811249392E-02  0.10301472314E+01  0.10300550246E+01 0.  0.
     999903    2    3    3    0    0 -0.12499229900E+00  0.43986474428E-01  0.22885325092E-01  0.14126476828E+00  0.43291014200E-01 0.  0.
         14    1    1    2    0    0  0.12290392252E-01  0.29779586939E-02  0.54811249392E-02  0.13782768600E-01  0.00000000000E+00 0.  1.
     999901    1    3    3    0    0  0.11270190674E+00 -0.46964433122E-01 -0.28366450032E-01  0.88888246312E+00  0.88000000000E+00 0. -1.
        -11    1    4    4    0    0 -0.42640737830E-01 -0.11417214686E-02  0.20495016528E-01  0.47326978290E-01  0.51100000000E-03 0.  1.
         11    1    4    4    0    0 -0.82351561166E-01  0.45128195896E-01  0.23903085647E-02  0.93937789986E-01  0.51100000000E-03 0. -1.
</event>
<event>
 8    1  0.2039519E+004  0.1043930E+01  0.7957747E-01            NaN
         13   -1    0    0    0    0  0.00000000000E+00  0.00000000000E+00  0.74505805969E-08  0.10566000000E+00  0.10566000000E+00 0.  1.
     999900   -1    0    0    0    0 -0.00000000000E+00 -0.00000000000E+00 -0.74505805969E-08  0.93827000000E+00  0.93827000000E+00 0. -1.
     999902    2    1    2    0    0  0.44760648489E-02  0.58938699555E-02 -0.14821521641E-01  0.10273634565E+01  0.10272298776E+01 0.  0.
     999903    2    3    3    0    0  0.84574308311E-01 -0.74585503505E-01 -0.66963372094E-01  0.13853758451E+00  0.44640319898E-01 0.  0.
         14    1    1    2    0    0 -0.44760648489E-02 -0.58938699555E-02  0.14821521641E-01  0.16566543494E-01  0.00000000000E+00 0.  1.
     999901    1    3    3    0    0 -0.80098243462E-01  0.80479373461E-01  0.52141850454E-01  0.88882587199E+00  0.88000000000E+00 0.  1.
        -11    1    4    4    0    0  0.31538264419E-01 -0.55592917923E-02 -0.30272750429E-01  0.44071174109E-01  0.51100000000E-03 0. -1.
         11    1    4    4    0    0  0.53036043892E-01 -0.69026211713E-01 -0.36690621665E-01  0.94466410403E-01  0.51100000000E-03 0.  1.
</event>
<event>
 8    1  0.2039519E+004  0.1043930E+01  0.7957747E-01            NaN
         13   -1    0    0    0    0  0.00000000000E+00  0.00000000000E+00  0.74505805969E-08  0.10566000000E+00  0.10566000000E+00 0.  1.
     999900   -1    0    0    0    0 -0.00000000000E+00 -0.00000000000E+00 -0.74505805969E-08  0.93827000000E+00  0.93827000000E+00 0. -1.
     999902    2    1    2    0    0 -0.52766949386E-02  0.65382333143E-02 -0.10362318363E-01  0.10305894735E+01  0.10305031263E+01 0.  0.
     999903    2    3    3    0    0  0.59499776140E-01 -0.33487223437E-01  0.11228527907E+00  0.13882691459E+00  0.44758360395E-01 0.  0.
         14    1    1    2    0    0  0.52766949386E-02 -0.65382333143E-02  0.10362318363E-01  0.13340526459E-01  0.00000000000E+00 0.  1.
     999901    1    3    3    0    0 -0.64776471079E-01  0.40025456751E-01 -0.12264759743E+00  0.89176255895E+00  0.88000000000E+00 0. -1.
        -11    1    4    4    0    0 -0.41469615632E-02 -0.45467542788E-02 -0.42628305984E-03  0.61897579053E-02  0.51100000000E-03 0. -1.
         11    1    4    4    0    0  0.63646737703E-01 -0.28940469158E-01  0.11271156213E+00  0.13263715668E+00  0.51100000000E-03 0.  1.
</event>
<event>
 8    1  0.2039519E+004  0.1043930E+01  0.7957747E-01            NaN
         13   -1    0    0    0    0  0.00000000000E+00  0.00000000000E+00  0.74505805969E-08  0.10566000000E+00  0.10566000000E+00 0. -1.
     999900   -1    0    0    0    0 -0.00000000000E+00 -0.00000000000E+00 -0.74505805969E-08  0.93827000000E+00  0.93827000000E+00 0. -1.
     999902    2    1    2    0    0 -0.12770331049E-01  0.55839988861E-02 -0.41112055049E-04  0.10299921347E+01  0.10298978267E+01 0.  0.
     999903    2    3    3    0    0 -0.72098182695E-01 -0.64765833453E-01 -0.91394369297E-01  0.14048985225E+00  0.44628541488E-01 0.  0.
         14    1    1    2    0    0  0.12770331049E-01 -0.55839988861E-02  0.41112055049E-04  0.13937865291E-01  0.00000000000E+00 0. -1.
     999901    1    3    3    0    0  0.59327851645E-01  0.70349832339E-01  0.91353257242E-01  0.88950228246E+00  0.88000000000E+00 0.  1.
        -11    1    4    4    0    0 -0.59123459207E-01 -0.38880336483E-01 -0.85413794893E-01  0.11091907623E+00  0.51100000000E-03 0. -1.
         11    1    4    4    0    0 -0.12974723487E-01 -0.25885496970E-01 -0.59805744038E-02  0.29570776016E-01  0.51100000000E-03 0.  1.
</event>
<event>
 8    1  0.2039519E+004  0.1043930E+01  0.7957747E-01            NaN
         13   -1    0    0    0    0  0.00000000000E+00  0.00000000000E+00  0.74505805969E-08  0.10566000000E+00  0.10566000000E+00 0. -1.
     999900   -1    0    0    0    0 -0.00000000000E+00 -0.00000000000E+00 -0.74505805969E-08  0.93827000000E+00  0.93827000000E+00 0. -1.
     999902    2    1    2    0    0 -0.63105266915E-02 -0.11312313767E-01  0.45540236191E-02  0.10301993656E+01  0.10301078597E+01 0.  0.
     999903    2    3    3    0    0  0.12924632411E+00 -0.20288422241E-01  0.19809077784E-01  0.13964395070E+00  0.44629598167E-01 0.  0.
         14    1    1    2    0    0  0.63105266915E-02  0.11312313767E-01 -0.45540236191E-02  0.13730634400E-01  0.00000000000E+00 0.  1.
     999901    1    3    3    0    0 -0.13555685080E+00  0.89761084740E-02 -0.15255054165E-01  0.89055541490E+00  0.88000000000E+00 0.  1.
        -11    1    4    4    0    0  0.10493140515E+00 -0.31572892155E-01  0.66587397313E-02  0.10978181653E+00  0.51100000000E-03 0.  1.
         11    1    4    4    0    0  0.24314918961E-01  0.11284469913E-01  0.13150338053E-01  0.29862134171E-01  0.51100000000E-03 0. -1.
</event>
<event>
 8    1  0.2039519E+004  0.1043930E+01  0.7957747E-01            NaN
         13   -1    0    0    0    0  0.00000000000E+00  0.00000000000E+00  0.74505805969E-08  0.10566000000E+00  0.10566000000E+00 0. -1.
     999900   -1    0    0    0    0 -0.00000000000E+00 -0.00000000000E+00 -0.74505805969E-08  0.93827000000E+00  0.93827000000E+00 0. -1.
     999902    2    1    2    0    0 -0.81423267401E-02  0.11883310462E-01 -0.29184527282E-02  0.10292321118E+01  0.10291271603E+01 0.  0.
     999903    2    3    3    0    0 -0.99428660911E-01 -0.53042578884E-01  0.68746168290E-01  0.13924088494E+00  0.44299148972E-01 0.  0.
         14    1    1    2    0    0  0.81423267401E-02 -0.11883310462E-01  0.29184527282E-02  0.14697888236E-01  0.00000000000E+00 0. -1.
     999901    1    3    3    0    0  0.91286334171E-01  0.64925889346E-01 -0.71664621018E-01  0.88999122682E+00  0.88000000000E+00 0. -1.
        -11    1    4    4    0    0 -0.51576308575E-01 -0.30664042935E-02  0.33590338204E-01  0.61628649046E-01  0.51100000000E-03 0. -1.
         11    1    4    4    0    0 -0.47852352336E-01 -0.49976174591E-01  0.35155830086E-01  0.77612235897E-01  0.51100000000E-03 0.  1.
</event>
<event>
 8    1  0.2039519E+004  0.1043930E+01  0.7957747E-01            NaN
         13   -1    0    0    0    0  0.00000000000E+00  0.00000000000E+00  0.74505805969E-08  0.10566000000E+00  0.10566000000E+00 0.  1.
     999900   -1    0    0    0    0 -0.00000000000E+00 -0.00000000000E+00 -0.74505805969E-08  0.93827000000E+00  0.93827000000E+00 0.  1.
     999902    2    1    2    0    0 -0.49406689703E-02 -0.42436280870E-02  0.12186884080E-01  0.10301119418E+01  0.10300192590E+01 0.  0.
     999903    2    3    3    0    0 -0.12360725236E-01 -0.13195927985E+00  0.15390150796E-01  0.14085573244E+00  0.45138027793E-01 0.  0.
         14    1    1    2    0    0  0.49406689703E-02  0.42436280870E-02 -0.12186884080E-01  0.13818058213E-01  0.00000000000E+00 0. -1.
     999901    1    3    3    0    0  0.74200562653E-02  0.12771565176E+00 -0.32032667166E-02  0.88925620934E+00  0.88000000000E+00 0. -1.
        -11    1    4    4    0    0 -0.21592628596E-01 -0.12704147506E+00  0.10481798329E-01  0.12929001203E+00  0.51100000000E-03 0.  1.
         11    1    4    4    0    0  0.92319033605E-02 -0.49178047954E-02  0.49083524670E-02  0.11565720410E-01  0.51100000000E-03 0. -1.
</event>
<event>
 8    1  0.2039519E+004  0.1043930E+01  0.7957747E-01            NaN
         13   -1    0    0    0    0  0.00000000000E+00  0.00000000000E+00  0.74505805969E-08  0.10566000000E+00  0.10566000000E+00 0.  1.
     999900   -1    0    0    0    0 -0.00000000000E+00 -0.00000000000E+00 -0.74505805969E-08  0.93827000000E+00  0.93827000000E+00 0.  1.
     999902    2    1    2    0    0  0.11716758377E-01  0.27781263651E-03  0.62928309071E-02  0.10306273940E+01  0.10305415401E+01 0.  0.
     999903    2    3    3    0    0 -0.63923839850E-01 -0.92313825357E-01 -0.69603189230E-01  0.13930538851E+00  0.44196014105E-01 0.  0.
         14    1    1    2    0    0 -0.11716758377E-01 -0.27781263651E-03 -0.62928309071E-02  0.13302606044E-01  0.00000000000E+00 0. -1.
     999901    1    3    3    0    0  0.75640598227E-01  0.92591637993E-01  0.75896020137E-01  0.89132200545E+00  0.88000000000E+00 0. -1.
        -11    1    4    4    0    0 -0.41305212263E-01 -0.87547159924E-01 -0.62044934611E-01  0.11498026267E+00  0.51100000000E-03 0.  1.
         11    1    4    4    0    0 -0.22618627587E-01 -0.47666654330E-02 -0.75582546190E-02  0.24325125841E-01  0.51100000000E-03 0. -1.
</event>
<event>
 8    1  0.2039519E+004  0.1043930E+01  0.7957747E-01            NaN
         13   -1    0    0    0    0  0.00000000000E+00  0.00000000000E+00  0.74505805969E-08  0.10566000000E+00  0.10566000000E+00 0. -1.
     999900   -1    0    0    0    0 -0.00000000000E+00 -0.00000000000E+00 -0.74505805969E-08  0.93827000000E+00  0.93827000000E+00 0. -1.
     999902    2    1    2    0    0 -0.11218635722E-01  0.65085800422E-02 -0.31324304304E-02  0.10305871547E+01  0.10305007772E+01 0.  0.
     999903    2    3    3    0    0 -0.32238855211E-01  0.41648976302E-01 -0.12320743080E+00  0.14148946441E+00  0.45444653386E-01 0.  0.
         14    1    1    2    0    0  0.11218635722E-01 -0.65085800422E-02  0.31324304304E-02  0.13342845350E-01  0.00000000000E+00 0.  1.
     999901    1    3    3    0    0  0.21020219489E-01 -0.35140396260E-01  0.12007500037E+00  0.88909769024E+00  0.88000000000E+00 0.  1.
        -11    1    4    4    0    0  0.41224328409E-02  0.18195041605E-01 -0.72328502251E-01  0.74697572587E-01  0.51100000000E-03 0.  1.
         11    1    4    4    0    0 -0.36361288052E-01  0.23453934696E-01 -0.50878928553E-01  0.66791891823E-01  0.51100000000E-03 0. -1.
</event>
<event>
 8    1  0.2039519E+004  0.1043930E+01  0.7957747E-01            NaN
         13   -1    0    0    0    0  0.00000000000E+00  0.00000000000E+00  0.74505805969E-08  0.10566000000E+00  0.10566000000E+00 0. -1.
     999900   -1    0    0    0    0 -0.00000000000E+00 -0.00000000000E+00 -0.74505805969E-08  0.93827000000E+00  0.93827000000E+00 0. -1.
     999902    2    1    2    0    0  0.24803889848E-02 -0.13983612458E-01  0.20933086482E-02  0.10295746634E+01  0.10294745805E+01 0.  0.
     999903    2    3    3    0    0 -0.39580352650E-01 -0.12069359796E+00  0.41836799277E-01  0.14124157723E+00  0.45445752950E-01 0.  0.
         14    1    1    2    0    0 -0.24803889848E-02  0.13983612458E-01 -0.20933086482E-02  0.14355336568E-01  0.00000000000E+00 0. -1.
     999901    1    3    3    0    0  0.42060741635E-01  0.10670998550E+00 -0.39743490629E-01  0.88833308620E+00  0.88000000000E+00 0. -1.
        -11    1    4    4    0    0 -0.33599601130E-01 -0.12264483744E+00  0.34908786605E-01  0.13186953344E+00  0.51100000000E-03 0. -1.
         11    1    4    4    0    0 -0.59807515193E-02  0.19512394807E-02  0.69280126720E-02  0.93720437915E-02  0.51100000000E-03 0.  1.
</event>
<event>
 8    1  0.2039519E+004  0.1043930E+01  0.7957747E-01            NaN
         13   -1    0    0    0    0  0.00000000000E+00  0.00000000000E+00  0.74505805969E-08  0.10566000000E+00  0.10566000000E+00 0. -1.
     999900   -1    0    0    0    0 -0.00000000000E+00 -0.00000000000E+00 -0.74505805969E-08  0.93827000000E+00  0.93827000000E+00 0. -1.
     999902    2    1    2    0    0  0.41034609653E-02 -0.80245553840E-02 -0.10874875189E-01  0.10298057375E+01  0.10297088725E+01 0.  0.
     999903    2    3    3    0    0  0.31761595344E-01  0.10192728902E+00 -0.78861544740E-01  0.13993127010E+00  0.44313044650E-01 0.  0.
         14    1    1    2    0    0 -0.41034609653E-02  0.80245553840E-02  0.10874875189E-01  0.14124262508E-01  0.00000000000E+00 0. -1.
     999901    1    3    3    0    0 -0.27658134379E-01 -0.10995184441E+00  0.67986669551E-01  0.88987446740E+00  0.88000000000E+00 0.  1.
        -11    1    4    4    0    0 -0.85564450539E-02  0.90231758156E-02 -0.17639517532E-01  0.21588055807E-01  0.51100000000E-03 0. -1.
         11    1    4    4    0    0  0.40318040398E-01  0.92904113205E-01 -0.61222027209E-01  0.11834321429E+00  0.51100000000E-03 0.  1.
</event>
<event>
 8    1  0.2039519E+004  0.1043930E+01  0.7957747E-01            NaN
         13   -1    0    0    0    0  0.00000000000E+00  0.00000000000E+00  0.74505805969E-08  0.10566000000E+00  0.10566000000E+00 0.  1.
     999900   -1    0    0    0    0 -0.00000000000E+00 -0.00000000000E+00 -0.74505805969E-08  0.93827000000E+00  0.93827000000E+00 0.  1.
     999902    2    1    2    0    0  0.17184945199E-02  0.32129125878E-02  0.13820746251E-01  0.10296370277E+01  0.10295378185E+01 0.  0.
     999903    2    3    3    0    0  0.42170916544E-01  0.12484980006E+00  0.17688382557E-01  0.14034130103E+00  0.44910389879E-01 0.  0.
         14    1    1    2    0    0 -0.17184945199E-02 -0.32129125878E-02 -0.13820746251E-01  0.14292972316E-01  0.00000000000E+00 0. -1.
     999901    1    3    3    0    0 -0.40452422024E-01 -0.12163688747E+00 -0.38676363061E-02  0.88929572666E+00  0.88000000000E+00 0.  1.
        -11    1    4    4    0    0  0.76482594167E-02  0.87826506825E-01  0.58675254055E-02  0.88355419463E-01  0.51100000000E-03 0. -1.
         11    1    4    4    0    0  0.34522657127E-01  0.37023293235E-01  0.11820857151E-01  0.51985881563E-01  0.51100000000E-03 0.  1.
</event>
<event>
 8    1  0.2039519E+004  0.1043930E+01  0.7957747E-01            NaN
         13   -1    0    0    0    0  0.00000000000E+00  0.00000000000E+00  0.74505805969E-08  0.10566000000E+00  0.10566000000E+00 0.  1.
     999900   -1    0    0    0    0 -0.00000000000E+00 -0.00000000000E+00 -0.74505805969E-08  0.93827000000E+00  0.93827000000E+00 0. -1.
     999902    2    1    2    0    0  0.36639209055E-02 -0.10923992636E-01 -0.43660996787E-02  0.10316084434E+01  0.10315348563E+01 0.  0.
     999903    2    3    3    0    0 -0.86925774100E-01  0.70563912825E-01 -0.71692114071E-01  0.14066536786E+00  0.45952480878E-01 0.  0.
         14    1    1    2    0    0 -0.36639209055E-02  0.10923992636E-01  0.43660996787E-02  0.12321556635E-01  0.00000000000E+00 0.  1.
     999901    1    3    3    0    0  0.90589695005E-01 -0.81487905461E-01  0.67326014393E-01  0.89094307551E+00  0.88000000000E+00 0.  1.
        -11    1    4    4    0    0 -0.62237641564E-02  0.30087660898E-01 -0.17391992905E-01  0.35309278056E-01  0.51100000000E-03 0.  1.
         11    1    4    4    0    0 -0.80702009943E-01  0.40476251927E-01 -0.54300121166E-01  0.10535608980E+00  0.51100000000E-03 0. -1.
</event>
<event>
 8    1  0.2039519E+004  0.1043930E+01  0.7957747E-01            NaN
         13   -1    0    0    0    0  0.00000000000E+00  0.00000000000E+00  0.74505805969E-08  0.10566000000E+00  0.10566000000E+00 0. -1.
     999900   -1    0    0    0    0 -0.00000000000E+00 -0.00000000000E+00 -0.74505805969E-08  0.93827000000E+00  0.93827000000E+00 0. -1.
     999902    2    1    2    0    0  0.60097466998E-02  0.33788779662E-02 -0.11949518818E-01  0.10301341719E+01  0.10300417891E+01 0.  0.
     999903    2    3    3    0    0  0.29213152213E-01  0.61671244714E-01 -0.11539018767E+00  0.14185697984E+00  0.46387030854E-01 0.  0.
         14    1    1    2    0    0 -0.60097466998E-02 -0.33788779662E-02  0.11949518818E-01  0.13795828054E-01  0.00000000000E+00 0. -1.
     999901    1    3    3    0    0 -0.23203405513E-01 -0.58292366748E-01  0.10344066885E+00  0.88827719211E+00  0.88000000000E+00 0.  1.
        -11    1    4    4    0    0  0.31541071587E-01  0.21708016199E-01 -0.78840481173E-01  0.87647930705E-01  0.51100000000E-03 0. -1.
         11    1    4    4    0    0 -0.23279193744E-02  0.39963228515E-01 -0.36549706496E-01  0.54209049133E-01  0.51100000000E-03 0.  1.
</event>
<event>
 8    1  0.2039519E+004  0.1043930E+01  0.7957747E-01            NaN
         13   -1    0    0    0    0  0.00000000000E+00  0.00000000000E+00  0.74505805969E-08  0.10566000000E+00  0.10566000000E+00 0.  1.
     999900   -1    0    0    0    0 -0.00000000000E+00 -0.00000000000E+00 -0.74505805969E-08  0.93827000000E+00  0.93827000000E+00 0.  1.
     999902    2    1    2    0    0 -0.90546341220E-02  0.69380508939E-02 -0.74821585463E-02  0.10302879457E+01  0.10301976244E+01 0.  0.
     999903    2    3    3    0    0  0.13035804449E+00  0.13532977960E-01 -0.14951849920E-01  0.13925753975E+00  0.44640153518E-01 0.  0.
         14    1    1    2    0    0  0.90546341220E-02 -0.69380508939E-02  0.74821585463E-02  0.13642054310E-01  0.00000000000E+00 0.  1.
     999901    1    3    3    0    0 -0.13941267861E+00 -0.65949270663E-02  0.74696913732E-02  0.89103040594E+00  0.88000000000E+00 0.  1.
        -11    1    4    4    0    0  0.29038094056E-01 -0.14993184441E-01  0.15026160892E-02  0.32718885406E-01  0.51100000000E-03 0.  1.
         11    1    4    4    0    0  0.10131995043E+00  0.28526162401E-01 -0.16454466009E-01  0.10653865434E+00  0.51100000000E-03 0. -1.
</event>
<event>
 8    1  0.2039519E+004  0.1043930E+01  0.7957747E-01            NaN
         13   -1    0    0    0    0  0.00000000000E+00  0.00000000000E+00  0.74505805969E-08  0.10566000000E+00  0.10566000000E+00 0.  1.
     999900   -1    0    0    0    0 -0.00000000000E+00 -0.00000000000E+00 -0.74505805969E-08  0.93827000000E+00  0.93827000000E+00 0. -1.
     999902    2    1    2    0    0  0.43365335845E-02  0.62710534285E-02 -0.14699297975E-01  0.10273709845E+01  0.10272375279E+01 0.  0.
     999903    2    3    3    0    0  0.74981409244E-01 -0.10152500544E+00 -0.26946016672E-01  0.13789885399E+00  0.48584644241E-01 0.  0.
         14    1    1    2    0    0 -0.43365335845E-02 -0.62710534285E-02  0.14699297975E-01  0.16559015538E-01  0.00000000000E+00 0.  1.
     999901    1    3    3    0    0 -0.70644875660E-01  0.10779605887E+00  0.12246718697E-01  0.88947213047E+00  0.88000000000E+00 0.  1.
        -11    1    4    4    0    0  0.81163861479E-02 -0.44184393052E-01  0.25679716205E-02  0.44999910141E-01  0.51100000000E-03 0. -1.
         11    1    4    4    0    0  0.66865023097E-01 -0.57340612387E-01 -0.29513988293E-01  0.92898943851E-01  0.51100000000E-03 0.  1.
</event>
<event>
 8    1  0.2039519E+004  0.1043930E+01  0.7957747E-01            NaN
         13   -1    0    0    0    0  0.00000000000E+00  0.00000000000E+00  0.74505805969E-08  0.10566000000E+00  0.10566000000E+00 0. -1.
     999900   -1    0    0    0    0 -0.00000000000E+00 -0.00000000000E+00 -0.74505805969E-08  0.93827000000E+00  0.93827000000E+00 0. -1.
     999902    2    1    2    0    0 -0.49559211517E-03 -0.12153703076E-01  0.64777130608E-02  0.10301488942E+01  0.10300567098E+01 0.  0.
     999903    2    3    3    0    0  0.10857218524E+00  0.42846118015E-01 -0.60850801761E-01  0.13916410799E+00  0.45167683595E-01 0.  0.
         14    1    1    2    0    0  0.49559211517E-03  0.12153703076E-01 -0.64777130608E-02  0.13781105779E-01  0.00000000000E+00 0. -1.
     999901    1    3    3    0    0 -0.10906777736E+00 -0.54999821091E-01  0.67328514821E-01  0.89098478623E+00  0.88000000000E+00 0. -1.
        -11    1    4    4    0    0  0.65125403102E-01  0.10947558142E-01 -0.53031544572E-01  0.84698128664E-01  0.51100000000E-03 0.  1.
         11    1    4    4    0    0  0.43446782143E-01  0.31898559872E-01 -0.78192571887E-02  0.54465979331E-01  0.51100000000E-03 0. -1.
</event>
<event>
 8    1  0.2039519E+004  0.1043930E+01  0.7957747E-01            NaN
         13   -1    0    0    0    0  0.00000000000E+00  0.00000000000E+00  0.74505805969E-08  0.10566000000E+00  0.10566000000E+00 0. -1.
     999900   -1    0    0    0    0 -0.00000000000E+00 -0.00000000000E+00 -0.74505805969E-08  0.93827000000E+00  0.93827000000E+00 0.  1.
     999902    2    1    2    0    0  0.28875318853E-02  0.55812314019E-02 -0.40746021169E-02  0.10364406498E+01  0.10364135903E+01 0.  0.
     999903    2    3    3    0    0  0.90807465375E-01  0.72550690098E-01  0.75743829908E-01  0.14594314546E+00  0.45306462412E-01 0.  0.
         14    1    1    2    0    0 -0.28875318853E-02 -0.55812314019E-02  0.40746021169E-02  0.74893502229E-02  0.00000000000E+00 0. -1.
     999901    1    3    3    0    0 -0.87919933490E-01 -0.66969458696E-01 -0.79818432025E-01  0.89049750432E+00  0.88000000000E+00 0.  1.
        -11    1    4    4    0    0  0.70704619590E-01  0.61626592142E-01  0.79249304860E-01  0.12279126000E+00  0.51100000000E-03 0. -1.
         11    1    4    4    0    0  0.20102845785E-01  0.10924097956E-01 -0.35054749511E-02  0.23151885462E-01  0.51100000000E-03 0.  1.
</event>
<event>
 7    1  0.2039519E+004  0.1043930E+01  0.7957747E-01            NaN
         13   -1    0    0    0    0  0.00000000000E+00  0.00000000000E+00  0.74505805969E-08  0.10566000000E+00  0.10566000000E+00 0.  1.
     999900   -1    0    0    0    0 -0.00000000000E+00 -0.00000000000E+00 -0.74505805969E-08  0.93827000000E+00  0.93827000000E+00 0. -1.
     999903    2    1    2    0    0 -0.59893060576E-01 -0.37485775948E-02  0.10162584998E+00  0.12631035906E+00  0.45002920829E-01 0.  0.
         14    1    1    2    0    0  0.69309648435E-02  0.25712412122E-01  0.10558164614E-01  0.28646836663E-01  0.00000000000E+00 0. -1.
     999901    1    1    2    0    0  0.52962095732E-01 -0.21963834527E-01 -0.11218401459E+00  0.88897280428E+00  0.88000000000E+00 0. -1.
        -11    1    3    3    0    0 -0.20947038289E-01 -0.23339472010E-01  0.44713063959E-01  0.54617108825E-01  0.51100000000E-03 0. -1.
         11    1    3    3    0    0 -0.38946022287E-01  0.19590894415E-01  0.56912786020E-01  0.71693250236E-01  0.51100000000E-03 0.  1.
</event>
<event>
 8    1  0.2039519E+004  0.1043930E+01  0.7957747E-01            NaN
         13   -1    0    0    0    0  0.00000000000E+00  0.00000000000E+00  0.74505805969E-08  0.10566000000E+00  0.10566000000E+00 0.  1.
     999900   -1    0    0    0    0 -0.00000000000E+00 -0.00000000000E+00 -0.74505805969E-08  0.93827000000E+00  0.93827000000E+00 0. -1.
     999902    2    1    2    0    0  0.12525332031E-01  0.43058748169E-02  0.47092289846E-02  0.10298729257E+01  0.10297769864E+01 0.  0.
     999903    2    3    3    0    0  0.12813042865E+00 -0.35019254625E-01  0.66014479478E-02  0.14143914388E+00  0.48142469478E-01 0.  0.
         14    1    1    2    0    0 -0.12525332031E-01 -0.43058748169E-02 -0.47092289846E-02  0.14057074306E-01  0.00000000000E+00 0. -1.
     999901    1    3    3    0    0 -0.11560509662E+00  0.39325129442E-01 -0.18922189632E-02  0.88843378181E+00  0.88000000000E+00 0.  1.
        -11    1    4    4    0    0  0.35677912714E-01 -0.22200655319E-01  0.21029303168E-01  0.46992289420E-01  0.51100000000E-03 0. -1.
         11    1    4    4    0    0  0.92452515934E-01 -0.12818599306E-01 -0.14427855220E-01  0.94446854463E-01  0.51100000000E-03 0.  1.
</event>
<event>
 8    1  0.2039519E+004  0.1043930E+01  0.7957747E-01            NaN
         13   -1    0    0    0    0  0.00000000000E+00  0.00000000000E+00  0.74505805969E-08  0.10566000000E+00  0.10566000000E+00 0. -1.
     999900   -1    0    0    0    0 -0.00000000000E+00 -0.00000000000E+00 -0.74505805969E-08  0.93827000000E+00  0.93827000000E+00 0. -1.
     999902    2    1    2    0    0 -0.47740291521E-02 -0.42355296345E-02  0.12393459020E-01  0.10299898102E+01  0.10298954705E+01 0.  0.
     999903    2    3    3    0    0  0.23658010162E-01  0.55059387907E-01 -0.11685035852E+00  0.13812197666E+00  0.42806967984E-01 0.  0.
         14    1    1    2    0    0  0.47740291521E-02  0.42355296345E-02 -0.12393459020E-01  0.13940189816E-01  0.00000000000E+00 0.  1.
     999901    1    3    3    0    0 -0.28432039314E-01 -0.59294917541E-01  0.12924381754E+00  0.89186783353E+00  0.88000000000E+00 0.  1.
        -11    1    4    4    0    0 -0.62308118668E-02  0.37663062781E-01 -0.50605598548E-01  0.63391774229E-01  0.51100000000E-03 0.  1.
         11    1    4    4    0    0  0.29888822029E-01  0.17396325126E-01 -0.66244759973E-01  0.74730202429E-01  0.51100000000E-03 0. -1.
</event>
<event>
 8    1  0.2039519E+004  0.1043930E+01  0.7957747E-01            NaN
         13   -1    0    0    0    0  0.00000000000E+00  0.00000000000E+00  0.74505805969E-08  0.10566000000E+00  0.10566000000E+00 0.  1.
     999900   -1    0    0    0    0 -0.00000000000E+00 -0.00000000000E+00 -0.74505805969E-08  0.93827000000E+00  0.93827000000E+00 0.  1.
     999902    2    1    2    0    0 -0.75421392283E-04  0.13433996462E-01 -0.25428308193E-02  0.10302572557E+01  0.10301665248E+01 0.  0.
     999903    2    3    3    0    0  0.41232403231E-01 -0.12468091950E+00  0.94419196017E-02  0.13844690551E+00  0.42813000787E-01 0.  0.
         14    1    1    2    0    0  0.75421392283E-04 -0.13433996462E-01  0.25428308193E-02  0.13672744345E-01  0.00000000000E+00 0. -1.
     999901    1    3    3    0    0 -0.41307824623E-01  0.13811491596E+00 -0.11984750421E-01  0.89181035015E+00  0.88000000000E+00 0. -1.
        -11    1    4    4    0    0  0.32275167699E-02 -0.59307929083E-01 -0.10320939529E-01  0.60287894559E-01  0.51100000000E-03 0. -1.
         11    1    4    4    0    0  0.38004886461E-01 -0.65372990415E-01  0.19762859131E-01  0.78159010950E-01  0.51100000000E-03 0.  1.
</event>
<event>
 8    1  0.2039519E+004  0.1043930E+01  0.7957747E-01            NaN
         13   -1    0    0    0    0  0.00000000000E+00  0.00000000000E+00  0.74505805969E-08  0.10566000000E+00  0.10566000000E+00 0.  1.
     999900   -1    0    0    0    0 -0.00000000000E+00 -0.00000000000E+00 -0.74505805969E-08  0.93827000000E+00  0.93827000000E+00 0.  1.
     999902    2    1    2    0    0 -0.10667502002E-01 -0.76371336835E-03 -0.96442075361E-02  0.10295289724E+01  0.10294282468E+01 0.  0.
     999903    2    3    3    0    0  0.11554230356E-01 -0.11468257478E+00  0.62328829925E-01  0.13899462129E+00  0.46357615446E-01 0.  0.
         14    1    1    2    0    0  0.10667502002E-01  0.76371336835E-03  0.96442075361E-02  0.14401027604E-01  0.00000000000E+00 0.  1.
     999901    1    3    3    0    0 -0.22221732357E-01  0.11391886142E+00 -0.71973037461E-01  0.89053435110E+00  0.88000000000E+00 0.  1.
        -11    1    4    4    0    0 -0.91771730850E-02 -0.90822751226E-01  0.37053554156E-01  0.98520148410E-01  0.51100000000E-03 0.  1.
         11    1    4    4    0    0  0.20731403441E-01 -0.23859823558E-01  0.25275275769E-01  0.40474472882E-01  0.51100000000E-03 0. -1.
</event>
<event>
 8    1  0.2039519E+004  0.1043930E+01  0.7957747E-01            NaN
         13   -1    0    0    0    0  0.00000000000E+00  0.00000000000E+00  0.74505805969E-08  0.10566000000E+00  0.10566000000E+00 0. -1.
     999900   -1    0    0    0    0 -0.00000000000E+00 -0.00000000000E+00 -0.74505805969E-08  0.93827000000E+00  0.93827000000E+00 0.  1.
     999902    2    1    2    0    0  0.10773959483E-02 -0.11904529764E-01 -0.15196692900E-01  0.10245956242E+01  0.10244131857E+01 0.  0.
     999903    2    3    3    0    0 -0.10147826701E+00  0.12430030614E-01 -0.77618952807E-01  0.13611018634E+00  0.45265181473E-01 0.  0.
         14    1    1    2    0    0 -0.10773959483E-02  0.11904529764E-01  0.15196692900E-01  0.19334375760E-01  0.00000000000E+00 0. -1.
     999901    1    3    3    0    0  0.10255566296E+00 -0.24334560378E-01  0.62422259908E-01  0.88848543790E+00  0.88000000000E+00 0. -1.
        -11    1    4    4    0    0 -0.21666301760E-01  0.21920476769E-01 -0.28057304268E-01  0.41682242952E-01  0.51100000000E-03 0.  1.
         11    1    4    4    0    0 -0.79811965249E-01 -0.94904461550E-02 -0.49561648540E-01  0.94427943386E-01  0.51100000000E-03 0. -1.
</event>
<event>
 8    1  0.2039519E+004  0.1043930E+01  0.7957747E-01            NaN
         13   -1    0    0    0    0  0.00000000000E+00  0.00000000000E+00  0.74505805969E-08  0.10566000000E+00  0.10566000000E+00 0.  1.
     999900   -1    0    0    0    0 -0.00000000000E+00 -0.00000000000E+00 -0.74505805969E-08  0.93827000000E+00  0.93827000000E+00 0.  1.
     999902    2    1    2    0    0 -0.71165751462E-02  0.17635275526E-01  0.18195796536E-02  0.10248260880E+01  0.10246480133E+01 0.  0.
     999903    2    3    3    0    0 -0.97640486869E-01 -0.77224715114E-01 -0.24404776049E-01  0.13472456946E+00  0.45362927846E-01 0.  0.
         14    1    1    2    0    0  0.71165751462E-02 -0.17635275526E-01 -0.18195796536E-02  0.19103912029E-01  0.00000000000E+00 0. -1.
     999901    1    3    3    0    0  0.90523911723E-01  0.94859990640E-01  0.26224355702E-01  0.89010151851E+00  0.88000000000E+00 0. -1.
        -11    1    4    4    0    0 -0.63997019498E-01 -0.42083843274E-01  0.68446835865E-02  0.76901100017E-01  0.51100000000E-03 0.  1.
         11    1    4    4    0    0 -0.33643467371E-01 -0.35140871840E-01 -0.31249459635E-01  0.57823469447E-01  0.51100000000E-03 0. -1.
</event>
<event>
 8    1  0.2039519E+004  0.1043930E+01  0.7957747E-01            NaN
         13   -1    0    0    0    0  0.00000000000E+00  0.00000000000E+00  0.74505805969E-08  0.10566000000E+00  0.10566000000E+00 0.  1.
     999900   -1    0    0    0    0 -0.00000000000E+00 -0.00000000000E+00 -0.74505805969E-08  0.93827000000E+00  0.93827000000E+00 0. -1.
     999902    2    1    2    0    0  0.13685267173E-01 -0.21983883465E-03  0.23209136838E-02  0.10300475828E+01  0.10299540288E+01 0.  0.
     999903    2    3    3    0    0 -0.67523815235E-01 -0.10988264022E+00  0.27273306670E-01  0.13918088852E+00  0.44652281320E-01 0.  0.
         14    1    1    2    0    0 -0.13685267173E-01  0.21983883465E-03 -0.23209136838E-02  0.13882417190E-01  0.00000000000E+00 0.  1.
     999901    1    3    3    0    0  0.81209082408E-01  0.10966280139E+00 -0.24952392986E-01  0.89086669429E+00  0.88000000000E+00 0.  1.
        -11    1    4    4    0    0 -0.29458743516E-01 -0.84791258023E-01  0.95786835361E-02  0.90273956964E-01  0.51100000000E-03 0.  1.
         11    1    4    4    0    0 -0.38065071718E-01 -0.25091382200E-01  0.17694623134E-01  0.48906931559E-01  0.51100000000E-03 0. -1.
</event>
<event>
 8    1  0.2039519E+004  0.1043930E+01  0.7957747E-01            NaN
         13   -1    0    0    0    0  0.00000000000E+00  0.00000000000E+00  0.74505805969E-08  0.10566000000E+00  0.10566000000E+00 0. -1.
     999900   -1    0    0    0    0 -0.00000000000E+00 -0.00000000000E+00 -0.74505805969E-08  0.93827000000E+00  0.93827000000E+00 0.  1.
     999902    2    1    2    0    0  0.60550891230E-02  0.75885910788E-02  0.77680261798E-02  0.10314964547E+01  0.10314215156E+01 0.  0.
     999903    2    3    3    0    0 -0.41350051906E-01 -0.12489978323E+00  0.18106388929E-01  0.14025726204E+00  0.45105161470E-01 0.  0.
         14    1    1    2    0    0 -0.60550891230E-02 -0.75885910788E-02 -0.77680261798E-02  0.12433545334E-01  0.00000000000E+00 0.  1.
     999901    1    3    3    0    0  0.47405141029E-01  0.13248837431E+00 -0.10338362749E-01  0.89123919262E+00  0.88000000000E+00 0. -1.
        -11    1    4    4    0    0 -0.44613582450E-01 -0.94139782691E-01 -0.45686694929E-03  0.10417840598E+00  0.51100000000E-03 0.  1.
         11    1    4    4    0    0  0.32635305440E-02 -0.30760000543E-01  0.18563255878E-01  0.36078856063E-01  0.51100000000E-03 0. -1.
</event>
<event>
 8    1  0.2039519E+004  0.1043930E+01  0.7957747E-01            NaN
         13   -1    0    0    0    0  0.00000000000E+00  0.00000000000E+00  0.74505805969E-08  0.10566000000E+00  0.10566000000E+00 0. -1.
     999900   -1    0    0    0    0 -0.00000000000E+00 -0.00000000000E+00 -0.74505805969E-08  0.93827000000E+00  0.93827000000E+00 0.  1.
     999902    2    1    2    0    0  0.70317559605E-02 -0.90890908098E-02  0.19587642421E-02  0.10322726452E+01  0.10322068204E+01 0.  0.
     999903    2    3    3    0    0 -0.11545804422E+00  0.34289524604E-01  0.58271996995E-01  0.14094967589E+00  0.44326674011E-01 0.  0.
         14    1    1    2    0    0 -0.70317559605E-02  0.90890908098E-02 -0.19587642421E-02  0.11657354803E-01  0.00000000000E+00 0.  1.
     999901    1    3    3    0    0  0.12248980018E+00 -0.43378615414E-01 -0.56313232753E-01  0.89132296930E+00  0.88000000000E+00 0.  1.
        -11    1    4    4    0    0 -0.20718136328E-01  0.25738166009E-01  0.11896866336E-01  0.35121089278E-01  0.51100000000E-03 0. -1.
         11    1    4    4    0    0 -0.94739907890E-01  0.85513585948E-02  0.46375130659E-01  0.10582858662E+00  0.51100000000E-03 0.  1.
</event>
<event>
 8    1  0.2039519E+004  0.1043930E+01  0.7957747E-01            NaN
         13   -1    0    0    0    0  0.00000000000E+00  0.00000000000E+00  0.74505805969E-08  0.10566000000E+00  0.10566000000E+00 0.  1.
     999900   -1    0    0    0    0 -0.00000000000E+00 -0.00000000000E+00 -0.74505805969E-08  0.93827000000E+00  0.93827000000E+00 0. -1.
     999902    2    1    2    0    0  0.14332085863E-01  0.92105051764E-02 -0.96620024314E-02  0.10243443833E+01  0.10241571262E+01 0.  0.
     999903    2    3    3    0    0  0.11258763114E+00  0.47074127361E-01  0.41705735039E-01  0.13657952112E+00  0.44973871315E-01 0.  0.
         14    1    1    2    0    0 -0.14332085863E-01 -0.92105051764E-02  0.96620024314E-02  0.19585616707E-01  0.00000000000E+00 0.  1.
     999901    1    3    3    0    0 -0.98255545276E-01 -0.37863622185E-01 -0.51367737470E-01  0.88776486218E+00  0.88000000000E+00 0. -1.
        -11    1    4    4    0    0  0.89672639498E-01  0.15636066289E-01  0.26485586356E-01  0.94801984415E-01  0.51100000000E-03 0.  1.
         11    1    4    4    0    0  0.22914991641E-01  0.31438061072E-01  0.15220148683E-01  0.41777536701E-01  0.51100000000E-03 0. -1.
</event>
<event>
 8    1  0.2039519E+004  0.1043930E+01  0.7957747E-01            NaN
         13   -1    0    0    0    0  0.00000000000E+00  0.00000000000E+00  0.74505805969E-08  0.10566000000E+00  0.10566000000E+00 0.  1.
     999900   -1    0    0    0    0 -0.00000000000E+00 -0.00000000000E+00 -0.74505805969E-08  0.93827000000E+00  0.93827000000E+00 0. -1.
     999902    2    1    2    0    0 -0.28557442184E-02  0.45633456672E-02 -0.82825171875E-02  0.10340517669E+01  0.10340045827E+01 0.  0.
     999903    2    3    3    0    0  0.91204359222E-01 -0.31625464369E-01  0.94736647291E-01  0.14232878226E+00  0.44317544870E-01 0.  0.
         14    1    1    2    0    0  0.28557442184E-02 -0.45633456672E-02  0.82825171875E-02  0.98782331254E-02  0.00000000000E+00 0.  1.
     999901    1    3    3    0    0 -0.94060103441E-01  0.36188810036E-01 -0.10301916448E+00  0.89172298461E+00  0.88000000000E+00 0. -1.
        -11    1    4    4    0    0  0.19962894347E-01 -0.20804933990E-01  0.87425372007E-02  0.30133959361E-01  0.51100000000E-03 0. -1.
         11    1    4    4    0    0  0.71241464875E-01 -0.10820530379E-01  0.85994110091E-01  0.11219482290E+00  0.51100000000E-03 0.  1.
</event>
<event>
 8    1  0.2039519E+004  0.1043930E+01  0.7957747E-01            NaN
         13   -1    0    0    0    0  0.00000000000E+00  0.00000000000E+00  0.74505805969E-08  0.10566000000E+00  0.10566000000E+00 0. -1.
     999900   -1    0    0    0    0 -0.00000000000E+00 -0.00000000000E+00 -0.74505805969E-08  0.93827000000E+00  0.93827000000E+00 0. -1.
     999902    2    1    2    0    0 -0.68215818885E-02 -0.32675784050E-02  0.11455908244E-01  0.10302023315E+01  0.10301108654E+01 0.  0.
     999903    2    3    3    0    0 -0.99137712785E-01  0.88635176458E-01 -0.27547359910E-02  0.14049995051E+00  0.45256678188E-01 0.  0.
         14    1    1    2    0    0  0.68215818885E-02  0.32675784050E-02 -0.11455908244E-01  0.13727668476E-01  0.00000000000E+00 0.  1.
     999901    1    3    3    0    0  0.92316130896E-01 -0.91902754863E-01  0.14210644235E-01  0.88970238102E+00  0.88000000000E+00 0. -1.
        -11    1    4    4    0    0 -0.26720184866E-01  0.99352432955E-02 -0.16062872242E-01  0.32725438488E-01  0.51100000000E-03 0. -1.
         11    1    4    4    0    0 -0.72417527919E-01  0.78699933163E-01  0.13308136251E-01  0.10777451202E+00  0.51100000000E-03 0.  1.
</event>
<event>
 8    1  0.2039519E+004  0.1043930E+01  0.7957747E-01            NaN
         13   -1    0    0    0    0  0.00000000000E+00  0.00000000000E+00  0.74505805969E-08  0.10566000000E+00  0.10566000000E+00 0. -1.
     999900   -1    0    0    0    0 -0.00000000000E+00 -0.00000000000E+00 -0.74505805969E-08  0.93827000000E+00  0.93827000000E+00 0. -1.
     999902    2    1    2    0    0  0.31085469968E-02 -0.10690688292E-01 -0.80505594108E-02  0.10301908083E+01  0.10300991876E+01 0.  0.
     999903    2    3    3    0    0 -0.87078069288E-01 -0.51503560129E-01  0.85191135804E-01  0.13974522888E+00  0.45121973771E-01 0.  0.
         14    1    1    2    0    0 -0.31085469968E-02  0.10690688292E-01  0.80505594108E-02  0.13739191658E-01  0.00000000000E+00 0.  1.
     999901    1    3    3    0    0  0.90186616285E-01  0.40812871838E-01 -0.93241695215E-01  0.89044557947E+00  0.88000000000E+00 0.  1.
        -11    1    4    4    0    0 -0.39310366566E-01 -0.32599706127E-01  0.69069006445E-01  0.85900142791E-01  0.51100000000E-03 0.  1.
         11    1    4    4    0    0 -0.47767702722E-01 -0.18903854002E-01  0.16122129359E-01  0.53845086085E-01  0.51100000000E-03 0. -1.
</event>
<event>
 8    1  0.2039519E+004  0.1043930E+01  0.7957747E-01            NaN
         13   -1    0    0    0    0  0.00000000000E+00  0.00000000000E+00  0.74505805969E-08  0.10566000000E+00  0.10566000000E+00 0.  1.
     999900   -1    0    0    0    0 -0.00000000000E+00 -0.00000000000E+00 -0.74505805969E-08  0.93827000000E+00  0.93827000000E+00 0. -1.
     999902    2    1    2    0    0 -0.10533430292E-01  0.11423494339E-02 -0.73223683306E-02  0.10310507456E+01  0.10309703026E+01 0.  0.
     999903    2    3    3    0    0  0.11226815014E+00 -0.39004256848E-01 -0.59340622926E-01  0.14009739274E+00  0.44502812671E-01 0.  0.
         14    1    1    2    0    0  0.10533430292E-01 -0.11423494339E-02  0.73223683306E-02  0.12879254401E-01  0.00000000000E+00 0.  1.
     999901    1    3    3    0    0 -0.12280158044E+00  0.40146606282E-01  0.52018254595E-01  0.89095335286E+00  0.88000000000E+00 0.  1.
        -11    1    4    4    0    0  0.66754571414E-01 -0.22360785448E-01 -0.58645895916E-01  0.91628487706E-01  0.51100000000E-03 0.  1.
         11    1    4    4    0    0  0.45513578729E-01 -0.16643471400E-01 -0.69472701040E-03  0.48468905038E-01  0.51100000000E-03 0. -1.
</event>
<event>
 8    1  0.2039519E+004  0.1043930E+01  0.7957747E-01            NaN
         13   -1    0    0    0    0  0.00000000000E+00  0.00000000000E+00  0.74505805969E-08  0.10566000000E+00  0.10566000000E+00 0.  1.
     999900   -1    0    0    0    0 -0.00000000000E+00 -0.00000000000E+00 -0.74505805969E-08  0.93827000000E+00  0.93827000000E+00 0.  1.
     999902    2    1    2    0    0  0.73354212616E-02  0.72221717839E-02  0.10034811107E-01  0.10295541312E+01  0.10294537597E+01 0.  0.
     999903    2    3    3    0    0 -0.32452234405E-01  0.11961655786E+00 -0.46098580366E-01  0.13974150304E+00  0.45181192188E-01 0.  0.
         14    1    1    2    0    0 -0.73354212616E-02 -0.72221717839E-02 -0.10034811107E-01  0.14375868820E-01  0.00000000000E+00 0.  1.
     999901    1    3    3    0    0  0.39787655667E-01 -0.11239438607E+00  0.56133391473E-01  0.88981262814E+00  0.88000000000E+00 0. -1.
        -11    1    4    4    0    0 -0.33465460862E-01  0.68351249236E-01 -0.45076854458E-01  0.88453458223E-01  0.51100000000E-03 0. -1.
         11    1    4    4    0    0  0.10132264572E-02  0.51265308623E-01 -0.10217259084E-02  0.51288044814E-01  0.51100000000E-03 0.  1.
</event>
<event>
 8    1  0.2039519E+004  0.1043930E+01  0.7957747E-01            NaN
         13   -1    0    0    0    0  0.00000000000E+00  0.00000000000E+00  0.74505805969E-08  0.10566000000E+00  0.10566000000E+00 0. -1.
     999900   -1    0    0    0    0 -0.00000000000E+00 -0.00000000000E+00 -0.74505805969E-08  0.93827000000E+00  0.93827000000E+00 0. -1.
     999902    2    1    2    0    0 -0.12239941956E-01 -0.60347613832E-04 -0.54145213260E-02  0.10305457980E+01  0.10304588808E+01 0.  0.
     999903    2    3    3    0    0 -0.10391800808E+00 -0.46329203761E-01  0.71619051216E-01  0.14123154191E+00  0.43263291708E-01 0.  0.
         14    1    1    2    0    0  0.12239941956E-01  0.60347613832E-04  0.54145213260E-02  0.13384201960E-01  0.00000000000E+00 0. -1.
     999901    1    3    3    0    0  0.91678066121E-01  0.46268856147E-01 -0.77033572542E-01  0.88931425613E+00  0.88000000000E+00 0. -1.
        -11    1    4    4    0    0 -0.42674346973E-01 -0.39387852634E-01  0.47559332484E-01  0.75064332755E-01  0.51100000000E-03 0. -1.
         11    1    4    4    0    0 -0.61243661104E-01 -0.69413511267E-02  0.24059718733E-01  0.66167209155E-01  0.51100000000E-03 0.  1.
</event>
<event>
 8    1  0.2039519E+004  0.1043930E+01  0.7957747E-01            NaN
         13   -1    0    0    0    0  0.00000000000E+00  0.00000000000E+00  0.74505805969E-08  0.10566000000E+00  0.10566000000E+00 0.  1.
     999900   -1    0    0    0    0 -0.00000000000E+00 -0.00000000000E+00 -0.74505805969E-08  0.93827000000E+00  0.93827000000E+00 0.  1.
     999902    2    1    2    0    0  0.28994281492E-02  0.39567902701E-03 -0.19506835329E-01  0.10242048924E+01  0.10240149324E+01 0.  0.
     999903    2    3    3    0    0  0.36627067188E-01  0.11755782539E+00 -0.35167695341E-01  0.13566126110E+00  0.44786455631E-01 0.  0.
         14    1    1    2    0    0 -0.28994281492E-02 -0.39567902701E-03  0.19506835329E-01  0.19725107605E-01  0.00000000000E+00 0.  1.
     999901    1    3    3    0    0 -0.33727639039E-01 -0.11716214636E+00  0.15660860012E-01  0.88854363129E+00  0.88000000000E+00 0. -1.
        -11    1    4    4    0    0  0.36379217313E-02  0.26963427127E-01  0.10256838589E-01  0.29081346871E-01  0.51100000000E-03 0.  1.
         11    1    4    4    0    0  0.32989145457E-01  0.90594398259E-01 -0.45424533930E-01  0.10657991423E+00  0.51100000000E-03 0. -1.
</event>
<event>
 8    1  0.2039519E+004  0.1043930E+01  0.7957747E-01            NaN
         13   -1    0    0    0    0  0.00000000000E+00  0.00000000000E+00  0.74505805969E-08  0.10566000000E+00  0.10566000000E+00 0. -1.
     999900   -1    0    0    0    0 -0.00000000000E+00 -0.00000000000E+00 -0.74505805969E-08  0.93827000000E+00  0.93827000000E+00 0. -1.
     999902    2    1    2    0    0 -0.75876563757E-02  0.89622986028E-02 -0.80891186256E-02  0.10296706464E+01  0.10295719066E+01 0.  0.
     999903    2    3    3    0    0  0.92893074489E-01 -0.84926170811E-01  0.26624842344E-01  0.13831410658E+00  0.50796969119E-01 0.  0.
         14    1    1    2    0    0  0.75876563757E-02 -0.89622986028E-02  0.80891186256E-02  0.14259353620E-01  0.00000000000E+00 0. -1.
     999901    1    3    3    0    0 -0.10048073086E+00  0.93888469413E-01 -0.34713960969E-01  0.89135653980E+00  0.88000000000E+00 0. -1.
        -11    1    4    4    0    0  0.34126498025E-01 -0.78624621153E-02  0.21850435285E-01  0.41281216323E-01  0.51100000000E-03 0.  1.
         11    1    4    4    0    0  0.58766576464E-01 -0.77063708695E-01  0.47744070585E-02  0.97032890254E-01  0.51100000000E-03 0. -1.
</event>
<event>
 8    1  0.2039519E+004  0.1043930E+01  0.7957747E-01            NaN
         13   -1    0    0    0    0  0.00000000000E+00  0.00000000000E+00  0.74505805969E-08  0.10566000000E+00  0.10566000000E+00 0. -1.
     999900   -1    0    0    0    0 -0.00000000000E+00 -0.00000000000E+00 -0.74505805969E-08  0.93827000000E+00  0.93827000000E+00 0.  1.
     999902    2    1    2    0    0 -0.88882434561E-02  0.83597664391E-02 -0.74161520894E-02  0.10296511388E+01  0.10295521267E+01 0.  0.
     999903    2    3    3    0    0  0.43432007261E-01  0.12420439336E+00 -0.20069458651E-01  0.14042816762E+00  0.44768476693E-01 0.  0.
         14    1    1    2    0    0  0.88882434561E-02 -0.83597664391E-02  0.74161520894E-02  0.14278861245E-01  0.00000000000E+00 0. -1.
     999901    1    3    3    0    0 -0.52320250717E-01 -0.11584462693E+00  0.12653306562E-01  0.88922297113E+00  0.88000000000E+00 0. -1.
        -11    1    4    4    0    0 -0.58773002120E-02  0.45790757054E-01 -0.32518429078E-02  0.46283600688E-01  0.51100000000E-03 0. -1.
         11    1    4    4    0    0  0.49309307473E-01  0.78413636311E-01 -0.16817615743E-01  0.94144566934E-01  0.51100000000E-03 0.  1.
</event>
<event>
 8    1  0.2039519E+004  0.1043930E+01  0.7957747E-01            NaN
         13   -1    0    0    0    0  0.00000000000E+00  0.00000000000E+00  0.74505805969E-08  0.10566000000E+00  0.10566000000E+00 0.  1.
     999900   -1    0    0    0    0 -0.00000000000E+00 -0.00000000000E+00 -0.74505805969E-08  0.93827000000E+00  0.93827000000E+00 0.  1.
     999902    2    1    2    0    0 -0.12847552048E-01  0.18518357270E-02 -0.50330364252E-02  0.10300080625E+01  0.10299139714E+01 0.  0.
     999903    2    3    3    0    0 -0.29992165277E-02  0.73142095068E-01  0.11018189935E+00  0.13958469562E+00  0.44554179790E-01 0.  0.
         14    1    1    2    0    0  0.12847552048E-01 -0.18518357270E-02  0.50330364252E-02  0.13921937539E-01  0.00000000000E+00 0.  1.
     999901    1    3    3    0    0 -0.98483355205E-02 -0.71290259341E-01 -0.11521493577E+00  0.89042336684E+00  0.88000000000E+00 0. -1.
        -11    1    4    4    0    0  0.99533284395E-02  0.19085671930E-01  0.74615338612E-02  0.22787435762E-01  0.51100000000E-03 0.  1.
         11    1    4    4    0    0 -0.12952544967E-01  0.54056423138E-01  0.10272036549E+00  0.11679725986E+00  0.51100000000E-03 0. -1.
</event>
<event>
 8    1  0.2039519E+004  0.1043930E+01  0.7957747E-01            NaN
         13   -1    0    0    0    0  0.00000000000E+00  0.00000000000E+00  0.74505805969E-08  0.10566000000E+00  0.10566000000E+00 0.  1.
     999900   -1    0    0    0    0 -0.00000000000E+00 -0.00000000000E+00 -0.74505805969E-08  0.93827000000E+00  0.93827000000E+00 0.  1.
     999902    2    1    2    0    0 -0.13313348941E-01 -0.43463719362E-02  0.58267789076E-03  0.10299130202E+01  0.10298176312E+01 0.  0.
     999903    2    3    3    0    0  0.36267434685E-01 -0.95432308263E-01  0.84917989961E-01  0.13981901014E+00  0.43768005405E-01 0.  0.
         14    1    1    2    0    0  0.13313348941E-01  0.43463719362E-02 -0.58267789076E-03  0.14016979794E-01  0.00000000000E+00 0.  1.
     999901    1    3    3    0    0 -0.49580783626E-01  0.91085936327E-01 -0.84335312071E-01  0.89009401007E+00  0.88000000000E+00 0.  1.
        -11    1    4    4    0    0  0.33481360776E-01 -0.69426421706E-01  0.37623666943E-01  0.85771970862E-01  0.51100000000E-03 0. -1.
         11    1    4    4    0    0  0.27860739091E-02 -0.26005886557E-01  0.47294323018E-01  0.54047039273E-01  0.51100000000E-03 0.  1.
</event>
<event>
 8    1  0.2039519E+004  0.1043930E+01  0.7957747E-01            NaN
         13   -1    0    0    0    0  0.00000000000E+00  0.00000000000E+00  0.74505805969E-08  0.10566000000E+00  0.10566000000E+00 0.  1.
     999900   -1    0    0    0    0 -0.00000000000E+00 -0.00000000000E+00 -0.74505805969E-08  0.93827000000E+00  0.93827000000E+00 0.  1.
     999902    2    1    2    0    0  0.96592171822E-04 -0.23902104533E-03  0.13060058815E-01  0.10308673970E+01  0.10307846325E+01 0.  0.
     999903    2    3    3    0    0  0.48073921683E-01  0.11861867720E+00  0.40857522371E-01  0.14114739859E+00  0.43263823991E-01 0.  0.
         14    1    1    2    0    0 -0.96592171822E-04  0.23902104533E-03 -0.13060058815E-01  0.13062603008E-01  0.00000000000E+00 0. -1.
     999901    1    3    3    0    0 -0.47977329511E-01 -0.11885769825E+00 -0.27797463556E-01  0.88971999840E+00  0.88000000000E+00 0.  1.
        -11    1    4    4    0    0 -0.31263356470E-03  0.55627941532E-01  0.15099190424E-01  0.57643840011E-01  0.51100000000E-03 0.  1.
         11    1    4    4    0    0  0.48386555248E-01  0.62990735672E-01  0.25758331947E-01  0.83503558576E-01  0.51100000000E-03 0. -1.
</event>
<event>
 8    1  0.2039519E+004  0.1043930E+01  0.7957747E-01            NaN
         13   -1    0    0    0    0  0.00000000000E+00  0.00000000000E+00  0.74505805969E-08  0.10566000000E+00  0.10566000000E+00 0.  1.
     999900   -1    0    0    0    0 -0.00000000000E+00 -0.00000000000E+00 -0.74505805969E-08  0.93827000000E+00  0.93827000000E+00 0.  1.
     999902    2    1    2    0    0 -0.84711586637E-02 -0.48967756338E-03 -0.11369148817E-01  0.10297434621E+01  0.10296457351E+01 0.  0.
     999903    2    3    3    0    0 -0.45531307809E-01  0.51271029871E-02 -0.12610215197E+00  0.14150438115E+00  0.44970545679E-01 0.  0.
         14    1    1    2    0    0  0.84711586637E-02  0.48967756338E-03  0.11369148817E-01  0.14186537916E-01  0.00000000000E+00 0.  1.
     999901    1    3    3    0    0  0.37060149145E-01 -0.56167805504E-02  0.11473300315E+00  0.88823908093E+00  0.88000000000E+00 0. -1.
        -11    1    4    4    0    0 -0.36771716289E-01  0.23343021852E-01 -0.93378961434E-01  0.10303857213E+00  0.51100000000E-03 0. -1.
         11    1    4    4    0    0 -0.87595915204E-02 -0.18215918865E-01 -0.32723190535E-01  0.38465809020E-01  0.51100000000E-03 0.  1.
</event>
<event>
 8    1  0.2039519E+004  0.1043930E+01  0.7957747E-01            NaN
         13   -1    0    0    0    0  0.00000000000E+00  0.00000000000E+00  0.74505805969E-08  0.10566000000E+00  0.10566000000E+00 0. -1.
     999900   -1    0    0    0    0 -0.00000000000E+00 -0.00000000000E+00 -0.74505805969E-08  0.93827000000E+00  0.93827000000E+00 0. -1.
     999902    2    1    2    0    0 -0.98457691511E-03 -0.75961269537E-02 -0.10962398282E-01  0.10305567165E+01  0.10304699419E+01 0.  0.
     999903    2    3    3    0    0 -0.10529761826E+00 -0.21444559402E-01  0.77812085452E-01  0.13985255759E+00  0.44233015755E-01 0.  0.
         14    1    1    2    0    0  0.98457691511E-03  0.75961269537E-02  0.10962398282E-01  0.13373283535E-01  0.00000000000E+00 0. -1.
     999901    1    3    3    0    0  0.10431304135E+00  0.13848432449E-01 -0.88774483734E-01  0.89070415888E+00  0.88000000000E+00 0. -1.
        -11    1    4    4    0    0 -0.10246625163E+00 -0.22229668940E-01  0.58013017621E-01  0.11983013911E+00  0.51100000000E-03 0. -1.
         11    1    4    4    0    0 -0.28313666341E-02  0.78510953768E-03  0.19799067831E-01  0.20022418485E-01  0.51100000000E-03 0.  1.
</event>
<event>
 8    1  0.2039519E+004  0.1043930E+01  0.7957747E-01            NaN
         13   -1    0    0    0    0  0.00000000000E+00  0.00000000000E+00  0.74505805969E-08  0.10566000000E+00  0.10566000000E+00 0.  1.
     999900   -1    0    0    0    0 -0.00000000000E+00 -0.00000000000E+00 -0.74505805969E-08  0.93827000000E+00  0.93827000000E+00 0. -1.
     999902    2    1    2    0    0  0.59279164512E-02  0.12351251981E-01 -0.31271437290E-02  0.10298775039E+01  0.10297816275E+01 0.  0.
     999903    2    3    3    0    0 -0.19008417548E-01  0.12890960748E+00  0.33658192794E-01  0.14108009617E+00  0.42328628095E-01 0.  0.
         14    1    1    2    0    0 -0.59279164512E-02 -0.12351251981E-01  0.31271437290E-02  0.14052496108E-01  0.00000000000E+00 0.  1.
     999901    1    3    3    0    0  0.24936333999E-01 -0.11655835549E+00 -0.36785336523E-01  0.88879740772E+00  0.88000000000E+00 0. -1.
        -11    1    4    4    0    0  0.84359797499E-02  0.25726142161E-01 -0.49780376368E-02  0.27532564801E-01  0.51100000000E-03 0.  1.
         11    1    4    4    0    0 -0.27444397298E-01  0.10318346531E+00  0.38636230431E-01  0.11354753137E+00  0.51100000000E-03 0. -1.
</event>
<event>
 8    1  0.2039519E+004  0.1043930E+01  0.7957747E-01            NaN
         13   -1    0    0    0    0  0.00000000000E+00  0.00000000000E+00  0.74505805969E-08  0.10566000000E+00  0.10566000000E+00 0.  1.
     999900   -1    0    0    0    0 -0.00000000000E+00 -0.00000000000E+00 -0.74505805969E-08  0.93827000000E+00  0.93827000000E+00 0. -1.
     999902    2    1    2    0    0 -0.11853888512E-01 -0.66027611045E-02 -0.47793340695E-02  0.10295441333E+01  0.10294436212E+01 0.  0.
     999903    2    3    3    0    0 -0.71864417069E-01  0.10691853508E+00 -0.31055207926E-01  0.13983700744E+00  0.44653052833E-01 0.  0.
         14    1    1    2    0    0  0.11853888512E-01  0.66027611045E-02  0.47793340695E-02  0.14385866717E-01  0.00000000000E+00 0.  1.
     999901    1    3    3    0    0  0.60010528557E-01 -0.11352129618E+00  0.26275873856E-01  0.88970712584E+00  0.88000000000E+00 0.  1.
        -11    1    4    4    0    0 -0.74456635909E-03  0.26585568721E-01 -0.17142917952E-01  0.31646288885E-01  0.51100000000E-03 0.  1.
         11    1    4    4    0    0 -0.71119850710E-01  0.80332966357E-01 -0.13912289974E-01  0.10819071856E+00  0.51100000000E-03 0. -1.
</event>
<event>
 8    1  0.2039519E+004  0.1043930E+01  0.7957747E-01            NaN
         13   -1    0    0    0    0  0.00000000000E+00  0.00000000000E+00  0.74505805969E-08  0.10566000000E+00  0.10566000000E+00 0. -1.
     999900   -1    0    0    0    0 -0.00000000000E+00 -0.00000000000E+00 -0.74505805969E-08  0.93827000000E+00  0.93827000000E+00 0. -1.
     999902    2    1    2    0    0  0.10265100830E-01  0.89074601533E-02 -0.47830836699E-02  0.10295219109E+01  0.10294210859E+01 0.  0.
     999903    2    3    3    0    0 -0.10714389095E+00 -0.73135640784E-02 -0.75376911491E-01  0.13877420169E+00  0.45202861421E-01 0.  0.
         14    1    1    2    0    0 -0.10265100830E-01 -0.89074601533E-02  0.47830836699E-02  0.14408089076E-01  0.00000000000E+00 0. -1.
     999901    1    3    3    0    0  0.11740899178E+00  0.16221024232E-01  0.70593827821E-01  0.89074770923E+00  0.88000000000E+00 0.  1.
        -11    1    4    4    0    0 -0.89861966943E-01 -0.41936878698E-02 -0.38357332952E-01  0.97797271091E-01  0.51100000000E-03 0. -1.
         11    1    4    4    0    0 -0.17281924011E-01 -0.31198762086E-02 -0.37019578539E-01  0.40976930599E-01  0.51100000000E-03 0.  1.
</event>
<event>
 8    1  0.2039519E+004  0.1043930E+01  0.7957747E-01            NaN
         13   -1    0    0    0    0  0.00000000000E+00  0.00000000000E+00  0.74505805969E-08  0.10566000000E+00  0.10566000000E+00 0. -1.
     999900   -1    0    0    0    0 -0.00000000000E+00 -0.00000000000E+00 -0.74505805969E-08  0.93827000000E+00  0.93827000000E+00 0.  1.
     999902    2    1    2    0    0  0.64697689140E-02 -0.12371883754E-01 -0.10714386627E-02  0.10299275217E+01  0.10298323313E+01 0.  0.
     999903    2    3    3    0    0  0.15994299869E-01  0.88081503973E-01 -0.96717326839E-01  0.13901241031E+00  0.44227140301E-01 0.  0.
         14    1    1    2    0    0 -0.64697689140E-02  0.12371883754E-01  0.10714386627E-02  0.14002478289E-01  0.00000000000E+00 0. -1.
     999901    1    3    3    0    0 -0.95245309553E-02 -0.10045338773E+00  0.95645888176E-01  0.89091511140E+00  0.88000000000E+00 0. -1.
        -11    1    4    4    0    0  0.93685617738E-02  0.63725227570E-01 -0.37249584844E-01  0.74407440962E-01  0.51100000000E-03 0.  1.
         11    1    4    4    0    0  0.66257380956E-02  0.24356276403E-01 -0.59467741995E-01  0.64604969349E-01  0.51100000000E-03 0. -1.
</event>
<event>
 8    1  0.2039519E+004  0.1043930E+01  0.7957747E-01            NaN
         13   -1    0    0    0    0  0.00000000000E+00  0.00000000000E+00  0.74505805969E-08  0.10566000000E+00  0.10566000000E+00 0. -1.
     999900   -1    0    0    0    0 -0.00000000000E+00 -0.00000000000E+00 -0.74505805969E-08  0.93827000000E+00  0.93827000000E+00 0.  1.
     999902    2    1    2    0    0 -0.13047009141E-01  0.25651690712E-02 -0.70250623635E-02  0.10288915147E+01  0.10287816060E+01 0.  0.
     999903    2    3    3    0    0 -0.11426005273E+00  0.66229853171E-01 -0.20642151006E-01  0.14070082720E+00  0.43918917074E-01 0.  0.
         14    1    1    2    0    0  0.13047009141E-01 -0.25651690712E-02  0.70250623635E-02  0.15038485333E-01  0.00000000000E+00 0.  1.
     999901    1    3    3    0    0  0.10121304359E+00 -0.63664684099E-01  0.13617088643E-01  0.88819068746E+00  0.88000000000E+00 0. -1.
        -11    1    4    4    0    0 -0.16204051377E-01  0.28872144908E-01 -0.12713278043E-01  0.35469149866E-01  0.51100000000E-03 0.  1.
         11    1    4    4    0    0 -0.98056001352E-01  0.37357708262E-01 -0.79288729629E-02  0.10523167734E+00  0.51100000000E-03 0. -1.
</event>
<event>
 8    1  0.2039519E+004  0.1043930E+01  0.7957747E-01            NaN
         13   -1    0    0    0    0  0.00000000000E+00  0.00000000000E+00  0.74505805969E-08  0.10566000000E+00  0.10566000000E+00 0. -1.
     999900   -1    0    0    0    0 -0.00000000000E+00 -0.00000000000E+00 -0.74505805969E-08  0.93827000000E+00  0.93827000000E+00 0. -1.
     999902    2    1    2    0    0  0.63313105661E-02  0.35995932029E-02 -0.56905099086E-02  0.10346874642E+01  0.10346461831E+01 0.  0.
     999903    2    3    3    0    0  0.76514750485E-01  0.58991912502E-01  0.97097519282E-01  0.14420478430E+00  0.45083686443E-01 0.  0.
         14    1    1    2    0    0 -0.63313105661E-02 -0.35995932029E-02  0.56905099086E-02  0.92425357846E-02  0.00000000000E+00 0. -1.
     999901    1    3    3    0    0 -0.70183439919E-01 -0.55392319299E-01 -0.10278802919E+00  0.89048267991E+00  0.88000000000E+00 0. -1.
        -11    1    4    4    0    0  0.15921319204E-01  0.59409473473E-03  0.38467786036E-01  0.41639801120E-01  0.51100000000E-03 0.  1.
         11    1    4    4    0    0  0.60593431280E-01  0.58397817767E-01  0.58629733246E-01  0.10256498318E+00  0.51100000000E-03 0. -1.
</event>
<event>
 8    1  0.2039519E+004  0.1043930E+01  0.7957747E-01            NaN
         13   -1    0    0    0    0  0.00000000000E+00  0.00000000000E+00  0.74505805969E-08  0.10566000000E+00  0.10566000000E+00 0. -1.
     999900   -1    0    0    0    0 -0.00000000000E+00 -0.00000000000E+00 -0.74505805969E-08  0.93827000000E+00  0.93827000000E+00 0.  1.
     999902    2    1    2    0    0  0.40857551672E-02  0.40348663521E-02 -0.14167466567E-01  0.10286430562E+01  0.10285294582E+01 0.  0.
     999903    2    3    3    0    0 -0.33386063971E-01  0.67584287466E-01  0.10569072679E+00  0.13745920723E+00  0.45191135681E-01 0.  0.
         14    1    1    2    0    0 -0.40857551672E-02 -0.40348663521E-02  0.14167466567E-01  0.15286943799E-01  0.00000000000E+00 0. -1.
     999901    1    3    3    0    0  0.37471819139E-01 -0.63549421114E-01 -0.11985819335E+00  0.89118384897E+00  0.88000000000E+00 0.  1.
        -11    1    4    4    0    0 -0.15004686935E-01  0.35785109852E-01  0.18795787182E-01  0.43119107759E-01  0.51100000000E-03 0.  1.
         11    1    4    4    0    0 -0.18381377037E-01  0.31799177614E-01  0.86894939603E-01  0.94340099471E-01  0.51100000000E-03 0. -1.
</event>
<event>
 8    1  0.2039519E+004  0.1043930E+01  0.7957747E-01            NaN
         13   -1    0    0    0    0  0.00000000000E+00  0.00000000000E+00  0.74505805969E-08  0.10566000000E+00  0.10566000000E+00 0.  1.
     999900   -1    0    0    0    0 -0.00000000000E+00 -0.00000000000E+00 -0.74505805969E-08  0.93827000000E+00  0.93827000000E+00 0. -1.
     999902    2    1    2    0    0  0.32016314990E-02 -0.11409883676E-01  0.69549510170E-02  0.10301892856E+01  0.10300976443E+01 0.  0.
     999903    2    3    3    0    0  0.59419248223E-01  0.76323778847E-01  0.87721047431E-01  0.14036864166E+00  0.51501525443E-01 0.  0.
         14    1    1    2    0    0 -0.32016314990E-02  0.11409883676E-01 -0.69549510170E-02  0.13740714443E-01  0.00000000000E+00 0. -1.
     999901    1    3    3    0    0 -0.56217616724E-01 -0.87733662523E-01 -0.80766096414E-01  0.88982064389E+00  0.88000000000E+00 0.  1.
        -11    1    4    4    0    0  0.53146621135E-02  0.25189988422E-01  0.51499987033E-01  0.57578563159E-01  0.51100000000E-03 0. -1.
         11    1    4    4    0    0  0.54104586110E-01  0.51133790424E-01  0.36221060399E-01  0.82790078504E-01  0.51100000000E-03 0.  1.
</event>
<event>
 8    1  0.2039519E+004  0.1043930E+01  0.7957747E-01            NaN
         13   -1    0    0    0    0  0.00000000000E+00  0.00000000000E+00  0.74505805969E-08  0.10566000000E+00  0.10566000000E+00 0. -1.
     999900   -1    0    0    0    0 -0.00000000000E+00 -0.00000000000E+00 -0.74505805969E-08  0.93827000000E+00  0.93827000000E+00 0.  1.
     999902    2    1    2    0    0  0.92918355665E-02 -0.59047189195E-02 -0.92879755758E-02  0.10295261670E+01  0.10294254020E+01 0.  0.
     999903    2    3    3    0    0  0.89198015416E-01 -0.95537793765E-01 -0.28672751108E-01  0.14115977010E+00  0.44946613301E-01 0.  0.
         14    1    1    2    0    0 -0.92918355665E-02  0.59047189195E-02  0.92879755758E-02  0.14403832962E-01  0.00000000000E+00 0.  1.
     999901    1    3    3    0    0 -0.79906179849E-01  0.89633074845E-01  0.19384775532E-01  0.88836639694E+00  0.88000000000E+00 0. -1.
        -11    1    4    4    0    0  0.52590879100E-01 -0.74956119988E-01 -0.23572763907E-02  0.91597152582E-01  0.51100000000E-03 0. -1.
         11    1    4    4    0    0  0.36607136316E-01 -0.20581673776E-01 -0.26315474717E-01  0.49562617518E-01  0.51100000000E-03 0.  1.
</event>
<event>
 8    1  0.2039519E+004  0.1043930E+01  0.7957747E-01            NaN
         13   -1    0    0    0    0  0.00000000000E+00  0.00000000000E+00  0.74505805969E-08  0.10566000000E+00  0.10566000000E+00 0. -1.
     999900   -1    0    0    0    0 -0.00000000000E+00 -0.00000000000E+00 -0.74505805969E-08  0.93827000000E+00  0.93827000000E+00 0. -1.
     999902    2    1    2    0    0 -0.62041118075E-02 -0.83452832947E-02  0.95535077811E-03  0.10334874212E+01  0.10334346628E+01 0.  0.
     999903    2    3    3    0    0  0.88901199392E-01  0.71254582101E-01  0.71676538699E-01  0.14198159105E+00  0.45173081304E-01 0.  0.
         14    1    1    2    0    0  0.62041118075E-02  0.83452832947E-02 -0.95535077811E-03  0.10442578786E-01  0.00000000000E+00 0. -1.
     999901    1    3    3    0    0 -0.95105311199E-01 -0.79599865396E-01 -0.70721187921E-01  0.89150583016E+00  0.88000000000E+00 0.  1.
        -11    1    4    4    0    0  0.83178541057E-01  0.45919821350E-01  0.65124164663E-01  0.11518991982E+00  0.51100000000E-03 0.  1.
         11    1    4    4    0    0  0.57226583349E-02  0.25334760751E-01  0.65523740368E-02  0.26791671229E-01  0.51100000000E-03 0. -1.
</event>
<event>
 8    1  0.2039519E+004  0.1043930E+01  0.7957747E-01            NaN
         13   -1    0    0    0    0  0.00000000000E+00  0.00000000000E+00  0.74505805969E-08  0.10566000000E+00  0.10566000000E+00 0.  1.
     999900   -1    0    0    0    0 -0.00000000000E+00 -0.00000000000E+00 -0.74505805969E-08  0.93827000000E+00  0.93827000000E+00 0.  1.
     999902    2    1    2    0    0  0.82129716597E-02  0.47732975435E-02 -0.13689247510E-01  0.10272676841E+01  0.10271325436E+01 0.  0.
     999903    2    3    3    0    0  0.61032287804E-01  0.11214327918E+00  0.27760379879E-01  0.13820285818E+00  0.45037052526E-01 0.  0.
         14    1    1    2    0    0 -0.82129716597E-02 -0.47732975435E-02  0.13689247510E-01  0.16662315875E-01  0.00000000000E+00 0.  1.
     999901    1    3    3    0    0 -0.52819316145E-01 -0.10736998163E+00 -0.41449627389E-01  0.88906482594E+00  0.88000000000E+00 0.  1.
        -11    1    4    4    0    0  0.40341739987E-01  0.10639466715E+00  0.25449500163E-01  0.11659853928E+00  0.51100000000E-03 0. -1.
         11    1    4    4    0    0  0.20690547817E-01  0.57486120275E-02  0.23108797161E-02  0.21604318904E-01  0.51100000000E-03 0.  1.
</event>
<event>
 8    1  0.2039519E+004  0.1043930E+01  0.7957747E-01            NaN
         13   -1    0    0    0    0  0.00000000000E+00  0.00000000000E+00  0.74505805969E-08  0.10566000000E+00  0.10566000000E+00 0.  1.
     999900   -1    0    0    0    0 -0.00000000000E+00 -0.00000000000E+00 -0.74505805969E-08  0.93827000000E+00  0.93827000000E+00 0. -1.
     999902    2    1    2    0    0  0.60810069006E-02  0.56117807571E-02 -0.90535756990E-02  0.10316646846E+01  0.10315917718E+01 0.  0.
     999903    2    3    3    0    0  0.20648243112E-03 -0.28096428054E-01  0.13003846620E+00  0.14008330893E+00  0.43862043305E-01 0.  0.
         14    1    1    2    0    0 -0.60810069006E-02 -0.56117807571E-02  0.90535756990E-02  0.12265315370E-01  0.00000000000E+00 0.  1.
     999901    1    3    3    0    0  0.58745244695E-02  0.33708208811E-01 -0.13909204190E+00  0.89158137570E+00  0.88000000000E+00 0. -1.
        -11    1    4    4    0    0 -0.26403565479E-02 -0.24603909066E-01  0.25821705378E-01  0.35767938348E-01  0.51100000000E-03 0. -1.
         11    1    4    4    0    0  0.28468389790E-02 -0.34925189880E-02  0.10421676083E+00  0.10431537058E+00  0.51100000000E-03 0.  1.
</event>
<event>
 8    1  0.2039519E+004  0.1043930E+01  0.7957747E-01            NaN
         13   -1    0    0    0    0  0.00000000000E+00  0.00000000000E+00  0.74505805969E-08  0.10566000000E+00  0.10566000000E+00 0.  1.
     999900   -1    0    0    0    0 -0.00000000000E+00 -0.00000000000E+00 -0.74505805969E-08  0.93827000000E+00  0.93827000000E+00 0. -1.
     999902    2    1    2    0    0  0.90996033828E-03  0.77893122387E-02 -0.11759030268E-01  0.10297957789E+01  0.10296987764E+01 0.  0.
     999903    2    3    3    0    0  0.59605215340E-01 -0.86592335729E-01 -0.80802276700E-01  0.14012168223E+00  0.45321778511E-01 0.  0.
         14    1    1    2    0    0 -0.90996033828E-03 -0.77893122387E-02  0.11759030268E-01  0.14134221089E-01  0.00000000000E+00 0.  1.
     999901    1    3    3    0    0 -0.58695255002E-01  0.94381647968E-01  0.69043246432E-01  0.88967409668E+00  0.88000000000E+00 0.  1.
        -11    1    4    4    0    0  0.91540094857E-02 -0.52390750230E-01 -0.43027413219E-01  0.68412031169E-01  0.51100000000E-03 0.  1.
         11    1    4    4    0    0  0.50451205854E-01 -0.34201585499E-01 -0.37774863481E-01  0.71709651057E-01  0.51100000000E-03 0. -1.
</event>
<event>
 8    1  0.2039519E+004  0.1043930E+01  0.7957747E-01            NaN
         13   -1    0    0    0    0  0.00000000000E+00  0.00000000000E+00  0.74505805969E-08  0.10566000000E+00  0.10566000000E+00 0.  1.
     999900   -1    0    0    0    0 -0.00000000000E+00 -0.00000000000E+00 -0.74505805969E-08  0.93827000000E+00  0.93827000000E+00 0. -1.
     999902    2    1    2    0    0 -0.78617165649E-02  0.22862474438E-02  0.81102169848E-02  0.10324057155E+01  0.10323413932E+01 0.  0.
     999903    2    3    3    0    0  0.76021644619E-01  0.11004356988E+00 -0.91962079064E-02  0.14170510854E+00  0.45900869528E-01 0.  0.
         14    1    1    2    0    0  0.78617165649E-02 -0.22862474438E-02 -0.81102169848E-02  0.11524284545E-01  0.00000000000E+00 0. -1.
     999901    1    3    3    0    0 -0.83883361183E-01 -0.10775732244E+00  0.17306424891E-01  0.89070060692E+00  0.88000000000E+00 0.  1.
        -11    1    4    4    0    0  0.49315057897E-01  0.92684598702E-01  0.83778369303E-02  0.10532264260E+00  0.51100000000E-03 0. -1.
         11    1    4    4    0    0  0.26706586721E-01  0.17358971177E-01 -0.17574044837E-01  0.36382465936E-01  0.51100000000E-03 0.  1.
</event>
<event>
 8    1  0.2039519E+004  0.1043930E+01  0.7957747E-01            NaN
         13   -1    0    0    0    0  0.00000000000E+00  0.00000000000E+00  0.74505805969E-08  0.10566000000E+00  0.10566000000E+00 0.  1.
     999900   -1    0    0    0    0 -0.00000000000E+00 -0.00000000000E+00 -0.74505805969E-08  0.93827000000E+00  0.93827000000E+00 0. -1.
     999902    2    1    2    0    0  0.56981564321E-02 -0.12590630543E-01  0.37106268687E-02  0.10296205026E+01  0.10295210623E+01 0.  0.
     999903    2    3    3    0    0 -0.16566819239E-01  0.12449424223E+00 -0.36682354301E-01  0.13781358156E+00  0.43286398502E-01 0.  0.
         14    1    1    2    0    0 -0.56981564321E-02  0.12590630543E-01 -0.37106268687E-02  0.14309497404E-01  0.00000000000E+00 0.  1.
     999901    1    3    3    0    0  0.22264975671E-01 -0.13708487278E+00  0.40392981170E-01  0.89180692104E+00  0.88000000000E+00 0. -1.
        -11    1    4    4    0    0  0.13545011127E-01  0.61730747326E-01 -0.18808416579E-01  0.65940656253E-01  0.51100000000E-03 0.  1.
         11    1    4    4    0    0 -0.30111830365E-01  0.62763494909E-01 -0.17873937722E-01  0.71872925304E-01  0.51100000000E-03 0. -1.
</event>
<event>
 8    1  0.2039519E+004  0.1043930E+01  0.7957747E-01            NaN
         13   -1    0    0    0    0  0.00000000000E+00  0.00000000000E+00  0.74505805969E-08  0.10566000000E+00  0.10566000000E+00 0.  1.
     999900   -1    0    0    0    0 -0.00000000000E+00 -0.00000000000E+00 -0.74505805969E-08  0.93827000000E+00  0.93827000000E+00 0.  1.
     999902    2    1    2    0    0 -0.12426501446E-01 -0.45531560801E-02 -0.60765200201E-02  0.10293672645E+01  0.10292642479E+01 0.  0.
     999903    2    3    3    0    0  0.89064843059E-01 -0.72057633621E-01 -0.64889961546E-01  0.13902105749E+00  0.44623967610E-01 0.  0.
         14    1    1    2    0    0  0.12426501446E-01  0.45531560801E-02  0.60765200201E-02  0.14562735459E-01  0.00000000000E+00 0. -1.
     999901    1    3    3    0    0 -0.10149134451E+00  0.67504477541E-01  0.58813441526E-01  0.89034620705E+00  0.88000000000E+00 0. -1.
        -11    1    4    4    0    0  0.78626855497E-01 -0.77997051392E-01 -0.56250002782E-01  0.12421773772E+00  0.51100000000E-03 0. -1.
         11    1    4    4    0    0  0.10437987563E-01  0.59394177706E-02 -0.86399587641E-02  0.14803319772E-01  0.51100000000E-03 0.  1.
</event>
<event>
 8    1  0.2039519E+004  0.1043930E+01  0.7957747E-01            NaN
         13   -1    0    0    0    0  0.00000000000E+00  0.00000000000E+00  0.74505805969E-08  0.10566000000E+00  0.10566000000E+00 0. -1.
     999900   -1    0    0    0    0 -0.00000000000E+00 -0.00000000000E+00 -0.74505805969E-08  0.93827000000E+00  0.93827000000E+00 0. -1.
     999902    2    1    2    0    0  0.10467634355E-03  0.80251101869E-02 -0.11923296740E-01  0.10295571660E+01  0.10294568373E+01 0.  0.
     999903    2    3    3    0    0 -0.35489402262E-01 -0.39168090682E-01  0.11903379481E+00  0.13790482547E+00  0.45332764970E-01 0.  0.
         14    1    1    2    0    0 -0.10467634355E-03 -0.80251101869E-02  0.11923296740E-01  0.14372833952E-01  0.00000000000E+00 0. -1.
     999901    1    3    3    0    0  0.35594078606E-01  0.47193200868E-01 -0.13095709155E+00  0.89165234058E+00  0.88000000000E+00 0. -1.
        -11    1    4    4    0    0  0.10768189108E-02 -0.24786851555E-01  0.74441668068E-01  0.78468914958E-01  0.51100000000E-03 0. -1.
         11    1    4    4    0    0 -0.36566221173E-01 -0.14381239126E-01  0.44592126740E-01  0.59435910507E-01  0.51100000000E-03 0.  1.
</event>
<event>
 8    1  0.2039519E+004  0.1043930E+01  0.7957747E-01            NaN
         13   -1    0    0    0    0  0.00000000000E+00  0.00000000000E+00  0.74505805969E-08  0.10566000000E+00  0.10566000000E+00 0.  1.
     999900   -1    0    0    0    0 -0.00000000000E+00 -0.00000000000E+00 -0.74505805969E-08  0.93827000000E+00  0.93827000000E+00 0.  1.
     999902    2    1    2    0    0 -0.85807441469E-02  0.32135920844E-02 -0.10706143468E-01  0.10298382346E+01  0.10297418179E+01 0.  0.
     999903    2    3    3    0    0  0.25263199688E-01 -0.11642306733E+00 -0.57903968698E-01  0.13984611243E+00  0.44849812776E-01 0.  0.
         14    1    1    2    0    0  0.85807441469E-02 -0.32135920844E-02  0.10706143468E-01  0.14091765403E-01  0.00000000000E+00 0.  1.
     999901    1    3    3    0    0 -0.33843943835E-01  0.11963665942E+00  0.47197825229E-01  0.88999212217E+00  0.88000000000E+00 0. -1.
        -11    1    4    4    0    0  0.31636492226E-01 -0.78146153209E-01 -0.22365098458E-01  0.87224696341E-01  0.51100000000E-03 0.  1.
         11    1    4    4    0    0 -0.63732925379E-02 -0.38276914122E-01 -0.35538870240E-01  0.52621416091E-01  0.51100000000E-03 0. -1.
</event>
<event>
 8    1  0.2039519E+004  0.1043930E+01  0.7957747E-01            NaN
         13   -1    0    0    0    0  0.00000000000E+00  0.00000000000E+00  0.74505805969E-08  0.10566000000E+00  0.10566000000E+00 0. -1.
     999900   -1    0    0    0    0 -0.00000000000E+00 -0.00000000000E+00 -0.74505805969E-08  0.93827000000E+00  0.93827000000E+00 0. -1.
     999902    2    1    2    0    0  0.55180462055E-02  0.69230664115E-02 -0.81581245139E-02  0.10318912011E+01  0.10318209720E+01 0.  0.
     999903    2    3    3    0    0 -0.17112350280E-01 -0.53210126024E-02 -0.13394227726E+00  0.14257477522E+00  0.45452031688E-01 0.  0.
         14    1    1    2    0    0 -0.55180462055E-02 -0.69230664115E-02  0.81581245139E-02  0.12038798862E-01  0.00000000000E+00 0. -1.
     999901    1    3    3    0    0  0.22630396486E-01  0.12244079014E-01  0.12578415275E+00  0.88931642591E+00  0.88000000000E+00 0.  1.
        -11    1    4    4    0    0 -0.62702171068E-02  0.16413647918E-01 -0.22697813560E-01  0.28708453841E-01  0.51100000000E-03 0.  1.
         11    1    4    4    0    0 -0.10842133174E-01 -0.21734660521E-01 -0.11124446370E+00  0.11386632138E+00  0.51100000000E-03 0. -1.
</event>
<event>
 8    1  0.2039519E+004  0.1043930E+01  0.7957747E-01            NaN
         13   -1    0    0    0    0  0.00000000000E+00  0.00000000000E+00  0.74505805969E-08  0.10566000000E+00  0.10566000000E+00 0.  1.
     999900   -1    0    0    0    0 -0.00000000000E+00 -0.00000000000E+00 -0.74505805969E-08  0.93827000000E+00  0.93827000000E+00 0. -1.
     999902    2    1    2    0    0  0.84422619026E-02 -0.10219515429E-01 -0.35758264940E-02  0.10302005857E+01  0.10301090962E+01 0.  0.
     999903    2    3    3    0    0  0.53694295867E-04  0.48728455854E-01  0.12247017046E+00  0.13922762050E+00  0.44843309016E-01 0.  0.
         14    1    1    2    0    0 -0.84422619026E-02  0.10219515429E-01  0.35758264940E-02  0.13729414290E-01  0.00000000000E+00 0. -1.
     999901    1    3    3    0    0  0.83885676067E-02 -0.58947971283E-01 -0.12604599696E+00  0.89097296521E+00  0.88000000000E+00 0. -1.
        -11    1    4    4    0    0 -0.18195595919E-01  0.34403132910E-01  0.98278939571E-01  0.10570556442E+00  0.51100000000E-03 0.  1.
         11    1    4    4    0    0  0.18249290215E-01  0.14325322944E-01  0.24191230894E-01  0.33522056082E-01  0.51100000000E-03 0. -1.
</event>
<event>
 7    1  0.2139755E+004  0.1043930E+01  0.7957747E-01            NaN
         13   -1    0    0    0    0  0.00000000000E+00  0.00000000000E+00  0.74505805969E-08  0.10566000000E+00  0.10566000000E+00 0.  1.
     999900   -1    0    0    0    0 -0.00000000000E+00 -0.00000000000E+00 -0.74505805969E-08  0.93827000000E+00  0.93827000000E+00 0. -1.
     999903    2    1    2    0    0 -0.17694234750E-01 -0.10656916199E+00  0.40571996052E-01  0.12414809707E+00  0.45788545650E-01 0.  0.
         14    1    1    2    0    0 -0.10701846224E-02  0.19252916144E-01 -0.29438433705E-01  0.35191496901E-01  0.00000000000E+00 0. -1.
     999901    1    1    2    0    0  0.18764419373E-01  0.87316245845E-01 -0.11133562347E-01  0.88459040603E+00  0.88000000000E+00 0. -1.
        -11    1    3    3    0    0 -0.21310320702E-01 -0.28968128480E-01  0.27712553030E-01  0.45404063172E-01  0.51100000000E-03 0. -1.
         11    1    3    3    0    0  0.36160859513E-02 -0.77601033508E-01  0.12859443022E-01  0.78744033901E-01  0.51100000000E-03 0.  1.
</event>
<event>
 8    1  0.2039519E+004  0.1043930E+01  0.7957747E-01            NaN
         13   -1    0    0    0    0  0.00000000000E+00  0.00000000000E+00  0.74505805969E-08  0.10566000000E+00  0.10566000000E+00 0.  1.
     999900   -1    0    0    0    0 -0.00000000000E+00 -0.00000000000E+00 -0.74505805969E-08  0.93827000000E+00  0.93827000000E+00 0.  1.
     999902    2    1    2    0    0 -0.13416826413E-01 -0.25084956760E-02  0.35491624282E-02  0.10298267970E+01  0.10297302226E+01 0.  0.
     999903    2    3    3    0    0  0.20643338325E-01 -0.97614543372E-01  0.87417889722E-01  0.14008570062E+00  0.45026320965E-01 0.  0.
         14    1    1    2    0    0  0.13416826413E-01  0.25084956760E-02 -0.35491624282E-02  0.14103203023E-01  0.00000000000E+00 0. -1.
     999901    1    3    3    0    0 -0.34060164739E-01  0.95106047696E-01 -0.83868727293E-01  0.88974109636E+00  0.88000000000E+00 0. -1.
        -11    1    4    4    0    0  0.14127583446E-02 -0.87362060801E-01  0.73897437187E-01  0.11443433880E+00  0.51100000000E-03 0.  1.
         11    1    4    4    0    0  0.19230579981E-01 -0.10252482571E-01  0.13520452535E-01  0.25651361816E-01  0.51100000000E-03 0. -1.
</event>
<event>
 8    1  0.2039519E+004  0.1043930E+01  0.7957747E-01            NaN
         13   -1    0    0    0    0  0.00000000000E+00  0.00000000000E+00  0.74505805969E-08  0.10566000000E+00  0.10566000000E+00 0.  1.
     999900   -1    0    0    0    0 -0.00000000000E+00 -0.00000000000E+00 -0.74505805969E-08  0.93827000000E+00  0.93827000000E+00 0. -1.
     999902    2    1    2    0    0 -0.70045186715E-02  0.11487541998E-01  0.37600435034E-02  0.10299598593E+01  0.10298651111E+01 0.  0.
     999903    2    3    3    0    0 -0.93936908740E-03 -0.12978706098E+00 -0.22850513000E-01  0.13827414049E+00  0.41857237958E-01 0.  0.
         14    1    1    2    0    0  0.70045186715E-02 -0.11487541998E-01 -0.37600435034E-02  0.13970140662E-01  0.00000000000E+00 0.  1.
     999901    1    3    3    0    0 -0.60651495841E-02  0.14127460298E+00  0.26610556503E-01  0.89168571885E+00  0.88000000000E+00 0. -1.
        -11    1    4    4    0    0 -0.12363921084E-01 -0.36443846864E-01 -0.21788664005E-01  0.44226999886E-01  0.51100000000E-03 0.  1.
         11    1    4    4    0    0  0.11424551997E-01 -0.93343214120E-01 -0.10618489949E-02  0.94047140599E-01  0.51100000000E-03 0. -1.
</event>
<event>
 8    1  0.2039519E+004  0.1043930E+01  0.7957747E-01            NaN
         13   -1    0    0    0    0  0.00000000000E+00  0.00000000000E+00  0.74505805969E-08  0.10566000000E+00  0.10566000000E+00 0.  1.
     999900   -1    0    0    0    0 -0.00000000000E+00 -0.00000000000E+00 -0.74505805969E-08  0.93827000000E+00  0.93827000000E+00 0.  1.
     999902    2    1    2    0    0  0.98244382995E-02  0.93763465022E-02 -0.21012231312E-02  0.10301877076E+01  0.10300960452E+01 0.  0.
     999903    2    3    3    0    0  0.13406874173E+00 -0.38515711945E-02  0.30917796795E-02  0.14134655643E+00  0.44497503352E-01 0.  0.
         14    1    1    2    0    0 -0.98244382995E-02 -0.93763465022E-02  0.21012231312E-02  0.13742292395E-01  0.00000000000E+00 0. -1.
     999901    1    3    3    0    0 -0.12424430343E+00  0.13227917697E-01 -0.51930028106E-02  0.88884115117E+00  0.88000000000E+00 0. -1.
        -11    1    4    4    0    0  0.76668733582E-01 -0.15340818151E-01  0.19430910411E-01  0.80568336281E-01  0.51100000000E-03 0. -1.
         11    1    4    4    0    0  0.57400008145E-01  0.11489246957E-01 -0.16339130732E-01  0.60778220151E-01  0.51100000000E-03 0.  1.
</event>
<event>
 8    1  0.2039519E+004  0.1043930E+01  0.7957747E-01            NaN
         13   -1    0    0    0    0  0.00000000000E+00  0.00000000000E+00  0.74505805969E-08  0.10566000000E+00  0.10566000000E+00 0. -1.
     999900   -1    0    0    0    0 -0.00000000000E+00 -0.00000000000E+00 -0.74505805969E-08  0.93827000000E+00  0.93827000000E+00 0.  1.
     999902    2    1    2    0    0 -0.12994514235E-01  0.92843509243E-03  0.59584203125E-02  0.10296044227E+01  0.10295047572E+01 0.  0.
     999903    2    3    3    0    0 -0.29960537741E-01  0.61459525003E-01  0.11420634777E+00  0.14074590045E+00  0.45731953695E-01 0.  0.
         14    1    1    2    0    0  0.12994514235E-01 -0.92843509243E-03 -0.59584203125E-02  0.14325577285E-01  0.00000000000E+00 0.  1.
     999901    1    3    3    0    0  0.16966023505E-01 -0.60531089910E-01 -0.10824792745E+00  0.88885852226E+00  0.88000000000E+00 0.  1.
        -11    1    4    4    0    0 -0.26846631285E-01  0.33887091510E-01  0.31461883318E-01  0.53471373699E-01  0.51100000000E-03 0.  1.
         11    1    4    4    0    0 -0.31139064552E-02  0.27572433493E-01  0.82744464449E-01  0.87274526754E-01  0.51100000000E-03 0. -1.
</event>
<event>
 8    1  0.2039519E+004  0.1043930E+01  0.7957747E-01            NaN
         13   -1    0    0    0    0  0.00000000000E+00  0.00000000000E+00  0.74505805969E-08  0.10566000000E+00  0.10566000000E+00 0. -1.
     999900   -1    0    0    0    0 -0.00000000000E+00 -0.00000000000E+00 -0.74505805969E-08  0.93827000000E+00  0.93827000000E+00 0. -1.
     999902    2    1    2    0    0  0.12822275584E-01 -0.39196650325E-02 -0.25891651479E-02  0.10302742942E+01  0.10301837909E+01 0.  0.
     999903    2    3    3    0    0 -0.57975931136E-01  0.90640423328E-01  0.76570684135E-01  0.13885953207E+00  0.42918586239E-01 0.  0.
         14    1    1    2    0    0 -0.12822275584E-01  0.39196650325E-02  0.25891651479E-02  0.13655705814E-01  0.00000000000E+00 0.  1.
     999901    1    3    3    0    0  0.70798206720E-01 -0.94560088361E-01 -0.79159849283E-01  0.89141476212E+00  0.88000000000E+00 0.  1.
        -11    1    4    4    0    0 -0.33401693251E-01  0.56972479653E-01  0.20820611568E-01  0.69248072442E-01  0.51100000000E-03 0.  1.
         11    1    4    4    0    0 -0.24574237885E-01  0.33667943676E-01  0.55750072566E-01  0.69611459625E-01  0.51100000000E-03 0. -1.
</event>
<event>
 8    1  0.2039519E+004  0.1043930E+01  0.7957747E-01            NaN
         13   -1    0    0    0    0  0.00000000000E+00  0.00000000000E+00  0.74505805969E-08  0.10566000000E+00  0.10566000000E+00 0.  1.
     999900   -1    0    0    0    0 -0.00000000000E+00 -0.00000000000E+00 -0.74505805969E-08  0.93827000000E+00  0.93827000000E+00 0. -1.
     999902    2    1    2    0    0 -0.12068317162E-03  0.99936943797E-02  0.89762104186E-02  0.10304964284E+01  0.10304088646E+01 0.  0.
     999903    2    3    3    0    0 -0.17624528336E-01 -0.82435602984E-01 -0.99595672009E-01  0.13884772335E+00  0.47467249325E-01 0.  0.
         14    1    1    2    0    0  0.12068317162E-03 -0.99936943797E-02 -0.89762104186E-02  0.13433571575E-01  0.00000000000E+00 0. -1.
     999901    1    3    3    0    0  0.17503845164E-01  0.92429297363E-01  0.10857188243E+00  0.89164870507E+00  0.88000000000E+00 0. -1.
        -11    1    4    4    0    0 -0.31324878596E-01 -0.46299151627E-01 -0.72934608087E-01  0.91894383062E-01  0.51100000000E-03 0.  1.
         11    1    4    4    0    0  0.13700350260E-01 -0.36136451356E-01 -0.26661063922E-01  0.46953340289E-01  0.51100000000E-03 0. -1.
</event>
<event>
 8    1  0.2039519E+004  0.1043930E+01  0.7957747E-01            NaN
         13   -1    0    0    0    0  0.00000000000E+00  0.00000000000E+00  0.74505805969E-08  0.10566000000E+00  0.10566000000E+00 0.  1.
     999900   -1    0    0    0    0 -0.00000000000E+00 -0.00000000000E+00 -0.74505805969E-08  0.93827000000E+00  0.93827000000E+00 0.  1.
     999902    2    1    2    0    0  0.49647200649E-02 -0.10281920569E-01 -0.63166987328E-02  0.10308813595E+01  0.10307987730E+01 0.  0.
     999903    2    3    3    0    0  0.10391066247E+00  0.82455506865E-01  0.16255185661E-01  0.14020744615E+00  0.42397647424E-01 0.  0.
         14    1    1    2    0    0 -0.49647200649E-02  0.10281920569E-01  0.63166987328E-02  0.13048640496E-01  0.00000000000E+00 0.  1.
     999901    1    3    3    0    0 -0.98945942407E-01 -0.92737427434E-01 -0.22571884394E-01  0.89067391335E+00  0.88000000000E+00 0. -1.
        -11    1    4    4    0    0  0.58285620668E-01  0.61684004730E-01 -0.65734176469E-02  0.85121095839E-01  0.51100000000E-03 0.  1.
         11    1    4    4    0    0  0.45625041804E-01  0.20771502135E-01  0.22828603308E-01  0.55086350311E-01  0.51100000000E-03 0. -1.
</event>
<event>
 8    1  0.2039519E+004  0.1043930E+01  0.7957747E-01            NaN
         13   -1    0    0    0    0  0.00000000000E+00  0.00000000000E+00  0.74505805969E-08  0.10566000000E+00  0.10566000000E+00 0. -1.
     999900   -1    0    0    0    0 -0.00000000000E+00 -0.00000000000E+00 -0.74505805969E-08  0.93827000000E+00  0.93827000000E+00 0. -1.
     999902    2    1    2    0    0  0.13392488671E-01 -0.33083175373E-02  0.45420899149E-03  0.10301274631E+01  0.10300349898E+01 0.  0.
     999903    2    3    3    0    0 -0.39039170719E-01  0.13672885149E-02 -0.12631928630E+00  0.13948586334E+00  0.44427667632E-01 0.  0.
         14    1    1    2    0    0 -0.13392488671E-01  0.33083175373E-02 -0.45420899149E-03  0.13802536851E-01  0.00000000000E+00 0.  1.
     999901    1    3    3    0    0  0.52431659390E-01 -0.46756060522E-02  0.12677349530E+00  0.89064159981E+00  0.88000000000E+00 0.  1.
        -11    1    4    4    0    0  0.36314519648E-02 -0.55845107162E-02 -0.59657553737E-01  0.60030484274E-01  0.51100000000E-03 0. -1.
         11    1    4    4    0    0 -0.42670622684E-01  0.69517992311E-02 -0.66661732568E-01  0.79455379067E-01  0.51100000000E-03 0.  1.
</event>
<event>
 8    1  0.2039519E+004  0.1043930E+01  0.7957747E-01            NaN
         13   -1    0    0    0    0  0.00000000000E+00  0.00000000000E+00  0.74505805969E-08  0.10566000000E+00  0.10566000000E+00 0. -1.
     999900   -1    0    0    0    0 -0.00000000000E+00 -0.00000000000E+00 -0.74505805969E-08  0.93827000000E+00  0.93827000000E+00 0.  1.
     999902    2    1    2    0    0 -0.11963260434E-01  0.11622204941E-01 -0.12786409323E-02  0.10272018749E+01  0.10270656559E+01 0.  0.
     999903    2    3    3    0    0 -0.65127353686E-01  0.16648342005E-01 -0.11253593868E+00  0.13859067239E+00  0.44992193645E-01 0.  0.
         14    1    1    2    0    0  0.11963260434E-01 -0.11622204941E-01  0.12786409323E-02  0.16728125135E-01  0.00000000000E+00 0. -1.
     999901    1    3    3    0    0  0.53164093252E-01 -0.50261370640E-02  0.11125729775E+00  0.88861120248E+00  0.88000000000E+00 0. -1.
        -11    1    4    4    0    0  0.12495204423E-02  0.79595462943E-02 -0.36061475939E-01  0.36954118126E-01  0.51100000000E-03 0. -1.
         11    1    4    4    0    0 -0.66376874129E-01  0.86887957110E-02 -0.76474462740E-01  0.10163655426E+00  0.51100000000E-03 0.  1.
</event>
<event>
 8    1  0.2039519E+004  0.1043930E+01  0.7957747E-01            NaN
         13   -1    0    0    0    0  0.00000000000E+00  0.00000000000E+00  0.74505805969E-08  0.10566000000E+00  0.10566000000E+00 0.  1.
     999900   -1    0    0    0    0 -0.00000000000E+00 -0.00000000000E+00 -0.74505805969E-08  0.93827000000E+00  0.93827000000E+00 0. -1.
     999902    2    1    2    0    0 -0.59724549123E-03  0.13667719715E-01 -0.83117123181E-02  0.10279222573E+01  0.10277976062E+01 0.  0.
     999903    2    3    3    0    0 -0.28459187289E-01 -0.92910874095E-01  0.83218328936E-01  0.13634330236E+00  0.47136503488E-01 0.  0.
         14    1    1    2    0    0  0.59724549123E-03 -0.13667719715E-01  0.83117123181E-02  0.16007742690E-01  0.00000000000E+00 0.  1.
     999901    1    3    3    0    0  0.27861941797E-01  0.10657859381E+00 -0.91530041254E-01  0.89157895495E+00  0.88000000000E+00 0. -1.
        -11    1    4    4    0    0  0.90985184337E-02 -0.47725509392E-01  0.45176244456E-01  0.66345018415E-01  0.51100000000E-03 0. -1.
         11    1    4    4    0    0 -0.37557705722E-01 -0.45185364703E-01  0.38042084480E-01  0.69998283944E-01  0.51100000000E-03 0.  1.
</event>
<event>
 8    1  0.2039519E+004  0.1043930E+01  0.7957747E-01            NaN
         13   -1    0    0    0    0  0.00000000000E+00  0.00000000000E+00  0.74505805969E-08  0.10566000000E+00  0.10566000000E+00 0.  1.
     999900   -1    0    0    0    0 -0.00000000000E+00 -0.00000000000E+00 -0.74505805969E-08  0.93827000000E+00  0.93827000000E+00 0. -1.
     999902    2    1    2    0    0  0.87481715298E-02  0.11370610674E-01 -0.67104591265E-03  0.10295678416E+01  0.10294676628E+01 0.  0.
     999903    2    3    3    0    0  0.15546715661E-02 -0.11385377365E-01  0.13140862222E+00  0.13939110621E+00  0.45051200611E-01 0.  0.
         14    1    1    2    0    0 -0.87481715298E-02 -0.11370610674E-01  0.67104591265E-03  0.14362158433E-01  0.00000000000E+00 0. -1.
     999901    1    3    3    0    0  0.71934999638E-02  0.22755988039E-01 -0.13207966813E+00  0.89017673535E+00  0.88000000000E+00 0. -1.
        -11    1    4    4    0    0 -0.14997892533E-01  0.24518025622E-02  0.10079611503E+00  0.10193657853E+00  0.51100000000E-03 0. -1.
         11    1    4    4    0    0  0.16552564099E-01 -0.13837179927E-01  0.30612507187E-01  0.37454527682E-01  0.51100000000E-03 0.  1.
</event>
<event>
 8    1  0.2039519E+004  0.1043930E+01  0.7957747E-01            NaN
         13   -1    0    0    0    0  0.00000000000E+00  0.00000000000E+00  0.74505805969E-08  0.10566000000E+00  0.10566000000E+00 0. -1.
     999900   -1    0    0    0    0 -0.00000000000E+00 -0.00000000000E+00 -0.74505805969E-08  0.93827000000E+00  0.93827000000E+00 0.  1.
     999902    2    1    2    0    0  0.76537012974E-03 -0.11105034873E-01  0.68447449191E-02  0.10308625548E+01  0.10307797285E+01 0.  0.
     999903    2    3    3    0    0  0.12829877898E+00  0.30551491466E-01  0.18466584139E-01  0.14061814808E+00  0.45149512957E-01 0.  0.
         14    1    1    2    0    0 -0.76537012974E-03  0.11105034873E-01 -0.68447449191E-02  0.13067445197E-01  0.00000000000E+00 0.  1.
     999901    1    3    3    0    0 -0.12753340885E+00 -0.41656526339E-01 -0.11621839220E-01  0.89024440673E+00  0.88000000000E+00 0. -1.
        -11    1    4    4    0    0  0.55193808552E-01  0.23329052644E-01 -0.11956677031E-01  0.61105027996E-01  0.51100000000E-03 0.  1.
         11    1    4    4    0    0  0.73104970428E-01  0.72224388227E-02  0.30423261170E-01  0.79513120082E-01  0.51100000000E-03 0. -1.
</event>
<event>
 8    1  0.2039519E+004  0.1043930E+01  0.7957747E-01            NaN
         13   -1    0    0    0    0  0.00000000000E+00  0.00000000000E+00  0.74505805969E-08  0.10566000000E+00  0.10566000000E+00 0. -1.
     999900   -1    0    0    0    0 -0.00000000000E+00 -0.00000000000E+00 -0.74505805969E-08  0.93827000000E+00  0.93827000000E+00 0. -1.
     999902    2    1    2    0    0  0.43013709622E-02  0.97052933083E-03  0.12717127333E-01  0.10304700948E+01  0.10303821851E+01 0.  0.
     999903    2    3    3    0    0  0.39621301925E-01  0.73695476889E-01 -0.10176110050E+00  0.13937993096E+00  0.45503545998E-01 0.  0.
         14    1    1    2    0    0 -0.43013709622E-02 -0.97052933083E-03 -0.12717127333E-01  0.13459905161E-01  0.00000000000E+00 0.  1.
     999901    1    3    3    0    0 -0.35319930963E-01 -0.72724947558E-01  0.11447822783E+00  0.89109016388E+00  0.88000000000E+00 0.  1.
        -11    1    4    4    0    0  0.35995897349E-01  0.64886804065E-01 -0.10562748855E+00  0.12908690648E+00  0.51100000000E-03 0. -1.
         11    1    4    4    0    0  0.36254045756E-02  0.88086728240E-02  0.38663880478E-02  0.10293024473E-01  0.51100000000E-03 0.  1.
</event>
<event>
 7    1  0.2039519E+004  0.1043930E+01  0.7957747E-01            NaN
         13   -1    0    0    0    0  0.00000000000E+00  0.00000000000E+00  0.74505805969E-08  0.10566000000E+00  0.10566000000E+00 0.  1.
     999900   -1    0    0    0    0 -0.00000000000E+00 -0.00000000000E+00 -0.74505805969E-08  0.93827000000E+00  0.93827000000E+00 0.  1.
     999903    2    1    2    0    0 -0.30827951951E-01  0.88943804338E-01  0.56153631456E-01  0.11854142051E+00  0.45138399399E-01 0.  0.
         14    1    1    2    0    0 -0.59602423731E-02  0.33180089966E-01  0.50614645671E-02  0.34089019975E-01  0.00000000000E+00 0.  1.
     999901    1    1    2    0    0  0.36788194324E-01 -0.12212389430E+00 -0.61215096024E-01  0.89129955951E+00  0.88000000000E+00 0.  1.
        -11    1    3    3    0    0 -0.24650205516E-01  0.24959801205E-01  0.31516973062E-02  0.35225255501E-01  0.51100000000E-03 0.  1.
         11    1    3    3    0    0 -0.61777464345E-02  0.63984003133E-01  0.53001934150E-01  0.83316165014E-01  0.51100000000E-03 0. -1.
</event>
<event>
 7    1  0.2039519E+004  0.1043930E+01  0.7957747E-01            NaN
         13   -1    0    0    0    0  0.00000000000E+00  0.00000000000E+00  0.74505805969E-08  0.10566000000E+00  0.10566000000E+00 0. -1.
     999900   -1    0    0    0    0 -0.00000000000E+00 -0.00000000000E+00 -0.74505805969E-08  0.93827000000E+00  0.93827000000E+00 0.  1.
     999903    2    1    2    0    0  0.63447667375E-01 -0.16323201968E-01  0.92232813910E-01  0.12181507996E+00  0.45166008533E-01 0.  0.
         14    1    1    2    0    0  0.16522065156E-02  0.27030593211E-01 -0.25382623043E-01  0.37116846690E-01  0.00000000000E+00 0. -1.
     999901    1    1    2    0    0 -0.65099873890E-01 -0.10707391243E-01 -0.66850190868E-01  0.88499807335E+00  0.88000000000E+00 0.  1.
        -11    1    3    3    0    0  0.53738053617E-01 -0.30944064316E-01  0.71468429222E-01  0.94621937305E-01  0.51100000000E-03 0. -1.
         11    1    3    3    0    0  0.97096137575E-02  0.14620862348E-01  0.20764384689E-01  0.27193142658E-01  0.51100000000E-03 0.  1.
</event>
<event>
 8    1  0.2039519E+004  0.1043930E+01  0.7957747E-01            NaN
         13   -1    0    0    0    0  0.00000000000E+00  0.00000000000E+00  0.74505805969E-08  0.10566000000E+00  0.10566000000E+00 0. -1.
     999900   -1    0    0    0    0 -0.00000000000E+00 -0.00000000000E+00 -0.74505805969E-08  0.93827000000E+00  0.93827000000E+00 0. -1.
     999902    2    1    2    0    0  0.24181232736E-02  0.12825282613E-01  0.53124758184E-02  0.10298389534E+01  0.10297425467E+01 0.  0.
     999903    2    3    3    0    0  0.16976786338E-01 -0.26419394861E-01 -0.12806595032E+00  0.13880477678E+00  0.43355307945E-01 0.  0.
         14    1    1    2    0    0 -0.24181232736E-02 -0.12825282613E-01 -0.53124758184E-02  0.14091046575E-01  0.00000000000E+00 0.  1.
     999901    1    3    3    0    0 -0.14558663064E-01  0.39244677474E-01  0.13337842614E+00  0.89103417664E+00  0.88000000000E+00 0.  1.
        -11    1    4    4    0    0  0.77569696117E-02 -0.36504380551E-01 -0.10992032150E+00  0.11608392902E+00  0.51100000000E-03 0.  1.
         11    1    4    4    0    0  0.92198167263E-02  0.10084985690E-01 -0.18145628828E-01  0.22720847770E-01  0.51100000000E-03 0. -1.
</event>
<event>
 8    1  0.2039519E+004  0.1043930E+01  0.7957747E-01            NaN
         13   -1    0    0    0    0  0.00000000000E+00  0.00000000000E+00  0.74505805969E-08  0.10566000000E+00  0.10566000000E+00 0. -1.
     999900   -1    0    0    0    0 -0.00000000000E+00 -0.00000000000E+00 -0.74505805969E-08  0.93827000000E+00  0.93827000000E+00 0.  1.
     999902    2    1    2    0    0  0.95203509094E-02 -0.72320089148E-02  0.73506556378E-02  0.10298953581E+01  0.10297997269E+01 0.  0.
     999903    2    3    3    0    0  0.11161694937E+00 -0.36902366819E-01  0.65070628181E-01  0.14161857649E+00  0.44738199461E-01 0.  0.
         14    1    1    2    0    0 -0.95203509094E-02  0.72320089148E-02 -0.73506556378E-02  0.14034641880E-01  0.00000000000E+00 0. -1.
     999901    1    3    3    0    0 -0.10209659846E+00  0.29670357905E-01 -0.57719972543E-01  0.88827678163E+00  0.88000000000E+00 0.  1.
        -11    1    4    4    0    0  0.32826578398E-01 -0.17607548744E-01  0.44298506470E-01  0.57881161172E-01  0.51100000000E-03 0. -1.
         11    1    4    4    0    0  0.78790370973E-01 -0.19294818076E-01  0.20772121711E-01  0.83737415317E-01  0.51100000000E-03 0.  1.
</event>
<event>
 8    1  0.2039519E+004  0.1043930E+01  0.7957747E-01            NaN
         13   -1    0    0    0    0  0.00000000000E+00  0.00000000000E+00  0.74505805969E-08  0.10566000000E+00  0.10566000000E+00 0.  1.
     999900   -1    0    0    0    0 -0.00000000000E+00 -0.00000000000E+00 -0.74505805969E-08  0.93827000000E+00  0.93827000000E+00 0. -1.
     999902    2    1    2    0    0  0.36305573505E-02 -0.97334110095E-02 -0.60203051734E-02  0.10319231557E+01  0.10318533010E+01 0.  0.
     999903    2    3    3    0    0 -0.88563404161E-01  0.73318458251E-01 -0.68680552749E-01  0.14101146186E+00  0.44137752246E-01 0.  0.
         14    1    1    2    0    0 -0.36305573505E-02  0.97334110095E-02  0.60203051734E-02  0.12006844337E-01  0.00000000000E+00 0.  1.
     999901    1    3    3    0    0  0.92193961511E-01 -0.83051869260E-01  0.62660247576E-01  0.89091169380E+00  0.88000000000E+00 0.  1.
        -11    1    4    4    0    0 -0.74014434258E-01  0.58554374239E-01 -0.73622142814E-01  0.11969641705E+00  0.51100000000E-03 0. -1.
         11    1    4    4    0    0 -0.14548969903E-01  0.14764084012E-01  0.49415900643E-02  0.21315044811E-01  0.51100000000E-03 0.  1.
</event>
<event>
 8    1  0.2039519E+004  0.1043930E+01  0.7957747E-01            NaN
         13   -1    0    0    0    0  0.00000000000E+00  0.00000000000E+00  0.74505805969E-08  0.10566000000E+00  0.10566000000E+00 0.  1.
     999900   -1    0    0    0    0 -0.00000000000E+00 -0.00000000000E+00 -0.74505805969E-08  0.93827000000E+00  0.93827000000E+00 0.  1.
     999902    2    1    2    0    0  0.12048996323E-01  0.33160141021E-02  0.62927516106E-02  0.10299381100E+01  0.10298430645E+01 0.  0.
     999903    2    3    3    0    0 -0.26996554322E-01  0.39033220280E-01 -0.12036346129E+00  0.13929672872E+00  0.51612106997E-01 0.  0.
         14    1    1    2    0    0 -0.12048996323E-01 -0.33160141021E-02 -0.62927516106E-02  0.13991889963E-01  0.00000000000E+00 0.  1.
     999901    1    3    3    0    0  0.39045550645E-01 -0.35717206178E-01  0.12665621290E+00  0.89064138131E+00  0.88000000000E+00 0. -1.
        -11    1    4    4    0    0  0.11070780234E-01  0.28203892205E-01 -0.46639049198E-01  0.55619095117E-01  0.51100000000E-03 0.  1.
         11    1    4    4    0    0 -0.38067334556E-01  0.10829328075E-01 -0.73724412091E-01  0.83677633606E-01  0.51100000000E-03 0. -1.
</event>
<event>
 8    1  0.2039519E+004  0.1043930E+01  0.7957747E-01            NaN
         13   -1    0    0    0    0  0.00000000000E+00  0.00000000000E+00  0.74505805969E-08  0.10566000000E+00  0.10566000000E+00 0. -1.
     999900   -1    0    0    0    0 -0.00000000000E+00 -0.00000000000E+00 -0.74505805969E-08  0.93827000000E+00  0.93827000000E+00 0. -1.
     999902    2    1    2    0    0 -0.44281188781E-02 -0.11345099462E-01  0.13471102873E-02  0.10316770728E+01  0.10316043080E+01 0.  0.
     999903    2    3    3    0    0 -0.71816803678E-01  0.11199405296E+00  0.87084065054E-02  0.14049360683E+00  0.44297810638E-01 0.  0.
         14    1    1    2    0    0  0.44281188781E-02  0.11345099462E-01 -0.13471102873E-02  0.12252927190E-01  0.00000000000E+00 0. -1.
     999901    1    3    3    0    0  0.67388684800E-01 -0.12333915242E+00 -0.73612962180E-02  0.89118346598E+00  0.88000000000E+00 0. -1.
        -11    1    4    4    0    0 -0.51306171357E-01  0.41807340950E-01  0.12140241296E-01  0.67289104291E-01  0.51100000000E-03 0. -1.
         11    1    4    4    0    0 -0.20510632321E-01  0.70186712007E-01 -0.34318347905E-02  0.73204502536E-01  0.51100000000E-03 0.  1.
</event>
<event>
 8    1  0.2039519E+004  0.1043930E+01  0.7957747E-01            NaN
         13   -1    0    0    0    0  0.00000000000E+00  0.00000000000E+00  0.74505805969E-08  0.10566000000E+00  0.10566000000E+00 0. -1.
     999900   -1    0    0    0    0 -0.00000000000E+00 -0.00000000000E+00 -0.74505805969E-08  0.93827000000E+00  0.93827000000E+00 0.  1.
     999902    2    1    2    0    0  0.99102797302E-02 -0.72652024398E-02 -0.50277976095E-03  0.10316316425E+01  0.10315583338E+01 0.  0.
     999903    2    3    3    0    0  0.12580522638E+00  0.33662040733E-01  0.35144498273E-01  0.14237498303E+00  0.45556690671E-01 0.  0.
         14    1    1    2    0    0 -0.99102797302E-02  0.72652024398E-02  0.50277976095E-03  0.12298357545E-01  0.00000000000E+00 0. -1.
     999901    1    3    3    0    0 -0.11589494665E+00 -0.40927243172E-01 -0.35647278034E-01  0.88925665942E+00  0.88000000000E+00 0.  1.
        -11    1    4    4    0    0  0.67726200458E-01 -0.39964135618E-02  0.92721351192E-02  0.68476588412E-01  0.51100000000E-03 0. -1.
         11    1    4    4    0    0  0.58079025920E-01  0.37658454294E-01  0.25872363154E-01  0.73898394622E-01  0.51100000000E-03 0.  1.
</event>
<event>
 8    1  0.2039519E+004  0.1043930E+01  0.7957747E-01            NaN
         13   -1    0    0    0    0  0.00000000000E+00  0.00000000000E+00  0.74505805969E-08  0.10566000000E+00  0.10566000000E+00 0.  1.
     999900   -1    0    0    0    0 -0.00000000000E+00 -0.00000000000E+00 -0.74505805969E-08  0.93827000000E+00  0.93827000000E+00 0. -1.
     999902    2    1    2    0    0  0.11685235199E-01  0.38827188380E-02  0.61121762281E-02  0.10301830394E+01  0.10300913143E+01 0.  0.
     999903    2    3    3    0    0 -0.76011565967E-01  0.10631545093E+00  0.53281616644E-02  0.13991127853E+00  0.49659271903E-01 0.  0.
         14    1    1    2    0    0 -0.11685235199E-01 -0.38827188380E-02 -0.61121762281E-02  0.13746960591E-01  0.00000000000E+00 0. -1.
     999901    1    3    3    0    0  0.87696801167E-01 -0.10243273209E+00  0.78401456374E-03  0.89027176088E+00  0.88000000000E+00 0. -1.
        -11    1    4    4    0    0 -0.77229400546E-01  0.87023817174E-01 -0.76817349637E-02  0.11660529678E+00  0.51100000000E-03 0. -1.
         11    1    4    4    0    0  0.12178345786E-02  0.19291633757E-01  0.13009896628E-01  0.23305981750E-01  0.51100000000E-03 0.  1.
</event>
<event>
 8    1  0.2039519E+004  0.1043930E+01  0.7957747E-01            NaN
         13   -1    0    0    0    0  0.00000000000E+00  0.00000000000E+00  0.74505805969E-08  0.10566000000E+00  0.10566000000E+00 0.  1.
     999900   -1    0    0    0    0 -0.00000000000E+00 -0.00000000000E+00 -0.74505805969E-08  0.93827000000E+00  0.93827000000E+00 0.  1.
     999902    2    1    2    0    0  0.10201432096E-02  0.12825438793E-02  0.13065946293E-01  0.10307616833E+01  0.10306775651E+01 0.  0.
     999903    2    3    3    0    0  0.26755638685E-01 -0.24809369656E-01  0.12990113358E+00  0.14228345364E+00  0.45154265005E-01 0.  0.
         14    1    1    2    0    0 -0.10201432096E-02 -0.12825438793E-02 -0.13065946293E-01  0.13168316655E-01  0.00000000000E+00 0. -1.
     999901    1    3    3    0    0 -0.25735495476E-01  0.26091913536E-01 -0.11683518729E+00  0.88847822971E+00  0.88000000000E+00 0.  1.
        -11    1    4    4    0    0 -0.47754185701E-02 -0.20764180452E-01  0.82491414467E-01  0.85200060998E-01  0.51100000000E-03 0.  1.
         11    1    4    4    0    0  0.31531057255E-01 -0.40451892048E-02  0.47409719116E-01  0.57083392638E-01  0.51100000000E-03 0. -1.
</event>
<event>
 8    1  0.2039519E+004  0.1043930E+01  0.7957747E-01            NaN
         13   -1    0    0    0    0  0.00000000000E+00  0.00000000000E+00  0.74505805969E-08  0.10566000000E+00  0.10566000000E+00 0.  1.
     999900   -1    0    0    0    0 -0.00000000000E+00 -0.00000000000E+00 -0.74505805969E-08  0.93827000000E+00  0.93827000000E+00 0. -1.
     999902    2    1    2    0    0  0.12743201124E-01 -0.26917913294E-02  0.56526365013E-02  0.10297318588E+01  0.10296339707E+01 0.  0.
     999903    2    3    3    0    0  0.11593818179E+00 -0.67368698859E-01  0.53080562337E-02  0.14134431655E+00  0.44382843293E-01 0.  0.
         14    1    1    2    0    0 -0.12743201124E-01  0.26917913294E-02 -0.56526365013E-02  0.14198141247E-01  0.00000000000E+00 0.  1.
     999901    1    3    3    0    0 -0.10319498066E+00  0.64676907530E-01  0.34458026760E-03  0.88838754220E+00  0.88000000000E+00 0.  1.
        -11    1    4    4    0    0  0.63818469962E-01 -0.61624099135E-01  0.57792164153E-02  0.88904370904E-01  0.51100000000E-03 0. -1.
         11    1    4    4    0    0  0.52119711825E-01 -0.57445997237E-02 -0.47116018167E-03  0.52439945648E-01  0.51100000000E-03 0.  1.
</event>
<event>
 8    1  0.2039519E+004  0.1043930E+01  0.7957747E-01            NaN
         13   -1    0    0    0    0  0.00000000000E+00  0.00000000000E+00  0.74505805969E-08  0.10566000000E+00  0.10566000000E+00 0.  1.
     999900   -1    0    0    0    0 -0.00000000000E+00 -0.00000000000E+00 -0.74505805969E-08  0.93827000000E+00  0.93827000000E+00 0. -1.
     999902    2    1    2    0    0 -0.49923072697E-02 -0.14168007369E-02 -0.13638939323E-01  0.10293371551E+01  0.10292337090E+01 0.  0.
     999903    2    3    3    0    0  0.71697116041E-01 -0.10781433863E+00  0.23135833504E-01  0.13885745987E+00  0.44516506003E-01 0.  0.
         14    1    1    2    0    0  0.49923072697E-02  0.14168007369E-02  0.13638939323E-01  0.14592844893E-01  0.00000000000E+00 0.  1.
     999901    1    3    3    0    0 -0.76689423310E-01  0.10639753789E+00 -0.36774772827E-01  0.89047969524E+00  0.88000000000E+00 0. -1.
        -11    1    4    4    0    0  0.20168670413E-01 -0.56963059133E-01  0.27364383793E-01  0.66337289614E-01  0.51100000000E-03 0. -1.
         11    1    4    4    0    0  0.51528445628E-01 -0.50851279496E-01 -0.42285502887E-02  0.72520170254E-01  0.51100000000E-03 0.  1.
</event>
<event>
 8    1  0.2039519E+004  0.1043930E+01  0.7957747E-01            NaN
         13   -1    0    0    0    0  0.00000000000E+00  0.00000000000E+00  0.74505805969E-08  0.10566000000E+00  0.10566000000E+00 0.  1.
     999900   -1    0    0    0    0 -0.00000000000E+00 -0.00000000000E+00 -0.74505805969E-08  0.93827000000E+00  0.93827000000E+00 0.  1.
     999902    2    1    2    0    0  0.13174112744E-01 -0.10949599451E-01  0.17859247629E-02  0.10267067453E+01  0.10265622730E+01 0.  0.
     999903    2    3    3    0    0  0.97717329915E-01  0.85252910518E-01  0.80784048896E-02  0.13741372622E+00  0.44727354180E-01 0.  0.
         14    1    1    2    0    0 -0.13174112744E-01  0.10949599451E-01 -0.17859247629E-02  0.17223254686E-01  0.00000000000E+00 0.  1.
     999901    1    3    3    0    0 -0.84543217171E-01 -0.96202509970E-01 -0.62924801268E-02  0.88929301909E+00  0.88000000000E+00 0.  1.
        -11    1    4    4    0    0  0.56661825552E-01  0.63063758521E-01  0.23981465374E-01  0.88107729038E-01  0.51100000000E-03 0. -1.
         11    1    4    4    0    0  0.41055504363E-01  0.22189151997E-01 -0.15903060484E-01  0.49305997187E-01  0.51100000000E-03 0.  1.
</event>
<event>
 8    1  0.2039519E+004  0.1043930E+01  0.7957747E-01            NaN
         13   -1    0    0    0    0  0.00000000000E+00  0.00000000000E+00  0.74505805969E-08  0.10566000000E+00  0.10566000000E+00 0.  1.
     999900   -1    0    0    0    0 -0.00000000000E+00 -0.00000000000E+00 -0.74505805969E-08  0.93827000000E+00  0.93827000000E+00 0.  1.
     999902    2    1    2    0    0 -0.73336605925E-02  0.68888427902E-02 -0.97501486541E-02  0.10299191424E+01  0.10298238372E+01 0.  0.
     999903    2    3    3    0    0 -0.68141765317E-01 -0.10257919483E+00  0.46843828708E-01  0.13925435968E+00  0.45073728577E-01 0.  0.
         14    1    1    2    0    0  0.73336605925E-02 -0.68888427902E-02  0.97501486541E-02  0.14010857627E-01  0.00000000000E+00 0.  1.
     999901    1    3    3    0    0  0.60808104725E-01  0.10946803762E+00 -0.56593977362E-01  0.89066478270E+00  0.88000000000E+00 0.  1.
        -11    1    4    4    0    0 -0.52702060506E-01 -0.39453638411E-01  0.28394520750E-01  0.71698024346E-01  0.51100000000E-03 0.  1.
         11    1    4    4    0    0 -0.15439704811E-01 -0.63125556422E-01  0.18449307958E-01  0.67556335331E-01  0.51100000000E-03 0. -1.
</event>
<event>
 7    1  0.2039519E+004  0.1043930E+01  0.7957747E-01            NaN
         13   -1    0    0    0    0  0.00000000000E+00  0.00000000000E+00  0.74505805969E-08  0.10566000000E+00  0.10566000000E+00 0.  1.
     999900   -1    0    0    0    0 -0.00000000000E+00 -0.00000000000E+00 -0.74505805969E-08  0.93827000000E+00  0.93827000000E+00 0.  1.
     999903    2    1    2    0    0  0.30907691727E-01  0.78890595598E-01  0.25994196027E-01  0.99194486823E-01  0.44551503985E-01 0.  0.
         14    1    1    2    0    0 -0.61027466014E-02 -0.21477953351E-01  0.54455546983E-01  0.58855353142E-01  0.00000000000E+00 0.  1.
     999901    1    1    2    0    0 -0.24804945125E-01 -0.57412642248E-01 -0.80449743010E-01  0.88588016003E+00  0.88000000000E+00 0.  1.
        -11    1    3    3    0    0  0.32914966798E-01  0.81395103907E-01  0.31097315369E-01  0.93144308058E-01  0.51100000000E-03 0. -1.
         11    1    3    3    0    0 -0.20072750708E-02 -0.25045083089E-02 -0.51031193422E-02  0.60501787659E-02  0.51100000000E-03 0.  1.
</event>
<event>
 8    1  0.2039519E+004  0.1043930E+01  0.7957747E-01            NaN
         13   -1    0    0    0    0  0.00000000000E+00  0.00000000000E+00  0.74505805969E-08  0.10566000000E+00  0.10566000000E+00 0. -1.
     999900   -1    0    0    0    0 -0.00000000000E+00 -0.00000000000E+00 -0.74505805969E-08  0.93827000000E+00  0.93827000000E+00 0.  1.
     999902    2    1    2    0    0  0.40639245666E-02  0.12426327634E-01 -0.52686964063E-02  0.10298343176E+01  0.10297378469E+01 0.  0.
     999903    2    3    3    0    0 -0.76950799239E-01 -0.44892541161E-01 -0.97635808545E-01  0.13945208414E+00  0.44467593892E-01 0.  0.
         14    1    1    2    0    0 -0.40639245666E-02 -0.12426327634E-01  0.52686964063E-02  0.14095682431E-01  0.00000000000E+00 0. -1.
     999901    1    3    3    0    0  0.81014723806E-01  0.57318868796E-01  0.92367112139E-01  0.89038223342E+00  0.88000000000E+00 0. -1.
        -11    1    4    4    0    0 -0.24679229761E-01 -0.33117133458E-01 -0.64047301886E-01  0.76211068159E-01  0.51100000000E-03 0. -1.
         11    1    4    4    0    0 -0.52271569478E-01 -0.11775407703E-01 -0.33588506660E-01  0.63241015986E-01  0.51100000000E-03 0.  1.
</event>
<event>
 8    1  0.2039519E+004  0.1043930E+01  0.7957747E-01            NaN
         13   -1    0    0    0    0  0.00000000000E+00  0.00000000000E+00  0.74505805969E-08  0.10566000000E+00  0.10566000000E+00 0.  1.
     999900   -1    0    0    0    0 -0.00000000000E+00 -0.00000000000E+00 -0.74505805969E-08  0.93827000000E+00  0.93827000000E+00 0. -1.
     999902    2    1    2    0    0  0.36886876936E-02 -0.10879390954E-01  0.21839916545E-02  0.10322365239E+01  0.10321702882E+01 0.  0.
     999903    2    3    3    0    0  0.40783870692E-01  0.10869440554E+00 -0.65197300956E-01  0.14082517999E+00  0.45861153098E-01 0.  0.
         14    1    1    2    0    0 -0.36886876936E-02  0.10879390954E-01 -0.21839916545E-02  0.11693476129E-01  0.00000000000E+00 0.  1.
     999901    1    3    3    0    0 -0.37095182998E-01 -0.11957379649E+00  0.67381292610E-01  0.89141134388E+00  0.88000000000E+00 0.  1.
        -11    1    4    4    0    0  0.29026822330E-01  0.90845299623E-01 -0.30609124495E-01  0.10016288984E+00  0.51100000000E-03 0. -1.
         11    1    4    4    0    0  0.11757048362E-01  0.17849105913E-01 -0.34588176461E-01  0.40662290147E-01  0.51100000000E-03 0.  1.
</event>
<event>
 7    1  0.2039519E+004  0.1043930E+01  0.7957747E-01            NaN
         13   -1    0    0    0    0  0.00000000000E+00  0.00000000000E+00  0.74505805969E-08  0.10566000000E+00  0.10566000000E+00 0. -1.
     999900   -1    0    0    0    0 -0.00000000000E+00 -0.00000000000E+00 -0.74505805969E-08  0.93827000000E+00  0.93827000000E+00 0. -1.
     999903    2    1    2    0    0  0.30635295082E-01 -0.59667283459E-01 -0.49778724547E-01  0.94532931809E-01  0.44270167818E-01 0.  0.
         14    1    1    2    0    0 -0.23417080679E-01 -0.49568172339E-01 -0.23385574100E-01  0.59600742047E-01  0.00000000000E+00 0.  1.
     999901    1    1    2    0    0 -0.72182144033E-02  0.10923545580E+00  0.73164298647E-01  0.88979632614E+00  0.88000000000E+00 0. -1.
        -11    1    3    3    0    0  0.10625103799E-01 -0.46944908330E-02 -0.30969111078E-01  0.33079873592E-01  0.51100000000E-03 0. -1.
         11    1    3    3    0    0  0.20010191283E-01 -0.54972792626E-01 -0.18809613469E-01  0.61453058217E-01  0.51100000000E-03 0.  1.
</event>
<event>
 7    1  0.2039519E+004  0.1043930E+01  0.7957747E-01            NaN
         13   -1    0    0    0    0  0.00000000000E+00  0.00000000000E+00  0.74505805969E-08  0.10566000000E+00  0.10566000000E+00 0. -1.
     999900   -1    0    0    0    0 -0.00000000000E+00 -0.00000000000E+00 -0.74505805969E-08  0.93827000000E+00  0.93827000000E+00 0. -1.
     999902    2    1    2    0    0  0.32752514161E-02  0.96172060719E-02 -0.83116984258E-02  0.10308036046E+01  0.10307200246E+01 0.  0.
         14    1    1    2    0    0 -0.32752514161E-02 -0.96172060719E-02  0.83116984258E-02  0.13126395362E-01  0.00000000000E+00 0. -1.
     999901    1    3    3    0    0 -0.84359987384E-01  0.85203165028E-01 -0.79561834794E-01  0.89168731759E+00  0.88000000000E+00 0. -1.
        -11    1    3    3    0    0  0.54062422814E-01 -0.48464343587E-01  0.27449597612E-01  0.77622675101E-01  0.51100000000E-03 0. -1.
         11    1    3    3    0    0  0.33572815986E-01 -0.27121615369E-01  0.43800538757E-01  0.61493611943E-01  0.51100000000E-03 0.  1.
</event>
<event>
 8    1  0.2039519E+004  0.1043930E+01  0.7957747E-01            NaN
         13   -1    0    0    0    0  0.00000000000E+00  0.00000000000E+00  0.74505805969E-08  0.10566000000E+00  0.10566000000E+00 0. -1.
     999900   -1    0    0    0    0 -0.00000000000E+00 -0.00000000000E+00 -0.74505805969E-08  0.93827000000E+00  0.93827000000E+00 0. -1.
     999902    2    1    2    0    0  0.37203061257E-02  0.12943925476E-01  0.54795138401E-02  0.10293900221E+01  0.10292873295E+01 0.  0.
     999903    2    3    3    0    0 -0.15471848329E-02  0.61797098961E-01  0.11829696498E+00  0.14082817493E+00  0.44912444945E-01 0.  0.
         14    1    1    2    0    0 -0.37203061257E-02 -0.12943925476E-01 -0.54795138401E-02  0.14539977865E-01  0.00000000000E+00 0. -1.
     999901    1    3    3    0    0  0.52674909586E-02 -0.48853173485E-01 -0.11281745114E+00  0.88856184720E+00  0.88000000000E+00 0. -1.
        -11    1    4    4    0    0  0.53263947332E-02  0.23150146582E-01  0.88248675288E-01  0.91391408670E-01  0.51100000000E-03 0. -1.
         11    1    4    4    0    0 -0.68735795661E-02  0.38646952378E-01  0.30048289691E-01  0.49436766263E-01  0.51100000000E-03 0.  1.
</event>
<event>
 8    1  0.2039519E+004  0.1043930E+01  0.7957747E-01            NaN
         13   -1    0    0    0    0  0.00000000000E+00  0.00000000000E+00  0.74505805969E-08  0.10566000000E+00  0.10566000000E+00 0.  1.
     999900   -1    0    0    0    0 -0.00000000000E+00 -0.00000000000E+00 -0.74505805969E-08  0.93827000000E+00  0.93827000000E+00 0. -1.
     999902    2    1    2    0    0 -0.10130780347E-01  0.63847631476E-02  0.70393889852E-02  0.10300393230E+01  0.10299456568E+01 0.  0.
     999903    2    3    3    0    0  0.94661056645E-01 -0.42305672035E-01 -0.78555280410E-01  0.13836755881E+00  0.47161040277E-01 0.  0.
         14    1    1    2    0    0  0.10130780347E-01 -0.63847631476E-02 -0.70393889852E-02  0.13890677024E-01  0.00000000000E+00 0. -1.
     999901    1    3    3    0    0 -0.10479183699E+00  0.48690435182E-01  0.85594669395E-01  0.89167176416E+00  0.88000000000E+00 0.  1.
        -11    1    4    4    0    0  0.77821927106E-01 -0.12912192989E-01 -0.45674447129E-01  0.91155873688E-01  0.51100000000E-03 0.  1.
         11    1    4    4    0    0  0.16839129539E-01 -0.29393479046E-01 -0.32880833281E-01  0.47211685125E-01  0.51100000000E-03 0. -1.
</event>
<event>
 8    1  0.2039519E+004  0.1043930E+01  0.7957747E-01            NaN
         13   -1    0    0    0    0  0.00000000000E+00  0.00000000000E+00  0.74505805969E-08  0.10566000000E+00  0.10566000000E+00 0.  1.
     999900   -1    0    0    0    0 -0.00000000000E+00 -0.00000000000E+00 -0.74505805969E-08  0.93827000000E+00  0.93827000000E+00 0. -1.
     999902    2    1    2    0    0  0.63915026408E-02 -0.10402917727E-01  0.60504874013E-02  0.10303035404E+01  0.10302134269E+01 0.  0.
     999903    2    3    3    0    0 -0.84475605872E-01  0.83473160094E-01 -0.55431052712E-01  0.13853589737E+00  0.44896512242E-01 0.  0.
         14    1    1    2    0    0 -0.63915026408E-02  0.10402917727E-01 -0.60504874013E-02  0.13626459593E-01  0.00000000000E+00 0. -1.
     999901    1    3    3    0    0  0.90867108513E-01 -0.93876077821E-01  0.61481540113E-01  0.89176764304E+00  0.88000000000E+00 0.  1.
        -11    1    4    4    0    0 -0.53041487368E-01  0.34083893439E-01 -0.48569861724E-01  0.79588967596E-01  0.51100000000E-03 0. -1.
         11    1    4    4    0    0 -0.31434118504E-01  0.49389266655E-01 -0.68611909879E-02  0.58946929772E-01  0.51100000000E-03 0.  1.
</event>
<event>
 8    1  0.2039519E+004  0.1043930E+01  0.7957747E-01            NaN
         13   -1    0    0    0    0  0.00000000000E+00  0.00000000000E+00  0.74505805969E-08  0.10566000000E+00  0.10566000000E+00 0.  1.
     999900   -1    0    0    0    0 -0.00000000000E+00 -0.00000000000E+00 -0.74505805969E-08  0.93827000000E+00  0.93827000000E+00 0. -1.
     999902    2    1    2    0    0  0.12256289757E-01 -0.83396460490E-03  0.63901538233E-02  0.10300827547E+01  0.10299896773E+01 0.  0.
     999903    2    3    3    0    0 -0.80716831238E-01 -0.10306949029E+00 -0.14186771926E-01  0.13906114231E+00  0.44701343683E-01 0.  0.
         14    1    1    2    0    0 -0.12256289757E-01  0.83396460490E-03 -0.63901538233E-02  0.13847245266E-01  0.00000000000E+00 0. -1.
     999901    1    3    3    0    0  0.92973120995E-01  0.10223552569E+00  0.20576925749E-01  0.89102161243E+00  0.88000000000E+00 0. -1.
        -11    1    4    4    0    0 -0.59759088555E-01 -0.58419112086E-01  0.99207880037E-02  0.84158329816E-01  0.51100000000E-03 0.  1.
         11    1    4    4    0    0 -0.20957742683E-01 -0.44650378209E-01 -0.24107559929E-01  0.54902812490E-01  0.51100000000E-03 0. -1.
</event>
<event>
 8    1  0.2039519E+004  0.1043930E+01  0.7957747E-01            NaN
         13   -1    0    0    0    0  0.00000000000E+00  0.00000000000E+00  0.74505805969E-08  0.10566000000E+00  0.10566000000E+00 0. -1.
     999900   -1    0    0    0    0 -0.00000000000E+00 -0.00000000000E+00 -0.74505805969E-08  0.93827000000E+00  0.93827000000E+00 0. -1.
     999902    2    1    2    0    0 -0.53727736599E-02  0.94801722101E-02 -0.74536391775E-02  0.10307278373E+01  0.10306432834E+01 0.  0.
     999903    2    3    3    0    0  0.67437045066E-01  0.10333793388E+00 -0.52314432392E-01  0.14161421136E+00  0.45730748932E-01 0.  0.
         14    1    1    2    0    0  0.53727736599E-02 -0.94801722101E-02  0.74536391775E-02  0.13202162661E-01  0.00000000000E+00 0.  1.
     999901    1    3    3    0    0 -0.72809818726E-01 -0.93857761669E-01  0.44860793214E-01  0.88911362598E+00  0.88000000000E+00 0.  1.
        -11    1    4    4    0    0  0.46138736432E-01  0.92980567346E-01 -0.55510549533E-01  0.11771087942E+00  0.51100000000E-03 0.  1.
         11    1    4    4    0    0  0.21298308634E-01  0.10357366533E-01  0.31961171411E-02  0.23903331942E-01  0.51100000000E-03 0. -1.
</event>
<event>
 8    1  0.2039519E+004  0.1043930E+01  0.7957747E-01            NaN
         13   -1    0    0    0    0  0.00000000000E+00  0.00000000000E+00  0.74505805969E-08  0.10566000000E+00  0.10566000000E+00 0. -1.
     999900   -1    0    0    0    0 -0.00000000000E+00 -0.00000000000E+00 -0.74505805969E-08  0.93827000000E+00  0.93827000000E+00 0. -1.
     999902    2    1    2    0    0  0.10597142990E-01 -0.19469614869E-02  0.66446186456E-02  0.10312713644E+01  0.10311936704E+01 0.  0.
     999903    2    3    3    0    0  0.11264196829E+00 -0.28398519647E-01 -0.66254297675E-01  0.14198677366E+00  0.47706634718E-01 0.  0.
         14    1    1    2    0    0 -0.10597142990E-01  0.19469614869E-02 -0.66446186456E-02  0.12658635611E-01  0.00000000000E+00 0.  1.
     999901    1    3    3    0    0 -0.10204482530E+00  0.26451558160E-01  0.72898916321E-01  0.88928459072E+00  0.88000000000E+00 0.  1.
        -11    1    4    4    0    0  0.88951930140E-01 -0.42788633332E-02 -0.60566003123E-01  0.10769984402E+00  0.51100000000E-03 0. -1.
         11    1    4    4    0    0  0.23690038153E-01 -0.24119656314E-01 -0.56882945522E-02  0.34286929642E-01  0.51100000000E-03 0.  1.
</event>
<event>
 8    1  0.2039519E+004  0.1043930E+01  0.7957747E-01            NaN
         13   -1    0    0    0    0  0.00000000000E+00  0.00000000000E+00  0.74505805969E-08  0.10566000000E+00  0.10566000000E+00 0. -1.
     999900   -1    0    0    0    0 -0.00000000000E+00 -0.00000000000E+00 -0.74505805969E-08  0.93827000000E+00  0.93827000000E+00 0.  1.
     999902    2    1    2    0    0 -0.13322750579E-01  0.30467894416E-02  0.16290215205E-02  0.10301665586E+01  0.10300746119E+01 0.  0.
     999903    2    3    3    0    0  0.19436974625E-01  0.12215220968E+00  0.48722353545E-01  0.14029180185E+00  0.44821463829E-01 0.  0.
         14    1    1    2    0    0  0.13322750579E-01 -0.30467894416E-02 -0.16290215205E-02  0.13763441430E-01  0.00000000000E+00 0.  1.
     999901    1    3    3    0    0 -0.32759725204E-01 -0.11910542024E+00 -0.47093332024E-01  0.88987475672E+00  0.88000000000E+00 0.  1.
        -11    1    4    4    0    0 -0.28913921964E-02 -0.40204042567E-03 -0.40363530763E-02  0.50074996250E-02  0.51100000000E-03 0.  1.
         11    1    4    4    0    0  0.22328366822E-01  0.12255425010E+00  0.52758706621E-01  0.13528430223E+00  0.51100000000E-03 0. -1.
</event>
<event>
 8    1  0.2039519E+004  0.1043930E+01  0.7957747E-01            NaN
         13   -1    0    0    0    0  0.00000000000E+00  0.00000000000E+00  0.74505805969E-08  0.10566000000E+00  0.10566000000E+00 0. -1.
     999900   -1    0    0    0    0 -0.00000000000E+00 -0.00000000000E+00 -0.74505805969E-08  0.93827000000E+00  0.93827000000E+00 0.  1.
     999902    2    1    2    0    0 -0.18068878288E-02  0.47855792994E-02 -0.12400056453E-01  0.10305162752E+01  0.10304289716E+01 0.  0.
     999903    2    3    3    0    0 -0.61441708294E-02  0.63446437824E-01 -0.11933953683E+00  0.14209297474E+00  0.43419893028E-01 0.  0.
         14    1    1    2    0    0  0.18068878288E-02 -0.47855792994E-02  0.12400056453E-01  0.13413724795E-01  0.00000000000E+00 0. -1.
     999901    1    3    3    0    0  0.43372830006E-02 -0.58660858524E-01  0.10693948038E+00  0.88842330047E+00  0.88000000000E+00 0. -1.
        -11    1    4    4    0    0 -0.21276578330E-02  0.42898274947E-01 -0.35644538996E-01  0.55817409493E-01  0.51100000000E-03 0. -1.
         11    1    4    4    0    0 -0.40165129964E-02  0.20548162876E-01 -0.83694997838E-01  0.86275565245E-01  0.51100000000E-03 0.  1.
</event>
<event>
 8    1  0.2297494E+004  0.1043930E+01  0.7957747E-01            NaN
         13   -1    0    0    0    0  0.00000000000E+00  0.00000000000E+00  0.74505805969E-08  0.10566000000E+00  0.10566000000E+00 0. -1.
     999900   -1    0    0    0    0 -0.00000000000E+00 -0.00000000000E+00 -0.74505805969E-08  0.93827000000E+00  0.93827000000E+00 0.  1.
     999902    2    1    2    0    0  0.40926504287E-02 -0.21987335504E-01  0.17131458523E-01  0.10157576806E+01  0.10153669219E+01 0.  0.
     999903    2    3    3    0    0  0.21393579183E-01 -0.65063320818E-01 -0.97811257809E-01  0.12706949529E+00  0.43459101843E-01 0.  0.
         14    1    1    2    0    0 -0.40926504287E-02  0.21987335504E-01 -0.17131458523E-01  0.28172319415E-01  0.00000000000E+00 0.  1.
     999901    1    3    3    0    0 -0.17300928755E-01  0.43075985314E-01  0.11494271633E+00  0.88868818530E+00  0.88000000000E+00 0. -1.
        -11    1    4    4    0    0  0.26279043969E-01 -0.18144690863E-01 -0.26170260133E-01  0.41291180594E-01  0.51100000000E-03 0. -1.
         11    1    4    4    0    0 -0.48854647860E-02 -0.46918629955E-01 -0.71640997676E-01  0.85778314696E-01  0.51100000000E-03 0.  1.
</event>
<event>
 8    1  0.2039519E+004  0.1043930E+01  0.7957747E-01            NaN
         13   -1    0    0    0    0  0.00000000000E+00  0.00000000000E+00  0.74505805969E-08  0.10566000000E+00  0.10566000000E+00 0. -1.
     999900   -1    0    0    0    0 -0.00000000000E+00 -0.00000000000E+00 -0.74505805969E-08  0.93827000000E+00  0.93827000000E+00 0.  1.
     999902    2    1    2    0    0 -0.12844888552E-02  0.74862312906E-02  0.11480040103E-01  0.10301646489E+01  0.10300726765E+01 0.  0.
     999903    2    3    3    0    0 -0.10800905464E+00 -0.51202106713E-01  0.59809408547E-01  0.14046234934E+00  0.43184425626E-01 0.  0.
         14    1    1    2    0    0  0.12844888552E-02 -0.74862312906E-02 -0.11480040103E-01  0.13765351115E-01  0.00000000000E+00 0.  1.
     999901    1    3    3    0    0  0.10672456578E+00  0.58688338003E-01 -0.48329368444E-01  0.88970229954E+00  0.88000000000E+00 0. -1.
        -11    1    4    4    0    0 -0.53746924571E-01 -0.96137761362E-02  0.44407306251E-01  0.70380583700E-01  0.51100000000E-03 0. -1.
         11    1    4    4    0    0 -0.54262130065E-01 -0.41588330576E-01  0.15402102296E-01  0.70081765641E-01  0.51100000000E-03 0.  1.
</event>
<event>
 8    1  0.2039519E+004  0.1043930E+01  0.7957747E-01            NaN
         13   -1    0    0    0    0  0.00000000000E+00  0.00000000000E+00  0.74505805969E-08  0.10566000000E+00  0.10566000000E+00 0. -1.
     999900   -1    0    0    0    0 -0.00000000000E+00 -0.00000000000E+00 -0.74505805969E-08  0.93827000000E+00  0.93827000000E+00 0. -1.
     999902    2    1    2    0    0  0.17845772107E-03  0.40335319339E-02 -0.13435670784E-01  0.10299007992E+01  0.10298052426E+01 0.  0.
     999903    2    3    3    0    0 -0.14284598826E-01  0.12582850528E+00  0.43239817388E-01  0.13958888387E+00  0.39730494417E-01 0.  0.
         14    1    1    2    0    0 -0.17845772107E-03 -0.40335319339E-02  0.13435670784E-01  0.14029200848E-01  0.00000000000E+00 0. -1.
     999901    1    3    3    0    0  0.14463056547E-01 -0.12179497335E+00 -0.56675488173E-01  0.89031191528E+00  0.88000000000E+00 0.  1.
        -11    1    4    4    0    0 -0.11814446628E-01  0.79333023540E-01  0.68674476409E-02  0.80502998275E-01  0.51100000000E-03 0. -1.
         11    1    4    4    0    0 -0.24701521985E-02  0.46495481741E-01  0.36372369747E-01  0.59085885593E-01  0.51100000000E-03 0.  1.
</event>
<event>
 8    1  0.2039519E+004  0.1043930E+01  0.7957747E-01            NaN
         13   -1    0    0    0    0  0.00000000000E+00  0.00000000000E+00  0.74505805969E-08  0.10566000000E+00  0.10566000000E+00 0.  1.
     999900   -1    0    0    0    0 -0.00000000000E+00 -0.00000000000E+00 -0.74505805969E-08  0.93827000000E+00  0.93827000000E+00 0. -1.
     999902    2    1    2    0    0  0.28190083350E-02  0.12039799198E-01  0.72571732447E-02  0.10295922827E+01  0.10294924471E+01 0.  0.
     999903    2    3    3    0    0  0.69831203739E-01  0.10807460363E+00 -0.36703301398E-01  0.14074705362E+00  0.43658719691E-01 0.  0.
         14    1    1    2    0    0 -0.28190083350E-02 -0.12039799198E-01 -0.72571732447E-02  0.14337717260E-01  0.00000000000E+00 0. -1.
     999901    1    3    3    0    0 -0.67012195404E-01 -0.96034804429E-01  0.43960474643E-01  0.88884522912E+00  0.88000000000E+00 0. -1.
        -11    1    4    4    0    0  0.66810254884E-01  0.87149380237E-01 -0.44107542660E-01  0.11834002313E+00  0.51100000000E-03 0. -1.
         11    1    4    4    0    0  0.30209488550E-02  0.20925223390E-01  0.74042412621E-02  0.22407030495E-01  0.51100000000E-03 0.  1.
</event>
<event>
 8    1  0.2039519E+004  0.1043930E+01  0.7957747E-01            NaN
         13   -1    0    0    0    0  0.00000000000E+00  0.00000000000E+00  0.74505805969E-08  0.10566000000E+00  0.10566000000E+00 0. -1.
     999900   -1    0    0    0    0 -0.00000000000E+00 -0.00000000000E+00 -0.74505805969E-08  0.93827000000E+00  0.93827000000E+00 0.  1.
     999902    2    1    2    0    0 -0.10877783592E-01 -0.96696751509E-02  0.10485937064E-01  0.10259916704E+01  0.10258348425E+01 0.  0.
     999903    2    3    3    0    0 -0.10528451982E+00 -0.77665533152E-01 -0.85201048273E-03  0.13826163394E+00  0.44707810767E-01 0.  0.
         14    1    1    2    0    0  0.10877783592E-01  0.96696751509E-02 -0.10485937064E-01  0.17938329619E-01  0.00000000000E+00 0.  1.
     999901    1    3    3    0    0  0.94406736227E-01  0.67995858001E-01  0.11337947547E-01  0.88773003644E+00  0.88000000000E+00 0. -1.
        -11    1    4    4    0    0 -0.28638646735E-01 -0.22702465715E-01 -0.20519747021E-01  0.41915333414E-01  0.51100000000E-03 0. -1.
         11    1    4    4    0    0 -0.76645873084E-01 -0.54963067437E-01  0.19667736538E-01  0.96346300523E-01  0.51100000000E-03 0.  1.
</event>
<event>
 7    1  0.2039519E+004  0.1043930E+01  0.7957747E-01            NaN
         13   -1    0    0    0    0  0.00000000000E+00  0.00000000000E+00  0.74505805969E-08  0.10566000000E+00  0.10566000000E+00 0.  1.
     999900   -1    0    0    0    0 -0.00000000000E+00 -0.00000000000E+00 -0.74505805969E-08  0.93827000000E+00  0.93827000000E+00 0. -1.
     999903    2    1    2    0    0  0.59599830329E-01 -0.42283507114E-01 -0.93371499197E-01  0.12660455337E+00  0.44389653320E-01 0.  0.
         14    1    1    2    0    0  0.52232764235E-02  0.19348468142E-01  0.24939939602E-01  0.31994474888E-01  0.00000000000E+00 0.  1.
     999901    1    1    2    0    0 -0.64823106752E-01  0.22935038973E-01  0.68431559595E-01  0.88533097174E+00  0.88000000000E+00 0.  1.
        -11    1    3    3    0    0  0.90793641365E-02 -0.27526212719E-01 -0.52473186009E-01  0.59948507994E-01  0.51100000000E-03 0. -1.
         11    1    3    3    0    0  0.50520466192E-01 -0.14757294395E-01 -0.40898313188E-01  0.66656045373E-01  0.51100000000E-03 0.  1.
</event>
<event>
 8    1  0.2039519E+004  0.1043930E+01  0.7957747E-01            NaN
         13   -1    0    0    0    0  0.00000000000E+00  0.00000000000E+00  0.74505805969E-08  0.10566000000E+00  0.10566000000E+00 0. -1.
     999900   -1    0    0    0    0 -0.00000000000E+00 -0.00000000000E+00 -0.74505805969E-08  0.93827000000E+00  0.93827000000E+00 0.  1.
     999902    2    1    2    0    0 -0.50009625636E-02  0.12012428387E-01 -0.46530744281E-02  0.10301112025E+01  0.10300185097E+01 0.  0.
     999903    2    3    3    0    0 -0.38603666887E-01  0.90362253358E-01  0.90815221103E-01  0.14085194208E+00  0.44003241649E-01 0.  0.
         14    1    1    2    0    0  0.50009625636E-02 -0.12012428387E-01  0.46530744281E-02  0.13818797486E-01  0.00000000000E+00 0.  1.
     999901    1    3    3    0    0  0.33602704323E-01 -0.78349824971E-01 -0.95468295531E-01  0.88925926043E+00  0.88000000000E+00 0.  1.
        -11    1    4    4    0    0 -0.14116893759E-01  0.18877069595E-01  0.11684195270E-02  0.23606286685E-01  0.51100000000E-03 0. -1.
         11    1    4    4    0    0 -0.24486773128E-01  0.71485183764E-01  0.89646801576E-01  0.11724565540E+00  0.51100000000E-03 0.  1.
</event>
<event>
 8    1  0.2280784E+004  0.1043930E+01  0.7957747E-01            NaN
         13   -1    0    0    0    0  0.00000000000E+00  0.00000000000E+00  0.74505805969E-08  0.10566000000E+00  0.10566000000E+00 0. -1.
     999900   -1    0    0    0    0 -0.00000000000E+00 -0.00000000000E+00 -0.74505805969E-08  0.93827000000E+00  0.93827000000E+00 0.  1.
     999902    2    1    2    0    0  0.21976233283E-02  0.98960264469E-03 -0.13535954693E-01  0.10301811480E+01  0.10300893975E+01 0.  0.
     999903    2    3    3    0    0 -0.12384659022E+00 -0.25801929024E-02 -0.36324717555E-01  0.14090098129E+00  0.56470931610E-01 0.  0.
         14    1    1    2    0    0 -0.21976233283E-02 -0.98960264469E-03  0.13535954693E-01  0.13748851993E-01  0.00000000000E+00 0. -1.
     999901    1    3    3    0    0  0.12604421355E+00  0.35697955471E-02  0.22788762862E-01  0.88928016672E+00  0.88000000000E+00 0. -1.
        -11    1    4    4    0    0 -0.79056825273E-01  0.77358364429E-02  0.43054912102E-02  0.79552643974E-01  0.51100000000E-03 0. -1.
         11    1    4    4    0    0 -0.44789764949E-01 -0.10316029345E-01 -0.40630208765E-01  0.61348337312E-01  0.51100000000E-03 0.  1.
</event>
<event>
 7    1  0.2039519E+004  0.1043930E+01  0.7957747E-01            NaN
         13   -1    0    0    0    0  0.00000000000E+00  0.00000000000E+00  0.74505805969E-08  0.10566000000E+00  0.10566000000E+00 0.  1.
     999900   -1    0    0    0    0 -0.00000000000E+00 -0.00000000000E+00 -0.74505805969E-08  0.93827000000E+00  0.93827000000E+00 0. -1.
     999902    2    1    2    0    0  0.64950678586E-02  0.19936161390E-01  0.16301172711E-01  0.10173712977E+01  0.10170245782E+01 0.  0.
         14    1    1    2    0    0 -0.64950678586E-02 -0.19936161390E-01 -0.16301172711E-01  0.26558702326E-01  0.00000000000E+00 0. -1.
     999901    1    3    3    0    0 -0.31826507826E-02 -0.60592738836E-01  0.98000844322E-01  0.88751663351E+00  0.88000000000E+00 0.  1.
        -11    1    3    3    0    0 -0.10092287747E-01  0.12298870711E-01 -0.49245004905E-01  0.51753725680E-01  0.51100000000E-03 0. -1.
         11    1    3    3    0    0  0.19770006388E-01  0.68230029516E-01 -0.32454666706E-01  0.78100938486E-01  0.51100000000E-03 0.  1.
</event>
<event>
 8    1  0.2039519E+004  0.1043930E+01  0.7957747E-01            NaN
         13   -1    0    0    0    0  0.00000000000E+00  0.00000000000E+00  0.74505805969E-08  0.10566000000E+00  0.10566000000E+00 0. -1.
     999900   -1    0    0    0    0 -0.00000000000E+00 -0.00000000000E+00 -0.74505805969E-08  0.93827000000E+00  0.93827000000E+00 0. -1.
     999902    2    1    2    0    0 -0.80627970895E-02 -0.82800204820E-02 -0.82121346405E-02  0.10297523207E+01  0.10296547166E+01 0.  0.
     999903    2    3    3    0    0 -0.49987494415E-01  0.43553089669E-01  0.11293792355E+00  0.13895397751E+00  0.46450103041E-01 0.  0.
         14    1    1    2    0    0  0.80627970895E-02  0.82800204820E-02  0.82121346405E-02  0.14177679339E-01  0.00000000000E+00 0. -1.
     999901    1    3    3    0    0  0.41924697326E-01 -0.51833110151E-01 -0.12115005819E+00  0.89079834315E+00  0.88000000000E+00 0. -1.
        -11    1    4    4    0    0 -0.11017996272E-01  0.35551269996E-01  0.76177313141E-01  0.84785218043E-01  0.51100000000E-03 0.  1.
         11    1    4    4    0    0 -0.38969498144E-01  0.80018196722E-02  0.36760610413E-01  0.54168759470E-01  0.51100000000E-03 0. -1.
</event>
<event>
 8    1  0.2039519E+004  0.1043930E+01  0.7957747E-01            NaN
         13   -1    0    0    0    0  0.00000000000E+00  0.00000000000E+00  0.74505805969E-08  0.10566000000E+00  0.10566000000E+00 0. -1.
     999900   -1    0    0    0    0 -0.00000000000E+00 -0.00000000000E+00 -0.74505805969E-08  0.93827000000E+00  0.93827000000E+00 0.  1.
     999902    2    1    2    0    0 -0.78518216147E-03  0.13088094404E-01 -0.31299761502E-03  0.10308146390E+01  0.10307312003E+01 0.  0.
     999903    2    3    3    0    0 -0.52463110897E-01  0.38955014847E-01  0.11674850282E+00  0.14118376007E+00  0.45086250779E-01 0.  0.
         14    1    1    2    0    0  0.78518216147E-03 -0.13088094404E-01  0.31299761502E-03  0.13115360981E-01  0.00000000000E+00 0.  1.
     999901    1    3    3    0    0  0.51677928736E-01 -0.25866920443E-01 -0.11706150044E+00  0.88963087895E+00  0.88000000000E+00 0.  1.
        -11    1    4    4    0    0 -0.42627190858E-01  0.42010010512E-01  0.11637634794E+00  0.13086494513E+00  0.51100000000E-03 0.  1.
         11    1    4    4    0    0 -0.98359200393E-02 -0.30549956651E-02  0.37215488756E-03  0.10318814941E-01  0.51100000000E-03 0. -1.
</event>
<event>
 8    1  0.2039519E+004  0.1043930E+01  0.7957747E-01            NaN
         13   -1    0    0    0    0  0.00000000000E+00  0.00000000000E+00  0.74505805969E-08  0.10566000000E+00  0.10566000000E+00 0.  1.
     999900   -1    0    0    0    0 -0.00000000000E+00 -0.00000000000E+00 -0.74505805969E-08  0.93827000000E+00  0.93827000000E+00 0.  1.
     999902    2    1    2    0    0  0.94802765475E-02  0.63344389683E-02  0.50700685560E-02  0.10314517647E+01  0.10313762827E+01 0.  0.
     999903    2    3    3    0    0  0.43786064217E-01 -0.19296808858E-01 -0.12437099456E+00  0.14095255824E+00  0.45933573049E-01 0.  0.
         14    1    1    2    0    0 -0.94802765475E-02 -0.63344389683E-02 -0.50700685560E-02  0.12478235277E-01  0.00000000000E+00 0. -1.
     999901    1    3    3    0    0 -0.34305787670E-01  0.25631247827E-01  0.12944106312E+00  0.89049920649E+00  0.88000000000E+00 0. -1.
        -11    1    4    4    0    0  0.49071540789E-01 -0.29745748865E-02 -0.92142728221E-01  0.10443853549E+00  0.51100000000E-03 0. -1.
         11    1    4    4    0    0 -0.52854765715E-02 -0.16322233972E-01 -0.32228266342E-01  0.36514022742E-01  0.51100000000E-03 0.  1.
</event>
<event>
 8    1  0.2039519E+004  0.1043930E+01  0.7957747E-01            NaN
         13   -1    0    0    0    0  0.00000000000E+00  0.00000000000E+00  0.74505805969E-08  0.10566000000E+00  0.10566000000E+00 0. -1.
     999900   -1    0    0    0    0 -0.00000000000E+00 -0.00000000000E+00 -0.74505805969E-08  0.93827000000E+00  0.93827000000E+00 0.  1.
     999902    2    1    2    0    0  0.13799768401E-02 -0.11038560883E-01  0.10374392280E-01  0.10287187483E+01  0.10286062808E+01 0.  0.
     999903    2    3    3    0    0 -0.75292229151E-01 -0.38063791180E-01  0.10288215207E+00  0.14014310390E+00  0.44017955252E-01 0.  0.
         14    1    1    2    0    0 -0.13799768401E-02  0.11038560883E-01 -0.10374392280E-01  0.15211251678E-01  0.00000000000E+00 0. -1.
     999901    1    3    3    0    0  0.76672205991E-01  0.27025230296E-01 -0.92507759795E-01  0.88857564443E+00  0.88000000000E+00 0.  1.
        -11    1    4    4    0    0 -0.13801453264E-01  0.78312289584E-03 -0.37704216376E-03  0.13838232382E-01  0.51100000000E-03 0. -1.
         11    1    4    4    0    0 -0.61490775887E-01 -0.38846914075E-01  0.10325919424E+00  0.12630487151E+00  0.51100000000E-03 0.  1.
</event>
<event>
 8    1  0.2039519E+004  0.1043930E+01  0.7957747E-01            NaN
         13   -1    0    0    0    0  0.00000000000E+00  0.00000000000E+00  0.74505805969E-08  0.10566000000E+00  0.10566000000E+00 0.  1.
     999900   -1    0    0    0    0 -0.00000000000E+00 -0.00000000000E+00 -0.74505805969E-08  0.93827000000E+00  0.93827000000E+00 0.  1.
     999902    2    1    2    0    0 -0.59484246927E-02  0.68477773729E-02  0.94826338652E-02  0.10308076467E+01  0.10307241184E+01 0.  0.
     999903    2    3    3    0    0  0.89572687711E-01 -0.12932123036E-01 -0.94403396817E-01  0.13934377488E+00  0.48105925600E-01 0.  0.
         14    1    1    2    0    0  0.59484246927E-02 -0.68477773729E-02 -0.94826338652E-02  0.13122353306E-01  0.00000000000E+00 0. -1.
     999901    1    3    3    0    0 -0.95521112404E-01  0.19779900408E-01  0.10388603068E+00  0.89146387181E+00  0.88000000000E+00 0. -1.
        -11    1    4    4    0    0  0.76814327327E-01 -0.65834900377E-03 -0.50312313066E-01  0.91828450238E-01  0.51100000000E-03 0. -1.
         11    1    4    4    0    0  0.12758360384E-01 -0.12273774032E-01 -0.44091083751E-01  0.47515324644E-01  0.51100000000E-03 0.  1.
</event>
<event>
 8    1  0.2039519E+004  0.1043930E+01  0.7957747E-01            NaN
         13   -1    0    0    0    0  0.00000000000E+00  0.00000000000E+00  0.74505805969E-08  0.10566000000E+00  0.10566000000E+00 0. -1.
     999900   -1    0    0    0    0 -0.00000000000E+00 -0.00000000000E+00 -0.74505805969E-08  0.93827000000E+00  0.93827000000E+00 0.  1.
     999902    2    1    2    0    0  0.80962498935E-03 -0.66441156949E-02  0.49987699936E-02  0.10355761106E+01  0.10355424151E+01 0.  0.
     999903    2    3    3    0    0 -0.19974510086E-01 -0.98037259160E-01  0.97734218844E-01  0.14575334715E+00  0.41009455456E-01 0.  0.
         14    1    1    2    0    0 -0.80962498935E-03  0.66441156949E-02 -0.49987699936E-02  0.83538893600E-02  0.00000000000E+00 0.  1.
     999901    1    3    3    0    0  0.20784135075E-01  0.91393143466E-01 -0.92735448850E-01  0.88982276349E+00  0.88000000000E+00 0.  1.
        -11    1    4    4    0    0 -0.39719278317E-02 -0.33005199886E-02  0.24234552445E-01  0.24783952391E-01  0.51100000000E-03 0.  1.
         11    1    4    4    0    0 -0.16002582254E-01 -0.94736739172E-01  0.73499666399E-01  0.12096939476E+00  0.51100000000E-03 0. -1.
</event>
<event>
 8    1  0.2039519E+004  0.1043930E+01  0.7957747E-01            NaN
         13   -1    0    0    0    0  0.00000000000E+00  0.00000000000E+00  0.74505805969E-08  0.10566000000E+00  0.10566000000E+00 0.  1.
     999900   -1    0    0    0    0 -0.00000000000E+00 -0.00000000000E+00 -0.74505805969E-08  0.93827000000E+00  0.93827000000E+00 0. -1.
     999902    2    1    2    0    0 -0.66093631790E-02 -0.10223815964E-01  0.10993032559E-01  0.10275270472E+01  0.10273961144E+01 0.  0.
     999903    2    3    3    0    0 -0.12274323105E+00 -0.38339860876E-02  0.47263073301E-01  0.13913331637E+00  0.45207094664E-01 0.  0.
         14    1    1    2    0    0  0.66093631790E-02  0.10223815964E-01 -0.10993032559E-01  0.16402952763E-01  0.00000000000E+00 0. -1.
     999901    1    3    3    0    0  0.11613386787E+00 -0.63898298766E-02 -0.36270040742E-01  0.88839373087E+00  0.88000000000E+00 0. -1.
        -11    1    4    4    0    0 -0.70473265044E-01 -0.19237609362E-01  0.42291842787E-01  0.84412249036E-01  0.51100000000E-03 0. -1.
         11    1    4    4    0    0 -0.52269966005E-01  0.15403623274E-01  0.49712305133E-02  0.54721067332E-01  0.51100000000E-03 0.  1.
</event>
<event>
 8    1  0.2039519E+004  0.1043930E+01  0.7957747E-01            NaN
         13   -1    0    0    0    0  0.00000000000E+00  0.00000000000E+00  0.74505805969E-08  0.10566000000E+00  0.10566000000E+00 0. -1.
     999900   -1    0    0    0    0 -0.00000000000E+00 -0.00000000000E+00 -0.74505805969E-08  0.93827000000E+00  0.93827000000E+00 0. -1.
     999902    2    1    2    0    0 -0.14890355496E-02  0.76566143471E-02  0.19249060502E-01  0.10231606163E+01  0.10229497932E+01 0.  0.
     999903    2    3    3    0    0 -0.11237723939E+00 -0.55016107141E-01 -0.13862781918E-01  0.13337386773E+00  0.44056734942E-01 0.  0.
         14    1    1    2    0    0  0.14890355496E-02 -0.76566143471E-02 -0.19249060502E-01  0.20769383726E-01  0.00000000000E+00 0. -1.
     999901    1    3    3    0    0  0.11088820384E+00  0.62672721488E-01  0.33111842420E-01  0.88978674854E+00  0.88000000000E+00 0.  1.
        -11    1    4    4    0    0 -0.86606066240E-01 -0.32876133096E-01  0.79783375683E-02  0.92980459389E-01  0.51100000000E-03 0.  1.
         11    1    4    4    0    0 -0.25771173151E-01 -0.22139974045E-01 -0.21841119486E-01  0.40393408344E-01  0.51100000000E-03 0. -1.
</event>
<event>
 8    1  0.2039519E+004  0.1043930E+01  0.7957747E-01            NaN
         13   -1    0    0    0    0  0.00000000000E+00  0.00000000000E+00  0.74505805969E-08  0.10566000000E+00  0.10566000000E+00 0. -1.
     999900   -1    0    0    0    0 -0.00000000000E+00 -0.00000000000E+00 -0.74505805969E-08  0.93827000000E+00  0.93827000000E+00 0. -1.
     999902    2    1    2    0    0  0.13610731178E-02 -0.12761180045E-01 -0.30429051937E-02  0.10307406290E+01  0.10306562398E+01 0.  0.
     999903    2    3    3    0    0  0.13156537578E+00  0.15894880102E-01  0.13653025671E-01  0.14054228909E+00  0.44761977116E-01 0.  0.
         14    1    1    2    0    0 -0.13610731178E-02  0.12761180045E-01  0.30429051937E-02  0.13189371031E-01  0.00000000000E+00 0. -1.
     999901    1    3    3    0    0 -0.13020430266E+00 -0.28656060147E-01 -0.16695930865E-01  0.89019833988E+00  0.88000000000E+00 0.  1.
        -11    1    4    4    0    0  0.11458049394E+00  0.41168003600E-02  0.24426124593E-01  0.11722855591E+00  0.51100000000E-03 0.  1.
         11    1    4    4    0    0  0.16984881842E-01  0.11778079742E-01 -0.10773098922E-01  0.23313733184E-01  0.51100000000E-03 0. -1.
</event>
<event>
 8    1  0.2039519E+004  0.1043930E+01  0.7957747E-01            NaN
         13   -1    0    0    0    0  0.00000000000E+00  0.00000000000E+00  0.74505805969E-08  0.10566000000E+00  0.10566000000E+00 0. -1.
     999900   -1    0    0    0    0 -0.00000000000E+00 -0.00000000000E+00 -0.74505805969E-08  0.93827000000E+00  0.93827000000E+00 0.  1.
     999902    2    1    2    0    0 -0.36121680904E-02  0.68468041981E-02  0.11478081754E-01  0.10300854037E+01  0.10299923621E+01 0.  0.
     999903    2    3    3    0    0 -0.72123482480E-01 -0.65380631693E-01 -0.88390892355E-01  0.13885904935E+00  0.44637002689E-01 0.  0.
         14    1    1    2    0    0  0.36121680904E-02 -0.68468041981E-02 -0.11478081754E-01  0.13844596303E-01  0.00000000000E+00 0.  1.
     999901    1    3    3    0    0  0.68511314390E-01  0.72227435891E-01  0.99868974109E-01  0.89122635435E+00  0.88000000000E+00 0. -1.
        -11    1    4    4    0    0 -0.11015972894E-01 -0.38958942130E-01 -0.31941450363E-01  0.51571971099E-01  0.51100000000E-03 0.  1.
         11    1    4    4    0    0 -0.61107509587E-01 -0.26421689562E-01 -0.56449441993E-01  0.87287078250E-01  0.51100000000E-03 0. -1.
</event>
<event>
 8    1  0.2039519E+004  0.1043930E+01  0.7957747E-01            NaN
         13   -1    0    0    0    0  0.00000000000E+00  0.00000000000E+00  0.74505805969E-08  0.10566000000E+00  0.10566000000E+00 0.  1.
     999900   -1    0    0    0    0 -0.00000000000E+00 -0.00000000000E+00 -0.74505805969E-08  0.93827000000E+00  0.93827000000E+00 0.  1.
     999902    2    1    2    0    0  0.11490202358E-01 -0.72070120699E-02 -0.21933505090E-02  0.10301904018E+01  0.10300987755E+01 0.  0.
     999903    2    3    3    0    0  0.56098402926E-01  0.99633489352E-01  0.68146002055E-01  0.13982395540E+00  0.42813524674E-01 0.  0.
         14    1    1    2    0    0 -0.11490202358E-01  0.72070120699E-02  0.21933505090E-02  0.13739598235E-01  0.00000000000E+00 0.  1.
     999901    1    3    3    0    0 -0.44608200568E-01 -0.10684050142E+00 -0.70339352564E-01  0.89036644637E+00  0.88000000000E+00 0.  1.
        -11    1    4    4    0    0  0.37016496352E-01  0.90985459062E-01  0.43378821081E-01  0.10738043585E+00  0.51100000000E-03 0. -1.
         11    1    4    4    0    0  0.19081906574E-01  0.86480302903E-02  0.24767180974E-01  0.32443519550E-01  0.51100000000E-03 0.  1.
</event>
<event>
 7    1  0.2039519E+004  0.1043930E+01  0.7957747E-01            NaN
         13   -1    0    0    0    0  0.00000000000E+00  0.00000000000E+00  0.74505805969E-08  0.10566000000E+00  0.10566000000E+00 0.  1.
     999900   -1    0    0    0    0 -0.00000000000E+00 -0.00000000000E+00 -0.74505805969E-08  0.93827000000E+00  0.93827000000E+00 0.  1.
     999903    2    1    2    0    0 -0.96020788842E-01  0.55760040044E-02  0.54799806119E-01  0.11961345772E+00  0.45313097511E-01 0.  0.
         14    1    1    2    0    0  0.24167121245E-01 -0.28951967350E-01 -0.13695042126E-01  0.40122566487E-01  0.00000000000E+00 0. -1.
     999901    1    1    2    0    0  0.71853667597E-01  0.23375963345E-01 -0.41104763993E-01  0.88419397580E+00  0.88000000000E+00 0.  1.
        -11    1    3    3    0    0 -0.89508625767E-01 -0.61459042219E-02  0.36361560662E-01  0.96809041108E-01  0.51100000000E-03 0. -1.
         11    1    3    3    0    0 -0.65121630747E-02  0.11721908226E-01  0.18438245457E-01  0.22804416610E-01  0.51100000000E-03 0.  1.
</event>
<event>
 8    1  0.2039519E+004  0.1043930E+01  0.7957747E-01            NaN
         13   -1    0    0    0    0  0.00000000000E+00  0.00000000000E+00  0.74505805969E-08  0.10566000000E+00  0.10566000000E+00 0.  1.
     999900   -1    0    0    0    0 -0.00000000000E+00 -0.00000000000E+00 -0.74505805969E-08  0.93827000000E+00  0.93827000000E+00 0.  1.
     999902    2    1    2    0    0  0.83341931220E-02  0.12121896131E-01 -0.21562211049E-02  0.10290623025E+01  0.10289548940E+01 0.  0.
     999903    2    3    3    0    0 -0.83937340042E-01  0.89906942800E-01  0.39089617850E-01  0.13986841553E+00  0.53911409014E-01 0.  0.
         14    1    1    2    0    0 -0.83341931220E-02 -0.12121896131E-01  0.21562211049E-02  0.14867697544E-01  0.00000000000E+00 0.  1.
     999901    1    3    3    0    0  0.92271533164E-01 -0.77785046669E-01 -0.41245838955E-01  0.88919388693E+00  0.88000000000E+00 0.  1.
        -11    1    4    4    0    0 -0.34330555699E-01  0.54280335334E-01  0.45124009653E-01  0.78494453478E-01  0.51100000000E-03 0. -1.
         11    1    4    4    0    0 -0.49606784343E-01  0.35626607466E-01 -0.60343918034E-02  0.61373962051E-01  0.51100000000E-03 0.  1.
</event>
<event>
 8    1  0.2039519E+004  0.1043930E+01  0.7957747E-01            NaN
         13   -1    0    0    0    0  0.00000000000E+00  0.00000000000E+00  0.74505805969E-08  0.10566000000E+00  0.10566000000E+00 0. -1.
     999900   -1    0    0    0    0 -0.00000000000E+00 -0.00000000000E+00 -0.74505805969E-08  0.93827000000E+00  0.93827000000E+00 0. -1.
     999902    2    1    2    0    0 -0.10368214460E-01  0.27512135861E-02 -0.87622485431E-02  0.10300791500E+01  0.10299860238E+01 0.  0.
     999903    2    3    3    0    0 -0.16684534851E-02  0.12849219681E+00  0.32782275794E-01  0.14012834896E+00  0.45257576146E-01 0.  0.
         14    1    1    2    0    0  0.10368214460E-01 -0.27512135861E-02  0.87622485431E-02  0.13850850040E-01  0.00000000000E+00 0. -1.
     999901    1    3    3    0    0 -0.86997609751E-02 -0.12574098322E+00 -0.41544524337E-01  0.88995080100E+00  0.88000000000E+00 0. -1.
        -11    1    4    4    0    0 -0.13491160632E-01  0.10436327837E+00  0.11523308893E-01  0.10586195283E+00  0.51100000000E-03 0. -1.
         11    1    4    4    0    0  0.11822707147E-01  0.24128918434E-01  0.21258966901E-01  0.34266396131E-01  0.51100000000E-03 0.  1.
</event>
<event>
 8    1  0.2039519E+004  0.1043930E+01  0.7957747E-01            NaN
         13   -1    0    0    0    0  0.00000000000E+00  0.00000000000E+00  0.74505805969E-08  0.10566000000E+00  0.10566000000E+00 0.  1.
     999900   -1    0    0    0    0 -0.00000000000E+00 -0.00000000000E+00 -0.74505805969E-08  0.93827000000E+00  0.93827000000E+00 0.  1.
     999902    2    1    2    0    0  0.73263791110E-03  0.11659687210E-01 -0.70599273264E-02  0.10302798118E+01  0.10301893821E+01 0.  0.
     999903    2    3    3    0    0 -0.10807697821E+00  0.56055718618E-01  0.53224693326E-01  0.14042320781E+00  0.45419516783E-01 0.  0.
         14    1    1    2    0    0 -0.73263791110E-03 -0.11659687210E-01  0.70599273264E-02  0.13650188204E-01  0.00000000000E+00 0.  1.
     999901    1    3    3    0    0  0.10880961612E+00 -0.44396031408E-01 -0.60284620652E-01  0.88985660398E+00  0.88000000000E+00 0.  1.
        -11    1    4    4    0    0 -0.28632307229E-01  0.18084899107E-01  0.38275676604E-01  0.51109305743E-01  0.51100000000E-03 0. -1.
         11    1    4    4    0    0 -0.79444670978E-01  0.37970819511E-01  0.14949016721E-01  0.89313902071E-01  0.51100000000E-03 0.  1.
</event>
<event>
 8    1  0.2039519E+004  0.1043930E+01  0.7957747E-01            NaN
         13   -1    0    0    0    0  0.00000000000E+00  0.00000000000E+00  0.74505805969E-08  0.10566000000E+00  0.10566000000E+00 0. -1.
     999900   -1    0    0    0    0 -0.00000000000E+00 -0.00000000000E+00 -0.74505805969E-08  0.93827000000E+00  0.93827000000E+00 0. -1.
     999902    2    1    2    0    0  0.98260011776E-02  0.64007740671E-02 -0.75456210419E-02  0.10299852302E+01  0.10298908281E+01 0.  0.
     999903    2    3    3    0    0  0.43063736925E-01  0.12721960465E+00 -0.19733254445E-01  0.14102489627E+00  0.38200874230E-01 0.  0.
         14    1    1    2    0    0 -0.98260011776E-02 -0.64007740671E-02  0.75456210419E-02  0.13944769798E-01  0.00000000000E+00 0. -1.
     999901    1    3    3    0    0 -0.33237735748E-01 -0.12081883058E+00  0.12187633403E-01  0.88896033393E+00  0.88000000000E+00 0.  1.
        -11    1    4    4    0    0  0.25996367313E-01  0.61480446874E-01 -0.28420754147E-01  0.72551063732E-01  0.51100000000E-03 0. -1.
         11    1    4    4    0    0  0.17067369612E-01  0.65739157773E-01  0.86874997015E-02  0.68473832537E-01  0.51100000000E-03 0.  1.
</event>
<event>
 8    1  0.2039519E+004  0.1043930E+01  0.7957747E-01            NaN
         13   -1    0    0    0    0  0.00000000000E+00  0.00000000000E+00  0.74505805969E-08  0.10566000000E+00  0.10566000000E+00 0. -1.
     999900   -1    0    0    0    0 -0.00000000000E+00 -0.00000000000E+00 -0.74505805969E-08  0.93827000000E+00  0.93827000000E+00 0.  1.
     999902    2    1    2    0    0 -0.54015373081E-02 -0.37546774359E-02 -0.12343734139E-01  0.10299427923E+01  0.10298478108E+01 0.  0.
     999903    2    3    3    0    0 -0.69312863078E-01 -0.83847610685E-01  0.75141986446E-01  0.13968817316E+00  0.45075190382E-01 0.  0.
         14    1    1    2    0    0  0.54015373081E-02  0.37546774359E-02  0.12343734139E-01  0.13987207743E-01  0.00000000000E+00 0. -1.
     999901    1    3    3    0    0  0.63911325770E-01  0.80092933249E-01 -0.87485720585E-01  0.89025461910E+00  0.88000000000E+00 0.  1.
        -11    1    4    4    0    0 -0.23007624750E-01 -0.62807880813E-01  0.42982605478E-01  0.79510667105E-01  0.51100000000E-03 0. -1.
         11    1    4    4    0    0 -0.46305238328E-01 -0.21039729872E-01  0.32159380968E-01  0.60177506054E-01  0.51100000000E-03 0.  1.
</event>
<event>
 8    1  0.2039519E+004  0.1043930E+01  0.7957747E-01            NaN
         13   -1    0    0    0    0  0.00000000000E+00  0.00000000000E+00  0.74505805969E-08  0.10566000000E+00  0.10566000000E+00 0.  1.
     999900   -1    0    0    0    0 -0.00000000000E+00 -0.00000000000E+00 -0.74505805969E-08  0.93827000000E+00  0.93827000000E+00 0.  1.
     999902    2    1    2    0    0 -0.86628557841E-02 -0.18873853432E-02 -0.11044124045E-01  0.10297673742E+01  0.10296699787E+01 0.  0.
     999903    2    3    3    0    0 -0.10166854292E+00  0.76344861494E-01 -0.40803341700E-01  0.14091645682E+00  0.45027820429E-01 0.  0.
         14    1    1    2    0    0  0.86628557841E-02  0.18873853432E-02  0.11044124045E-01  0.14162625805E-01  0.00000000000E+00 0.  1.
     999901    1    3    3    0    0  0.93005687136E-01 -0.78232246837E-01  0.29759217656E-01  0.88885091738E+00  0.88000000000E+00 0.  1.
        -11    1    4    4    0    0 -0.62737782829E-01  0.70696854868E-01 -0.20807087569E-01  0.96784661473E-01  0.51100000000E-03 0.  1.
         11    1    4    4    0    0 -0.38930760091E-01  0.56480066261E-02 -0.19996254132E-01  0.44131795346E-01  0.51100000000E-03 0. -1.
</event>
<event>
 8    1  0.2039519E+004  0.1043930E+01  0.7957747E-01            NaN
         13   -1    0    0    0    0  0.00000000000E+00  0.00000000000E+00  0.74505805969E-08  0.10566000000E+00  0.10566000000E+00 0.  1.
     999900   -1    0    0    0    0 -0.00000000000E+00 -0.00000000000E+00 -0.74505805969E-08  0.93827000000E+00  0.93827000000E+00 0.  1.
     999902    2    1    2    0    0 -0.66036557863E-02 -0.44746888127E-02 -0.11741100984E-01  0.10297354742E+01  0.10296376364E+01 0.  0.
     999903    2    3    3    0    0 -0.68299772052E-01  0.35763803065E-01 -0.10951861599E+00  0.14126150756E+00  0.44906322475E-01 0.  0.
         14    1    1    2    0    0  0.66036557863E-02  0.44746888127E-02  0.11741100984E-01  0.14194525777E-01  0.00000000000E+00 0.  1.
     999901    1    3    3    0    0  0.61696116266E-01 -0.40238491878E-01  0.97777515008E-01  0.88847396666E+00  0.88000000000E+00 0. -1.
        -11    1    4    4    0    0 -0.39534000271E-01  0.27865871587E-01 -0.97987346844E-01  0.10927591335E+00  0.51100000000E-03 0.  1.
         11    1    4    4    0    0 -0.28765771781E-01  0.78979314773E-02 -0.11531269148E-01  0.31985594210E-01  0.51100000000E-03 0. -1.
</event>
<event>
 8    1  0.2039519E+004  0.1043930E+01  0.7957747E-01            NaN
         13   -1    0    0    0    0  0.00000000000E+00  0.00000000000E+00  0.74505805969E-08  0.10566000000E+00  0.10566000000E+00 0. -1.
     999900   -1    0    0    0    0 -0.00000000000E+00 -0.00000000000E+00 -0.74505805969E-08  0.93827000000E+00  0.93827000000E+00 0.  1.
     999902    2    1    2    0    0 -0.89371757893E-02  0.15339898067E-02  0.92728152453E-02  0.10309603686E+01  0.10308787855E+01 0.  0.
     999903    2    3    3    0    0  0.42352110558E-01  0.11075895645E+00 -0.59261919974E-01  0.14008568934E+00  0.45285510879E-01 0.  0.
         14    1    1    2    0    0  0.89371757893E-02 -0.15339898067E-02 -0.92728152453E-02  0.12969631390E-01  0.00000000000E+00 0. -1.
     999901    1    3    3    0    0 -0.51289286347E-01 -0.10922496665E+00  0.68534735220E-01  0.89087467927E+00  0.88000000000E+00 0. -1.
        -11    1    4    4    0    0  0.42352946546E-01  0.47383030332E-01 -0.29459478376E-01  0.70050307863E-01  0.51100000000E-03 0. -1.
         11    1    4    4    0    0 -0.83598772782E-06  0.63375926121E-01 -0.29802441598E-01  0.70035381477E-01  0.51100000000E-03 0.  1.
</event>
<event>
 8    1  0.2039519E+004  0.1043930E+01  0.7957747E-01            NaN
         13   -1    0    0    0    0  0.00000000000E+00  0.00000000000E+00  0.74505805969E-08  0.10566000000E+00  0.10566000000E+00 0. -1.
     999900   -1    0    0    0    0 -0.00000000000E+00 -0.00000000000E+00 -0.74505805969E-08  0.93827000000E+00  0.93827000000E+00 0.  1.
     999902    2    1    2    0    0 -0.59704373314E-02  0.12316620573E-01 -0.51993563129E-02  0.10292883276E+01  0.10291841831E+01 0.  0.
     999903    2    3    3    0    0  0.54937806582E-01 -0.35429784102E-01  0.11293714385E+00  0.13802755432E+00  0.44981941894E-01 0.  0.
         14    1    1    2    0    0  0.59704373314E-02 -0.12316620573E-01  0.51993563129E-02  0.14641672388E-01  0.00000000000E+00 0. -1.
     999901    1    3    3    0    0 -0.60908243913E-01  0.47746404675E-01 -0.11813650017E+00  0.89126077329E+00  0.88000000000E+00 0. -1.
        -11    1    4    4    0    0  0.49759934872E-01 -0.39843316681E-01  0.11448012787E+00  0.13103244560E+00  0.51100000000E-03 0. -1.
         11    1    4    4    0    0  0.51778717096E-02  0.44135325789E-02 -0.15429840188E-02  0.69951087160E-02  0.51100000000E-03 0.  1.
</event>
<event>
 8    1  0.2039519E+004  0.1043930E+01  0.7957747E-01            NaN
         13   -1    0    0    0    0  0.00000000000E+00  0.00000000000E+00  0.74505805969E-08  0.10566000000E+00  0.10566000000E+00 0. -1.
     999900   -1    0    0    0    0 -0.00000000000E+00 -0.00000000000E+00 -0.74505805969E-08  0.93827000000E+00  0.93827000000E+00 0. -1.
     999902    2    1    2    0    0  0.11238044688E-01 -0.59365930814E-02 -0.55549404152E-02  0.10300593782E+01  0.10299659841E+01 0.  0.
     999903    2    3    3    0    0  0.11077338544E+00  0.11253438688E-01 -0.74447951371E-01  0.14160621219E+00  0.45961277863E-01 0.  0.
         14    1    1    2    0    0 -0.11238044688E-01  0.59365930814E-02  0.55549404152E-02  0.13870621790E-01  0.00000000000E+00 0. -1.
     999901    1    3    3    0    0 -0.99535340755E-01 -0.17190031769E-01  0.68893010956E-01  0.88845316602E+00  0.88000000000E+00 0.  1.
        -11    1    4    4    0    0  0.75075759480E-01  0.29126675761E-01 -0.49396688522E-01  0.94472360298E-01  0.51100000000E-03 0. -1.
         11    1    4    4    0    0  0.35697625963E-01 -0.17873237073E-01 -0.25051262849E-01  0.47133851892E-01  0.51100000000E-03 0.  1.
</event>
<event>
 8    1  0.2039519E+004  0.1043930E+01  0.7957747E-01            NaN
         13   -1    0    0    0    0  0.00000000000E+00  0.00000000000E+00  0.74505805969E-08  0.10566000000E+00  0.10566000000E+00 0.  1.
     999900   -1    0    0    0    0 -0.00000000000E+00 -0.00000000000E+00 -0.74505805969E-08  0.93827000000E+00  0.93827000000E+00 0. -1.
     999902    2    1    2    0    0  0.10865258722E-01  0.62032636777E-02  0.62425541476E-02  0.10299477323E+01  0.10298528184E+01 0.  0.
     999903    2    3    3    0    0 -0.10073522166E+00  0.64141433271E-01  0.55780504644E-01  0.13963008829E+00  0.46080239946E-01 0.  0.
         14    1    1    2    0    0 -0.10865258722E-01 -0.62032636777E-02 -0.62425541476E-02  0.13982267685E-01  0.00000000000E+00 0. -1.
     999901    1    3    3    0    0  0.11160048038E+00 -0.57938169593E-01 -0.49537950496E-01  0.89031764402E+00  0.88000000000E+00 0.  1.
        -11    1    4    4    0    0 -0.45583537549E-01  0.29541781128E-01  0.50729967693E-01  0.74326082036E-01  0.51100000000E-03 0. -1.
         11    1    4    4    0    0 -0.55151684111E-01  0.34599652143E-01  0.50505369503E-02  0.65304006257E-01  0.51100000000E-03 0.  1.
</event>
<event>
 8    1  0.2039519E+004  0.1043930E+01  0.7957747E-01            NaN
         13   -1    0    0    0    0  0.00000000000E+00  0.00000000000E+00  0.74505805969E-08  0.10566000000E+00  0.10566000000E+00 0.  1.
     999900   -1    0    0    0    0 -0.00000000000E+00 -0.00000000000E+00 -0.74505805969E-08  0.93827000000E+00  0.93827000000E+00 0.  1.
     999902    2    1    2    0    0  0.52317892589E-02  0.13024240709E-01 -0.28238857347E-02  0.10296129893E+01  0.10295134438E+01 0.  0.
     999903    2    3    3    0    0 -0.82395536617E-01 -0.92794798856E-01 -0.41185341400E-01  0.13812669178E+00  0.44529220596E-01 0.  0.
         14    1    1    2    0    0 -0.52317892589E-02 -0.13024240709E-01  0.28238857347E-02  0.14317010705E-01  0.00000000000E+00 0. -1.
     999901    1    3    3    0    0  0.87627325876E-01  0.10581903956E+00  0.38361455665E-01  0.89148629751E+00  0.88000000000E+00 0. -1.
        -11    1    4    4    0    0 -0.47887524946E-01 -0.80458989789E-01 -0.19833537062E-01  0.95710471719E-01  0.51100000000E-03 0. -1.
         11    1    4    4    0    0 -0.34508011671E-01 -0.12335809067E-01 -0.21351804337E-01  0.42416220061E-01  0.51100000000E-03 0.  1.
</event>
<event>
 8    1  0.2039519E+004  0.1043930E+01  0.7957747E-01            NaN
         13   -1    0    0    0    0  0.00000000000E+00  0.00000000000E+00  0.74505805969E-08  0.10566000000E+00  0.10566000000E+00 0. -1.
     999900   -1    0    0    0    0 -0.00000000000E+00 -0.00000000000E+00 -0.74505805969E-08  0.93827000000E+00  0.93827000000E+00 0. -1.
     999902    2    1    2    0    0 -0.10121290726E-01 -0.55009650149E-02 -0.11568432548E-01  0.10276042604E+01  0.10274745672E+01 0.  0.
     999903    2    3    3    0    0 -0.13250860952E-01 -0.93828357722E-01 -0.91879814973E-01  0.13953813636E+00  0.45273005977E-01 0.  0.
         14    1    1    2    0    0  0.10121290726E-01  0.55009650149E-02  0.11568432548E-01  0.16325739606E-01  0.00000000000E+00 0. -1.
     999901    1    3    3    0    0  0.31295702255E-02  0.88327392707E-01  0.80311382425E-01  0.88806612404E+00  0.88000000000E+00 0.  1.
        -11    1    4    4    0    0  0.15416524382E-01 -0.31356028420E-01 -0.20839782010E-01  0.40686943576E-01  0.51100000000E-03 0. -1.
         11    1    4    4    0    0 -0.28667385334E-01 -0.62472329301E-01 -0.71040032963E-01  0.98851192783E-01  0.51100000000E-03 0.  1.
</event>
<event>
 8    1  0.2039519E+004  0.1043930E+01  0.7957747E-01            NaN
         13   -1    0    0    0    0  0.00000000000E+00  0.00000000000E+00  0.74505805969E-08  0.10566000000E+00  0.10566000000E+00 0. -1.
     999900   -1    0    0    0    0 -0.00000000000E+00 -0.00000000000E+00 -0.74505805969E-08  0.93827000000E+00  0.93827000000E+00 0.  1.
     999902    2    1    2    0    0 -0.47037931040E-02 -0.62817586655E-02 -0.11336832436E-01  0.10301419642E+01  0.10300496864E+01 0.  0.
     999903    2    3    3    0    0 -0.60201058565E-01 -0.45886352040E-01 -0.11110513960E+00  0.14188401439E+00  0.45354125917E-01 0.  0.
         14    1    1    2    0    0  0.47037931040E-02  0.62817586655E-02  0.11336832436E-01  0.13788035799E-01  0.00000000000E+00 0. -1.
     999901    1    3    3    0    0  0.55497265461E-01  0.39604593374E-01  0.99768307164E-01  0.88825794981E+00  0.88000000000E+00 0. -1.
        -11    1    4    4    0    0 -0.31629340664E-01  0.79418775736E-03 -0.55331312371E-01  0.63740577145E-01  0.51100000000E-03 0. -1.
         11    1    4    4    0    0 -0.28571717901E-01 -0.46680539797E-01 -0.55773827229E-01  0.78143437244E-01  0.51100000000E-03 0.  1.
</event>
<event>
 8    1  0.2039519E+004  0.1043930E+01  0.7957747E-01            NaN
         13   -1    0    0    0    0  0.00000000000E+00  0.00000000000E+00  0.74505805969E-08  0.10566000000E+00  0.10566000000E+00 0. -1.
     999900   -1    0    0    0    0 -0.00000000000E+00 -0.00000000000E+00 -0.74505805969E-08  0.93827000000E+00  0.93827000000E+00 0.  1.
     999902    2    1    2    0    0  0.32817809769E-02 -0.50901247677E-02  0.12074049349E-01  0.10304221458E+01  0.10303336045E+01 0.  0.
     999903    2    3    3    0    0  0.87551502197E-01 -0.60540751496E-02  0.10509858521E+00  0.14151501942E+00  0.35761302347E-01 0.  0.
         14    1    1    2    0    0 -0.32817809769E-02  0.50901247677E-02 -0.12074049349E-01  0.13507854168E-01  0.00000000000E+00 0.  1.
     999901    1    3    3    0    0 -0.84269721220E-01  0.96395038188E-03 -0.93024535859E-01  0.88890712641E+00  0.88000000000E+00 0.  1.
        -11    1    4    4    0    0  0.12068299761E-01 -0.12480685377E-01  0.10407964649E-01  0.20248412672E-01  0.51100000000E-03 0. -1.
         11    1    4    4    0    0  0.75483202436E-01  0.64266102275E-02  0.94690620560E-01  0.12126660675E+00  0.51100000000E-03 0.  1.
</event>
<event>
 8    1  0.2039519E+004  0.1043930E+01  0.7957747E-01            NaN
         13   -1    0    0    0    0  0.00000000000E+00  0.00000000000E+00  0.74505805969E-08  0.10566000000E+00  0.10566000000E+00 0. -1.
     999900   -1    0    0    0    0 -0.00000000000E+00 -0.00000000000E+00 -0.74505805969E-08  0.93827000000E+00  0.93827000000E+00 0.  1.
     999902    2    1    2    0    0  0.80269346043E-02  0.13730101069E-01 -0.96098369815E-03  0.10279966750E+01  0.10278731892E+01 0.  0.
     999903    2    3    3    0    0  0.61961278958E-02 -0.60241688747E-02  0.12632553836E+00  0.13861742988E+00  0.56408932017E-01 0.  0.
         14    1    1    2    0    0 -0.80269346043E-02 -0.13730101069E-01  0.96098369815E-03  0.15933324957E-01  0.00000000000E+00 0. -1.
     999901    1    3    3    0    0  0.18308067085E-02  0.19754269944E-01 -0.12728652206E+00  0.88937924517E+00  0.88000000000E+00 0.  1.
        -11    1    4    4    0    0  0.26419201460E-01 -0.15816156509E-01  0.96351359512E-01  0.10115320367E+00  0.51100000000E-03 0.  1.
         11    1    4    4    0    0 -0.20223073565E-01  0.97919876340E-02  0.29974178851E-01  0.37464226203E-01  0.51100000000E-03 0. -1.
</event>
<event>
 8    1  0.2039519E+004  0.1043930E+01  0.7957747E-01            NaN
         13   -1    0    0    0    0  0.00000000000E+00  0.00000000000E+00  0.74505805969E-08  0.10566000000E+00  0.10566000000E+00 0.  1.
     999900   -1    0    0    0    0 -0.00000000000E+00 -0.00000000000E+00 -0.74505805969E-08  0.93827000000E+00  0.93827000000E+00 0. -1.
     999902    2    1    2    0    0  0.85378486003E-02  0.23062006960E-02  0.12654768321E-01  0.10284911988E+01  0.10283753155E+01 0.  0.
     999903    2    3    3    0    0 -0.92045352967E-01 -0.81706370718E-01 -0.41043085014E-01  0.13716715447E+00  0.44519831758E-01 0.  0.
         14    1    1    2    0    0 -0.85378486003E-02 -0.23062006960E-02 -0.12654768321E-01  0.15438801172E-01  0.00000000000E+00 0.  1.
     999901    1    3    3    0    0  0.10058320157E+00  0.84012571414E-01  0.53697853336E-01  0.89132404436E+00  0.88000000000E+00 0.  1.
        -11    1    4    4    0    0 -0.88212620328E-01 -0.57136327734E-01 -0.39388805373E-01  0.11223976765E+00  0.51100000000E-03 0.  1.
         11    1    4    4    0    0 -0.38327326384E-02 -0.24570042984E-01 -0.16542796418E-02  0.24927386824E-01  0.51100000000E-03 0. -1.
</event>
<event>
 8    1  0.2039519E+004  0.1043930E+01  0.7957747E-01            NaN
         13   -1    0    0    0    0  0.00000000000E+00  0.00000000000E+00  0.74505805969E-08  0.10566000000E+00  0.10566000000E+00 0. -1.
     999900   -1    0    0    0    0 -0.00000000000E+00 -0.00000000000E+00 -0.74505805969E-08  0.93827000000E+00  0.93827000000E+00 0.  1.
     999902    2    1    2    0    0 -0.19056221049E-02  0.14410594912E-01 -0.21530293421E-02  0.10292353691E+01  0.10291304645E+01 0.  0.
     999903    2    3    3    0    0  0.17042219339E-01 -0.12071073399E+00 -0.48822092536E-01  0.13749841481E+00  0.40751672566E-01 0.  0.
         14    1    1    2    0    0  0.19056221049E-02 -0.14410594912E-01  0.21530293421E-02  0.14694630879E-01  0.00000000000E+00 0.  1.
     999901    1    3    3    0    0 -0.18947841444E-01  0.13512132890E+00  0.46669063194E-01  0.89173695431E+00  0.88000000000E+00 0.  1.
        -11    1    4    4    0    0 -0.10279867159E-01 -0.11342189614E-01 -0.20614186278E-02  0.15454174252E-01  0.51100000000E-03 0.  1.
         11    1    4    4    0    0  0.27322086498E-01 -0.10936854437E+00 -0.46760673908E-01  0.12204424056E+00  0.51100000000E-03 0. -1.
</event>
<event>
 8    1  0.2039519E+004  0.1043930E+01  0.7957747E-01            NaN
         13   -1    0    0    0    0  0.00000000000E+00  0.00000000000E+00  0.74505805969E-08  0.10566000000E+00  0.10566000000E+00 0. -1.
     999900   -1    0    0    0    0 -0.00000000000E+00 -0.00000000000E+00 -0.74505805969E-08  0.93827000000E+00  0.93827000000E+00 0.  1.
     999902    2    1    2    0    0  0.83433022855E-02  0.15466696367E-02 -0.94230914453E-02  0.10312494033E+01  0.10311714379E+01 0.  0.
     999903    2    3    3    0    0  0.29472792850E-01  0.11571113521E+00 -0.62319716774E-01  0.14204861972E+00  0.45125945252E-01 0.  0.
         14    1    1    2    0    0 -0.83433022855E-02 -0.15466696367E-02  0.94230914453E-02  0.12680596689E-01  0.00000000000E+00 0.  1.
     999901    1    3    3    0    0 -0.21129490565E-01 -0.11416446557E+00  0.52896625328E-01  0.88920078359E+00  0.88000000000E+00 0.  1.
        -11    1    4    4    0    0 -0.11171719584E-01  0.41394869391E-01 -0.18846030735E-01  0.46837768156E-01  0.51100000000E-03 0. -1.
         11    1    4    4    0    0  0.40644512434E-01  0.74316265820E-01 -0.43473686039E-01  0.95210851562E-01  0.51100000000E-03 0.  1.
</event>
<event>
 8    1  0.2039519E+004  0.1043930E+01  0.7957747E-01            NaN
         13   -1    0    0    0    0  0.00000000000E+00  0.00000000000E+00  0.74505805969E-08  0.10566000000E+00  0.10566000000E+00 0.  1.
     999900   -1    0    0    0    0 -0.00000000000E+00 -0.00000000000E+00 -0.74505805969E-08  0.93827000000E+00  0.93827000000E+00 0. -1.
     999902    2    1    2    0    0 -0.15597045899E-02  0.10794495019E-01  0.87172430772E-02  0.10299677606E+01  0.10298731203E+01 0.  0.
     999903    2    3    3    0    0 -0.12407266267E+00  0.39864402519E-01  0.29348028938E-01  0.14076580734E+00  0.44390421326E-01 0.  0.
         14    1    1    2    0    0  0.15597045899E-02 -0.10794495019E-01 -0.87172430772E-02  0.13962239361E-01  0.00000000000E+00 0. -1.
     999901    1    3    3    0    0  0.12251295808E+00 -0.29069907501E-01 -0.20630785861E-01  0.88920195330E+00  0.88000000000E+00 0.  1.
        -11    1    4    4    0    0 -0.54888255942E-02 -0.53346527114E-02  0.96686843213E-02  0.12342216311E-01  0.51100000000E-03 0. -1.
         11    1    4    4    0    0 -0.11858383707E+00  0.45199055231E-01  0.19679344616E-01  0.12842359103E+00  0.51100000000E-03 0.  1.
</event>
<event>
 7    1  0.2039519E+004  0.1043930E+01  0.7957747E-01            NaN
         13   -1    0    0    0    0  0.00000000000E+00  0.00000000000E+00  0.74505805969E-08  0.10566000000E+00  0.10566000000E+00 0. -1.
     999900   -1    0    0    0    0 -0.00000000000E+00 -0.00000000000E+00 -0.74505805969E-08  0.93827000000E+00  0.93827000000E+00 0. -1.
     999903    2    1    2    0    0 -0.10725484650E+00  0.28001811787E-01 -0.52909637272E-02  0.11966087955E+00  0.44755203460E-01 0.  0.
         14    1    1    2    0    0  0.97351968235E-02 -0.37355686946E-01 -0.37639009252E-02  0.38786445501E-01  0.00000000000E+00 0.  1.
     999901    1    1    2    0    0  0.97519649679E-01  0.93538751594E-02  0.90548646524E-02  0.88548267495E+00  0.88000000000E+00 0. -1.
        -11    1    3    3    0    0 -0.10269078658E+00  0.25758283180E-01 -0.16678433165E-01  0.10717890676E+00  0.51100000000E-03 0. -1.
         11    1    3    3    0    0 -0.45640599228E-02  0.22435286067E-02  0.11387469438E-01  0.12481972792E-01  0.51100000000E-03 0.  1.
</event>
<event>
 8    1  0.2039519E+004  0.1043930E+01  0.7957747E-01            NaN
         13   -1    0    0    0    0  0.00000000000E+00  0.00000000000E+00  0.74505805969E-08  0.10566000000E+00  0.10566000000E+00 0. -1.
     999900   -1    0    0    0    0 -0.00000000000E+00 -0.00000000000E+00 -0.74505805969E-08  0.93827000000E+00  0.93827000000E+00 0. -1.
     999902    2    1    2    0    0  0.10192740382E-01  0.93622278422E-02 -0.25640955167E-03  0.10300877093E+01  0.10299946989E+01 0.  0.
     999903    2    3    3    0    0 -0.38434376224E-01  0.45840264080E-01  0.11883380566E+00  0.13998787052E+00  0.43549964844E-01 0.  0.
         14    1    1    2    0    0 -0.10192740382E-01 -0.93622278422E-02  0.25640955167E-03  0.13842290725E-01  0.00000000000E+00 0. -1.
     999901    1    3    3    0    0  0.48627116606E-01 -0.36478036238E-01 -0.11909021521E+00  0.89009983876E+00  0.88000000000E+00 0. -1.
        -11    1    4    4    0    0 -0.86088697057E-02  0.42447890221E-01  0.60841947514E-01  0.74685605843E-01  0.51100000000E-03 0.  1.
         11    1    4    4    0    0 -0.29825506518E-01  0.33923738586E-02  0.57991858145E-01  0.65302264674E-01  0.51100000000E-03 0. -1.
</event>
<event>
 8    1  0.2039519E+004  0.1043930E+01  0.7957747E-01            NaN
         13   -1    0    0    0    0  0.00000000000E+00  0.00000000000E+00  0.74505805969E-08  0.10566000000E+00  0.10566000000E+00 0.  1.
     999900   -1    0    0    0    0 -0.00000000000E+00 -0.00000000000E+00 -0.74505805969E-08  0.93827000000E+00  0.93827000000E+00 0.  1.
     999902    2    1    2    0    0  0.44100493587E-02  0.76340059046E-02  0.10356762335E-01  0.10303289299E+01  0.10302391541E+01 0.  0.
     999903    2    3    3    0    0  0.19211122054E-01  0.11263008162E+00  0.71000248278E-01  0.14189160513E+00  0.45139670523E-01 0.  0.
         14    1    1    2    0    0 -0.44100493587E-02 -0.76340059046E-02 -0.10356762335E-01  0.13601070089E-01  0.00000000000E+00 0. -1.
     999901    1    3    3    0    0 -0.14801072696E-01 -0.10499607572E+00 -0.60643485943E-01  0.88843732478E+00  0.88000000000E+00 0.  1.
        -11    1    4    4    0    0  0.95852085436E-02  0.12820167962E-01  0.29098251534E-01  0.33214489198E-01  0.51100000000E-03 0. -1.
         11    1    4    4    0    0  0.96259135108E-02  0.99809913661E-01  0.41901996745E-01  0.10867711594E+00  0.51100000000E-03 0.  1.
</event>
<event>
 8    1  0.2039519E+004  0.1043930E+01  0.7957747E-01            NaN
         13   -1    0    0    0    0  0.00000000000E+00  0.00000000000E+00  0.74505805969E-08  0.10566000000E+00  0.10566000000E+00 0.  1.
     999900   -1    0    0    0    0 -0.00000000000E+00 -0.00000000000E+00 -0.74505805969E-08  0.93827000000E+00  0.93827000000E+00 0. -1.
     999902    2    1    2    0    0 -0.83158670235E-02 -0.10596972217E-02 -0.11754790168E-01  0.10294921437E+01  0.10293908987E+01 0.  0.
     999903    2    3    3    0    0  0.77890390204E-01 -0.27343657032E-01  0.10091337821E+00  0.13774303017E+00  0.44441467032E-01 0.  0.
         14    1    1    2    0    0  0.83158670235E-02  0.10596972217E-02  0.11754790168E-01  0.14437856297E-01  0.00000000000E+00 0.  1.
     999901    1    3    3    0    0 -0.86206257228E-01  0.26283959810E-01 -0.11266816838E+00  0.89174911354E+00  0.88000000000E+00 0. -1.
        -11    1    4    4    0    0  0.47544345475E-01 -0.32261839771E-01  0.41610291354E-01  0.70943418015E-01  0.51100000000E-03 0. -1.
         11    1    4    4    0    0  0.30346044729E-01  0.49181827386E-02  0.59303086854E-01  0.66799612152E-01  0.51100000000E-03 0.  1.
</event>
<event>
 8    1  0.2048980E+004  0.1043930E+01  0.7957747E-01            NaN
         13   -1    0    0    0    0  0.00000000000E+00  0.00000000000E+00  0.74505805969E-08  0.10566000000E+00  0.10566000000E+00 0.  1.
     999900   -1    0    0    0    0 -0.00000000000E+00 -0.00000000000E+00 -0.74505805969E-08  0.93827000000E+00  0.93827000000E+00 0.  1.
     999902    2    1    2    0    0 -0.10938683703E-01 -0.86536374780E-02  0.12752442612E-02  0.10299240552E+01  0.10298288173E+01 0.  0.
     999903    2    3    3    0    0 -0.32457460161E-01  0.11738143109E+00  0.50502215802E-01  0.13932246580E+00  0.45037635273E-01 0.  0.
         14    1    1    2    0    0  0.10938683703E-01  0.86536374780E-02 -0.12752442612E-02  0.14005944833E-01  0.00000000000E+00 0.  1.
     999901    1    3    3    0    0  0.21518776458E-01 -0.12603506857E+00 -0.49226971541E-01  0.89060158936E+00  0.88000000000E+00 0.  1.
        -11    1    4    4    0    0 -0.14422767362E-01  0.40136793167E-01  0.41464384180E-01  0.59485583636E-01  0.51100000000E-03 0. -1.
         11    1    4    4    0    0 -0.18034692799E-01  0.77244637926E-01  0.90378316220E-02  0.79836882167E-01  0.51100000000E-03 0.  1.
</event>
<event>
 8    1  0.2039519E+004  0.1043930E+01  0.7957747E-01            NaN
         13   -1    0    0    0    0  0.00000000000E+00  0.00000000000E+00  0.74505805969E-08  0.10566000000E+00  0.10566000000E+00 0.  1.
     999900   -1    0    0    0    0 -0.00000000000E+00 -0.00000000000E+00 -0.74505805969E-08  0.93827000000E+00  0.93827000000E+00 0. -1.
     999902    2    1    2    0    0  0.75430234235E-03  0.85878320045E-02  0.11225268600E-01  0.10297763261E+01  0.10296790545E+01 0.  0.
     999903    2    3    3    0    0  0.73938690548E-01  0.91831565195E-01  0.64170455717E-01  0.14124457839E+00  0.43956992756E-01 0.  0.
         14    1    1    2    0    0 -0.75430234235E-03 -0.85878320045E-02 -0.11225268600E-01  0.14153673930E-01  0.00000000000E+00 0. -1.
     999901    1    3    3    0    0 -0.73184388206E-01 -0.83243733190E-01 -0.52945187117E-01  0.88853174768E+00  0.88000000000E+00 0. -1.
        -11    1    4    4    0    0  0.44415293351E-02  0.12937089573E-01  0.26013070013E-01  0.29394496117E-01  0.51100000000E-03 0. -1.
         11    1    4    4    0    0  0.69497161213E-01  0.78894475621E-01  0.38157385704E-01  0.11185008228E+00  0.51100000000E-03 0.  1.
</event>
<event>
 8    1  0.2039519E+004  0.1043930E+01  0.7957747E-01            NaN
         13   -1    0    0    0    0  0.00000000000E+00  0.00000000000E+00  0.74505805969E-08  0.10566000000E+00  0.10566000000E+00 0.  1.
     999900   -1    0    0    0    0 -0.00000000000E+00 -0.00000000000E+00 -0.74505805969E-08  0.93827000000E+00  0.93827000000E+00 0.  1.
     999902    2    1    2    0    0  0.11596908155E-01 -0.72043584522E-02 -0.20902107984E-02  0.10301184092E+01  0.10300258137E+01 0.  0.
     999903    2    3    3    0    0  0.46423622119E-01 -0.11306755109E+00 -0.55206398574E-01  0.14150080585E+00  0.45114385869E-01 0.  0.
         14    1    1    2    0    0 -0.11596908155E-01  0.72043584522E-02  0.20902107984E-02  0.13811590808E-01  0.00000000000E+00 0. -1.
     999901    1    3    3    0    0 -0.34826713964E-01  0.10586319264E+00  0.53116187775E-01  0.88861760334E+00  0.88000000000E+00 0. -1.
        -11    1    4    4    0    0  0.14807918909E-03  0.56347194318E-03 -0.11089840340E-01  0.11116883909E-01  0.51100000000E-03 0. -1.
         11    1    4    4    0    0  0.46275542930E-01 -0.11363102304E+00 -0.44116558233E-01  0.13038392194E+00  0.51100000000E-03 0.  1.
</event>
<event>
 8    1  0.2039519E+004  0.1043930E+01  0.7957747E-01            NaN
         13   -1    0    0    0    0  0.00000000000E+00  0.00000000000E+00  0.74505805969E-08  0.10566000000E+00  0.10566000000E+00 0.  1.
     999900   -1    0    0    0    0 -0.00000000000E+00 -0.00000000000E+00 -0.74505805969E-08  0.93827000000E+00  0.93827000000E+00 0. -1.
     999902    2    1    2    0    0 -0.14920444754E-02  0.91440331788E-02 -0.10325283376E-01  0.10300573284E+01  0.10299639066E+01 0.  0.
     999903    2    3    3    0    0 -0.70851096780E-01  0.34251893244E-01 -0.10876777613E+00  0.14150119225E+00  0.44711163907E-01 0.  0.
         14    1    1    2    0    0  0.14920444754E-02 -0.91440331788E-02  0.10325283376E-01  0.13872671563E-01  0.00000000000E+00 0.  1.
     999901    1    3    3    0    0  0.69359052305E-01 -0.25107860066E-01  0.98442492756E-01  0.88855613619E+00  0.88000000000E+00 0.  1.
        -11    1    4    4    0    0 -0.17302178471E-02 -0.23751830319E-02 -0.31180277966E-01  0.31322611693E-01  0.51100000000E-03 0. -1.
         11    1    4    4    0    0 -0.69120878933E-01  0.36627076276E-01 -0.77587498166E-01  0.11017858056E+00  0.51100000000E-03 0.  1.
</event>
<event>
 8    1  0.2244152E+004  0.1043930E+01  0.7957747E-01            NaN
         13   -1    0    0    0    0  0.00000000000E+00  0.00000000000E+00  0.74505805969E-08  0.10566000000E+00  0.10566000000E+00 0.  1.
     999900   -1    0    0    0    0 -0.00000000000E+00 -0.00000000000E+00 -0.74505805969E-08  0.93827000000E+00  0.93827000000E+00 0.  1.
     999902    2    1    2    0    0 -0.81301175510E-02  0.10793941376E-01  0.86365670423E-03  0.10303891771E+01  0.10303002001E+01 0.  0.
     999903    2    3    3    0    0 -0.87428089671E-01  0.10052205865E+00  0.22295394836E-01  0.14202065965E+00  0.43868302877E-01 0.  0.
         14    1    1    2    0    0  0.81301175510E-02 -0.10793941376E-01 -0.86365670423E-03  0.13540822897E-01  0.00000000000E+00 0. -1.
     999901    1    3    3    0    0  0.79297972120E-01 -0.89728117269E-01 -0.21431738131E-01  0.88836851746E+00  0.88000000000E+00 0.  1.
        -11    1    4    4    0    0 -0.41589354279E-01  0.37444527466E-01  0.30290554332E-01  0.63636041904E-01  0.51100000000E-03 0.  1.
         11    1    4    4    0    0 -0.45838735392E-01  0.63077531179E-01 -0.79951594963E-02  0.78384617741E-01  0.51100000000E-03 0. -1.
</event>
<event>
 8    1  0.2039519E+004  0.1043930E+01  0.7957747E-01            NaN
         13   -1    0    0    0    0  0.00000000000E+00  0.00000000000E+00  0.74505805969E-08  0.10566000000E+00  0.10566000000E+00 0.  1.
     999900   -1    0    0    0    0 -0.00000000000E+00 -0.00000000000E+00 -0.74505805969E-08  0.93827000000E+00  0.93827000000E+00 0.  1.
     999902    2    1    2    0    0 -0.92107990188E-02  0.32394983684E-02 -0.84772549967E-02  0.10309995313E+01  0.10309184432E+01 0.  0.
     999903    2    3    3    0    0 -0.12083250202E+00 -0.54105961365E-01 -0.24078120664E-01  0.14195999713E+00  0.45220971783E-01 0.  0.
         14    1    1    2    0    0  0.92107990188E-02 -0.32394983684E-02  0.84772549967E-02  0.12930468689E-01  0.00000000000E+00 0.  1.
     999901    1    3    3    0    0  0.11162170300E+00  0.57345459734E-01  0.15600865668E-01  0.88903953418E+00  0.88000000000E+00 0.  1.
        -11    1    4    4    0    0 -0.72292624938E-01 -0.16697338562E-01  0.45120498534E-02  0.74334678652E-01  0.51100000000E-03 0.  1.
         11    1    4    4    0    0 -0.48539877085E-01 -0.37408622803E-01 -0.28590170518E-01  0.67625318474E-01  0.51100000000E-03 0. -1.
</event>
<event>
 8    1  0.2039519E+004  0.1043930E+01  0.7957747E-01            NaN
         13   -1    0    0    0    0  0.00000000000E+00  0.00000000000E+00  0.74505805969E-08  0.10566000000E+00  0.10566000000E+00 0. -1.
     999900   -1    0    0    0    0 -0.00000000000E+00 -0.00000000000E+00 -0.74505805969E-08  0.93827000000E+00  0.93827000000E+00 0.  1.
     999902    2    1    2    0    0 -0.14432303519E-01 -0.37017302931E-02 -0.35724557445E-02  0.10286082301E+01  0.10284941101E+01 0.  0.
     999903    2    3    3    0    0 -0.94563619395E-01 -0.88064823235E-01 -0.33866037978E-01  0.14043265044E+00  0.43321237002E-01 0.  0.
         14    1    1    2    0    0  0.14432303519E-01  0.37017302931E-02  0.35724557445E-02  0.15321769874E-01  0.00000000000E+00 0. -1.
     999901    1    3    3    0    0  0.80131315876E-01  0.84363092942E-01  0.30293582233E-01  0.88817557969E+00  0.88000000000E+00 0. -1.
        -11    1    4    4    0    0 -0.41614097699E-02 -0.24236462311E-01 -0.12987504892E-01  0.27814741432E-01  0.51100000000E-03 0.  1.
         11    1    4    4    0    0 -0.90402209625E-01 -0.63828360925E-01 -0.20878533086E-01  0.11261790900E+00  0.51100000000E-03 0. -1.
</event>
<event>
 8    1  0.2039519E+004  0.1043930E+01  0.7957747E-01            NaN
         13   -1    0    0    0    0  0.00000000000E+00  0.00000000000E+00  0.74505805969E-08  0.10566000000E+00  0.10566000000E+00 0.  1.
     999900   -1    0    0    0    0 -0.00000000000E+00 -0.00000000000E+00 -0.74505805969E-08  0.93827000000E+00  0.93827000000E+00 0.  1.
     999902    2    1    2    0    0  0.81378083930E-02  0.29777039203E-02  0.10322255289E-01  0.10304526264E+01  0.10303644868E+01 0.  0.
     999903    2    3    3    0    0  0.12779820590E+00  0.22348960210E-01 -0.32588039547E-01  0.14110727740E+00  0.44915765167E-01 0.  0.
         14    1    1    2    0    0 -0.81378083930E-02 -0.29777039203E-02 -0.10322255289E-01  0.13477373643E-01  0.00000000000E+00 0. -1.
     999901    1    3    3    0    0 -0.11966039751E+00 -0.19371256289E-01  0.42910294836E-01  0.88934534895E+00  0.88000000000E+00 0. -1.
        -11    1    4    4    0    0  0.10173611161E+00  0.13344737041E-02 -0.34847517970E-01  0.10754825826E+00  0.51100000000E-03 0. -1.
         11    1    4    4    0    0  0.26062094291E-01  0.21014486505E-01  0.22594784235E-02  0.33559019141E-01  0.51100000000E-03 0.  1.
</event>
<event>
 8    1  0.2039519E+004  0.1043930E+01  0.7957747E-01            NaN
         13   -1    0    0    0    0  0.00000000000E+00  0.00000000000E+00  0.74505805969E-08  0.10566000000E+00  0.10566000000E+00 0. -1.
     999900   -1    0    0    0    0 -0.00000000000E+00 -0.00000000000E+00 -0.74505805969E-08  0.93827000000E+00  0.93827000000E+00 0. -1.
     999902    2    1    2    0    0 -0.25173298384E-02 -0.11531585630E-01 -0.72342185651E-02  0.10300862890E+01  0.10299932594E+01 0.  0.
     999903    2    3    3    0    0 -0.52423187232E-01 -0.10040835313E+00 -0.71460365053E-01  0.14187760162E+00  0.46825656758E-01 0.  0.
         14    1    1    2    0    0  0.25173298384E-02  0.11531585630E-01  0.72342185651E-02  0.13843711023E-01  0.00000000000E+00 0. -1.
     999901    1    3    3    0    0  0.49905857394E-01  0.88876767497E-01  0.64226146488E-01  0.88820868736E+00  0.88000000000E+00 0.  1.
        -11    1    4    4    0    0 -0.49192799697E-03 -0.50406025141E-01 -0.27168548560E-01  0.57266050287E-01  0.51100000000E-03 0. -1.
         11    1    4    4    0    0 -0.51931259235E-01 -0.50002327986E-01 -0.44291816493E-01  0.84611551333E-01  0.51100000000E-03 0.  1.
</event>
<event>
 8    1  0.2247623E+004  0.1043930E+01  0.7957747E-01            NaN
         13   -1    0    0    0    0  0.00000000000E+00  0.00000000000E+00  0.74505805969E-08  0.10566000000E+00  0.10566000000E+00 0.  1.
     999900   -1    0    0    0    0 -0.00000000000E+00 -0.00000000000E+00 -0.74505805969E-08  0.93827000000E+00  0.93827000000E+00 0.  1.
     999902    2    1    2    0    0  0.13381707651E-01  0.23208161696E-02  0.40846201074E-02  0.10297476022E+01  0.10296499326E+01 0.  0.
     999903    2    3    3    0    0 -0.92999353007E-01 -0.82147652432E-01 -0.40694181179E-01  0.13820007493E+00  0.45234144934E-01 0.  0.
         14    1    1    2    0    0 -0.13381707651E-01 -0.23208161696E-02 -0.40846201074E-02  0.14182397850E-01  0.00000000000E+00 0. -1.
     999901    1    3    3    0    0  0.10638106066E+00  0.84468468602E-01  0.44778801286E-01  0.89154752722E+00  0.88000000000E+00 0.  1.
        -11    1    4    4    0    0 -0.17530020440E-01 -0.42167533902E-01 -0.22353909961E-01  0.50846444748E-01  0.51100000000E-03 0. -1.
         11    1    4    4    0    0 -0.75469332568E-01 -0.39980118530E-01 -0.18340271218E-01  0.87353630178E-01  0.51100000000E-03 0.  1.
</event>
<event>
 8    1  0.2039519E+004  0.1043930E+01  0.7957747E-01            NaN
         13   -1    0    0    0    0  0.00000000000E+00  0.00000000000E+00  0.74505805969E-08  0.10566000000E+00  0.10566000000E+00 0.  1.
     999900   -1    0    0    0    0 -0.00000000000E+00 -0.00000000000E+00 -0.74505805969E-08  0.93827000000E+00  0.93827000000E+00 0.  1.
     999902    2    1    2    0    0 -0.12290284685E-01 -0.61661684672E-02  0.79939492513E-05  0.10301796256E+01  0.10300878546E+01 0.  0.
     999903    2    3    3    0    0  0.68504989905E-01  0.92520442099E-01  0.65134300972E-01  0.13860329163E+00  0.41417743042E-01 0.  0.
         14    1    1    2    0    0  0.12290284685E-01  0.61661684672E-02 -0.79939492513E-05  0.13750374362E-01  0.00000000000E+00 0.  1.
     999901    1    3    3    0    0 -0.80795274590E-01 -0.98686610566E-01 -0.65126307023E-01  0.89157633401E+00  0.88000000000E+00 0.  1.
        -11    1    4    4    0    0  0.69181880685E-01  0.92352888941E-01  0.53942840972E-01  0.12737849082E+00  0.51100000000E-03 0.  1.
         11    1    4    4    0    0 -0.67689077980E-03  0.16755315756E-03  0.11191460000E-01  0.11224800805E-01  0.51100000000E-03 0. -1.
</event>
<event>
 8    1  0.2039519E+004  0.1043930E+01  0.7957747E-01            NaN
         13   -1    0    0    0    0  0.00000000000E+00  0.00000000000E+00  0.74505805969E-08  0.10566000000E+00  0.10566000000E+00 0.  1.
     999900   -1    0    0    0    0 -0.00000000000E+00 -0.00000000000E+00 -0.74505805969E-08  0.93827000000E+00  0.93827000000E+00 0.  1.
     999902    2    1    2    0    0  0.11949222526E-01 -0.43174077849E-02 -0.32526639165E-02  0.10308149799E+01  0.10307315456E+01 0.  0.
     999903    2    3    3    0    0  0.26324707845E-01  0.12996626476E+00  0.66973271437E-02  0.14045675898E+00  0.45815136502E-01 0.  0.
         14    1    1    2    0    0 -0.11949222526E-01  0.43174077849E-02  0.32526639165E-02  0.13115020073E-01  0.00000000000E+00 0. -1.
     999901    1    3    3    0    0 -0.14375485319E-01 -0.13428367254E+00 -0.99499910602E-02  0.89035822095E+00  0.88000000000E+00 0.  1.
        -11    1    4    4    0    0  0.25427441761E-01  0.27716248353E-01  0.66595754653E-02  0.38201522007E-01  0.51100000000E-03 0.  1.
         11    1    4    4    0    0  0.89726608395E-03  0.10225001641E+00  0.37751678473E-04  0.10225523697E+00  0.51100000000E-03 0. -1.
</event>
<event>
 8    1  0.2039519E+004  0.1043930E+01  0.7957747E-01            NaN
         13   -1    0    0    0    0  0.00000000000E+00  0.00000000000E+00  0.74505805969E-08  0.10566000000E+00  0.10566000000E+00 0. -1.
     999900   -1    0    0    0    0 -0.00000000000E+00 -0.00000000000E+00 -0.74505805969E-08  0.93827000000E+00  0.93827000000E+00 0.  1.
     999902    2    1    2    0    0 -0.62382542603E-02 -0.75607879224E-02  0.10964352863E-01  0.10292229145E+01  0.10291178307E+01 0.  0.
     999903    2    3    3    0    0  0.12750899958E+00 -0.24815183883E-01 -0.18100434313E-01  0.13847558560E+00  0.44424359984E-01 0.  0.
         14    1    1    2    0    0  0.62382542603E-02  0.75607879224E-02 -0.10964352863E-01  0.14707085501E-01  0.00000000000E+00 0. -1.
     999901    1    3    3    0    0 -0.13374725384E+00  0.17254395961E-01  0.29064787176E-01  0.89074732890E+00  0.88000000000E+00 0.  1.
        -11    1    4    4    0    0  0.75279704124E-01 -0.29125229325E-01 -0.27409676269E-01  0.85245904948E-01  0.51100000000E-03 0.  1.
         11    1    4    4    0    0  0.52229295454E-01  0.43100454417E-02  0.93092419566E-02  0.53229680651E-01  0.51100000000E-03 0. -1.
</event>
<event>
 8    1  0.2039519E+004  0.1043930E+01  0.7957747E-01            NaN
         13   -1    0    0    0    0  0.00000000000E+00  0.00000000000E+00  0.74505805969E-08  0.10566000000E+00  0.10566000000E+00 0. -1.
     999900   -1    0    0    0    0 -0.00000000000E+00 -0.00000000000E+00 -0.74505805969E-08  0.93827000000E+00  0.93827000000E+00 0. -1.
     999902    2    1    2    0    0 -0.77314047383E-02 -0.43358663668E-02  0.10560566988E-01  0.10301423268E+01  0.10300500539E+01 0.  0.
     999903    2    3    3    0    0  0.12854679204E+00 -0.20463413212E-01  0.21777992291E-01  0.13943604790E+00  0.45001127575E-01 0.  0.
         14    1    1    2    0    0  0.77314047383E-02  0.43358663668E-02 -0.10560566988E-01  0.13787673172E-01  0.00000000000E+00 0.  1.
     999901    1    3    3    0    0 -0.13627819678E+00  0.16127546845E-01 -0.11217425303E-01  0.89070627892E+00  0.88000000000E+00 0. -1.
        -11    1    4    4    0    0  0.48958122710E-01 -0.27150859596E-01 -0.22470937544E-02  0.56030148201E-01  0.51100000000E-03 0.  1.
         11    1    4    4    0    0  0.79588669329E-01  0.66874463845E-02  0.24025086046E-01  0.83405899703E-01  0.51100000000E-03 0. -1.
</event>
<event>
 8    1  0.2039519E+004  0.1043930E+01  0.7957747E-01            NaN
         13   -1    0    0    0    0  0.00000000000E+00  0.00000000000E+00  0.74505805969E-08  0.10566000000E+00  0.10566000000E+00 0.  1.
     999900   -1    0    0    0    0 -0.00000000000E+00 -0.00000000000E+00 -0.74505805969E-08  0.93827000000E+00  0.93827000000E+00 0. -1.
     999902    2    1    2    0    0 -0.71771237912E-02 -0.11411361626E-01 -0.53921228748E-02  0.10294108654E+01  0.10293084691E+01 0.  0.
     999903    2    3    3    0    0 -0.71225144264E-01 -0.10638694489E+00 -0.39418054552E-01  0.14133413766E+00  0.45059429940E-01 0.  0.
         14    1    1    2    0    0  0.71771237912E-02  0.11411361626E-01  0.53921228748E-02  0.14519134588E-01  0.00000000000E+00 0.  1.
     999901    1    3    3    0    0  0.64048020473E-01  0.94975583261E-01  0.34025931677E-01  0.88807672775E+00  0.88000000000E+00 0. -1.
        -11    1    4    4    0    0 -0.56903531662E-01 -0.73842246384E-01 -0.74593830269E-02  0.93523220554E-01  0.51100000000E-03 0. -1.
         11    1    4    4    0    0 -0.14321612602E-01 -0.32544698503E-01 -0.31958671525E-01  0.47810917110E-01  0.51100000000E-03 0.  1.
</event>
<event>
 8    1  0.2039519E+004  0.1043930E+01  0.7957747E-01            NaN
         13   -1    0    0    0    0  0.00000000000E+00  0.00000000000E+00  0.74505805969E-08  0.10566000000E+00  0.10566000000E+00 0. -1.
     999900   -1    0    0    0    0 -0.00000000000E+00 -0.00000000000E+00 -0.74505805969E-08  0.93827000000E+00  0.93827000000E+00 0.  1.
     999902    2    1    2    0    0  0.13028468930E-01  0.52234365831E-02  0.19606233333E-02  0.10297571620E+01  0.10296596250E+01 0.  0.
     999903    2    3    3    0    0 -0.87306517853E-01 -0.96913165224E-01 -0.12910479141E-01  0.13806206577E+00  0.43357397050E-01 0.  0.
         14    1    1    2    0    0 -0.13028468930E-01 -0.52234365831E-02 -0.19606233333E-02  0.14172837975E-01  0.00000000000E+00 0.  1.
     999901    1    3    3    0    0  0.10033498678E+00  0.10213660181E+00  0.14871102474E-01  0.89169509626E+00  0.88000000000E+00 0.  1.
        -11    1    4    4    0    0 -0.21268274831E-01 -0.23117709444E-02 -0.70884922221E-02  0.22543106312E-01  0.51100000000E-03 0. -1.
         11    1    4    4    0    0 -0.66038243021E-01 -0.94601394280E-01 -0.58219869186E-02  0.11551895946E+00  0.51100000000E-03 0.  1.
</event>
<event>
 8    1  0.2039519E+004  0.1043930E+01  0.7957747E-01            NaN
         13   -1    0    0    0    0  0.00000000000E+00  0.00000000000E+00  0.74505805969E-08  0.10566000000E+00  0.10566000000E+00 0.  1.
     999900   -1    0    0    0    0 -0.00000000000E+00 -0.00000000000E+00 -0.74505805969E-08  0.93827000000E+00  0.93827000000E+00 0.  1.
     999902    2    1    2    0    0 -0.88358388134E-02  0.24240410752E-02  0.10330419099E-01  0.10301218292E+01  0.10300292799E+01 0.  0.
     999903    2    3    3    0    0 -0.25824636544E-01  0.60641039132E-01  0.11667458165E+00  0.14164733938E+00  0.45899490975E-01 0.  0.
         14    1    1    2    0    0  0.88358388134E-02 -0.24240410752E-02 -0.10330419099E-01  0.13808170821E-01  0.00000000000E+00 0. -1.
     999901    1    3    3    0    0  0.16988797731E-01 -0.58216998057E-01 -0.10634416255E+00  0.88847448980E+00  0.88000000000E+00 0.  1.
        -11    1    4    4    0    0 -0.95921535075E-02  0.22233706040E-01  0.87409646975E-01  0.90703112397E-01  0.51100000000E-03 0. -1.
         11    1    4    4    0    0 -0.16232483037E-01  0.38407333092E-01  0.29264934672E-01  0.50944226985E-01  0.51100000000E-03 0.  1.
</event>
<event>
 8    1  0.2039519E+004  0.1043930E+01  0.7957747E-01            NaN
         13   -1    0    0    0    0  0.00000000000E+00  0.00000000000E+00  0.74505805969E-08  0.10566000000E+00  0.10566000000E+00 0.  1.
     999900   -1    0    0    0    0 -0.00000000000E+00 -0.00000000000E+00 -0.74505805969E-08  0.93827000000E+00  0.93827000000E+00 0.  1.
     999902    2    1    2    0    0  0.14843318155E-02 -0.13618010839E-01  0.71282648958E-04  0.10302311482E+01  0.10301400682E+01 0.  0.
     999903    2    3    3    0    0  0.10514936256E+00  0.74828631805E-01 -0.26455099891E-01  0.13934793688E+00  0.45412141756E-01 0.  0.
         14    1    1    2    0    0 -0.14843318155E-02  0.13618010839E-01 -0.71282648958E-04  0.13698851827E-01  0.00000000000E+00 0.  1.
     999901    1    3    3    0    0 -0.10366503074E+00 -0.88446642644E-01  0.26526382539E-01  0.89088321129E+00  0.88000000000E+00 0. -1.
        -11    1    4    4    0    0  0.95587233908E-01  0.73722071675E-01 -0.11108519632E-01  0.12122509422E+00  0.51100000000E-03 0.  1.
         11    1    4    4    0    0  0.95621286483E-02  0.11065601294E-02 -0.15346580259E-01  0.18122842664E-01  0.51100000000E-03 0. -1.
</event>
<event>
 8    1  0.2039519E+004  0.1043930E+01  0.7957747E-01            NaN
         13   -1    0    0    0    0  0.00000000000E+00  0.00000000000E+00  0.74505805969E-08  0.10566000000E+00  0.10566000000E+00 0. -1.
     999900   -1    0    0    0    0 -0.00000000000E+00 -0.00000000000E+00 -0.74505805969E-08  0.93827000000E+00  0.93827000000E+00 0. -1.
     999902    2    1    2    0    0 -0.67612088889E-02  0.12177896838E-01  0.37038884439E-03  0.10299961454E+01  0.10299018920E+01 0.  0.
     999903    2    3    3    0    0 -0.11552493113E+00  0.55814536827E-01  0.37748939824E-01  0.14144065487E+00  0.46034814620E-01 0.  0.
         14    1    1    2    0    0  0.67612088889E-02 -0.12177896838E-01 -0.37038884439E-03  0.13933854633E-01  0.00000000000E+00 0.  1.
     999901    1    3    3    0    0  0.10876372224E+00 -0.43636639989E-01 -0.37378550980E-01  0.88855549050E+00  0.88000000000E+00 0. -1.
        -11    1    4    4    0    0 -0.34000513657E-01 -0.47094834137E-02  0.14565525951E-01  0.37291149489E-01  0.51100000000E-03 0. -1.
         11    1    4    4    0    0 -0.81524417474E-01  0.60524020241E-01  0.23183413873E-01  0.10414950538E+00  0.51100000000E-03 0.  1.
</event>
<event>
 8    1  0.2039519E+004  0.1043930E+01  0.7957747E-01            NaN
         13   -1    0    0    0    0  0.00000000000E+00  0.00000000000E+00  0.74505805969E-08  0.10566000000E+00  0.10566000000E+00 0.  1.
     999900   -1    0    0    0    0 -0.00000000000E+00 -0.00000000000E+00 -0.74505805969E-08  0.93827000000E+00  0.93827000000E+00 0. -1.
     999902    2    1    2    0    0  0.75680213250E-02 -0.84518483790E-02 -0.97916913381E-02  0.10289438095E+01  0.10288346695E+01 0.  0.
     999903    2    3    3    0    0  0.13204891279E+00  0.44420085083E-03  0.89414074905E-02  0.13994124420E+00  0.45458666691E-01 0.  0.
         14    1    1    2    0    0 -0.75680213250E-02  0.84518483790E-02  0.97916913381E-02  0.14986190545E-01  0.00000000000E+00 0.  1.
     999901    1    3    3    0    0 -0.12448089147E+00 -0.88960492299E-02 -0.18733098829E-01  0.88900256525E+00  0.88000000000E+00 0.  1.
        -11    1    4    4    0    0  0.11011269713E+00  0.65797345600E-02 -0.93747863204E-02  0.11070793430E+00  0.51100000000E-03 0. -1.
         11    1    4    4    0    0  0.21936215657E-01 -0.61355337091E-02  0.18316193811E-01  0.29233309904E-01  0.51100000000E-03 0.  1.
</event>
<event>
 8    1  0.2039519E+004  0.1043930E+01  0.7957747E-01            NaN
         13   -1    0    0    0    0  0.00000000000E+00  0.00000000000E+00  0.74505805969E-08  0.10566000000E+00  0.10566000000E+00 0.  1.
     999900   -1    0    0    0    0 -0.00000000000E+00 -0.00000000000E+00 -0.74505805969E-08  0.93827000000E+00  0.93827000000E+00 0.  1.
     999902    2    1    2    0    0  0.10495582770E-02  0.11970618736E-01 -0.76310269710E-02  0.10296951885E+01  0.10295967907E+01 0.  0.
     999903    2    3    3    0    0 -0.58145606844E-01  0.34512013074E-01 -0.11526728644E+00  0.14087701454E+00  0.44584697592E-01 0.  0.
         14    1    1    2    0    0 -0.10495582770E-02 -0.11970618736E-01  0.76310269710E-02  0.14234811489E-01  0.00000000000E+00 0.  1.
     999901    1    3    3    0    0  0.59195165121E-01 -0.22541394339E-01  0.10763625947E+00  0.88881817397E+00  0.88000000000E+00 0. -1.
        -11    1    4    4    0    0 -0.20742870492E-01 -0.97139522574E-02 -0.28797933008E-01  0.36799587107E-01  0.51100000000E-03 0.  1.
         11    1    4    4    0    0 -0.37402736352E-01  0.44225965332E-01 -0.86469353435E-01  0.10407742743E+00  0.51100000000E-03 0. -1.
</event>
<event>
 8    1  0.2039519E+004  0.1043930E+01  0.7957747E-01            NaN
         13   -1    0    0    0    0  0.00000000000E+00  0.00000000000E+00  0.74505805969E-08  0.10566000000E+00  0.10566000000E+00 0.  1.
     999900   -1    0    0    0    0 -0.00000000000E+00 -0.00000000000E+00 -0.74505805969E-08  0.93827000000E+00  0.93827000000E+00 0. -1.
     999902    2    1    2    0    0 -0.48744792388E-02 -0.57766387491E-02  0.10464367354E-01  0.10310213561E+01  0.10309405432E+01 0.  0.
     999903    2    3    3    0    0  0.56438254401E-01 -0.56021376879E-01  0.10858894333E+00  0.14202629570E+00  0.45345769693E-01 0.  0.
         14    1    1    2    0    0  0.48744792388E-02  0.57766387491E-02 -0.10464367354E-01  0.12908643895E-01  0.00000000000E+00 0. -1.
     999901    1    3    3    0    0 -0.61312733640E-01  0.50244738130E-01 -0.98124575976E-01  0.88899506041E+00  0.88000000000E+00 0. -1.
        -11    1    4    4    0    0  0.46702282888E-01 -0.60658186225E-01  0.76736533539E-01  0.10839407495E+00  0.51100000000E-03 0.  1.
         11    1    4    4    0    0  0.97359715135E-02  0.46368093453E-02  0.31852409791E-01  0.33632220752E-01  0.51100000000E-03 0. -1.
</event>
<event>
 8    1  0.2039519E+004  0.1043930E+01  0.7957747E-01            NaN
         13   -1    0    0    0    0  0.00000000000E+00  0.00000000000E+00  0.74505805969E-08  0.10566000000E+00  0.10566000000E+00 0. -1.
     999900   -1    0    0    0    0 -0.00000000000E+00 -0.00000000000E+00 -0.74505805969E-08  0.93827000000E+00  0.93827000000E+00 0. -1.
     999902    2    1    2    0    0 -0.98198606704E-02  0.66986058198E-02  0.85458743505E-02  0.10292898855E+01  0.10291857634E+01 0.  0.
     999903    2    3    3    0    0  0.83104363799E-01 -0.95952234426E-01  0.27478896754E-01  0.13826207123E+00  0.47414596924E-01 0.  0.
         14    1    1    2    0    0  0.98198606704E-02 -0.66986058198E-02 -0.85458743505E-02  0.14640114478E-01  0.00000000000E+00 0.  1.
     999901    1    3    3    0    0 -0.92924224469E-01  0.10265084025E+00 -0.18933022404E-01  0.89102781429E+00  0.88000000000E+00 0. -1.
        -11    1    4    4    0    0  0.17060044664E-01 -0.21009788281E-01  0.27193492940E-01  0.38369304227E-01  0.51100000000E-03 0. -1.
         11    1    4    4    0    0  0.66044319135E-01 -0.74942446145E-01  0.28540381451E-03  0.99892767008E-01  0.51100000000E-03 0.  1.
</event>
<event>
 8    1  0.2039519E+004  0.1043930E+01  0.7957747E-01            NaN
         13   -1    0    0    0    0  0.00000000000E+00  0.00000000000E+00  0.74505805969E-08  0.10566000000E+00  0.10566000000E+00 0.  1.
     999900   -1    0    0    0    0 -0.00000000000E+00 -0.00000000000E+00 -0.74505805969E-08  0.93827000000E+00  0.93827000000E+00 0. -1.
     999902    2    1    2    0    0  0.10138112463E-01 -0.90653228030E-02  0.16462353439E-02  0.10302306755E+01  0.10301395892E+01 0.  0.
     999903    2    3    3    0    0  0.67143913692E-01  0.51070092405E-01  0.10300218340E+00  0.14054592358E+00  0.45024963814E-01 0.  0.
         14    1    1    2    0    0 -0.10138112463E-01  0.90653228030E-02 -0.16462353439E-02  0.13699324533E-01  0.00000000000E+00 0.  1.
     999901    1    3    3    0    0 -0.57005801229E-01 -0.60135415208E-01 -0.10135594805E+00  0.88968475189E+00  0.88000000000E+00 0. -1.
        -11    1    4    4    0    0  0.14189196637E-01  0.38045669483E-01  0.37089891721E-01  0.54997522275E-01  0.51100000000E-03 0. -1.
         11    1    4    4    0    0  0.52954717055E-01  0.13024422922E-01  0.65912291675E-01  0.85548401304E-01  0.51100000000E-03 0.  1.
</event>
<event>
 8    1  0.2039519E+004  0.1043930E+01  0.7957747E-01            NaN
         13   -1    0    0    0    0  0.00000000000E+00  0.00000000000E+00  0.74505805969E-08  0.10566000000E+00  0.10566000000E+00 0. -1.
     999900   -1    0    0    0    0 -0.00000000000E+00 -0.00000000000E+00 -0.74505805969E-08  0.93827000000E+00  0.93827000000E+00 0.  1.
     999902    2    1    2    0    0  0.99607247681E-02  0.11482828871E-01  0.59454860440E-02  0.10276076166E+01  0.10274779771E+01 0.  0.
     999903    2    3    3    0    0  0.21432871898E-01  0.96636507255E-01 -0.86126071262E-01  0.13864196438E+00  0.44787404511E-01 0.  0.
         14    1    1    2    0    0 -0.99607247681E-02 -0.11482828871E-01 -0.59454860440E-02  0.16322383437E-01  0.00000000000E+00 0.  1.
     999901    1    3    3    0    0 -0.11472147130E-01 -0.85153678385E-01  0.92071557306E-01  0.88896565219E+00  0.88000000000E+00 0. -1.
        -11    1    4    4    0    0 -0.20587260883E-02  0.77445113541E-01 -0.53882994936E-01  0.94369604369E-01  0.51100000000E-03 0.  1.
         11    1    4    4    0    0  0.23491597986E-01  0.19191393714E-01 -0.32243076326E-01  0.44272360007E-01  0.51100000000E-03 0. -1.
</event>
<event>
 8    1  0.2039519E+004  0.1043930E+01  0.7957747E-01            NaN
         13   -1    0    0    0    0  0.00000000000E+00  0.00000000000E+00  0.74505805969E-08  0.10566000000E+00  0.10566000000E+00 0.  1.
     999900   -1    0    0    0    0 -0.00000000000E+00 -0.00000000000E+00 -0.74505805969E-08  0.93827000000E+00  0.93827000000E+00 0. -1.
     999902    2    1    2    0    0  0.98922501500E-02  0.84175918029E-02 -0.25135533704E-02  0.10307000939E+01  0.10306151819E+01 0.  0.
     999903    2    3    3    0    0  0.40641800351E-01 -0.34080780673E-01 -0.12240583346E+00  0.14102273366E+00  0.45727101355E-01 0.  0.
         14    1    1    2    0    0 -0.98922501500E-02 -0.84175918029E-02  0.25135533704E-02  0.13229906097E-01  0.00000000000E+00 0.  1.
     999901    1    3    3    0    0 -0.30749550201E-01  0.42498372476E-01  0.11989228009E+00  0.88967736024E+00  0.88000000000E+00 0.  1.
        -11    1    4    4    0    0  0.39387018432E-02 -0.20138850013E-01 -0.82590088718E-01  0.85102705759E-01  0.51100000000E-03 0.  1.
         11    1    4    4    0    0  0.36703098508E-01 -0.13941930660E-01 -0.39815744738E-01  0.55920027903E-01  0.51100000000E-03 0. -1.
</event>
<event>
 8    1  0.2039519E+004  0.1043930E+01  0.7957747E-01            NaN
         13   -1    0    0    0    0  0.00000000000E+00  0.00000000000E+00  0.74505805969E-08  0.10566000000E+00  0.10566000000E+00 0. -1.
     999900   -1    0    0    0    0 -0.00000000000E+00 -0.00000000000E+00 -0.74505805969E-08  0.93827000000E+00  0.93827000000E+00 0.  1.
     999902    2    1    2    0    0  0.13572704105E-01  0.23126954136E-02  0.19305951910E-02  0.10300269768E+01  0.10299331429E+01 0.  0.
     999903    2    3    3    0    0  0.59279139570E-01  0.11279571985E+00  0.40704213447E-01  0.14109561250E+00  0.44880375117E-01 0.  0.
         14    1    1    2    0    0 -0.13572704105E-01 -0.23126954136E-02 -0.19305951910E-02  0.13903023217E-01  0.00000000000E+00 0.  1.
     999901    1    3    3    0    0 -0.45706435466E-01 -0.11048302443E+00 -0.38773618256E-01  0.88893136428E+00  0.88000000000E+00 0.  1.
        -11    1    4    4    0    0 -0.38534313500E-02  0.33552836753E-01  0.99276967446E-02  0.35205994816E-01  0.51100000000E-03 0.  1.
         11    1    4    4    0    0  0.63132570920E-01  0.79242883094E-01  0.30776516703E-01  0.10588961769E+00  0.51100000000E-03 0. -1.
</event>
<event>
 8    1  0.2109793E+004  0.1043930E+01  0.7957747E-01            NaN
         13   -1    0    0    0    0  0.00000000000E+00  0.00000000000E+00  0.74505805969E-08  0.10566000000E+00  0.10566000000E+00 0.  1.
     999900   -1    0    0    0    0 -0.00000000000E+00 -0.00000000000E+00 -0.74505805969E-08  0.93827000000E+00  0.93827000000E+00 0.  1.
     999902    2    1    2    0    0  0.96426486448E-02  0.11513159147E-01  0.13230488658E-02  0.10288540601E+01  0.10287435992E+01 0.  0.
     999903    2    3    3    0    0  0.63878879001E-01  0.10357920967E+00  0.54369538896E-01  0.14080470534E+00  0.45395533105E-01 0.  0.
         14    1    1    2    0    0 -0.96426486448E-02 -0.11513159147E-01 -0.13230488658E-02  0.15075939929E-01  0.00000000000E+00 0.  1.
     999901    1    3    3    0    0 -0.54236230356E-01 -0.92066050525E-01 -0.53046490030E-01  0.88804935474E+00  0.88000000000E+00 0.  1.
        -11    1    4    4    0    0  0.24573405735E-01  0.38595979688E-01  0.45179096074E-01  0.64303295099E-01  0.51100000000E-03 0. -1.
         11    1    4    4    0    0  0.39305473266E-01  0.64983229984E-01  0.91904428223E-02  0.76501410236E-01  0.51100000000E-03 0.  1.
</event>
<event>
 8    1  0.2039519E+004  0.1043930E+01  0.7957747E-01            NaN
         13   -1    0    0    0    0  0.00000000000E+00  0.00000000000E+00  0.74505805969E-08  0.10566000000E+00  0.10566000000E+00 0. -1.
     999900   -1    0    0    0    0 -0.00000000000E+00 -0.00000000000E+00 -0.74505805969E-08  0.93827000000E+00  0.93827000000E+00 0. -1.
     999902    2    1    2    0    0 -0.86648157465E-02 -0.12026688689E-01 -0.29363517526E-02  0.10288189962E+01  0.10287080172E+01 0.  0.
     999903    2    3    3    0    0 -0.46193409466E-01  0.14266341038E-01  0.12212071110E+00  0.13879709330E+00  0.44875443885E-01 0.  0.
         14    1    1    2    0    0  0.86648157465E-02  0.12026688689E-01  0.29363517526E-02  0.15111003751E-01  0.00000000000E+00 0. -1.
     999901    1    3    3    0    0  0.37528593720E-01 -0.26293029727E-01 -0.12505706285E+00  0.89002190295E+00  0.88000000000E+00 0. -1.
        -11    1    4    4    0    0 -0.26186660259E-01 -0.12122840202E-01  0.81055005675E-01  0.86039987773E-01  0.51100000000E-03 0.  1.
         11    1    4    4    0    0 -0.20006749208E-01  0.26389181240E-01  0.41065705427E-01  0.52757105528E-01  0.51100000000E-03 0. -1.
</event>
<event>
 8    1  0.2039519E+004  0.1043930E+01  0.7957747E-01            NaN
         13   -1    0    0    0    0  0.00000000000E+00  0.00000000000E+00  0.74505805969E-08  0.10566000000E+00  0.10566000000E+00 0.  1.
     999900   -1    0    0    0    0 -0.00000000000E+00 -0.00000000000E+00 -0.74505805969E-08  0.93827000000E+00  0.93827000000E+00 0. -1.
     999902    2    1    2    0    0  0.22898784460E-02  0.12900286913E-01  0.22719283537E-02  0.10306325339E+01  0.10305467468E+01 0.  0.
     999903    2    3    3    0    0 -0.10526558026E+00  0.79936890952E-01 -0.21646338361E-01  0.14123151837E+00  0.44799876035E-01 0.  0.
         14    1    1    2    0    0 -0.22898784460E-02 -0.12900286913E-01 -0.22719283537E-02  0.13297466081E-01  0.00000000000E+00 0.  1.
     999901    1    3    3    0    0  0.10755545871E+00 -0.67036604040E-01  0.23918266715E-01  0.88940101555E+00  0.88000000000E+00 0.  1.
        -11    1    4    4    0    0 -0.77482726727E-01  0.74783981810E-01 -0.36938191200E-02  0.10775027748E+00  0.51100000000E-03 0.  1.
         11    1    4    4    0    0 -0.27782853538E-01  0.51529091421E-02 -0.17952519241E-01  0.33481240888E-01  0.51100000000E-03 0. -1.
</event>
<event>
 8    1  0.2039519E+004  0.1043930E+01  0.7957747E-01            NaN
         13   -1    0    0    0    0  0.00000000000E+00  0.00000000000E+00  0.74505805969E-08  0.10566000000E+00  0.10566000000E+00 0.  1.
     999900   -1    0    0    0    0 -0.00000000000E+00 -0.00000000000E+00 -0.74505805969E-08  0.93827000000E+00  0.93827000000E+00 0.  1.
     999902    2    1    2    0    0  0.15668786607E-01  0.16664367786E-02 -0.64181123038E-03  0.10281597810E+01  0.10280388298E+01 0.  0.
     999903    2    3    3    0    0 -0.78678369132E-01  0.79964061331E-01  0.64175763281E-01  0.13729883688E+00  0.46345497550E-01 0.  0.
         14    1    1    2    0    0 -0.15668786607E-01 -0.16664367786E-02  0.64181123038E-03  0.15770218988E-01  0.00000000000E+00 0. -1.
     999901    1    3    3    0    0  0.94347155739E-01 -0.78297624552E-01 -0.64817574511E-01  0.89086094413E+00  0.88000000000E+00 0.  1.
        -11    1    4    4    0    0 -0.23657368382E-01  0.31636764225E-01 -0.62502763470E-03  0.39512121051E-01  0.51100000000E-03 0.  1.
         11    1    4    4    0    0 -0.55021000750E-01  0.48327297106E-01  0.64800790916E-01  0.97786715833E-01  0.51100000000E-03 0. -1.
</event>
<event>
 8    1  0.2039519E+004  0.1043930E+01  0.7957747E-01            NaN
         13   -1    0    0    0    0  0.00000000000E+00  0.00000000000E+00  0.74505805969E-08  0.10566000000E+00  0.10566000000E+00 0. -1.
     999900   -1    0    0    0    0 -0.00000000000E+00 -0.00000000000E+00 -0.74505805969E-08  0.93827000000E+00  0.93827000000E+00 0. -1.
     999902    2    1    2    0    0  0.11462412175E-01  0.38759710016E-02  0.61679237795E-02  0.10303486404E+01  0.10302591264E+01 0.  0.
     999903    2    3    3    0    0  0.94556371110E-01 -0.86964913659E-01  0.37470457365E-01  0.14122743331E+00  0.45137004987E-01 0.  0.
         14    1    1    2    0    0 -0.11462412175E-01 -0.38759710016E-02 -0.61679237795E-02  0.13581359572E-01  0.00000000000E+00 0.  1.
     999901    1    3    3    0    0 -0.83093958935E-01  0.90840884660E-01 -0.31302533586E-01  0.88912120712E+00  0.88000000000E+00 0. -1.
        -11    1    4    4    0    0  0.81649258064E-01 -0.51422454075E-01  0.16217252985E-01  0.97847486125E-01  0.51100000000E-03 0.  1.
         11    1    4    4    0    0  0.12907113045E-01 -0.35542459583E-01  0.21253204380E-01  0.43379947185E-01  0.51100000000E-03 0. -1.
</event>
<event>
 8    1  0.2039519E+004  0.1043930E+01  0.7957747E-01            NaN
         13   -1    0    0    0    0  0.00000000000E+00  0.00000000000E+00  0.74505805969E-08  0.10566000000E+00  0.10566000000E+00 0. -1.
     999900   -1    0    0    0    0 -0.00000000000E+00 -0.00000000000E+00 -0.74505805969E-08  0.93827000000E+00  0.93827000000E+00 0. -1.
     999902    2    1    2    0    0 -0.11498385419E-01  0.16049615717E-02  0.82424525899E-02  0.10296917840E+01  0.10295933388E+01 0.  0.
     999903    2    3    3    0    0  0.44812081113E-01 -0.12342775306E+00 -0.43292392767E-02  0.13898302367E+00  0.45332170880E-01 0.  0.
         14    1    1    2    0    0  0.11498385419E-01 -0.16049615717E-02 -0.82424525899E-02  0.14238215955E-01  0.00000000000E+00 0.  1.
     999901    1    3    3    0    0 -0.56310466531E-01  0.12503271463E+00  0.12571691867E-01  0.89070876037E+00  0.88000000000E+00 0. -1.
        -11    1    4    4    0    0 -0.18321613000E-02 -0.51383839356E-01 -0.12041662164E-01  0.52810212181E-01  0.51100000000E-03 0.  1.
         11    1    4    4    0    0  0.46644242413E-01 -0.72043913706E-01  0.77124228876E-02  0.86172811490E-01  0.51100000000E-03 0. -1.
</event>
<event>
 8    1  0.2039519E+004  0.1043930E+01  0.7957747E-01            NaN
         13   -1    0    0    0    0  0.00000000000E+00  0.00000000000E+00  0.74505805969E-08  0.10566000000E+00  0.10566000000E+00 0. -1.
     999900   -1    0    0    0    0 -0.00000000000E+00 -0.00000000000E+00 -0.74505805969E-08  0.93827000000E+00  0.93827000000E+00 0. -1.
     999902    2    1    2    0    0 -0.35802345834E-02  0.37804695214E-02 -0.10726081438E-01  0.10320069613E+01  0.10319380840E+01 0.  0.
     999903    2    3    3    0    0 -0.38304284223E-01  0.11691611565E+00 -0.57105435681E-01  0.14287453101E+00  0.44894370884E-01 0.  0.
         14    1    1    2    0    0  0.35802345834E-02 -0.37804695214E-02  0.10726081438E-01  0.11923038727E-01  0.00000000000E+00 0. -1.
     999901    1    3    3    0    0  0.34724049639E-01 -0.11313564613E+00  0.46379354243E-01  0.88913243027E+00  0.88000000000E+00 0.  1.
        -11    1    4    4    0    0 -0.17863477922E-01  0.10453465786E+00 -0.53224025151E-01  0.11865772841E+00  0.51100000000E-03 0.  1.
         11    1    4    4    0    0 -0.20440806301E-01  0.12381457793E-01 -0.38814105301E-02  0.24216802597E-01  0.51100000000E-03 0. -1.
</event>
<event>
 8    1  0.2039519E+004  0.1043930E+01  0.7957747E-01            NaN
         13   -1    0    0    0    0  0.00000000000E+00  0.00000000000E+00  0.74505805969E-08  0.10566000000E+00  0.10566000000E+00 0.  1.
     999900   -1    0    0    0    0 -0.00000000000E+00 -0.00000000000E+00 -0.74505805969E-08  0.93827000000E+00  0.93827000000E+00 0.  1.
     999902    2    1    2    0    0  0.90843983488E-02 -0.10386362434E-01  0.12726504164E-02  0.10300727832E+01  0.10299795708E+01 0.  0.
     999903    2    3    3    0    0 -0.50054339143E-01  0.80214117503E-01 -0.91428612503E-01  0.13861366391E+00  0.43758600589E-01 0.  0.
         14    1    1    2    0    0 -0.90843983488E-02  0.10386362434E-01 -0.12726504164E-02  0.13857216786E-01  0.00000000000E+00 0. -1.
     999901    1    3    3    0    0  0.59138737492E-01 -0.90600479937E-01  0.92701262919E-01  0.89145911930E+00  0.88000000000E+00 0. -1.
        -11    1    4    4    0    0 -0.45596252724E-01  0.54022059515E-01 -0.86284386852E-01  0.11154666159E+00  0.51100000000E-03 0. -1.
         11    1    4    4    0    0 -0.44580864186E-02  0.26192057988E-01 -0.51442256511E-02  0.27067002323E-01  0.51100000000E-03 0.  1.
</event>
<event>
 8    1  0.2039519E+004  0.1043930E+01  0.7957747E-01            NaN
         13   -1    0    0    0    0  0.00000000000E+00  0.00000000000E+00  0.74505805969E-08  0.10566000000E+00  0.10566000000E+00 0.  1.
     999900   -1    0    0    0    0 -0.00000000000E+00 -0.00000000000E+00 -0.74505805969E-08  0.93827000000E+00  0.93827000000E+00 0.  1.
     999902    2    1    2    0    0  0.15423160433E-01 -0.45547660555E-02  0.50491044093E-02  0.10270743414E+01  0.10269360202E+01 0.  0.
     999903    2    3    3    0    0 -0.30089043181E-01 -0.29513825125E-01  0.12357784360E+00  0.13761193223E+00  0.43464284989E-01 0.  0.
         14    1    1    2    0    0 -0.15423160433E-01  0.45547660555E-02 -0.50491044093E-02  0.16855658601E-01  0.00000000000E+00 0.  1.
     999901    1    3    3    0    0  0.45512203614E-01  0.24959059070E-01 -0.11852873919E+00  0.88946240917E+00  0.88000000000E+00 0.  1.
        -11    1    4    4    0    0 -0.81124282330E-02 -0.15941788383E-01  0.10311169335E+00  0.10465292416E+00  0.51100000000E-03 0.  1.
         11    1    4    4    0    0 -0.21976614948E-01 -0.13572036742E-01  0.20466150255E-01  0.32959008073E-01  0.51100000000E-03 0. -1.
</event>
<event>
 8    1  0.2039519E+004  0.1043930E+01  0.7957747E-01            NaN
         13   -1    0    0    0    0  0.00000000000E+00  0.00000000000E+00  0.74505805969E-08  0.10566000000E+00  0.10566000000E+00 0.  1.
     999900   -1    0    0    0    0 -0.00000000000E+00 -0.00000000000E+00 -0.74505805969E-08  0.93827000000E+00  0.93827000000E+00 0.  1.
     999902    2    1    2    0    0 -0.38274640532E-02  0.52395062993E-02 -0.11845352575E-01  0.10304239167E+01  0.10303353987E+01 0.  0.
     999903    2    3    3    0    0  0.98785270739E-01 -0.44717408334E-01  0.74132174769E-01  0.13889870573E+00  0.45156337258E-01 0.  0.
         14    1    1    2    0    0  0.38274640532E-02 -0.52395062993E-02  0.11845352575E-01  0.13506083258E-01  0.00000000000E+00 0.  1.
     999901    1    3    3    0    0 -0.10261273479E+00  0.49956914634E-01 -0.85977527344E-01  0.89152521101E+00  0.88000000000E+00 0.  1.
        -11    1    4    4    0    0  0.90314250658E-01 -0.45105675495E-01  0.48700443250E-01  0.11208559286E+00  0.51100000000E-03 0.  1.
         11    1    4    4    0    0  0.84710200811E-02  0.38826716047E-03  0.25431731519E-01  0.26813112867E-01  0.51100000000E-03 0. -1.
</event>
<event>
 8    1  0.2039519E+004  0.1043930E+01  0.7957747E-01            NaN
         13   -1    0    0    0    0  0.00000000000E+00  0.00000000000E+00  0.74505805969E-08  0.10566000000E+00  0.10566000000E+00 0.  1.
     999900   -1    0    0    0    0 -0.00000000000E+00 -0.00000000000E+00 -0.74505805969E-08  0.93827000000E+00  0.93827000000E+00 0.  1.
     999902    2    1    2    0    0 -0.51507351272E-02 -0.21828223413E-02 -0.12979835822E-01  0.10297959658E+01  0.10296989658E+01 0.  0.
     999903    2    3    3    0    0 -0.12833239531E+00 -0.19826599071E-01  0.27223216451E-01  0.14013237222E+00  0.45096347007E-01 0.  0.
         14    1    1    2    0    0  0.51507351272E-02  0.21828223413E-02  0.12979835822E-01  0.14134034233E-01  0.00000000000E+00 0.  1.
     999901    1    3    3    0    0  0.12318166019E+00  0.17643776730E-01 -0.40203052273E-01  0.88966359354E+00  0.88000000000E+00 0.  1.
        -11    1    4    4    0    0 -0.76260263454E-01  0.30811052366E-02 -0.16337113000E-02  0.76341673581E-01  0.51100000000E-03 0. -1.
         11    1    4    4    0    0 -0.52072131860E-01 -0.22907704308E-01  0.28856927751E-01  0.63790698643E-01  0.51100000000E-03 0.  1.
</event>
<event>
 8    1  0.2039519E+004  0.1043930E+01  0.7957747E-01            NaN
         13   -1    0    0    0    0  0.00000000000E+00  0.00000000000E+00  0.74505805969E-08  0.10566000000E+00  0.10566000000E+00 0. -1.
     999900   -1    0    0    0    0 -0.00000000000E+00 -0.00000000000E+00 -0.74505805969E-08  0.93827000000E+00  0.93827000000E+00 0. -1.
     999902    2    1    2    0    0 -0.14418153985E-03 -0.64377310174E-02 -0.12368324363E-01  0.10299858035E+01  0.10298914092E+01 0.  0.
     999903    2    3    3    0    0 -0.22608202506E-01  0.74787983089E-01 -0.10817376341E+00  0.14078339063E+00  0.44877909414E-01 0.  0.
         14    1    1    2    0    0  0.14418153985E-03  0.64377310174E-02  0.12368324363E-01  0.13944196517E-01  0.00000000000E+00 0. -1.
     999901    1    3    3    0    0  0.22464020966E-01 -0.81225714107E-01  0.95805439043E-01  0.88920241285E+00  0.88000000000E+00 0.  1.
        -11    1    4    4    0    0  0.10964867148E-01  0.30420377766E-01 -0.25761696738E-01  0.41346751200E-01  0.51100000000E-03 0.  1.
         11    1    4    4    0    0 -0.33573069654E-01  0.44367605324E-01 -0.82412066667E-01  0.99436639432E-01  0.51100000000E-03 0. -1.
</event>
<event>
 8    1  0.2039519E+004  0.1043930E+01  0.7957747E-01            NaN
         13   -1    0    0    0    0  0.00000000000E+00  0.00000000000E+00  0.74505805969E-08  0.10566000000E+00  0.10566000000E+00 0. -1.
     999900   -1    0    0    0    0 -0.00000000000E+00 -0.00000000000E+00 -0.74505805969E-08  0.93827000000E+00  0.93827000000E+00 0. -1.
     999902    2    1    2    0    0 -0.95476000625E-02  0.11097622850E-01 -0.57060148738E-02  0.10282178230E+01  0.10280977673E+01 0.  0.
     999903    2    3    3    0    0  0.37280803763E-01  0.35673912985E-01 -0.12130651476E+00  0.13908320497E+00  0.44343894554E-01 0.  0.
         14    1    1    2    0    0  0.95476000625E-02 -0.11097622850E-01  0.57060148738E-02  0.15712176985E-01  0.00000000000E+00 0. -1.
     999901    1    3    3    0    0 -0.46828403826E-01 -0.24576290135E-01  0.11560049988E+00  0.88913461805E+00  0.88000000000E+00 0.  1.
        -11    1    4    4    0    0  0.20195213083E-01  0.17396803678E-02 -0.81778079630E-01  0.84254308781E-01  0.51100000000E-03 0.  1.
         11    1    4    4    0    0  0.17085590680E-01  0.33934232617E-01 -0.39528435126E-01  0.54828896184E-01  0.51100000000E-03 0. -1.
</event>
<event>
 8    1  0.2039519E+004  0.1043930E+01  0.7957747E-01            NaN
         13   -1    0    0    0    0  0.00000000000E+00  0.00000000000E+00  0.74505805969E-08  0.10566000000E+00  0.10566000000E+00 0.  1.
     999900   -1    0    0    0    0 -0.00000000000E+00 -0.00000000000E+00 -0.74505805969E-08  0.93827000000E+00  0.93827000000E+00 0. -1.
     999902    2    1    2    0    0 -0.17372402114E-02  0.53485203920E-02  0.12712286652E-01  0.10300293919E+01  0.10299355908E+01 0.  0.
     999903    2    3    3    0    0 -0.64490872897E-01 -0.42245222240E-01  0.10607568299E+00  0.14159261500E+00  0.53410547755E-01 0.  0.
         14    1    1    2    0    0  0.17372402114E-02 -0.53485203920E-02 -0.12712286652E-01  0.13900608111E-01  0.00000000000E+00 0. -1.
     999901    1    3    3    0    0  0.62753632685E-01  0.47593742632E-01 -0.93363396340E-01  0.88843677689E+00  0.88000000000E+00 0. -1.
        -11    1    4    4    0    0 -0.42839085348E-01  0.27250817380E-02  0.59133311088E-01  0.73072723401E-01  0.51100000000E-03 0. -1.
         11    1    4    4    0    0 -0.21651787548E-01 -0.44970303978E-01  0.46942371903E-01  0.68519891600E-01  0.51100000000E-03 0.  1.
</event>
<event>
 8    1  0.2039519E+004  0.1043930E+01  0.7957747E-01            NaN
         13   -1    0    0    0    0  0.00000000000E+00  0.00000000000E+00  0.74505805969E-08  0.10566000000E+00  0.10566000000E+00 0.  1.
     999900   -1    0    0    0    0 -0.00000000000E+00 -0.00000000000E+00 -0.74505805969E-08  0.93827000000E+00  0.93827000000E+00 0. -1.
     999902    2    1    2    0    0 -0.19933135603E-02 -0.13506339731E-01 -0.19942852477E-02  0.10301324754E+01  0.10300400697E+01 0.  0.
     999903    2    3    3    0    0  0.80319534146E-01  0.85669697063E-01 -0.58825830471E-01  0.13893041316E+00  0.45284178376E-01 0.  0.
         14    1    1    2    0    0  0.19933135603E-02  0.13506339731E-01  0.19942852477E-02  0.13797524616E-01  0.00000000000E+00 0.  1.
     999901    1    3    3    0    0 -0.82312847706E-01 -0.99176036794E-01  0.56831545224E-01  0.89120206222E+00  0.88000000000E+00 0.  1.
        -11    1    4    4    0    0  0.86221244549E-01  0.80525007643E-01 -0.54310174090E-01  0.12987777330E+00  0.51100000000E-03 0. -1.
         11    1    4    4    0    0 -0.59017104029E-02  0.51446894196E-02 -0.45156563813E-02  0.90526398612E-02  0.51100000000E-03 0.  1.
</event>
<event>
 8    1  0.2039519E+004  0.1043930E+01  0.7957747E-01            NaN
         13   -1    0    0    0    0  0.00000000000E+00  0.00000000000E+00  0.74505805969E-08  0.10566000000E+00  0.10566000000E+00 0.  1.
     999900   -1    0    0    0    0 -0.00000000000E+00 -0.00000000000E+00 -0.74505805969E-08  0.93827000000E+00  0.93827000000E+00 0. -1.
     999902    2    1    2    0    0 -0.87348007464E-02  0.74332338294E-02  0.87040510014E-02  0.10295317288E+01  0.10294310421E+01 0.  0.
     999903    2    3    3    0    0  0.56768023555E-01 -0.92038865401E-01 -0.72700308570E-01  0.13778513461E+00  0.44784452787E-01 0.  0.
         14    1    1    2    0    0  0.87348007464E-02 -0.74332338294E-02 -0.87040510014E-02  0.14398271184E-01  0.00000000000E+00 0. -1.
     999901    1    3    3    0    0 -0.65502824302E-01  0.99472099230E-01  0.81404359571E-01  0.89174659420E+00  0.88000000000E+00 0.  1.
        -11    1    4    4    0    0  0.43864293205E-01 -0.54070847839E-01 -0.21751625063E-01  0.72946056222E-01  0.51100000000E-03 0. -1.
         11    1    4    4    0    0  0.12903730350E-01 -0.37968017562E-01 -0.50948683507E-01  0.64839078391E-01  0.51100000000E-03 0.  1.
</event>
<event>
 8    1  0.2039519E+004  0.1043930E+01  0.7957747E-01            NaN
         13   -1    0    0    0    0  0.00000000000E+00  0.00000000000E+00  0.74505805969E-08  0.10566000000E+00  0.10566000000E+00 0.  1.
     999900   -1    0    0    0    0 -0.00000000000E+00 -0.00000000000E+00 -0.74505805969E-08  0.93827000000E+00  0.93827000000E+00 0. -1.
     999902    2    1    2    0    0  0.97408698697E-02  0.98195893956E-02  0.10010411899E-02  0.10300623771E+01  0.10299690237E+01 0.  0.
     999903    2    3    3    0    0 -0.92053982635E-01 -0.63803432144E-01 -0.67781874991E-01  0.13848308681E+00  0.45148300997E-01 0.  0.
         14    1    1    2    0    0 -0.97408698697E-02 -0.98195893956E-02 -0.10010411899E-02  0.13867622910E-01  0.00000000000E+00 0.  1.
     999901    1    3    3    0    0  0.10179485250E+00  0.73623021540E-01  0.68782916181E-01  0.89157929028E+00  0.88000000000E+00 0. -1.
        -11    1    4    4    0    0 -0.14266803502E-01 -0.20265316677E-01 -0.36273039068E-01  0.43934260281E-01  0.51100000000E-03 0. -1.
         11    1    4    4    0    0 -0.77787179133E-01 -0.43538115467E-01 -0.31508835922E-01  0.94548826529E-01  0.51100000000E-03 0.  1.
</event>
<event>
 8    1  0.2039519E+004  0.1043930E+01  0.7957747E-01            NaN
         13   -1    0    0    0    0  0.00000000000E+00  0.00000000000E+00  0.74505805969E-08  0.10566000000E+00  0.10566000000E+00 0. -1.
     999900   -1    0    0    0    0 -0.00000000000E+00 -0.00000000000E+00 -0.74505805969E-08  0.93827000000E+00  0.93827000000E+00 0.  1.
     999902    2    1    2    0    0 -0.35132308892E-02  0.10724169460E-01  0.82712453768E-02  0.10299384275E+01  0.10298433863E+01 0.  0.
     999903    2    3    3    0    0  0.22556917822E-01 -0.84253900517E-01  0.99594994223E-01  0.13974714828E+00  0.44750064637E-01 0.  0.
         14    1    1    2    0    0  0.35132308892E-02 -0.10724169460E-01 -0.82712453768E-02  0.13991572534E-01  0.00000000000E+00 0.  1.
     999901    1    3    3    0    0 -0.26070148711E-01  0.94978069977E-01 -0.91323748846E-01  0.89019127918E+00  0.88000000000E+00 0. -1.
        -11    1    4    4    0    0 -0.10986823650E-01 -0.42804969265E-01  0.38086214903E-01  0.58342065221E-01  0.51100000000E-03 0.  1.
         11    1    4    4    0    0  0.33543741471E-01 -0.41448931252E-01  0.61508779320E-01  0.81405083062E-01  0.51100000000E-03 0. -1.
</event>
<event>
 8    1  0.2039519E+004  0.1043930E+01  0.7957747E-01            NaN
         13   -1    0    0    0    0  0.00000000000E+00  0.00000000000E+00  0.74505805969E-08  0.10566000000E+00  0.10566000000E+00 0. -1.
     999900   -1    0    0    0    0 -0.00000000000E+00 -0.00000000000E+00 -0.74505805969E-08  0.93827000000E+00  0.93827000000E+00 0.  1.
     999902    2    1    2    0    0  0.12132654826E-01  0.64091035084E-02  0.71054031043E-02  0.10284779880E+01  0.10283619048E+01 0.  0.
     999903    2    3    3    0    0  0.46686697388E-01 -0.65603319816E-01 -0.10283202397E+00  0.13804774997E+00  0.44713676131E-01 0.  0.
         14    1    1    2    0    0 -0.12132654826E-01 -0.64091035084E-02 -0.71054031043E-02  0.15452011979E-01  0.00000000000E+00 0. -1.
     999901    1    3    3    0    0 -0.34554042562E-01  0.72012423325E-01  0.10993742707E+00  0.89043023805E+00  0.88000000000E+00 0. -1.
        -11    1    4    4    0    0  0.10309881710E-01 -0.22696306068E-01 -0.66652679495E-01  0.71163591638E-01  0.51100000000E-03 0. -1.
         11    1    4    4    0    0  0.36376815678E-01 -0.42907013748E-01 -0.36179344475E-01  0.66884158329E-01  0.51100000000E-03 0.  1.
</event>
<event>
 8    1  0.2243559E+004  0.1043930E+01  0.7957747E-01            NaN
         13   -1    0    0    0    0  0.00000000000E+00  0.00000000000E+00  0.74505805969E-08  0.10566000000E+00  0.10566000000E+00 0.  1.
     999900   -1    0    0    0    0 -0.00000000000E+00 -0.00000000000E+00 -0.74505805969E-08  0.93827000000E+00  0.93827000000E+00 0. -1.
     999902    2    1    2    0    0  0.75661050333E-03 -0.23968708472E-01 -0.94992333388E-02  0.10181364566E+01  0.10178096764E+01 0.  0.
     999903    2    3    3    0    0 -0.38630412984E-01 -0.54048336612E-02  0.11418419737E+00  0.12842102679E+00  0.43959164672E-01 0.  0.
         14    1    1    2    0    0 -0.75661050333E-03  0.23968708472E-01  0.94992333388E-02  0.25793543364E-01  0.00000000000E+00 0.  1.
     999901    1    3    3    0    0  0.39387023488E-01 -0.18563874810E-01 -0.12368343071E+00  0.88971542984E+00  0.88000000000E+00 0. -1.
        -11    1    4    4    0    0 -0.42411447838E-01 -0.14645595820E-01  0.70206588744E-01  0.83321369460E-01  0.51100000000E-03 0. -1.
         11    1    4    4    0    0  0.37810348533E-02  0.92407621587E-02  0.43977608630E-01  0.45099657334E-01  0.51100000000E-03 0.  1.
</event>
<event>
 8    1  0.2039519E+004  0.1043930E+01  0.7957747E-01            NaN
         13   -1    0    0    0    0  0.00000000000E+00  0.00000000000E+00  0.74505805969E-08  0.10566000000E+00  0.10566000000E+00 0.  1.
     999900   -1    0    0    0    0 -0.00000000000E+00 -0.00000000000E+00 -0.74505805969E-08  0.93827000000E+00  0.93827000000E+00 0. -1.
     999902    2    1    2    0    0  0.16276222489E-01  0.79521463130E-02 -0.49075843166E-02  0.10251620370E+01  0.10249902272E+01 0.  0.
     999903    2    3    3    0    0 -0.98712512459E-01  0.77871294252E-01 -0.17892953679E-01  0.13483641334E+00  0.45305650719E-01 0.  0.
         14    1    1    2    0    0 -0.16276222489E-01 -0.79521463130E-02  0.49075843166E-02  0.18767962950E-01  0.00000000000E+00 0.  1.
     999901    1    3    3    0    0  0.11498873495E+00 -0.69919147939E-01  0.12985369363E-01  0.89032562371E+00  0.88000000000E+00 0.  1.
        -11    1    4    4    0    0 -0.74453199366E-01  0.43576657101E-01 -0.29631234505E-01  0.91216638390E-01  0.51100000000E-03 0. -1.
         11    1    4    4    0    0 -0.24259313093E-01  0.34294637151E-01  0.11738280826E-01  0.43619774952E-01  0.51100000000E-03 0.  1.
</event>
<event>
 8    1  0.2039519E+004  0.1043930E+01  0.7957747E-01            NaN
         13   -1    0    0    0    0  0.00000000000E+00  0.00000000000E+00  0.74505805969E-08  0.10566000000E+00  0.10566000000E+00 0. -1.
     999900   -1    0    0    0    0 -0.00000000000E+00 -0.00000000000E+00 -0.74505805969E-08  0.93827000000E+00  0.93827000000E+00 0.  1.
     999902    2    1    2    0    0  0.41301387173E-02  0.11200832656E-01 -0.67757959974E-02  0.10302030881E+01  0.10301116321E+01 0.  0.
     999903    2    3    3    0    0 -0.41563202027E-01 -0.20402078884E-01  0.12304269601E+00  0.13894584902E+00  0.44974429756E-01 0.  0.
         14    1    1    2    0    0 -0.41301387173E-02 -0.11200832656E-01  0.67757959974E-02  0.13726911867E-01  0.00000000000E+00 0.  1.
     999901    1    3    3    0    0  0.45693340744E-01  0.31602911540E-01 -0.12981849201E+00  0.89125723911E+00  0.88000000000E+00 0.  1.
        -11    1    4    4    0    0 -0.13840665077E-01 -0.29133706134E-01  0.42766382798E-01  0.53568287834E-01  0.51100000000E-03 0. -1.
         11    1    4    4    0    0 -0.27722536950E-01  0.87316272502E-02  0.80276313215E-01  0.85377561184E-01  0.51100000000E-03 0.  1.
</event>
<event>
 7    1  0.4914688E+004  0.1043930E+01  0.7957747E-01            NaN
         13   -1    0    0    0    0  0.00000000000E+00  0.00000000000E+00  0.74505805969E-08  0.10566000000E+00  0.10566000000E+00 0. -1.
     999900   -1    0    0    0    0 -0.00000000000E+00 -0.00000000000E+00 -0.74505805969E-08  0.93827000000E+00  0.93827000000E+00 0.  1.
     999903    2    1    2    0    0 -0.10307787343E-01 -0.99278701753E-01 -0.21050335204E-01  0.11114601969E+00  0.44134000266E-01 0.  0.
         14    1    1    2    0    0  0.28571565159E-01 -0.15840877093E-01 -0.29006361654E-01  0.43687947298E-01  0.00000000000E+00 0.  1.
     999901    1    1    2    0    0 -0.18263777816E-01  0.11511957885E+00  0.50056696858E-01  0.88909603301E+00  0.88000000000E+00 0.  1.
        -11    1    3    3    0    0 -0.55992543816E-02 -0.75924374916E-01  0.44274069094E-02  0.76260903541E-01  0.51100000000E-03 0.  1.
         11    1    3    3    0    0 -0.47085329611E-02 -0.23354326838E-01 -0.25477742113E-01  0.34885116151E-01  0.51100000000E-03 0. -1.
</event>
<event>
 8    1  0.2039519E+004  0.1043930E+01  0.7957747E-01            NaN
         13   -1    0    0    0    0  0.00000000000E+00  0.00000000000E+00  0.74505805969E-08  0.10566000000E+00  0.10566000000E+00 0.  1.
     999900   -1    0    0    0    0 -0.00000000000E+00 -0.00000000000E+00 -0.74505805969E-08  0.93827000000E+00  0.93827000000E+00 0.  1.
     999902    2    1    2    0    0  0.11870349297E-01  0.36764683650E-02 -0.68627068769E-02  0.10297342838E+01  0.10296364295E+01 0.  0.
     999903    2    3    3    0    0 -0.54504917876E-02 -0.65424728713E-01 -0.11492473574E+00  0.14026680884E+00  0.46443296503E-01 0.  0.
         14    1    1    2    0    0 -0.11870349297E-01 -0.36764683650E-02  0.68627068769E-02  0.14195716176E-01  0.00000000000E+00 0.  1.
     999901    1    3    3    0    0  0.17320841085E-01  0.69101197078E-01  0.10806202886E+00  0.88946747498E+00  0.88000000000E+00 0.  1.
        -11    1    4    4    0    0 -0.21690417204E-01 -0.18181213657E-01 -0.57924356876E-01  0.64471101813E-01  0.51100000000E-03 0. -1.
         11    1    4    4    0    0  0.16239925416E-01 -0.47243515056E-01 -0.57000378861E-01  0.75795707026E-01  0.51100000000E-03 0.  1.
</event>
<event>
 8    1  0.2039519E+004  0.1043930E+01  0.7957747E-01            NaN
         13   -1    0    0    0    0  0.00000000000E+00  0.00000000000E+00  0.74505805969E-08  0.10566000000E+00  0.10566000000E+00 0.  1.
     999900   -1    0    0    0    0 -0.00000000000E+00 -0.00000000000E+00 -0.74505805969E-08  0.93827000000E+00  0.93827000000E+00 0.  1.
     999902    2    1    2    0    0 -0.15686856753E-02  0.13370574789E-01  0.33331347892E-02  0.10300612282E+01  0.10299678592E+01 0.  0.
     999903    2    3    3    0    0  0.80518680641E-01 -0.60648334647E-02 -0.10436184129E+00  0.13949159097E+00  0.45237925435E-01 0.  0.
         14    1    1    2    0    0  0.15686856753E-02 -0.13370574789E-01 -0.33331347892E-02  0.13868771844E-01  0.00000000000E+00 0. -1.
     999901    1    3    3    0    0 -0.82087366317E-01  0.19435408253E-01  0.10769497608E+00  0.89056963718E+00  0.88000000000E+00 0. -1.
        -11    1    4    4    0    0  0.17410296465E-01 -0.26522556575E-02 -0.15875118612E-03  0.17619285059E-01  0.51100000000E-03 0. -1.
         11    1    4    4    0    0  0.63108384177E-01 -0.34125778071E-02 -0.10420309010E+00  0.12187230591E+00  0.51100000000E-03 0.  1.
</event>
<event>
 8    1  0.2039519E+004  0.1043930E+01  0.7957747E-01            NaN
         13   -1    0    0    0    0  0.00000000000E+00  0.00000000000E+00  0.74505805969E-08  0.10566000000E+00  0.10566000000E+00 0.  1.
     999900   -1    0    0    0    0 -0.00000000000E+00 -0.00000000000E+00 -0.74505805969E-08  0.93827000000E+00  0.93827000000E+00 0. -1.
     999902    2    1    2    0    0  0.52441231054E-02  0.19701946333E-03  0.13274846444E-01  0.10296555055E+01  0.10295565545E+01 0.  0.
     999903    2    3    3    0    0  0.91126848845E-01  0.58311583339E-01 -0.74996831756E-01  0.13918089373E+00  0.45193506991E-01 0.  0.
         14    1    1    2    0    0 -0.52441231054E-02 -0.19701946333E-03 -0.13274846444E-01  0.14274494454E-01  0.00000000000E+00 0. -1.
     999901    1    3    3    0    0 -0.85882725740E-01 -0.58114563876E-01  0.88271678200E-01  0.89047461182E+00  0.88000000000E+00 0.  1.
        -11    1    4    4    0    0  0.26759491794E-01  0.43688669137E-01 -0.32348065198E-01  0.60592315149E-01  0.51100000000E-03 0. -1.
         11    1    4    4    0    0  0.64367357052E-01  0.14622914202E-01 -0.42648766558E-01  0.78588578582E-01  0.51100000000E-03 0.  1.
</event>
<event>
 8    1  0.2039519E+004  0.1043930E+01  0.7957747E-01            NaN
         13   -1    0    0    0    0  0.00000000000E+00  0.00000000000E+00  0.74505805969E-08  0.10566000000E+00  0.10566000000E+00 0. -1.
     999900   -1    0    0    0    0 -0.00000000000E+00 -0.00000000000E+00 -0.74505805969E-08  0.93827000000E+00  0.93827000000E+00 0. -1.
     999902    2    1    2    0    0  0.43508662045E-03 -0.13129871401E-01  0.53769381681E-02  0.10297351317E+01  0.10296372891E+01 0.  0.
     999903    2    3    3    0    0  0.40580812267E-01 -0.41671813504E-01 -0.11859077346E+00  0.13968214712E+00  0.45431138101E-01 0.  0.
         14    1    1    2    0    0 -0.43508662045E-03  0.13129871401E-01 -0.53769381681E-02  0.14194868349E-01  0.00000000000E+00 0. -1.
     999901    1    3    3    0    0 -0.40145725646E-01  0.28541942102E-01  0.12396771163E+00  0.89005298453E+00  0.88000000000E+00 0.  1.
        -11    1    4    4    0    0  0.38004159562E-01 -0.20942577065E-01 -0.10771128273E+00  0.11612445576E+00  0.51100000000E-03 0. -1.
         11    1    4    4    0    0  0.25766527048E-02 -0.20729236439E-01 -0.10879490732E-01  0.23557691357E-01  0.51100000000E-03 0.  1.
</event>
<event>
 8    1  0.2039519E+004  0.1043930E+01  0.7957747E-01            NaN
         13   -1    0    0    0    0  0.00000000000E+00  0.00000000000E+00  0.74505805969E-08  0.10566000000E+00  0.10566000000E+00 0.  1.
     999900   -1    0    0    0    0 -0.00000000000E+00 -0.00000000000E+00 -0.74505805969E-08  0.93827000000E+00  0.93827000000E+00 0. -1.
     999902    2    1    2    0    0  0.66203720368E-02  0.97254113881E-02  0.60346021721E-02  0.10307076940E+01  0.10306228802E+01 0.  0.
     999903    2    3    3    0    0  0.55406446819E-01 -0.76920204121E-01  0.93972792727E-01  0.14075226302E+00  0.44651109957E-01 0.  0.
         14    1    1    2    0    0 -0.66203720368E-02 -0.97254113881E-02 -0.60346021721E-02  0.13222306000E-01  0.00000000000E+00 0.  1.
     999901    1    3    3    0    0 -0.48786074782E-01  0.86645615509E-01 -0.87938190555E-01  0.88995543098E+00  0.88000000000E+00 0. -1.
        -11    1    4    4    0    0  0.63272736265E-02 -0.16261164658E-01 -0.14169578955E-02  0.17513673465E-01  0.51100000000E-03 0.  1.
         11    1    4    4    0    0  0.49079173193E-01 -0.60659039463E-01  0.95389750622E-01  0.12323858955E+00  0.51100000000E-03 0. -1.
</event>
<event>
 8    1  0.2039519E+004  0.1043930E+01  0.7957747E-01            NaN
         13   -1    0    0    0    0  0.00000000000E+00  0.00000000000E+00  0.74505805969E-08  0.10566000000E+00  0.10566000000E+00 0. -1.
     999900   -1    0    0    0    0 -0.00000000000E+00 -0.00000000000E+00 -0.74505805969E-08  0.93827000000E+00  0.93827000000E+00 0. -1.
     999902    2    1    2    0    0 -0.13730867671E-01  0.37254704297E-02 -0.39686737542E-02  0.10291595488E+01  0.10290535509E+01 0.  0.
     999903    2    3    3    0    0 -0.10232418311E+00 -0.61225034846E-01  0.58158565534E-01  0.14015609689E+00  0.45194794029E-01 0.  0.
         14    1    1    2    0    0  0.13730867671E-01 -0.37254704297E-02  0.39686737542E-02  0.14770451188E-01  0.00000000000E+00 0.  1.
     999901    1    3    3    0    0  0.88593315443E-01  0.64950505276E-01 -0.62127239288E-01  0.88900345193E+00  0.88000000000E+00 0. -1.
        -11    1    4    4    0    0 -0.82718934511E-01 -0.31594960698E-01  0.55543126155E-01  0.10452733447E+00  0.51100000000E-03 0.  1.
         11    1    4    4    0    0 -0.19605248603E-01 -0.29630074148E-01  0.26154393787E-02  0.35628762411E-01  0.51100000000E-03 0. -1.
</event>
<event>
 8    1  0.2039519E+004  0.1043930E+01  0.7957747E-01            NaN
         13   -1    0    0    0    0  0.00000000000E+00  0.00000000000E+00  0.74505805969E-08  0.10566000000E+00  0.10566000000E+00 0.  1.
     999900   -1    0    0    0    0 -0.00000000000E+00 -0.00000000000E+00 -0.74505805969E-08  0.93827000000E+00  0.93827000000E+00 0.  1.
     999902    2    1    2    0    0 -0.11599803286E-01  0.21534976026E-02  0.66840862373E-02  0.10303701329E+01  0.10302809038E+01 0.  0.
     999903    2    3    3    0    0 -0.11137707714E+00 -0.73684251452E-01 -0.85379159721E-02  0.14136024657E+00  0.45558765107E-01 0.  0.
         14    1    1    2    0    0  0.11599803286E-01 -0.21534976026E-02 -0.66840862373E-02  0.13559867146E-01  0.00000000000E+00 0. -1.
     999901    1    3    3    0    0  0.99777273849E-01  0.75837749054E-01  0.15222002209E-01  0.88900988628E+00  0.88000000000E+00 0.  1.
        -11    1    4    4    0    0 -0.50052363992E-01 -0.19585374546E-01 -0.22731809036E-01  0.58359423406E-01  0.51100000000E-03 0.  1.
         11    1    4    4    0    0 -0.61324713143E-01 -0.54098876906E-01  0.14193893064E-01  0.83000823164E-01  0.51100000000E-03 0. -1.
</event>
<event>
 8    1  0.2039519E+004  0.1043930E+01  0.7957747E-01            NaN
         13   -1    0    0    0    0  0.00000000000E+00  0.00000000000E+00  0.74505805969E-08  0.10566000000E+00  0.10566000000E+00 0. -1.
     999900   -1    0    0    0    0 -0.00000000000E+00 -0.00000000000E+00 -0.74505805969E-08  0.93827000000E+00  0.93827000000E+00 0.  1.
     999902    2    1    2    0    0 -0.86477682389E-02 -0.10324104239E-01  0.24915211259E-01  0.10156079454E+01  0.10152129629E+01 0.  0.
     999903    2    3    3    0    0  0.80827151680E-01  0.76654818285E-01  0.37901542673E-01  0.12670989780E+00  0.47009378291E-01 0.  0.
         14    1    1    2    0    0  0.86477682389E-02  0.10324104239E-01 -0.24915211259E-01  0.28322054585E-01  0.00000000000E+00 0.  1.
     999901    1    3    3    0    0 -0.89474919919E-01 -0.86978922524E-01 -0.12986331414E-01  0.88889804762E+00  0.88000000000E+00 0.  1.
        -11    1    4    4    0    0  0.41347690467E-01  0.16263966872E-01 -0.15789811820E-02  0.44462370921E-01  0.51100000000E-03 0. -1.
         11    1    4    4    0    0  0.39479461213E-01  0.60390851413E-01  0.39480523855E-01  0.82247526874E-01  0.51100000000E-03 0.  1.
</event>
<event>
 8    1  0.2039519E+004  0.1043930E+01  0.7957747E-01            NaN
         13   -1    0    0    0    0  0.00000000000E+00  0.00000000000E+00  0.74505805969E-08  0.10566000000E+00  0.10566000000E+00 0.  1.
     999900   -1    0    0    0    0 -0.00000000000E+00 -0.00000000000E+00 -0.74505805969E-08  0.93827000000E+00  0.93827000000E+00 0.  1.
     999902    2    1    2    0    0  0.75481660573E-02  0.18179563359E-02 -0.87655626403E-02  0.10322203944E+01  0.10321539748E+01 0.  0.
     999903    2    3    3    0    0 -0.46062266346E-02  0.15667797098E-01  0.13249773908E+00  0.14076379543E+00  0.44632925666E-01 0.  0.
         14    1    1    2    0    0 -0.75481660573E-02 -0.18179563359E-02  0.87655626403E-02  0.11709605650E-01  0.00000000000E+00 0. -1.
     999901    1    3    3    0    0  0.12154392692E-01 -0.13849840762E-01 -0.14126330172E+00  0.89145659892E+00  0.88000000000E+00 0.  1.
        -11    1    4    4    0    0 -0.17936742149E-01  0.21591322009E-01  0.53396265311E-01  0.60326894295E-01  0.51100000000E-03 0.  1.
         11    1    4    4    0    0  0.13330515515E-01 -0.59235249115E-02  0.79101473764E-01  0.80436901133E-01  0.51100000000E-03 0. -1.
</event>
<event>
 8    1  0.2039519E+004  0.1043930E+01  0.7957747E-01            NaN
         13   -1    0    0    0    0  0.00000000000E+00  0.00000000000E+00  0.74505805969E-08  0.10566000000E+00  0.10566000000E+00 0. -1.
     999900   -1    0    0    0    0 -0.00000000000E+00 -0.00000000000E+00 -0.74505805969E-08  0.93827000000E+00  0.93827000000E+00 0.  1.
     999902    2    1    2    0    0 -0.12470072431E-01  0.69235477670E-02  0.20314032909E-03  0.10296653764E+01  0.10295665631E+01 0.  0.
     999903    2    3    3    0    0  0.57364561693E-01  0.10946303980E+00 -0.46937840699E-01  0.13971397569E+00  0.45210442324E-01 0.  0.
         14    1    1    2    0    0  0.12470072431E-01 -0.69235477670E-02 -0.20314032909E-03  0.14264623588E-01  0.00000000000E+00 0. -1.
     999901    1    3    3    0    0 -0.69834634124E-01 -0.10253949203E+00  0.47140981028E-01  0.88995140072E+00  0.88000000000E+00 0. -1.
        -11    1    4    4    0    0  0.41740083261E-01  0.93867633507E-01 -0.19620157234E-01  0.10458766113E+00  0.51100000000E-03 0.  1.
         11    1    4    4    0    0  0.15624478431E-01  0.15595406289E-01 -0.27317683465E-01  0.35126314558E-01  0.51100000000E-03 0. -1.
</event>
<event>
 8    1  0.2039519E+004  0.1043930E+01  0.7957747E-01            NaN
         13   -1    0    0    0    0  0.00000000000E+00  0.00000000000E+00  0.74505805969E-08  0.10566000000E+00  0.10566000000E+00 0. -1.
     999900   -1    0    0    0    0 -0.00000000000E+00 -0.00000000000E+00 -0.74505805969E-08  0.93827000000E+00  0.93827000000E+00 0. -1.
     999902    2    1    2    0    0 -0.24694367187E-02 -0.99942662495E-02  0.19668379470E-02  0.10334489730E+01  0.10333958234E+01 0.  0.
     999903    2    3    3    0    0 -0.96814578734E-01  0.85151957351E-01  0.40481944786E-01  0.14247353947E+00  0.45122091040E-01 0.  0.
         14    1    1    2    0    0  0.24694367187E-02  0.99942662495E-02 -0.19668379470E-02  0.10481027005E-01  0.00000000000E+00 0.  1.
     999901    1    3    3    0    0  0.94345142015E-01 -0.95146223600E-01 -0.38515106839E-01  0.89097543352E+00  0.88000000000E+00 0. -1.
        -11    1    4    4    0    0 -0.18627826285E-01 -0.32068507527E-03  0.14852316590E-01  0.23831726336E-01  0.51100000000E-03 0.  1.
         11    1    4    4    0    0 -0.78186752449E-01  0.85472642426E-01  0.25629628196E-01  0.11864181314E+00  0.51100000000E-03 0. -1.
</event>
<event>
 8    1  0.2039519E+004  0.1043930E+01  0.7957747E-01            NaN
         13   -1    0    0    0    0  0.00000000000E+00  0.00000000000E+00  0.74505805969E-08  0.10566000000E+00  0.10566000000E+00 0.  1.
     999900   -1    0    0    0    0 -0.00000000000E+00 -0.00000000000E+00 -0.74505805969E-08  0.93827000000E+00  0.93827000000E+00 0. -1.
     999902    2    1    2    0    0 -0.11375356377E-01  0.51908503059E-03  0.79628220284E-03  0.10325149990E+01  0.10324518976E+01 0.  0.
     999903    2    3    3    0    0  0.18057359688E-01  0.62732105518E-01 -0.11763399132E+00  0.14191830333E+00  0.45184771813E-01 0.  0.
         14    1    1    2    0    0  0.11375356377E-01 -0.51908503059E-03 -0.79628220284E-03  0.11415000978E-01  0.00000000000E+00 0.  1.
     999901    1    3    3    0    0 -0.29432716065E-01 -0.62213020488E-01  0.11843027352E+00  0.89059669569E+00  0.88000000000E+00 0.  1.
        -11    1    4    4    0    0 -0.12267585093E-01  0.37732134789E-01 -0.66272908168E-01  0.77243557128E-01  0.51100000000E-03 0.  1.
         11    1    4    4    0    0  0.30324944781E-01  0.24999970730E-01 -0.51361083154E-01  0.64674746201E-01  0.51100000000E-03 0. -1.
</event>
<event>
 8    1  0.2039519E+004  0.1043930E+01  0.7957747E-01            NaN
         13   -1    0    0    0    0  0.00000000000E+00  0.00000000000E+00  0.74505805969E-08  0.10566000000E+00  0.10566000000E+00 0.  1.
     999900   -1    0    0    0    0 -0.00000000000E+00 -0.00000000000E+00 -0.74505805969E-08  0.93827000000E+00  0.93827000000E+00 0. -1.
     999902    2    1    2    0    0  0.63624676960E-02 -0.91256796523E-02  0.77444846917E-02  0.10303750722E+01  0.10302859086E+01 0.  0.
     999903    2    3    3    0    0  0.82078407973E-01 -0.10127962391E+00  0.17620994626E-01  0.14227440308E+00  0.54194824895E-01 0.  0.
         14    1    1    2    0    0 -0.63624676960E-02  0.91256796523E-02 -0.77444846917E-02  0.13554927792E-01  0.00000000000E+00 0. -1.
     999901    1    3    3    0    0 -0.75715940277E-01  0.92153944260E-01 -0.98765099344E-02  0.88810066913E+00  0.88000000000E+00 0.  1.
        -11    1    4    4    0    0  0.56532034181E-01 -0.79476430130E-01  0.36025216852E-01  0.10397331968E+00  0.51100000000E-03 0. -1.
         11    1    4    4    0    0  0.25546373792E-01 -0.21803193782E-01 -0.18404222226E-01  0.38301083402E-01  0.51100000000E-03 0.  1.
</event>
<event>
 8    1  0.2039519E+004  0.1043930E+01  0.7957747E-01            NaN
         13   -1    0    0    0    0  0.00000000000E+00  0.00000000000E+00  0.74505805969E-08  0.10566000000E+00  0.10566000000E+00 0.  1.
     999900   -1    0    0    0    0 -0.00000000000E+00 -0.00000000000E+00 -0.74505805969E-08  0.93827000000E+00  0.93827000000E+00 0.  1.
     999902    2    1    2    0    0 -0.59225605885E-02  0.35750460355E-02  0.11325794100E-01  0.10306585536E+01  0.10305731040E+01 0.  0.
     999903    2    3    3    0    0  0.56077334310E-01  0.64267997886E-01  0.10091650993E+00  0.14186492301E+00  0.51637887538E-01 0.  0.
         14    1    1    2    0    0  0.59225605885E-02 -0.35750460355E-02 -0.11325794100E-01  0.13271446420E-01  0.00000000000E+00 0. -1.
     999901    1    3    3    0    0 -0.61999894898E-01 -0.60692951851E-01 -0.89590715831E-01  0.88879363057E+00  0.88000000000E+00 0. -1.
        -11    1    4    4    0    0  0.58511171551E-01  0.34920073505E-01  0.83008952133E-01  0.10739513949E+00  0.51100000000E-03 0. -1.
         11    1    4    4    0    0 -0.24338372411E-02  0.29347924381E-01  0.17907557798E-01  0.34469783528E-01  0.51100000000E-03 0.  1.
</event>
<event>
 8    1  0.2039519E+004  0.1043930E+01  0.7957747E-01            NaN
         13   -1    0    0    0    0  0.00000000000E+00  0.00000000000E+00  0.74505805969E-08  0.10566000000E+00  0.10566000000E+00 0.  1.
     999900   -1    0    0    0    0 -0.00000000000E+00 -0.00000000000E+00 -0.74505805969E-08  0.93827000000E+00  0.93827000000E+00 0. -1.
     999902    2    1    2    0    0 -0.13169924544E-02  0.13396072305E-01  0.42153869500E-02  0.10298247276E+01  0.10297281247E+01 0.  0.
     999903    2    3    3    0    0 -0.63364998686E-01 -0.13771064970E-01 -0.11452507319E+00  0.13927023443E+00  0.45557002979E-01 0.  0.
         14    1    1    2    0    0  0.13169924544E-02 -0.13396072305E-01 -0.42153869500E-02  0.14105272400E-01  0.00000000000E+00 0. -1.
     999901    1    3    3    0    0  0.62048006232E-01  0.27167137275E-01  0.11874046014E+00  0.89055449317E+00  0.88000000000E+00 0.  1.
        -11    1    4    4    0    0 -0.68591551892E-01 -0.49930741639E-02 -0.95757329701E-01  0.11789596725E+00  0.51100000000E-03 0.  1.
         11    1    4    4    0    0  0.52265532055E-02 -0.87779908061E-02 -0.18767743492E-01  0.21374267187E-01  0.51100000000E-03 0. -1.
</event>
<event>
 8    1  0.2039519E+004  0.1043930E+01  0.7957747E-01            NaN
         13   -1    0    0    0    0  0.00000000000E+00  0.00000000000E+00  0.74505805969E-08  0.10566000000E+00  0.10566000000E+00 0.  1.
     999900   -1    0    0    0    0 -0.00000000000E+00 -0.00000000000E+00 -0.74505805969E-08  0.93827000000E+00  0.93827000000E+00 0. -1.
     999902    2    1    2    0    0 -0.76962292625E-02  0.11471917575E-01 -0.23378861053E-02  0.10299191988E+01  0.10298238945E+01 0.  0.
     999903    2    3    3    0    0  0.64095456765E-01  0.37279640421E-01  0.10931612294E+00  0.13958965172E+00  0.45135983045E-01 0.  0.
         14    1    1    2    0    0  0.76962292625E-02 -0.11471917575E-01  0.23378861053E-02  0.14010801160E-01  0.00000000000E+00 0.  1.
     999901    1    3    3    0    0 -0.71791686027E-01 -0.25807722846E-01 -0.11165400904E+00  0.89032954712E+00  0.88000000000E+00 0. -1.
        -11    1    4    4    0    0  0.24941597740E-01  0.39729141549E-01  0.68012565041E-01  0.82622382624E-01  0.51100000000E-03 0. -1.
         11    1    4    4    0    0  0.39153859025E-01 -0.24495011283E-02  0.41303557895E-01  0.56967269095E-01  0.51100000000E-03 0.  1.
</event>
<event>
 8    1  0.2039519E+004  0.1043930E+01  0.7957747E-01            NaN
         13   -1    0    0    0    0  0.00000000000E+00  0.00000000000E+00  0.74505805969E-08  0.10566000000E+00  0.10566000000E+00 0. -1.
     999900   -1    0    0    0    0 -0.00000000000E+00 -0.00000000000E+00 -0.74505805969E-08  0.93827000000E+00  0.93827000000E+00 0.  1.
     999902    2    1    2    0    0 -0.14163622432E-01 -0.12575828872E-02  0.42887772470E-02  0.10290779521E+01  0.10289707713E+01 0.  0.
     999903    2    3    3    0    0 -0.84151308700E-01 -0.36521235143E-01  0.96929294670E-01  0.14075139796E+00  0.44726105257E-01 0.  0.
         14    1    1    2    0    0  0.14163622432E-01  0.12575828872E-02 -0.42887772470E-02  0.14852047852E-01  0.00000000000E+00 0.  1.
     999901    1    3    3    0    0  0.69987686268E-01  0.35263652256E-01 -0.92640517423E-01  0.88832655418E+00  0.88000000000E+00 0.  1.
        -11    1    4    4    0    0 -0.33555864972E-01  0.54681123406E-02  0.47857403271E-01  0.58706801100E-01  0.51100000000E-03 0. -1.
         11    1    4    4    0    0 -0.50595443728E-01 -0.41989347484E-01  0.49071891399E-01  0.82044596864E-01  0.51100000000E-03 0.  1.
</event>
<event>
 8    1  0.2039519E+004  0.1043930E+01  0.7957747E-01            NaN
         13   -1    0    0    0    0  0.00000000000E+00  0.00000000000E+00  0.74505805969E-08  0.10566000000E+00  0.10566000000E+00 0. -1.
     999900   -1    0    0    0    0 -0.00000000000E+00 -0.00000000000E+00 -0.74505805969E-08  0.93827000000E+00  0.93827000000E+00 0.  1.
     999902    2    1    2    0    0  0.13075363568E-01 -0.37587898672E-02 -0.55377272383E-03  0.10303138222E+01  0.10302238455E+01 0.  0.
     999903    2    3    3    0    0 -0.11975721404E+00  0.33491674009E-01 -0.41932426378E-01  0.13860519057E+00  0.44604797152E-01 0.  0.
         14    1    1    2    0    0 -0.13075363568E-01  0.37587898672E-02  0.55377272383E-03  0.13616177802E-01  0.00000000000E+00 0.  1.
     999901    1    3    3    0    0  0.13283257761E+00 -0.37250463876E-01  0.41378653655E-01  0.89170863162E+00  0.88000000000E+00 0.  1.
        -11    1    4    4    0    0 -0.13752858799E-01  0.40382824523E-02  0.94509542127E-02  0.17176452102E-01  0.51100000000E-03 0.  1.
         11    1    4    4    0    0 -0.10600435524E+00  0.29453391556E-01 -0.51383380591E-01  0.12142873847E+00  0.51100000000E-03 0. -1.
</event>
<event>
 8    1  0.2039519E+004  0.1043930E+01  0.7957747E-01            NaN
         13   -1    0    0    0    0  0.00000000000E+00  0.00000000000E+00  0.74505805969E-08  0.10566000000E+00  0.10566000000E+00 0. -1.
     999900   -1    0    0    0    0 -0.00000000000E+00 -0.00000000000E+00 -0.74505805969E-08  0.93827000000E+00  0.93827000000E+00 0.  1.
     999902    2    1    2    0    0 -0.53686896413E-02 -0.74901980329E-03 -0.13186458152E-01  0.10296728426E+01  0.10295741334E+01 0.  0.
     999903    2    3    3    0    0 -0.10735285953E+00 -0.55669938748E-01  0.53308776935E-01  0.13959492771E+00  0.44957086367E-01 0.  0.
         14    1    1    2    0    0  0.53686896413E-02  0.74901980329E-03  0.13186458152E-01  0.14257157421E-01  0.00000000000E+00 0. -1.
     999901    1    3    3    0    0  0.10198416989E+00  0.54920918945E-01 -0.66495235087E-01  0.89007791487E+00  0.88000000000E+00 0. -1.
        -11    1    4    4    0    0 -0.92337162386E-01 -0.56170608077E-01  0.30543395525E-01  0.11231406368E+00  0.51100000000E-03 0. -1.
         11    1    4    4    0    0 -0.15015697146E-01  0.50066932864E-03  0.22765381410E-01  0.27280864031E-01  0.51100000000E-03 0.  1.
</event>
<event>
 8    1  0.2039519E+004  0.1043930E+01  0.7957747E-01            NaN
         13   -1    0    0    0    0  0.00000000000E+00  0.00000000000E+00  0.74505805969E-08  0.10566000000E+00  0.10566000000E+00 0.  1.
     999900   -1    0    0    0    0 -0.00000000000E+00 -0.00000000000E+00 -0.74505805969E-08  0.93827000000E+00  0.93827000000E+00 0.  1.
     999902    2    1    2    0    0 -0.68382250094E-02  0.10714671247E-01 -0.58832203138E-02  0.10299236521E+01  0.10298284087E+01 0.  0.
     999903    2    3    3    0    0 -0.96215402748E-01  0.15094287592E-01 -0.91687869424E-01  0.14123366183E+00  0.45332555518E-01 0.  0.
         14    1    1    2    0    0  0.68382250094E-02 -0.10714671247E-01  0.58832203138E-02  0.14006347935E-01  0.00000000000E+00 0.  1.
     999901    1    3    3    0    0  0.89377177739E-01 -0.43796163452E-02  0.85804649110E-01  0.88868999024E+00  0.88000000000E+00 0. -1.
        -11    1    4    4    0    0  0.21011254284E-03  0.55300203456E-02 -0.19838394478E-01  0.20602142820E-01  0.51100000000E-03 0.  1.
         11    1    4    4    0    0 -0.96425515291E-01  0.95642672467E-02 -0.71849474946E-01  0.12063151901E+00  0.51100000000E-03 0. -1.
</event>
<event>
 8    1  0.2039519E+004  0.1043930E+01  0.7957747E-01            NaN
         13   -1    0    0    0    0  0.00000000000E+00  0.00000000000E+00  0.74505805969E-08  0.10566000000E+00  0.10566000000E+00 0.  1.
     999900   -1    0    0    0    0 -0.00000000000E+00 -0.00000000000E+00 -0.74505805969E-08  0.93827000000E+00  0.93827000000E+00 0.  1.
     999902    2    1    2    0    0  0.26128061491E-02  0.10639158249E-01 -0.88321865155E-02  0.10298578302E+01  0.10297616833E+01 0.  0.
     999903    2    3    3    0    0  0.96043990821E-01  0.89972528419E-01 -0.23320677287E-01  0.14124481755E+00  0.45680854326E-01 0.  0.
         14    1    1    2    0    0 -0.26128061491E-02 -0.10639158249E-01  0.88321865155E-02  0.14072169800E-01  0.00000000000E+00 0.  1.
     999901    1    3    3    0    0 -0.93431184672E-01 -0.79333370169E-01  0.14488490772E-01  0.88861301265E+00  0.88000000000E+00 0. -1.
        -11    1    4    4    0    0  0.30840462022E-02 -0.52243826128E-02 -0.24401284498E-02  0.65590290832E-02  0.51100000000E-03 0.  1.
         11    1    4    4    0    0  0.92959944619E-01  0.95196911031E-01 -0.20880548837E-01  0.13468578846E+00  0.51100000000E-03 0. -1.
</event>
<event>
 8    1  0.2039519E+004  0.1043930E+01  0.7957747E-01            NaN
         13   -1    0    0    0    0  0.00000000000E+00  0.00000000000E+00  0.74505805969E-08  0.10566000000E+00  0.10566000000E+00 0.  1.
     999900   -1    0    0    0    0 -0.00000000000E+00 -0.00000000000E+00 -0.74505805969E-08  0.93827000000E+00  0.93827000000E+00 0. -1.
     999902    2    1    2    0    0  0.86003581380E-02  0.10663686639E-01 -0.37188270651E-02  0.10297345765E+01  0.10296367263E+01 0.  0.
     999903    2    3    3    0    0  0.13250761780E+00  0.25933681121E-01  0.85459962698E-02  0.14083829033E+00  0.39135219149E-01 0.  0.
         14    1    1    2    0    0 -0.86003581380E-02 -0.10663686639E-01  0.37188270651E-02  0.14195423473E-01  0.00000000000E+00 0.  1.
     999901    1    3    3    0    0 -0.12390725966E+00 -0.15269994482E-01 -0.12264823335E-01  0.88889628620E+00  0.88000000000E+00 0.  1.
        -11    1    4    4    0    0  0.75747532320E-01  0.18170245702E-01 -0.14228242867E-01  0.79186807597E-01  0.51100000000E-03 0. -1.
         11    1    4    4    0    0  0.56760085483E-01  0.77634354189E-02  0.22774239137E-01  0.61651482730E-01  0.51100000000E-03 0.  1.
</event>
<event>
 8    1  0.2039519E+004  0.1043930E+01  0.7957747E-01            NaN
         13   -1    0    0    0    0  0.00000000000E+00  0.00000000000E+00  0.74505805969E-08  0.10566000000E+00  0.10566000000E+00 0.  1.
     999900   -1    0    0    0    0 -0.00000000000E+00 -0.00000000000E+00 -0.74505805969E-08  0.93827000000E+00  0.93827000000E+00 0. -1.
     999902    2    1    2    0    0 -0.60562743315E-02  0.60534156440E-02  0.13952178003E-01  0.10275597352E+01  0.10274293279E+01 0.  0.
     999903    2    3    3    0    0  0.98903629196E-01  0.15440767594E-02 -0.81796808063E-01  0.13615366394E+00  0.45417951888E-01 0.  0.
         14    1    1    2    0    0  0.60562743315E-02 -0.60534156440E-02 -0.13952178003E-01  0.16370264835E-01  0.00000000000E+00 0. -1.
     999901    1    3    3    0    0 -0.10495990353E+00  0.45093388847E-02  0.95748986066E-01  0.89140607123E+00  0.88000000000E+00 0.  1.
        -11    1    4    4    0    0  0.94247982769E-01  0.13440950333E-01 -0.66058087245E-01  0.11587611235E+00  0.51100000000E-03 0.  1.
         11    1    4    4    0    0  0.46556464269E-02 -0.11896873574E-01 -0.15738720818E-01  0.20277551590E-01  0.51100000000E-03 0. -1.
</event>
<event>
 8    1  0.2039519E+004  0.1043930E+01  0.7957747E-01            NaN
         13   -1    0    0    0    0  0.00000000000E+00  0.00000000000E+00  0.74505805969E-08  0.10566000000E+00  0.10566000000E+00 0. -1.
     999900   -1    0    0    0    0 -0.00000000000E+00 -0.00000000000E+00 -0.74505805969E-08  0.93827000000E+00  0.93827000000E+00 0. -1.
     999902    2    1    2    0    0 -0.76023190539E-02  0.12610614603E-02  0.11186979347E-01  0.10303456694E+01  0.10302561159E+01 0.  0.
     999903    2    3    3    0    0 -0.78965642864E-02  0.11467511086E+00 -0.64981090035E-01  0.13980403198E+00  0.45933522803E-01 0.  0.
         14    1    1    2    0    0  0.76023190539E-02 -0.12610614603E-02 -0.11186979347E-01  0.13584330602E-01  0.00000000000E+00 0.  1.
     999901    1    3    3    0    0  0.29424523253E-03 -0.11341404940E+00  0.76168069382E-01  0.89054163742E+00  0.88000000000E+00 0. -1.
        -11    1    4    4    0    0  0.11726063897E-01  0.76975933042E-01 -0.25888276242E-01  0.82056436737E-01  0.51100000000E-03 0. -1.
         11    1    4    4    0    0 -0.19622628183E-01  0.37699177819E-01 -0.39092813793E-01  0.57747595243E-01  0.51100000000E-03 0.  1.
</event>
<event>
 8    1  0.2039519E+004  0.1043930E+01  0.7957747E-01            NaN
         13   -1    0    0    0    0  0.00000000000E+00  0.00000000000E+00  0.74505805969E-08  0.10566000000E+00  0.10566000000E+00 0. -1.
     999900   -1    0    0    0    0 -0.00000000000E+00 -0.00000000000E+00 -0.74505805969E-08  0.93827000000E+00  0.93827000000E+00 0.  1.
     999902    2    1    2    0    0 -0.41883186807E-02 -0.23840677044E-02 -0.12781648952E-01  0.10302699728E+01  0.10301794118E+01 0.  0.
     999903    2    3    3    0    0  0.56117186957E-01  0.42253760217E-01 -0.11494200160E+00  0.14118840889E+00  0.42284561597E-01 0.  0.
         14    1    1    2    0    0  0.41883186807E-02  0.23840677044E-02  0.12781648952E-01  0.13660027164E-01  0.00000000000E+00 0. -1.
     999901    1    3    3    0    0 -0.60305505637E-01 -0.44637827921E-01  0.10216035265E+00  0.88908156394E+00  0.88000000000E+00 0. -1.
        -11    1    4    4    0    0  0.30805107468E-01  0.25243535060E-02 -0.25399139457E-01  0.40008804192E-01  0.51100000000E-03 0.  1.
         11    1    4    4    0    0  0.25312079489E-01  0.39729406711E-01 -0.89542862142E-01  0.10117960470E+00  0.51100000000E-03 0. -1.
</event>
<event>
 8    1  0.2039519E+004  0.1043930E+01  0.7957747E-01            NaN
         13   -1    0    0    0    0  0.00000000000E+00  0.00000000000E+00  0.74505805969E-08  0.10566000000E+00  0.10566000000E+00 0.  1.
     999900   -1    0    0    0    0 -0.00000000000E+00 -0.00000000000E+00 -0.74505805969E-08  0.93827000000E+00  0.93827000000E+00 0.  1.
     999902    2    1    2    0    0  0.42236171086E-02 -0.80277571658E-02  0.10276228306E-01  0.10302228962E+01  0.10301317057E+01 0.  0.
     999903    2    3    3    0    0  0.31793861854E-01 -0.12986393359E+00  0.84776330999E-02  0.14139928758E+00  0.45237123766E-01 0.  0.
         14    1    1    2    0    0 -0.42236171086E-02  0.80277571658E-02 -0.10276228306E-01  0.13707103807E-01  0.00000000000E+00 0. -1.
     999901    1    3    3    0    0 -0.27570244746E-01  0.12183617642E+00  0.17985952059E-02  0.88882360861E+00  0.88000000000E+00 0.  1.
        -11    1    4    4    0    0  0.22459573799E-01 -0.40885635185E-01 -0.14818346627E-01  0.48948055502E-01  0.51100000000E-03 0. -1.
         11    1    4    4    0    0  0.93342880558E-02 -0.88978298404E-01  0.23295979727E-01  0.92451232079E-01  0.51100000000E-03 0.  1.
</event>
<event>
 8    1  0.2039519E+004  0.1043930E+01  0.7957747E-01            NaN
         13   -1    0    0    0    0  0.00000000000E+00  0.00000000000E+00  0.74505805969E-08  0.10566000000E+00  0.10566000000E+00 0.  1.
     999900   -1    0    0    0    0 -0.00000000000E+00 -0.00000000000E+00 -0.74505805969E-08  0.93827000000E+00  0.93827000000E+00 0. -1.
     999902    2    1    2    0    0  0.10059628025E-01 -0.29675267558E-02  0.97574010253E-02  0.10296048750E+01  0.10295052158E+01 0.  0.
     999903    2    3    3    0    0 -0.70318740535E-01 -0.66318405988E-01  0.90511855883E-01  0.14000086310E+00  0.45442154120E-01 0.  0.
         14    1    1    2    0    0 -0.10059628025E-01  0.29675267558E-02 -0.97574010253E-02  0.14325124984E-01  0.00000000000E+00 0. -1.
     999901    1    3    3    0    0  0.80378368560E-01  0.63350879232E-01 -0.80754454858E-01  0.88960401191E+00  0.88000000000E+00 0. -1.
        -11    1    4    4    0    0  0.40075564166E-02  0.31031228155E-02  0.46841615735E-02  0.69204313657E-02  0.51100000000E-03 0. -1.
         11    1    4    4    0    0 -0.74326296951E-01 -0.69421528804E-01  0.85827694309E-01  0.13308043174E+00  0.51100000000E-03 0.  1.
</event>
<event>
 8    1  0.2039519E+004  0.1043930E+01  0.7957747E-01            NaN
         13   -1    0    0    0    0  0.00000000000E+00  0.00000000000E+00  0.74505805969E-08  0.10566000000E+00  0.10566000000E+00 0. -1.
     999900   -1    0    0    0    0 -0.00000000000E+00 -0.00000000000E+00 -0.74505805969E-08  0.93827000000E+00  0.93827000000E+00 0.  1.
     999902    2    1    2    0    0  0.19389830971E-01 -0.22035774233E-03 -0.16258755568E-02  0.10244708743E+01  0.10242860512E+01 0.  0.
     999903    2    3    3    0    0 -0.91989174088E-01  0.26825796100E-01  0.80626560401E-01  0.13323451930E+00  0.45488057837E-01 0.  0.
         14    1    1    2    0    0 -0.19389830971E-01  0.22035774233E-03  0.16258755568E-02  0.19459125724E-01  0.00000000000E+00 0. -1.
     999901    1    3    3    0    0  0.11137900506E+00 -0.27046153843E-01 -0.82252435958E-01  0.89123635497E+00  0.88000000000E+00 0.  1.
        -11    1    4    4    0    0 -0.86262842606E-01  0.35612304014E-01  0.62612910268E-01  0.11238394843E+00  0.51100000000E-03 0. -1.
         11    1    4    4    0    0 -0.57263314822E-02 -0.87865079134E-02  0.18013650133E-01  0.20850570872E-01  0.51100000000E-03 0.  1.
</event>
<event>
 8    1  0.2039519E+004  0.1043930E+01  0.7957747E-01            NaN
         13   -1    0    0    0    0  0.00000000000E+00  0.00000000000E+00  0.74505805969E-08  0.10566000000E+00  0.10566000000E+00 0.  1.
     999900   -1    0    0    0    0 -0.00000000000E+00 -0.00000000000E+00 -0.74505805969E-08  0.93827000000E+00  0.93827000000E+00 0. -1.
     999902    2    1    2    0    0 -0.80829788633E-02 -0.12239113941E-01 -0.63227804928E-02  0.10279578990E+01  0.10278338067E+01 0.  0.
     999903    2    3    3    0    0  0.70823508755E-01 -0.94161400259E-01  0.56887132865E-01  0.13838890902E+00  0.45088862947E-01 0.  0.
         14    1    1    2    0    0  0.80829788633E-02  0.12239113941E-01  0.63227804928E-02  0.15972101005E-01  0.00000000000E+00 0.  1.
     999901    1    3    3    0    0 -0.78906487619E-01  0.81922286318E-01 -0.63209913358E-01  0.88956898998E+00  0.88000000000E+00 0. -1.
        -11    1    4    4    0    0  0.61712822524E-01 -0.47183508271E-01  0.41765412178E-01  0.88200718206E-01  0.51100000000E-03 0. -1.
         11    1    4    4    0    0  0.91106862314E-02 -0.46977891989E-01  0.15121720687E-01  0.50188190811E-01  0.51100000000E-03 0.  1.
</event>
<event>
 8    1  0.2039519E+004  0.1043930E+01  0.7957747E-01            NaN
         13   -1    0    0    0    0  0.00000000000E+00  0.00000000000E+00  0.74505805969E-08  0.10566000000E+00  0.10566000000E+00 0. -1.
     999900   -1    0    0    0    0 -0.00000000000E+00 -0.00000000000E+00 -0.74505805969E-08  0.93827000000E+00  0.93827000000E+00 0. -1.
     999902    2    1    2    0    0  0.85339589025E-02 -0.96983639936E-02 -0.31447549424E-02  0.10306342788E+01  0.10305485143E+01 0.  0.
     999903    2    3    3    0    0 -0.12661962750E-01  0.13027177039E+00 -0.15107521341E-01  0.13923985802E+00  0.45038221535E-01 0.  0.
         14    1    1    2    0    0 -0.85339589025E-02  0.96983639936E-02  0.31447549424E-02  0.13295721205E-01  0.00000000000E+00 0.  1.
     999901    1    3    3    0    0  0.21195921652E-01 -0.13997013438E+00  0.11962766399E-01  0.89139442078E+00  0.88000000000E+00 0.  1.
        -11    1    4    4    0    0 -0.11293193068E-01  0.92563763824E-01  0.10193063085E-01  0.93806962636E-01  0.51100000000E-03 0.  1.
         11    1    4    4    0    0 -0.13687696816E-02  0.37708006564E-01 -0.25300584426E-01  0.45432895382E-01  0.51100000000E-03 0. -1.
</event>
<event>
 8    1  0.2039519E+004  0.1043930E+01  0.7957747E-01            NaN
         13   -1    0    0    0    0  0.00000000000E+00  0.00000000000E+00  0.74505805969E-08  0.10566000000E+00  0.10566000000E+00 0. -1.
     999900   -1    0    0    0    0 -0.00000000000E+00 -0.00000000000E+00 -0.74505805969E-08  0.93827000000E+00  0.93827000000E+00 0.  1.
     999902    2    1    2    0    0 -0.12591489269E-02  0.98004976364E-02  0.10852095116E-01  0.10292533799E+01  0.10291487341E+01 0.  0.
     999903    2    3    3    0    0 -0.11325822447E+00  0.69166101746E-01  0.56964649193E-02  0.14015572022E+00  0.44719136377E-01 0.  0.
         14    1    1    2    0    0  0.12591489269E-02 -0.98004976364E-02 -0.10852095116E-01  0.14676620127E-01  0.00000000000E+00 0.  1.
     999901    1    3    3    0    0  0.11199907554E+00 -0.59365604110E-01  0.51556301969E-02  0.88909765965E+00  0.88000000000E+00 0. -1.
        -11    1    4    4    0    0 -0.85404681570E-01  0.33807168336E-01 -0.10195421620E-01  0.92418028588E-01  0.51100000000E-03 0. -1.
         11    1    4    4    0    0 -0.27853542897E-01  0.35358933411E-01  0.15891886540E-01  0.47737691635E-01  0.51100000000E-03 0.  1.
</event>
<event>
 8    1  0.2039519E+004  0.1043930E+01  0.7957747E-01            NaN
         13   -1    0    0    0    0  0.00000000000E+00  0.00000000000E+00  0.74505805969E-08  0.10566000000E+00  0.10566000000E+00 0.  1.
     999900   -1    0    0    0    0 -0.00000000000E+00 -0.00000000000E+00 -0.74505805969E-08  0.93827000000E+00  0.93827000000E+00 0.  1.
     999902    2    1    2    0    0 -0.13478220295E-01  0.20465987908E-02  0.92058241944E-03  0.10302662355E+01  0.10301756246E+01 0.  0.
     999903    2    3    3    0    0  0.11059754883E+00  0.68487078211E-01  0.15199475521E-01  0.13896773297E+00  0.46461909780E-01 0.  0.
         14    1    1    2    0    0  0.13478220295E-01 -0.20465987908E-02 -0.92058241944E-03  0.13663764523E-01  0.00000000000E+00 0. -1.
     999901    1    3    3    0    0 -0.12407576913E+00 -0.66440479421E-01 -0.14278893102E-01  0.89129850251E+00  0.88000000000E+00 0.  1.
        -11    1    4    4    0    0  0.11687598835E-01  0.42990233802E-02  0.16952812249E-01  0.21041400445E-01  0.51100000000E-03 0. -1.
         11    1    4    4    0    0  0.98909949996E-01  0.64188054831E-01 -0.17533367281E-02  0.11792633252E+00  0.51100000000E-03 0.  1.
</event>
<event>
 8    1  0.2039519E+004  0.1043930E+01  0.7957747E-01            NaN
         13   -1    0    0    0    0  0.00000000000E+00  0.00000000000E+00  0.74505805969E-08  0.10566000000E+00  0.10566000000E+00 0.  1.
     999900   -1    0    0    0    0 -0.00000000000E+00 -0.00000000000E+00 -0.74505805969E-08  0.93827000000E+00  0.93827000000E+00 0. -1.
     999902    2    1    2    0    0 -0.36412250134E-02 -0.11042434147E-01 -0.79426342310E-02  0.10298488314E+01  0.10297525606E+01 0.  0.
     999903    2    3    3    0    0  0.48713243054E-01 -0.11020052621E+00 -0.57773337474E-01  0.14133523185E+00  0.46051636371E-01 0.  0.
         14    1    1    2    0    0  0.36412250134E-02  0.11042434147E-01  0.79426342310E-02  0.14081168631E-01  0.00000000000E+00 0.  1.
     999901    1    3    3    0    0 -0.52354468067E-01  0.99158092065E-01  0.49830703243E-01  0.88851359952E+00  0.88000000000E+00 0.  1.
        -11    1    4    4    0    0  0.31629545740E-01 -0.42802649830E-01 -0.46939061995E-01  0.70965003052E-01  0.51100000000E-03 0.  1.
         11    1    4    4    0    0  0.17083697314E-01 -0.67397876382E-01 -0.10834275479E-01  0.70370228796E-01  0.51100000000E-03 0. -1.
</event>
<event>
 7    1  0.2039519E+004  0.1043930E+01  0.7957747E-01            NaN
         13   -1    0    0    0    0  0.00000000000E+00  0.00000000000E+00  0.74505805969E-08  0.10566000000E+00  0.10566000000E+00 0.  1.
     999900   -1    0    0    0    0 -0.00000000000E+00 -0.00000000000E+00 -0.74505805969E-08  0.93827000000E+00  0.93827000000E+00 0. -1.
     999903    2    1    2    0    0  0.50459802945E-01 -0.34181451504E-01 -0.53583153512E-01  0.92623464554E-01  0.44647379605E-01 0.  0.
         14    1    1    2    0    0  0.60814523709E-01 -0.77568824994E-02  0.11012939520E-01  0.62288525082E-01  0.00000000000E+00 0. -1.
     999901    1    1    2    0    0 -0.11127432665E+00  0.41938334003E-01  0.42570213992E-01  0.88901801036E+00  0.88000000000E+00 0. -1.
        -11    1    3    3    0    0  0.11753217268E-01 -0.32204506129E-02  0.72213347926E-02  0.14174562268E-01  0.51100000000E-03 0. -1.
         11    1    3    3    0    0  0.38706585677E-01 -0.30961000891E-01 -0.60804488304E-01  0.78448902286E-01  0.51100000000E-03 0.  1.
</event>
<event>
 8    1  0.2585039E+004  0.1043930E+01  0.7957747E-01            NaN
         13   -1    0    0    0    0  0.00000000000E+00  0.00000000000E+00  0.74505805969E-08  0.10566000000E+00  0.10566000000E+00 0. -1.
     999900   -1    0    0    0    0 -0.00000000000E+00 -0.00000000000E+00 -0.74505805969E-08  0.93827000000E+00  0.93827000000E+00 0. -1.
     999902    2    1    2    0    0  0.13346208662E-01  0.68215955387E-03  0.29631449553E-02  0.10302417987E+01  0.10301508612E+01 0.  0.
     999903    2    3    3    0    0 -0.19221550582E-03 -0.11524225108E+00  0.66925160179E-01  0.14023455304E+00  0.43657066098E-01 0.  0.
         14    1    1    2    0    0 -0.13346208662E-01 -0.68215955387E-03 -0.29631449553E-02  0.13688201318E-01  0.00000000000E+00 0.  1.
     999901    1    3    3    0    0  0.13538424168E-01  0.11592441063E+00 -0.63962015223E-01  0.89000724564E+00  0.88000000000E+00 0. -1.
        -11    1    4    4    0    0  0.13204749072E-01 -0.21970249285E-01  0.28867128689E-01  0.38608671195E-01  0.51100000000E-03 0.  1.
         11    1    4    4    0    0 -0.13396964578E-01 -0.93272001792E-01  0.38058031490E-01  0.10162588184E+00  0.51100000000E-03 0. -1.
</event>
<event>
 8    1  0.2039519E+004  0.1043930E+01  0.7957747E-01            NaN
         13   -1    0    0    0    0  0.00000000000E+00  0.00000000000E+00  0.74505805969E-08  0.10566000000E+00  0.10566000000E+00 0.  1.
     999900   -1    0    0    0    0 -0.00000000000E+00 -0.00000000000E+00 -0.74505805969E-08  0.93827000000E+00  0.93827000000E+00 0.  1.
     999902    2    1    2    0    0  0.17363951012E-01  0.49779370736E-02  0.79348480545E-02  0.10242006192E+01  0.10240105761E+01 0.  0.
     999903    2    3    3    0    0 -0.94142814985E-01  0.47650728337E-01  0.69114243136E-01  0.13403341899E+00  0.45328989386E-01 0.  0.
         14    1    1    2    0    0 -0.17363951012E-01 -0.49779370736E-02 -0.79348480545E-02  0.19729380778E-01  0.00000000000E+00 0. -1.
     999901    1    3    3    0    0  0.11150676600E+00 -0.42672791263E-01 -0.61179395081E-01  0.89016720023E+00  0.88000000000E+00 0.  1.
        -11    1    4    4    0    0 -0.64649591024E-01  0.54073270434E-01  0.46058770031E-01  0.96047694469E-01  0.51100000000E-03 0. -1.
         11    1    4    4    0    0 -0.29493223962E-01 -0.64225420978E-02  0.23055473105E-01  0.37985724526E-01  0.51100000000E-03 0.  1.
</event>
<event>
 8    1  0.2039519E+004  0.1043930E+01  0.7957747E-01            NaN
         13   -1    0    0    0    0  0.00000000000E+00  0.00000000000E+00  0.74505805969E-08  0.10566000000E+00  0.10566000000E+00 0.  1.
     999900   -1    0    0    0    0 -0.00000000000E+00 -0.00000000000E+00 -0.74505805969E-08  0.93827000000E+00  0.93827000000E+00 0.  1.
     999902    2    1    2    0    0 -0.12774630615E-01  0.89873171218E-03  0.34261864910E-03  0.10311192118E+01  0.10310396271E+01 0.  0.
     999903    2    3    3    0    0 -0.11239683735E+00 -0.11636477293E-01  0.73782218700E-01  0.14237004002E+00  0.45353675122E-01 0.  0.
         14    1    1    2    0    0  0.12774630615E-01 -0.89873171218E-03 -0.34261864910E-03  0.12810788172E-01  0.00000000000E+00 0.  1.
     999901    1    3    3    0    0  0.99622206738E-01  0.12535209005E-01 -0.73439600051E-01  0.88874917181E+00  0.88000000000E+00 0.  1.
        -11    1    4    4    0    0 -0.51282293470E-01  0.13512101646E-01  0.47669003133E-01  0.71309504942E-01  0.51100000000E-03 0.  1.
         11    1    4    4    0    0 -0.61114543884E-01 -0.25148578939E-01  0.26113215568E-01  0.71060535074E-01  0.51100000000E-03 0. -1.
</event>
<event>
 8    1  0.2039519E+004  0.1043930E+01  0.7957747E-01            NaN
         13   -1    0    0    0    0  0.00000000000E+00  0.00000000000E+00  0.74505805969E-08  0.10566000000E+00  0.10566000000E+00 0.  1.
     999900   -1    0    0    0    0 -0.00000000000E+00 -0.00000000000E+00 -0.74505805969E-08  0.93827000000E+00  0.93827000000E+00 0. -1.
     999902    2    1    2    0    0  0.10220219695E-02  0.10370863421E-01 -0.79501470061E-02  0.10308225909E+01  0.10307392540E+01 0.  0.
     999903    2    3    3    0    0  0.11612830836E+00  0.32993827708E-01  0.56590954509E-01  0.14069517893E+00  0.44924609867E-01 0.  0.
         14    1    1    2    0    0 -0.10220219695E-02 -0.10370863421E-01  0.79501470061E-02  0.13107409142E-01  0.00000000000E+00 0.  1.
     999901    1    3    3    0    0 -0.11510628639E+00 -0.22622964287E-01 -0.64541101515E-01  0.89012741193E+00  0.88000000000E+00 0. -1.
        -11    1    4    4    0    0  0.35726500617E-01  0.30313992744E-01  0.10644592859E-01  0.48050905096E-01  0.51100000000E-03 0.  1.
         11    1    4    4    0    0  0.80401807747E-01  0.26798349641E-02  0.45946361650E-01  0.92644273834E-01  0.51100000000E-03 0. -1.
</event>
<event>
 8    1  0.2039519E+004  0.1043930E+01  0.7957747E-01            NaN
         13   -1    0    0    0    0  0.00000000000E+00  0.00000000000E+00  0.74505805969E-08  0.10566000000E+00  0.10566000000E+00 0.  1.
     999900   -1    0    0    0    0 -0.00000000000E+00 -0.00000000000E+00 -0.74505805969E-08  0.93827000000E+00  0.93827000000E+00 0. -1.
     999902    2    1    2    0    0  0.34228184242E-02 -0.26192337458E-03 -0.12675459757E-01  0.10307979183E+01  0.10307142653E+01 0.  0.
     999903    2    3    3    0    0 -0.80603252353E-01  0.10038856690E+00  0.31683710807E-01  0.13997883578E+00  0.44893967095E-01 0.  0.
         14    1    1    2    0    0 -0.34228184242E-02  0.26192337458E-03  0.12675459757E-01  0.13132081703E-01  0.00000000000E+00 0.  1.
     999901    1    3    3    0    0  0.84026070777E-01 -0.10065049028E+00 -0.44359170564E-01  0.89081908252E+00  0.88000000000E+00 0. -1.
        -11    1    4    4    0    0 -0.78130822028E-01  0.70278291794E-01  0.17261084933E-01  0.10649727613E+00  0.51100000000E-03 0. -1.
         11    1    4    4    0    0 -0.24724303250E-02  0.30110275107E-01  0.14422625874E-01  0.33481559654E-01  0.51100000000E-03 0.  1.
</event>
<event>
 8    1  0.2039519E+004  0.1043930E+01  0.7957747E-01            NaN
         13   -1    0    0    0    0  0.00000000000E+00  0.00000000000E+00  0.74505805969E-08  0.10566000000E+00  0.10566000000E+00 0.  1.
     999900   -1    0    0    0    0 -0.00000000000E+00 -0.00000000000E+00 -0.74505805969E-08  0.93827000000E+00  0.93827000000E+00 0. -1.
     999902    2    1    2    0    0  0.14238455992E-01  0.45897924112E-02  0.65313834063E-03  0.10289558084E+01  0.10288468444E+01 0.  0.
     999903    2    3    3    0    0  0.83789805283E-01 -0.93415212424E-01  0.41126945683E-01  0.13986610529E+00  0.46086531274E-01 0.  0.
         14    1    1    2    0    0 -0.14238455992E-01 -0.45897924112E-02 -0.65313834063E-03  0.14974191568E-01  0.00000000000E+00 0.  1.
     999901    1    3    3    0    0 -0.69551349291E-01  0.98005004835E-01 -0.40473807342E-01  0.88908970315E+00  0.88000000000E+00 0.  1.
        -11    1    4    4    0    0  0.33753693078E-01 -0.54006755183E-01 -0.65254018071E-03  0.63692451134E-01  0.51100000000E-03 0. -1.
         11    1    4    4    0    0  0.50036112205E-01 -0.39408457242E-01  0.41779485863E-01  0.76173654151E-01  0.51100000000E-03 0.  1.
</event>
<event>
 8    1  0.2039519E+004  0.1043930E+01  0.7957747E-01            NaN
         13   -1    0    0    0    0  0.00000000000E+00  0.00000000000E+00  0.74505805969E-08  0.10566000000E+00  0.10566000000E+00 0.  1.
     999900   -1    0    0    0    0 -0.00000000000E+00 -0.00000000000E+00 -0.74505805969E-08  0.93827000000E+00  0.93827000000E+00 0. -1.
     999902    2    1    2    0    0  0.64491372431E-02 -0.12238493945E-02  0.11912321162E-01  0.10303288025E+01  0.10302390250E+01 0.  0.
     999903    2    3    3    0    0  0.15147604016E-01  0.12194505989E+00  0.51946339297E-01  0.14080703988E+00  0.45035017192E-01 0.  0.
         14    1    1    2    0    0 -0.64491372431E-02  0.12238493945E-02 -0.11912321162E-01  0.13601197520E-01  0.00000000000E+00 0. -1.
     999901    1    3    3    0    0 -0.86984667729E-02 -0.12316890928E+00 -0.40034018135E-01  0.88952176260E+00  0.88000000000E+00 0. -1.
        -11    1    4    4    0    0 -0.13998817655E-01  0.62244881272E-01  0.18521762422E-01  0.66435750500E-01  0.51100000000E-03 0. -1.
         11    1    4    4    0    0  0.29146421671E-01  0.59700178617E-01  0.33424576875E-01  0.74371289376E-01  0.51100000000E-03 0.  1.
</event>
<event>
 8    1  0.2039519E+004  0.1043930E+01  0.7957747E-01            NaN
         13   -1    0    0    0    0  0.00000000000E+00  0.00000000000E+00  0.74505805969E-08  0.10566000000E+00  0.10566000000E+00 0. -1.
     999900   -1    0    0    0    0 -0.00000000000E+00 -0.00000000000E+00 -0.74505805969E-08  0.93827000000E+00  0.93827000000E+00 0.  1.
     999902    2    1    2    0    0  0.60611683202E-02 -0.93921472258E-02 -0.15200796085E-02  0.10326490057E+01  0.10325873852E+01 0.  0.
     999903    2    3    3    0    0  0.89707417026E-01 -0.66994647848E-01 -0.77850827267E-01  0.14352520887E+00  0.44755231724E-01 0.  0.
         14    1    1    2    0    0 -0.60611683202E-02  0.93921472258E-02  0.15200796085E-02  0.11280994324E-01  0.00000000000E+00 0. -1.
     999901    1    3    3    0    0 -0.83646248706E-01  0.57602500622E-01  0.76330747658E-01  0.88912379680E+00  0.88000000000E+00 0. -1.
        -11    1    4    4    0    0  0.54284779224E-01 -0.63801405200E-01 -0.44936756443E-01  0.95063293450E-01  0.51100000000E-03 0.  1.
         11    1    4    4    0    0  0.35422637801E-01 -0.31932426479E-02 -0.32914070824E-01  0.48461915425E-01  0.51100000000E-03 0. -1.
</event>
<event>
 8    1  0.2039519E+004  0.1043930E+01  0.7957747E-01            NaN
         13   -1    0    0    0    0  0.00000000000E+00  0.00000000000E+00  0.74505805969E-08  0.10566000000E+00  0.10566000000E+00 0.  1.
     999900   -1    0    0    0    0 -0.00000000000E+00 -0.00000000000E+00 -0.74505805969E-08  0.93827000000E+00  0.93827000000E+00 0.  1.
     999902    2    1    2    0    0  0.45021655586E-02  0.84609191869E-02 -0.85633540223E-02  0.10310774641E+01  0.10309973565E+01 0.  0.
     999903    2    3    3    0    0 -0.65639664694E-02  0.13091093671E+00  0.29571399167E-01  0.14171211423E+00  0.45023290250E-01 0.  0.
         14    1    1    2    0    0 -0.45021655586E-02 -0.84609191869E-02  0.85633540223E-02  0.12852535949E-01  0.00000000000E+00 0. -1.
     999901    1    3    3    0    0  0.11066132028E-01 -0.12245001752E+00 -0.38134753189E-01  0.88936534982E+00  0.88000000000E+00 0.  1.
        -11    1    4    4    0    0 -0.15364674986E-01  0.34099474684E-01 -0.66119410200E-02  0.37984553389E-01  0.51100000000E-03 0.  1.
         11    1    4    4    0    0  0.88007085162E-02  0.96811462022E-01  0.36183340187E-01  0.10372756084E+00  0.51100000000E-03 0. -1.
</event>
<event>
 8    1  0.2039519E+004  0.1043930E+01  0.7957747E-01            NaN
         13   -1    0    0    0    0  0.00000000000E+00  0.00000000000E+00  0.74505805969E-08  0.10566000000E+00  0.10566000000E+00 0.  1.
     999900   -1    0    0    0    0 -0.00000000000E+00 -0.00000000000E+00 -0.74505805969E-08  0.93827000000E+00  0.93827000000E+00 0.  1.
     999902    2    1    2    0    0 -0.59595111170E-02  0.11666374630E-01 -0.15844231064E-01  0.10233713102E+01  0.10231647857E+01 0.  0.
     999903    2    3    3    0    0  0.61165228864E-01  0.74401467842E-01 -0.84660359845E-01  0.13591591285E+00  0.45044369217E-01 0.  0.
         14    1    1    2    0    0  0.59595111170E-02 -0.11666374630E-01  0.15844231064E-01  0.20558689836E-01  0.00000000000E+00 0.  1.
     999901    1    3    3    0    0 -0.67124739981E-01 -0.62735093211E-01  0.68816128781E-01  0.88745539731E+00  0.88000000000E+00 0. -1.
        -11    1    4    4    0    0  0.27094098752E-01  0.59561281930E-01 -0.70381035965E-01  0.96100925265E-01  0.51100000000E-03 0. -1.
         11    1    4    4    0    0  0.34071130113E-01  0.14840185911E-01 -0.14279323880E-01  0.39814987586E-01  0.51100000000E-03 0.  1.
</event>
<event>
 8    1  0.2039519E+004  0.1043930E+01  0.7957747E-01            NaN
         13   -1    0    0    0    0  0.00000000000E+00  0.00000000000E+00  0.74505805969E-08  0.10566000000E+00  0.10566000000E+00 0.  1.
     999900   -1    0    0    0    0 -0.00000000000E+00 -0.00000000000E+00 -0.74505805969E-08  0.93827000000E+00  0.93827000000E+00 0.  1.
     999902    2    1    2    0    0 -0.34945412030E-02  0.12081218613E-01  0.46074659307E-02  0.10305361057E+01  0.10304490617E+01 0.  0.
     999903    2    3    3    0    0 -0.61137602743E-01 -0.86519751521E-01 -0.78537820015E-01  0.13926846219E+00  0.44766522249E-01 0.  0.
         14    1    1    2    0    0  0.34945412030E-02 -0.12081218613E-01 -0.46074659307E-02  0.13393894270E-01  0.00000000000E+00 0.  1.
     999901    1    3    3    0    0  0.57643061540E-01  0.98600970135E-01  0.83145285946E-01  0.89126764354E+00  0.88000000000E+00 0.  1.
        -11    1    4    4    0    0 -0.67136844892E-01 -0.83435815493E-01 -0.77988190692E-01  0.13248135815E+00  0.51100000000E-03 0. -1.
         11    1    4    4    0    0  0.59992421489E-02 -0.30839360285E-02 -0.54962932323E-03  0.67871040350E-02  0.51100000000E-03 0.  1.
</event>
<event>
 8    1  0.2039519E+004  0.1043930E+01  0.7957747E-01            NaN
         13   -1    0    0    0    0  0.00000000000E+00  0.00000000000E+00  0.74505805969E-08  0.10566000000E+00  0.10566000000E+00 0. -1.
     999900   -1    0    0    0    0 -0.00000000000E+00 -0.00000000000E+00 -0.74505805969E-08  0.93827000000E+00  0.93827000000E+00 0.  1.
     999902    2    1    2    0    0  0.61157277370E-02 -0.26018386023E-01 -0.22706288579E-02  0.10171062364E+01  0.10167524683E+01 0.  0.
     999903    2    3    3    0    0  0.65811899811E-01  0.98281948233E-01  0.42453683504E-03  0.12636414694E+00  0.44465378616E-01 0.  0.
         14    1    1    2    0    0 -0.61157277370E-02  0.26018386023E-01  0.22706288579E-02  0.26823763577E-01  0.00000000000E+00 0. -1.
     999901    1    3    3    0    0 -0.59696172074E-01 -0.12430033426E+00 -0.26951656930E-02  0.89074208948E+00  0.88000000000E+00 0.  1.
        -11    1    4    4    0    0  0.10659802643E-01  0.44078411022E-01 -0.14485580941E-01  0.47609147092E-01  0.51100000000E-03 0.  1.
         11    1    4    4    0    0  0.55152097168E-01  0.54203537211E-01  0.14910117776E-01  0.78754999850E-01  0.51100000000E-03 0. -1.
</event>
<event>
 8    1  0.2039519E+004  0.1043930E+01  0.7957747E-01            NaN
         13   -1    0    0    0    0  0.00000000000E+00  0.00000000000E+00  0.74505805969E-08  0.10566000000E+00  0.10566000000E+00 0. -1.
     999900   -1    0    0    0    0 -0.00000000000E+00 -0.00000000000E+00 -0.74505805969E-08  0.93827000000E+00  0.93827000000E+00 0. -1.
     999902    2    1    2    0    0 -0.27301892630E-02 -0.26655009547E-02 -0.12321186494E-01  0.10310315324E+01  0.10309508477E+01 0.  0.
     999903    2    3    3    0    0  0.30175729555E-02  0.13305420067E+00 -0.67561583573E-02  0.14059127969E+00  0.44807769274E-01 0.  0.
         14    1    1    2    0    0  0.27301892630E-02  0.26655009547E-02  0.12321186494E-01  0.12898467559E-01  0.00000000000E+00 0. -1.
     999901    1    3    3    0    0 -0.57477622185E-02 -0.13571970162E+00 -0.55650281362E-02  0.89044025275E+00  0.88000000000E+00 0. -1.
        -11    1    4    4    0    0  0.47488997917E-02  0.61031560414E-01  0.18970976071E-01  0.64090268137E-01  0.51100000000E-03 0.  1.
         11    1    4    4    0    0 -0.17313268362E-02  0.72022640255E-01 -0.25727134429E-01  0.76501011554E-01  0.51100000000E-03 0. -1.
</event>
<event>
 8    1  0.2039519E+004  0.1043930E+01  0.7957747E-01            NaN
         13   -1    0    0    0    0  0.00000000000E+00  0.00000000000E+00  0.74505805969E-08  0.10566000000E+00  0.10566000000E+00 0. -1.
     999900   -1    0    0    0    0 -0.00000000000E+00 -0.00000000000E+00 -0.74505805969E-08  0.93827000000E+00  0.93827000000E+00 0. -1.
     999902    2    1    2    0    0 -0.70366647887E-02  0.33390374449E-02 -0.10934434078E-01  0.10305051845E+01  0.10304177355E+01 0.  0.
     999903    2    3    3    0    0 -0.71893059007E-01 -0.11089156399E+00 -0.18714461647E-01  0.14072121578E+00  0.44572172924E-01 0.  0.
         14    1    1    2    0    0  0.70366647887E-02 -0.33390374449E-02  0.10934434078E-01  0.13424815493E-01  0.00000000000E+00 0. -1.
     999901    1    3    3    0    0  0.64856394218E-01  0.11423060143E+00  0.77800275688E-02  0.88978396873E+00  0.88000000000E+00 0.  1.
        -11    1    4    4    0    0 -0.80984080488E-02 -0.16627036234E-01  0.12940468705E-01  0.22577851939E-01  0.51100000000E-03 0.  1.
         11    1    4    4    0    0 -0.63794650958E-01 -0.94264527753E-01 -0.31654930352E-01  0.11814336384E+00  0.51100000000E-03 0. -1.
</event>
<event>
 8    1  0.2039519E+004  0.1043930E+01  0.7957747E-01            NaN
         13   -1    0    0    0    0  0.00000000000E+00  0.00000000000E+00  0.74505805969E-08  0.10566000000E+00  0.10566000000E+00 0.  1.
     999900   -1    0    0    0    0 -0.00000000000E+00 -0.00000000000E+00 -0.74505805969E-08  0.93827000000E+00  0.93827000000E+00 0.  1.
     999902    2    1    2    0    0  0.87203985323E-02 -0.35717532604E-02  0.58276901812E-02  0.10328500747E+01  0.10327906429E+01 0.  0.
     999903    2    3    3    0    0  0.19509071433E-01 -0.29110075392E-01  0.13153756045E+00  0.14348424848E+00  0.45360769343E-01 0.  0.
         14    1    1    2    0    0 -0.87203985323E-02  0.35717532604E-02 -0.58276901812E-02  0.11079925305E-01  0.00000000000E+00 0.  1.
     999901    1    3    3    0    0 -0.10788672900E-01  0.25538322132E-01 -0.12570987027E+00  0.88936582622E+00  0.88000000000E+00 0.  1.
        -11    1    4    4    0    0 -0.12538100373E-01  0.18383741972E-02  0.32467050028E-01  0.34856190830E-01  0.51100000000E-03 0. -1.
         11    1    4    4    0    0  0.32047171805E-01 -0.30948449589E-01  0.99070510419E-01  0.10862805765E+00  0.51100000000E-03 0.  1.
</event>
<event>
 8    1  0.2039519E+004  0.1043930E+01  0.7957747E-01            NaN
         13   -1    0    0    0    0  0.00000000000E+00  0.00000000000E+00  0.74505805969E-08  0.10566000000E+00  0.10566000000E+00 0. -1.
     999900   -1    0    0    0    0 -0.00000000000E+00 -0.00000000000E+00 -0.74505805969E-08  0.93827000000E+00  0.93827000000E+00 0.  1.
     999902    2    1    2    0    0  0.10782049035E-01 -0.34751074268E-02 -0.79469572481E-02  0.10300922588E+01  0.10299993099E+01 0.  0.
     999903    2    3    3    0    0  0.42403685895E-01  0.11845894443E+00  0.40902261087E-01  0.13978102832E+00  0.45112601599E-01 0.  0.
         14    1    1    2    0    0 -0.10782049035E-01  0.34751074268E-02  0.79469572481E-02  0.13837741236E-01  0.00000000000E+00 0.  1.
     999901    1    3    3    0    0 -0.31621636860E-01 -0.12193405186E+00 -0.48849218335E-01  0.89031123044E+00  0.88000000000E+00 0. -1.
        -11    1    4    4    0    0  0.13965284918E-01  0.65586420012E-01 -0.13443368796E-03  0.67058831382E-01  0.51100000000E-03 0.  1.
         11    1    4    4    0    0  0.28438400977E-01  0.52872524420E-01  0.41036694775E-01  0.72722196939E-01  0.51100000000E-03 0. -1.
</event>
<event>
 8    1  0.2039519E+004  0.1043930E+01  0.7957747E-01            NaN
         13   -1    0    0    0    0  0.00000000000E+00  0.00000000000E+00  0.74505805969E-08  0.10566000000E+00  0.10566000000E+00 0. -1.
     999900   -1    0    0    0    0 -0.00000000000E+00 -0.00000000000E+00 -0.74505805969E-08  0.93827000000E+00  0.93827000000E+00 0. -1.
     999902    2    1    2    0    0  0.81123595927E-03 -0.90387458502E-02 -0.10867611407E-01  0.10297715393E+01  0.10296742015E+01 0.  0.
     999903    2    3    3    0    0  0.69260034706E-01 -0.10090620485E+00 -0.54611456857E-01  0.14126808292E+00  0.44668170391E-01 0.  0.
         14    1    1    2    0    0 -0.81123595927E-03  0.90387458502E-02  0.10867611407E-01  0.14158460652E-01  0.00000000000E+00 0. -1.
     999901    1    3    3    0    0 -0.68448798747E-01  0.91867459003E-01  0.43743845450E-01  0.88850345643E+00  0.88000000000E+00 0.  1.
        -11    1    4    4    0    0  0.50575493283E-01 -0.96464670480E-01 -0.36522089058E-01  0.11488009959E+00  0.51100000000E-03 0.  1.
         11    1    4    4    0    0  0.18684541423E-01 -0.44415343731E-02 -0.18089367800E-01  0.26387983329E-01  0.51100000000E-03 0. -1.
</event>
<event>
 8    1  0.2039519E+004  0.1043930E+01  0.7957747E-01            NaN
         13   -1    0    0    0    0  0.00000000000E+00  0.00000000000E+00  0.74505805969E-08  0.10566000000E+00  0.10566000000E+00 0.  1.
     999900   -1    0    0    0    0 -0.00000000000E+00 -0.00000000000E+00 -0.74505805969E-08  0.93827000000E+00  0.93827000000E+00 0.  1.
     999902    2    1    2    0    0  0.13678132971E-02 -0.13480431660E-01 -0.47058475777E-02  0.10295864317E+01  0.10294865139E+01 0.  0.
     999903    2    3    3    0    0 -0.10736807505E+00 -0.54565927747E-02  0.76047216076E-01  0.13918824395E+00  0.45083369860E-01 0.  0.
         14    1    1    2    0    0 -0.13678132971E-02  0.13480431660E-01  0.47058475777E-02  0.14343568328E-01  0.00000000000E+00 0.  1.
     999901    1    3    3    0    0  0.10873588834E+00 -0.80238388853E-02 -0.80753063654E-01  0.89039818772E+00  0.88000000000E+00 0. -1.
        -11    1    4    4    0    0 -0.70522984082E-01  0.23491840346E-02  0.23176893013E-01  0.74272736856E-01  0.51100000000E-03 0. -1.
         11    1    4    4    0    0 -0.36845090964E-01 -0.78057768094E-02  0.52870323063E-01  0.64915507096E-01  0.51100000000E-03 0.  1.
</event>
<event>
 8    1  0.2039519E+004  0.1043930E+01  0.7957747E-01            NaN
         13   -1    0    0    0    0  0.00000000000E+00  0.00000000000E+00  0.74505805969E-08  0.10566000000E+00  0.10566000000E+00 0.  1.
     999900   -1    0    0    0    0 -0.00000000000E+00 -0.00000000000E+00 -0.74505805969E-08  0.93827000000E+00  0.93827000000E+00 0.  1.
     999902    2    1    2    0    0  0.10395858519E-01 -0.58347213906E-02 -0.72059152301E-02  0.10300000660E+01  0.10299058660E+01 0.  0.
     999903    2    3    3    0    0 -0.84288713207E-02 -0.13164429867E+00  0.79424499211E-02  0.14072401593E+00  0.48362163970E-01 0.  0.
         14    1    1    2    0    0 -0.10395858519E-01  0.58347213906E-02  0.72059152301E-02  0.13929934040E-01  0.00000000000E+00 0.  1.
     999901    1    3    3    0    0  0.18824729840E-01  0.12580957728E+00 -0.15148365151E-01  0.88927605003E+00  0.88000000000E+00 0.  1.
        -11    1    4    4    0    0 -0.57383763828E-02 -0.73146654964E-01 -0.19691797955E-01  0.75969665812E-01  0.51100000000E-03 0. -1.
         11    1    4    4    0    0 -0.26904949379E-02 -0.58497643710E-01  0.27634247876E-01  0.64754350118E-01  0.51100000000E-03 0.  1.
</event>
<event>
 8    1  0.2039519E+004  0.1043930E+01  0.7957747E-01            NaN
         13   -1    0    0    0    0  0.00000000000E+00  0.00000000000E+00  0.74505805969E-08  0.10566000000E+00  0.10566000000E+00 0.  1.
     999900   -1    0    0    0    0 -0.00000000000E+00 -0.00000000000E+00 -0.74505805969E-08  0.93827000000E+00  0.93827000000E+00 0. -1.
     999902    2    1    2    0    0  0.45288540389E-02 -0.13264558486E-01 -0.13449541241E-02  0.10298492354E+01  0.10297529702E+01 0.  0.
     999903    2    3    3    0    0  0.11173199337E+00  0.64973670864E-01  0.26921357478E-01  0.13944892204E+00  0.44895724999E-01 0.  0.
         14    1    1    2    0    0 -0.45288540389E-02  0.13264558486E-01  0.13449541241E-02  0.14080764622E-01  0.00000000000E+00 0. -1.
     999901    1    3    3    0    0 -0.10720313933E+00 -0.78238229350E-01 -0.28266311602E-01  0.89040031333E+00  0.88000000000E+00 0. -1.
        -11    1    4    4    0    0  0.40582442286E-01  0.47011418701E-01  0.22045263118E-01  0.65903435852E-01  0.51100000000E-03 0.  1.
         11    1    4    4    0    0  0.71149551082E-01  0.17962252163E-01  0.48760943604E-02  0.73545486192E-01  0.51100000000E-03 0. -1.
</event>
<event>
 8    1  0.2039519E+004  0.1043930E+01  0.7957747E-01            NaN
         13   -1    0    0    0    0  0.00000000000E+00  0.00000000000E+00  0.74505805969E-08  0.10566000000E+00  0.10566000000E+00 0.  1.
     999900   -1    0    0    0    0 -0.00000000000E+00 -0.00000000000E+00 -0.74505805969E-08  0.93827000000E+00  0.93827000000E+00 0.  1.
     999902    2    1    2    0    0  0.35664403526E-02 -0.11668723164E-01 -0.49034195964E-02  0.10307800144E+01  0.10306961317E+01 0.  0.
     999903    2    3    3    0    0  0.59029963998E-01 -0.96194277862E-01 -0.74412553273E-01  0.14226873620E+00  0.44331585502E-01 0.  0.
         14    1    1    2    0    0 -0.35664403526E-02  0.11668723164E-01  0.49034195964E-02  0.13149985582E-01  0.00000000000E+00 0.  1.
     999901    1    3    3    0    0 -0.55463523645E-01  0.84525554698E-01  0.69509133676E-01  0.88851127822E+00  0.88000000000E+00 0. -1.
        -11    1    4    4    0    0  0.54900592591E-01 -0.48141828164E-01 -0.44246500809E-01  0.85379884286E-01  0.51100000000E-03 0.  1.
         11    1    4    4    0    0  0.41293714072E-02 -0.48052449698E-01 -0.30166052464E-01  0.56888851917E-01  0.51100000000E-03 0. -1.
</event>
<event>
 8    1  0.2039519E+004  0.1043930E+01  0.7957747E-01            NaN
         13   -1    0    0    0    0  0.00000000000E+00  0.00000000000E+00  0.74505805969E-08  0.10566000000E+00  0.10566000000E+00 0.  1.
     999900   -1    0    0    0    0 -0.00000000000E+00 -0.00000000000E+00 -0.74505805969E-08  0.93827000000E+00  0.93827000000E+00 0.  1.
     999902    2    1    2    0    0 -0.10208333355E-01  0.14040151698E-01  0.56391282877E-02  0.10256779947E+01  0.10255155840E+01 0.  0.
     999903    2    3    3    0    0 -0.12205018513E+00 -0.35505425558E-01 -0.22248922603E-01  0.13677917739E+00  0.45350257729E-01 0.  0.
         14    1    1    2    0    0  0.10208333355E-01 -0.14040151698E-01 -0.56391282877E-02  0.18252005299E-01  0.00000000000E+00 0. -1.
     999901    1    3    3    0    0  0.11184185178E+00  0.49545577256E-01  0.27888050890E-01  0.88889881731E+00  0.88000000000E+00 0.  1.
        -11    1    4    4    0    0 -0.96305520799E-01 -0.45394004304E-01 -0.11166541073E-01  0.10705289218E+00  0.51100000000E-03 0. -1.
         11    1    4    4    0    0 -0.25744664332E-01  0.98885787457E-02 -0.11082381529E-01  0.29726285212E-01  0.51100000000E-03 0.  1.
</event>
<event>
 8    1  0.2039519E+004  0.1043930E+01  0.7957747E-01            NaN
         13   -1    0    0    0    0  0.00000000000E+00  0.00000000000E+00  0.74505805969E-08  0.10566000000E+00  0.10566000000E+00 0.  1.
     999900   -1    0    0    0    0 -0.00000000000E+00 -0.00000000000E+00 -0.74505805969E-08  0.93827000000E+00  0.93827000000E+00 0.  1.
     999902    2    1    2    0    0  0.10205998761E-01  0.32965210788E-02 -0.78308415655E-02  0.10306502582E+01  0.10305647011E+01 0.  0.
     999903    2    3    3    0    0  0.79735858309E-01  0.57797399104E-01  0.89896751278E-01  0.14084385823E+00  0.45356587912E-01 0.  0.
         14    1    1    2    0    0 -0.10205998761E-01 -0.32965210788E-02  0.78308415655E-02  0.13279741773E-01  0.00000000000E+00 0.  1.
     999901    1    3    3    0    0 -0.69529859548E-01 -0.54500878025E-01 -0.97727592844E-01  0.88980640000E+00  0.88000000000E+00 0. -1.
        -11    1    4    4    0    0  0.62837842637E-01  0.64136463928E-01  0.79971391153E-01  0.12024044659E+00  0.51100000000E-03 0.  1.
         11    1    4    4    0    0  0.16898015673E-01 -0.63390648246E-02  0.99253601255E-02  0.20603411638E-01  0.51100000000E-03 0. -1.
</event>
<event>
 8    1  0.2039519E+004  0.1043930E+01  0.7957747E-01            NaN
         13   -1    0    0    0    0  0.00000000000E+00  0.00000000000E+00  0.74505805969E-08  0.10566000000E+00  0.10566000000E+00 0. -1.
     999900   -1    0    0    0    0 -0.00000000000E+00 -0.00000000000E+00 -0.74505805969E-08  0.93827000000E+00  0.93827000000E+00 0. -1.
     999902    2    1    2    0    0 -0.14569573675E-02 -0.10229487350E-01 -0.97294628981E-02  0.10297374814E+01  0.10296396714E+01 0.  0.
     999903    2    3    3    0    0  0.28464034076E-01 -0.81534815094E-01 -0.10482811663E+00  0.14124242263E+00  0.38760296773E-01 0.  0.
         14    1    1    2    0    0  0.14569573675E-02  0.10229487350E-01  0.97294628981E-02  0.14192518610E-01  0.00000000000E+00 0. -1.
     999901    1    3    3    0    0 -0.29920991444E-01  0.71305327744E-01  0.95098653735E-01  0.88849505876E+00  0.88000000000E+00 0.  1.
        -11    1    4    4    0    0  0.20742253884E-01 -0.33073641672E-01 -0.72894937635E-01  0.82692441755E-01  0.51100000000E-03 0. -1.
         11    1    4    4    0    0  0.77217801921E-02 -0.48461173423E-01 -0.31933178999E-01  0.58549980878E-01  0.51100000000E-03 0.  1.
</event>
<event>
 8    1  0.2039519E+004  0.1043930E+01  0.7957747E-01            NaN
         13   -1    0    0    0    0  0.00000000000E+00  0.00000000000E+00  0.74505805969E-08  0.10566000000E+00  0.10566000000E+00 0. -1.
     999900   -1    0    0    0    0 -0.00000000000E+00 -0.00000000000E+00 -0.74505805969E-08  0.93827000000E+00  0.93827000000E+00 0. -1.
     999902    2    1    2    0    0 -0.58548438500E-02  0.68364942225E-03  0.12003993091E-01  0.10305568021E+01  0.10304700286E+01 0.  0.
     999903    2    3    3    0    0  0.11921058301E+00  0.23797310220E-01 -0.44450532416E-01  0.13962318177E+00  0.52357501652E-01 0.  0.
         14    1    1    2    0    0  0.58548438500E-02 -0.68364942225E-03 -0.12003993091E-01  0.13373197941E-01  0.00000000000E+00 0.  1.
     999901    1    3    3    0    0 -0.12506542686E+00 -0.23113660797E-01  0.56454525507E-01  0.89093362029E+00  0.88000000000E+00 0. -1.
        -11    1    4    4    0    0  0.92615955982E-01  0.35749202603E-01 -0.47953748292E-01  0.11025218313E+00  0.51100000000E-03 0. -1.
         11    1    4    4    0    0  0.26594627031E-01 -0.11951892383E-01  0.35032158757E-02  0.29370998637E-01  0.51100000000E-03 0.  1.
</event>
<event>
 8    1  0.2039519E+004  0.1043930E+01  0.7957747E-01            NaN
         13   -1    0    0    0    0  0.00000000000E+00  0.00000000000E+00  0.74505805969E-08  0.10566000000E+00  0.10566000000E+00 0. -1.
     999900   -1    0    0    0    0 -0.00000000000E+00 -0.00000000000E+00 -0.74505805969E-08  0.93827000000E+00  0.93827000000E+00 0. -1.
     999902    2    1    2    0    0 -0.75285800949E-03 -0.11027095790E-01 -0.90566525178E-02  0.10296406126E+01  0.10295414535E+01 0.  0.
     999903    2    3    3    0    0 -0.12865420929E+00  0.28722314863E-01 -0.13217163037E-01  0.13949675843E+00  0.43678086911E-01 0.  0.
         14    1    1    2    0    0  0.75285800949E-03  0.11027095790E-01  0.90566525178E-02  0.14289387376E-01  0.00000000000E+00 0. -1.
     999901    1    3    3    0    0  0.12790135128E+00 -0.39749410653E-01  0.41605105191E-02  0.89014385419E+00  0.88000000000E+00 0.  1.
        -11    1    4    4    0    0 -0.84129281176E-01  0.92707020054E-02  0.10743482887E-01  0.85319197209E-01  0.51100000000E-03 0.  1.
         11    1    4    4    0    0 -0.44524928111E-01  0.19451612857E-01 -0.23960645924E-01  0.54177561224E-01  0.51100000000E-03 0. -1.
</event>
<event>
 8    1  0.2039519E+004  0.1043930E+01  0.7957747E-01            NaN
         13   -1    0    0    0    0  0.00000000000E+00  0.00000000000E+00  0.74505805969E-08  0.10566000000E+00  0.10566000000E+00 0. -1.
     999900   -1    0    0    0    0 -0.00000000000E+00 -0.00000000000E+00 -0.74505805969E-08  0.93827000000E+00  0.93827000000E+00 0. -1.
     999902    2    1    2    0    0 -0.12663637947E-01 -0.63291840057E-02 -0.28961585099E-02  0.10294796010E+01  0.10293781788E+01 0.  0.
     999903    2    3    3    0    0  0.42281030704E-01 -0.11499581389E+00 -0.49531208465E-01  0.13987172059E+00  0.45815224965E-01 0.  0.
         14    1    1    2    0    0  0.12663637947E-01  0.63291840057E-02  0.28961585099E-02  0.14450398968E-01  0.00000000000E+00 0. -1.
     999901    1    3    3    0    0 -0.54944668651E-01  0.10866662988E+00  0.46635049955E-01  0.88960788044E+00  0.88000000000E+00 0.  1.
        -11    1    4    4    0    0  0.26871202061E-01 -0.21524359684E-01 -0.23290661253E-01  0.41570128489E-01  0.51100000000E-03 0. -1.
         11    1    4    4    0    0  0.15409828643E-01 -0.93471454206E-01 -0.26240547212E-01  0.98301592099E-01  0.51100000000E-03 0.  1.
</event>
<event>
 8    1  0.2039519E+004  0.1043930E+01  0.7957747E-01            NaN
         13   -1    0    0    0    0  0.00000000000E+00  0.00000000000E+00  0.74505805969E-08  0.10566000000E+00  0.10566000000E+00 0. -1.
     999900   -1    0    0    0    0 -0.00000000000E+00 -0.00000000000E+00 -0.74505805969E-08  0.93827000000E+00  0.93827000000E+00 0.  1.
     999902    2    1    2    0    0 -0.78474005157E-03  0.89001630061E-02 -0.98284812138E-02  0.10306473888E+01  0.10305617945E+01 0.  0.
     999903    2    3    3    0    0  0.97391055211E-01 -0.94956344530E-02 -0.91575485994E-01  0.14123215113E+00  0.44556325787E-01 0.  0.
         14    1    1    2    0    0  0.78474005157E-03 -0.89001630061E-02  0.98284812138E-02  0.13282611244E-01  0.00000000000E+00 0.  1.
     999901    1    3    3    0    0 -0.98175795262E-01  0.18395797459E-01  0.81747004780E-01  0.88941523763E+00  0.88000000000E+00 0. -1.
        -11    1    4    4    0    0  0.75821855392E-01 -0.20841427408E-01 -0.50459237562E-01  0.93432941877E-01  0.51100000000E-03 0. -1.
         11    1    4    4    0    0  0.21569199819E-01  0.11345792955E-01 -0.41116248433E-01  0.47799209249E-01  0.51100000000E-03 0.  1.
</event>
<event>
 8    1  0.2039519E+004  0.1043930E+01  0.7957747E-01            NaN
         13   -1    0    0    0    0  0.00000000000E+00  0.00000000000E+00  0.74505805969E-08  0.10566000000E+00  0.10566000000E+00 0. -1.
     999900   -1    0    0    0    0 -0.00000000000E+00 -0.00000000000E+00 -0.74505805969E-08  0.93827000000E+00  0.93827000000E+00 0.  1.
     999902    2    1    2    0    0  0.96724661126E-02  0.97363519062E-02 -0.17703916505E-02  0.10300921015E+01  0.10299991505E+01 0.  0.
     999903    2    3    3    0    0  0.25984716455E-01  0.10016154395E+00  0.84736843098E-01  0.14108911692E+00  0.44925115037E-01 0.  0.
         14    1    1    2    0    0 -0.96724661126E-02 -0.97363519062E-02  0.17703916505E-02  0.13837898530E-01  0.00000000000E+00 0.  1.
     999901    1    3    3    0    0 -0.16312250342E-01 -0.90425192041E-01 -0.86507234749E-01  0.88900298455E+00  0.88000000000E+00 0. -1.
        -11    1    4    4    0    0 -0.13762404702E-02  0.42586641566E-01  0.57978392110E-01  0.71953256705E-01  0.51100000000E-03 0.  1.
         11    1    4    4    0    0  0.27360956925E-01  0.57574902381E-01  0.26758450988E-01  0.69135860219E-01  0.51100000000E-03 0. -1.
</event>
<event>
 8    1  0.2039519E+004  0.1043930E+01  0.7957747E-01            NaN
         13   -1    0    0    0    0  0.00000000000E+00  0.00000000000E+00  0.74505805969E-08  0.10566000000E+00  0.10566000000E+00 0. -1.
     999900   -1    0    0    0    0 -0.00000000000E+00 -0.00000000000E+00 -0.74505805969E-08  0.93827000000E+00  0.93827000000E+00 0.  1.
     999902    2    1    2    0    0  0.14321427523E-01 -0.23043904368E-01 -0.21523147282E-02  0.10167131436E+01  0.10163487881E+01 0.  0.
     999903    2    3    3    0    0  0.11022830241E+00  0.48105493812E-01  0.10627228960E-01  0.12855567880E+00  0.44149828622E-01 0.  0.
         14    1    1    2    0    0 -0.14321427523E-01  0.23043904368E-01  0.21523147282E-02  0.27216856422E-01  0.00000000000E+00 0. -1.
     999901    1    3    3    0    0 -0.95906874891E-01 -0.71149398180E-01 -0.12779543688E-01  0.88815746478E+00  0.88000000000E+00 0. -1.
        -11    1    4    4    0    0  0.56981027198E-01  0.40991836725E-01  0.22157121776E-01  0.73609559875E-01  0.51100000000E-03 0. -1.
         11    1    4    4    0    0  0.53247275215E-01  0.71136570867E-02 -0.11529892816E-01  0.54946118920E-01  0.51100000000E-03 0.  1.
</event>
<event>
 8    1  0.2039519E+004  0.1043930E+01  0.7957747E-01            NaN
         13   -1    0    0    0    0  0.00000000000E+00  0.00000000000E+00  0.74505805969E-08  0.10566000000E+00  0.10566000000E+00 0. -1.
     999900   -1    0    0    0    0 -0.00000000000E+00 -0.00000000000E+00 -0.74505805969E-08  0.93827000000E+00  0.93827000000E+00 0. -1.
     999902    2    1    2    0    0 -0.10831549510E-01 -0.10521636357E-01  0.80571112612E-02  0.10268143832E+01  0.10266717261E+01 0.  0.
     999903    2    3    3    0    0  0.93979780468E-02  0.10809638337E+00  0.69490372447E-01  0.13650347461E+00  0.45068133170E-01 0.  0.
         14    1    1    2    0    0  0.10831549510E-01  0.10521636357E-01 -0.80571112612E-02  0.17115616796E-01  0.00000000000E+00 0. -1.
     999901    1    3    3    0    0 -0.20229527557E-01 -0.11861801973E+00 -0.61433261186E-01  0.89031090860E+00  0.88000000000E+00 0. -1.
        -11    1    4    4    0    0  0.36949760683E-02  0.68896537104E-02  0.24274859008E-01  0.25507843446E-01  0.51100000000E-03 0. -1.
         11    1    4    4    0    0  0.57030019784E-02  0.10120672966E+00  0.45215513440E-01  0.11099563116E+00  0.51100000000E-03 0.  1.
</event>
<event>
 8    1  0.2039519E+004  0.1043930E+01  0.7957747E-01            NaN
         13   -1    0    0    0    0  0.00000000000E+00  0.00000000000E+00  0.74505805969E-08  0.10566000000E+00  0.10566000000E+00 0. -1.
     999900   -1    0    0    0    0 -0.00000000000E+00 -0.00000000000E+00 -0.74505805969E-08  0.93827000000E+00  0.93827000000E+00 0. -1.
     999902    2    1    2    0    0  0.88151142847E-02 -0.51408394404E-02  0.87995807263E-02  0.10304553167E+01  0.10303672125E+01 0.  0.
     999903    2    3    3    0    0  0.64781306834E-01 -0.44805989734E-01  0.10816517126E+00  0.14221038454E+00  0.48165285913E-01 0.  0.
         14    1    1    2    0    0 -0.88151142847E-02  0.51408394404E-02 -0.87995807263E-02  0.13474683334E-01  0.00000000000E+00 0.  1.
     999901    1    3    3    0    0 -0.55966192549E-01  0.39665150294E-01 -0.99365590535E-01  0.88824493212E+00  0.88000000000E+00 0. -1.
        -11    1    4    4    0    0  0.40425265357E-01 -0.68463254015E-02  0.26215674639E-01  0.48668233669E-01  0.51100000000E-03 0. -1.
         11    1    4    4    0    0  0.24356041476E-01 -0.37959664333E-01  0.81949496623E-01  0.93542150875E-01  0.51100000000E-03 0.  1.
</event>
<event>
 8    1  0.2039519E+004  0.1043930E+01  0.7957747E-01            NaN
         13   -1    0    0    0    0  0.00000000000E+00  0.00000000000E+00  0.74505805969E-08  0.10566000000E+00  0.10566000000E+00 0. -1.
     999900   -1    0    0    0    0 -0.00000000000E+00 -0.00000000000E+00 -0.74505805969E-08  0.93827000000E+00  0.93827000000E+00 0.  1.
     999902    2    1    2    0    0  0.24682298550E-02 -0.11359889843E-01 -0.80446139575E-02  0.10297929894E+01  0.10296959483E+01 0.  0.
     999903    2    3    3    0    0  0.13204367139E+00 -0.62238920016E-02  0.10796187948E-01  0.14009014609E+00  0.45104582585E-01 0.  0.
         14    1    1    2    0    0 -0.24682298550E-02  0.11359889843E-01  0.80446139575E-02  0.14137010631E-01  0.00000000000E+00 0. -1.
     999901    1    3    3    0    0 -0.12957544154E+00 -0.51359978415E-02 -0.18840801905E-01  0.88970284328E+00  0.88000000000E+00 0.  1.
        -11    1    4    4    0    0  0.60277145180E-01 -0.24598944593E-01 -0.76702017983E-03  0.65109843703E-01  0.51100000000E-03 0.  1.
         11    1    4    4    0    0  0.71766526214E-01  0.18375052592E-01  0.11563208128E-01  0.74980302386E-01  0.51100000000E-03 0. -1.
</event>
<event>
 8    1  0.2039519E+004  0.1043930E+01  0.7957747E-01            NaN
         13   -1    0    0    0    0  0.00000000000E+00  0.00000000000E+00  0.74505805969E-08  0.10566000000E+00  0.10566000000E+00 0.  1.
     999900   -1    0    0    0    0 -0.00000000000E+00 -0.00000000000E+00 -0.74505805969E-08  0.93827000000E+00  0.93827000000E+00 0.  1.
     999902    2    1    2    0    0  0.50903996007E-02  0.13825437777E-01 -0.74075611349E-02  0.10274397950E+01  0.10273074543E+01 0.  0.
     999903    2    3    3    0    0  0.10166289898E+00 -0.23198754732E-01  0.77672236001E-01  0.13730743951E+00  0.44122890322E-01 0.  0.
         14    1    1    2    0    0 -0.50903996007E-02 -0.13825437777E-01  0.74075611349E-02  0.16490204965E-01  0.00000000000E+00 0. -1.
     999901    1    3    3    0    0 -0.96572499378E-01  0.37024192509E-01 -0.85079797136E-01  0.89013235552E+00  0.88000000000E+00 0.  1.
        -11    1    4    4    0    0 -0.28370584026E-02  0.37896271461E-02  0.63656638926E-02  0.79494007372E-02  0.51100000000E-03 0.  1.
         11    1    4    4    0    0  0.10449995738E+00 -0.26988381878E-01  0.71306572108E-01  0.12935803878E+00  0.51100000000E-03 0. -1.
</event>
<event>
 8    1  0.2039519E+004  0.1043930E+01  0.7957747E-01            NaN
         13   -1    0    0    0    0  0.00000000000E+00  0.00000000000E+00  0.74505805969E-08  0.10566000000E+00  0.10566000000E+00 0. -1.
     999900   -1    0    0    0    0 -0.00000000000E+00 -0.00000000000E+00 -0.74505805969E-08  0.93827000000E+00  0.93827000000E+00 0. -1.
     999902    2    1    2    0    0  0.78896639028E-02  0.11661167468E-01  0.39191171087E-02  0.10293153121E+01  0.10292115539E+01 0.  0.
     999903    2    3    3    0    0 -0.54571726942E-01  0.23152984469E-01 -0.11723345433E+00  0.13874727273E+00  0.44642903176E-01 0.  0.
         14    1    1    2    0    0 -0.78896639028E-02 -0.11661167468E-01 -0.39191171087E-02  0.14614687890E-01  0.00000000000E+00 0. -1.
     999901    1    3    3    0    0  0.62461390845E-01 -0.11491817001E-01  0.12115257144E+00  0.89056803938E+00  0.88000000000E+00 0.  1.
        -11    1    4    4    0    0 -0.44945054060E-01 -0.35941807907E-02 -0.62475804822E-01  0.77048447935E-01  0.51100000000E-03 0.  1.
         11    1    4    4    0    0 -0.96266728828E-02  0.26747165260E-01 -0.54757649507E-01  0.61698824792E-01  0.51100000000E-03 0. -1.
</event>
<event>
 8    1  0.2039519E+004  0.1043930E+01  0.7957747E-01            NaN
         13   -1    0    0    0    0  0.00000000000E+00  0.00000000000E+00  0.74505805969E-08  0.10566000000E+00  0.10566000000E+00 0.  1.
     999900   -1    0    0    0    0 -0.00000000000E+00 -0.00000000000E+00 -0.74505805969E-08  0.93827000000E+00  0.93827000000E+00 0.  1.
     999902    2    1    2    0    0 -0.51351977004E-02  0.53391609380E-02  0.11645246785E-01  0.10301282368E+01  0.10300357739E+01 0.  0.
     999903    2    3    3    0    0  0.23953299117E-01 -0.50825598309E-01 -0.11935232384E+00  0.13818598287E+00  0.41150779726E-01 0.  0.
         14    1    1    2    0    0  0.51351977004E-02 -0.53391609380E-02 -0.11645246785E-01  0.13801763207E-01  0.00000000000E+00 0. -1.
     999901    1    3    3    0    0 -0.29088496817E-01  0.56164759247E-01  0.13099757063E+00  0.89194225393E+00  0.88000000000E+00 0. -1.
        -11    1    4    4    0    0  0.23728143782E-01 -0.58238279688E-02 -0.47124683248E-01  0.53084260113E-01  0.51100000000E-03 0.  1.
         11    1    4    4    0    0  0.22515533459E-03 -0.45001770340E-01 -0.72227640595E-01  0.85101722753E-01  0.51100000000E-03 0. -1.
</event>
<event>
 8    1  0.2039519E+004  0.1043930E+01  0.7957747E-01            NaN
         13   -1    0    0    0    0  0.00000000000E+00  0.00000000000E+00  0.74505805969E-08  0.10566000000E+00  0.10566000000E+00 0.  1.
     999900   -1    0    0    0    0 -0.00000000000E+00 -0.00000000000E+00 -0.74505805969E-08  0.93827000000E+00  0.93827000000E+00 0. -1.
     999902    2    1    2    0    0  0.49916656412E-02  0.10196093723E-01  0.55252430700E-02  0.10313044163E+01  0.10312271300E+01 0.  0.
     999903    2    3    3    0    0 -0.70004204895E-01 -0.10345010828E+00 -0.42570456402E-01  0.13953480695E+00  0.45334368719E-01 0.  0.
         14    1    1    2    0    0 -0.49916656412E-02 -0.10196093723E-01 -0.55252430700E-02  0.12625583711E-01  0.00000000000E+00 0. -1.
     999901    1    3    3    0    0  0.74995870537E-01  0.11364620200E+00  0.48095699472E-01  0.89176960934E+00  0.88000000000E+00 0. -1.
        -11    1    4    4    0    0 -0.26440570976E-01 -0.72417458301E-01 -0.37715033127E-01  0.85825852195E-01  0.51100000000E-03 0. -1.
         11    1    4    4    0    0 -0.43563633920E-01 -0.31032649978E-01 -0.48554232750E-02  0.53708954758E-01  0.51100000000E-03 0.  1.
</event>
<event>
 8    1  0.2039519E+004  0.1043930E+01  0.7957747E-01            NaN
         13   -1    0    0    0    0  0.00000000000E+00  0.00000000000E+00  0.74505805969E-08  0.10566000000E+00  0.10566000000E+00 0.  1.
     999900   -1    0    0    0    0 -0.00000000000E+00 -0.00000000000E+00 -0.74505805969E-08  0.93827000000E+00  0.93827000000E+00 0.  1.
     999902    2    1    2    0    0 -0.10852107754E-01  0.40034674867E-02 -0.72269682557E-02  0.10302908994E+01  0.10302006175E+01 0.  0.
     999903    2    3    3    0    0 -0.58061142682E-01 -0.11552048009E+00 -0.31953220564E-01  0.14061339909E+00  0.45111440793E-01 0.  0.
         14    1    1    2    0    0  0.10852107754E-01 -0.40034674867E-02  0.72269682557E-02  0.13639100585E-01  0.00000000000E+00 0.  1.
     999901    1    3    3    0    0  0.47209034929E-01  0.11952394758E+00  0.24726252308E-01  0.88967750032E+00  0.88000000000E+00 0. -1.
        -11    1    4    4    0    0 -0.64998593263E-01 -0.96788934716E-01 -0.30846204716E-01  0.12060126233E+00  0.51100000000E-03 0. -1.
         11    1    4    4    0    0  0.69374505812E-02 -0.18731545375E-01 -0.11070158480E-02  0.20012136762E-01  0.51100000000E-03 0.  1.
</event>
<event>
 8    1  0.2039519E+004  0.1043930E+01  0.7957747E-01            NaN
         13   -1    0    0    0    0  0.00000000000E+00  0.00000000000E+00  0.74505805969E-08  0.10566000000E+00  0.10566000000E+00 0.  1.
     999900   -1    0    0    0    0 -0.00000000000E+00 -0.00000000000E+00 -0.74505805969E-08  0.93827000000E+00  0.93827000000E+00 0.  1.
     999902    2    1    2    0    0 -0.13315244266E-01  0.39753146086E-02 -0.15912543680E-02  0.10299431867E+01  0.10298482106E+01 0.  0.
     999903    2    3    3    0    0 -0.68698680749E-01 -0.27565067859E-01  0.10988356987E+00  0.14062392051E+00  0.47131161541E-01 0.  0.
         14    1    1    2    0    0  0.13315244266E-01 -0.39753146086E-02  0.15912543680E-02  0.13986813309E-01  0.00000000000E+00 0. -1.
     999901    1    3    3    0    0  0.55383436483E-01  0.31540382468E-01 -0.11147482424E+00  0.88931926618E+00  0.88000000000E+00 0.  1.
        -11    1    4    4    0    0 -0.18471274434E-01 -0.67492531580E-02  0.71270496630E-01  0.73935682916E-01  0.51100000000E-03 0. -1.
         11    1    4    4    0    0 -0.50227406315E-01 -0.20815814701E-01  0.38613073244E-01  0.66688237592E-01  0.51100000000E-03 0.  1.
</event>
<event>
 7    1  0.2039519E+004  0.1043930E+01  0.7957747E-01            NaN
         13   -1    0    0    0    0  0.00000000000E+00  0.00000000000E+00  0.74505805969E-08  0.10566000000E+00  0.10566000000E+00 0. -1.
     999900   -1    0    0    0    0 -0.00000000000E+00 -0.00000000000E+00 -0.74505805969E-08  0.93827000000E+00  0.93827000000E+00 0.  1.
     999903    2    1    2    0    0 -0.11430734492E-01 -0.11737415321E-01  0.24911339432E-01  0.53876983109E-01  0.44874557014E-01 0.  0.
         14    1    1    2    0    0 -0.84634166742E-01 -0.48298300761E-01  0.27479539684E-01  0.10124620061E+00  0.00000000000E+00 0. -1.
     999901    1    1    2    0    0  0.96064901233E-01  0.60035716083E-01 -0.52390879117E-01  0.88880681628E+00  0.88000000000E+00 0. -1.
        -11    1    3    3    0    0 -0.21540496642E-01  0.75753875095E-02  0.22292409604E-01  0.31915390308E-01  0.51100000000E-03 0. -1.
         11    1    3    3    0    0  0.10109762151E-01 -0.19312802831E-01  0.26189298281E-02  0.21961592802E-01  0.51100000000E-03 0.  1.
</event>
<event>
 8    1  0.2039519E+004  0.1043930E+01  0.7957747E-01            NaN
         13   -1    0    0    0    0  0.00000000000E+00  0.00000000000E+00  0.74505805969E-08  0.10566000000E+00  0.10566000000E+00 0.  1.
     999900   -1    0    0    0    0 -0.00000000000E+00 -0.00000000000E+00 -0.74505805969E-08  0.93827000000E+00  0.93827000000E+00 0. -1.
     999902    2    1    2    0    0  0.67082287999E-02  0.11577977936E-01  0.20115365464E-02  0.10303986961E+01  0.10303098450E+01 0.  0.
     999903    2    3    3    0    0 -0.10869910685E+00 -0.36807858994E-01  0.65081880207E-01  0.13931064734E+00  0.44738026540E-01 0.  0.
         14    1    1    2    0    0 -0.67082287999E-02 -0.11577977936E-01 -0.20115365464E-02  0.13531303928E-01  0.00000000000E+00 0. -1.
     999901    1    3    3    0    0  0.11540733565E+00  0.48385836929E-01 -0.63070343661E-01  0.89108804873E+00  0.88000000000E+00 0. -1.
        -11    1    4    4    0    0 -0.94171402921E-01 -0.31576575412E-01  0.71702569100E-01  0.12250246030E+00  0.51100000000E-03 0.  1.
         11    1    4    4    0    0 -0.14527703928E-01 -0.52312835817E-02 -0.66206888925E-02  0.16808187045E-01  0.51100000000E-03 0. -1.
</event>
<event>
 8    1  0.2039519E+004  0.1043930E+01  0.7957747E-01            NaN
         13   -1    0    0    0    0  0.00000000000E+00  0.00000000000E+00  0.74505805969E-08  0.10566000000E+00  0.10566000000E+00 0. -1.
     999900   -1    0    0    0    0 -0.00000000000E+00 -0.00000000000E+00 -0.74505805969E-08  0.93827000000E+00  0.93827000000E+00 0. -1.
     999902    2    1    2    0    0  0.11974869311E-01  0.56615617409E-02 -0.35360534128E-02  0.10302203519E+01  0.10301291274E+01 0.  0.
     999903    2    3    3    0    0 -0.93129820446E-01  0.70631058306E-02 -0.93125095898E-01  0.13944812703E+00  0.45281847627E-01 0.  0.
         14    1    1    2    0    0 -0.11974869311E-01 -0.56615617409E-02  0.35360534128E-02  0.13709648067E-01  0.00000000000E+00 0.  1.
     999901    1    3    3    0    0  0.10510468976E+00 -0.14015440897E-02  0.89589042485E-01  0.89077222491E+00  0.88000000000E+00 0.  1.
        -11    1    4    4    0    0 -0.42535900785E-01  0.24250941121E-01 -0.55959212346E-01  0.74357955648E-01  0.51100000000E-03 0. -1.
         11    1    4    4    0    0 -0.50593919662E-01 -0.17187835290E-01 -0.37165883552E-01  0.65090171377E-01  0.51100000000E-03 0.  1.
</event>
<event>
 8    1  0.2039519E+004  0.1043930E+01  0.7957747E-01            NaN
         13   -1    0    0    0    0  0.00000000000E+00  0.00000000000E+00  0.74505805969E-08  0.10566000000E+00  0.10566000000E+00 0. -1.
     999900   -1    0    0    0    0 -0.00000000000E+00 -0.00000000000E+00 -0.74505805969E-08  0.93827000000E+00  0.93827000000E+00 0. -1.
     999902    2    1    2    0    0 -0.47445239604E-02 -0.11580298082E-01  0.81812137561E-02  0.10289785429E+01  0.10288699119E+01 0.  0.
     999903    2    3    3    0    0 -0.12219002318E+00 -0.46918773740E-01 -0.21424523983E-01  0.13997980675E+00  0.44761177093E-01 0.  0.
         14    1    1    2    0    0  0.47445239604E-02  0.11580298082E-01 -0.81812137561E-02  0.14951457113E-01  0.00000000000E+00 0.  1.
     999901    1    3    3    0    0  0.11744549922E+00  0.35338475659E-01  0.29605737739E-01  0.88899873614E+00  0.88000000000E+00 0. -1.
        -11    1    4    4    0    0 -0.59164447224E-01  0.91297470292E-03 -0.10712174732E-01  0.60135489909E-01  0.51100000000E-03 0.  1.
         11    1    4    4    0    0 -0.63025575959E-01 -0.47831748443E-01 -0.10712349251E-01  0.79844316839E-01  0.51100000000E-03 0. -1.
</event>
<event>
 8    1  0.2039519E+004  0.1043930E+01  0.7957747E-01            NaN
         13   -1    0    0    0    0  0.00000000000E+00  0.00000000000E+00  0.74505805969E-08  0.10566000000E+00  0.10566000000E+00 0. -1.
     999900   -1    0    0    0    0 -0.00000000000E+00 -0.00000000000E+00 -0.74505805969E-08  0.93827000000E+00  0.93827000000E+00 0. -1.
     999902    2    1    2    0    0 -0.15759747407E-02  0.66758609224E-02 -0.15937070786E-01  0.10265794657E+01  0.10264328319E+01 0.  0.
     999903    2    3    3    0    0 -0.12300412570E+00 -0.30575680205E-01  0.16527358483E-01  0.13686804488E+00  0.48936908075E-01 0.  0.
         14    1    1    2    0    0  0.15759747407E-02 -0.66758609224E-02  0.15937070786E-01  0.17350534306E-01  0.00000000000E+00 0. -1.
     999901    1    3    3    0    0  0.12142815096E+00  0.37251541127E-01 -0.32464429270E-01  0.88971142082E+00  0.88000000000E+00 0.  1.
        -11    1    4    4    0    0 -0.96911729765E-01 -0.22596491735E-01 -0.84534946240E-02  0.99870954222E-01  0.51100000000E-03 0.  1.
         11    1    4    4    0    0 -0.26092395933E-01 -0.79791884695E-02  0.24980853107E-01  0.36997090657E-01  0.51100000000E-03 0. -1.
</event>
<event>
 8    1  0.2039519E+004  0.1043930E+01  0.7957747E-01            NaN
         13   -1    0    0    0    0  0.00000000000E+00  0.00000000000E+00  0.74505805969E-08  0.10566000000E+00  0.10566000000E+00 0. -1.
     999900   -1    0    0    0    0 -0.00000000000E+00 -0.00000000000E+00 -0.74505805969E-08  0.93827000000E+00  0.93827000000E+00 0. -1.
     999902    2    1    2    0    0 -0.10423679253E-01 -0.61311560147E-02 -0.65944463250E-02  0.10301557165E+01  0.10300636239E+01 0.  0.
     999903    2    3    3    0    0  0.40416001709E-01  0.12139678497E+00  0.28375680949E-01  0.13882471251E+00  0.45787432115E-01 0.  0.
         14    1    1    2    0    0  0.10423679253E-01  0.61311560147E-02  0.65944463250E-02  0.13774283487E-01  0.00000000000E+00 0. -1.
     999901    1    3    3    0    0 -0.50839680961E-01 -0.12752794098E+00 -0.34970127274E-01  0.89133100400E+00  0.88000000000E+00 0. -1.
        -11    1    4    4    0    0  0.14630191111E-01  0.87333922856E-01  0.35697080996E-01  0.95476694989E-01  0.51100000000E-03 0. -1.
         11    1    4    4    0    0  0.25785810598E-01  0.34062862114E-01 -0.73214000467E-02  0.43348017523E-01  0.51100000000E-03 0.  1.
</event>
<event>
 8    1  0.2039519E+004  0.1043930E+01  0.7957747E-01            NaN
         13   -1    0    0    0    0  0.00000000000E+00  0.00000000000E+00  0.74505805969E-08  0.10566000000E+00  0.10566000000E+00 0.  1.
     999900   -1    0    0    0    0 -0.00000000000E+00 -0.00000000000E+00 -0.74505805969E-08  0.93827000000E+00  0.93827000000E+00 0. -1.
     999902    2    1    2    0    0  0.41310116771E-02  0.76042602340E-02  0.11679975246E-01  0.10293934305E+01  0.10292907864E+01 0.  0.
     999903    2    3    3    0    0  0.96598165555E-02  0.12764573518E+00 -0.17254813913E-01  0.14075528962E+00  0.55924745759E-01 0.  0.
         14    1    1    2    0    0 -0.41310116771E-02 -0.76042602340E-02 -0.11679975246E-01  0.14536569504E-01  0.00000000000E+00 0. -1.
     999901    1    3    3    0    0 -0.55288048785E-02 -0.12004147495E+00  0.28934789159E-01  0.88863814087E+00  0.88000000000E+00 0.  1.
        -11    1    4    4    0    0 -0.21273667338E-01  0.52572647254E-01 -0.18159327462E-01  0.59552283384E-01  0.51100000000E-03 0.  1.
         11    1    4    4    0    0  0.30933483894E-01  0.75073087926E-01  0.90451354922E-03  0.81203006240E-01  0.51100000000E-03 0. -1.
</event>
<event>
 8    1  0.2039519E+004  0.1043930E+01  0.7957747E-01            NaN
         13   -1    0    0    0    0  0.00000000000E+00  0.00000000000E+00  0.74505805969E-08  0.10566000000E+00  0.10566000000E+00 0.  1.
     999900   -1    0    0    0    0 -0.00000000000E+00 -0.00000000000E+00 -0.74505805969E-08  0.93827000000E+00  0.93827000000E+00 0.  1.
     999902    2    1    2    0    0  0.21808770490E-02 -0.81359781420E-02  0.11371246986E-01  0.10297788296E+01  0.10296815927E+01 0.  0.
     999903    2    3    3    0    0 -0.40758224524E-01 -0.12607761399E+00  0.18758299625E-01  0.14084206896E+00  0.43906912528E-01 0.  0.
         14    1    1    2    0    0 -0.21808770490E-02  0.81359781420E-02 -0.11371246986E-01  0.14151170377E-01  0.00000000000E+00 0. -1.
     999901    1    3    3    0    0  0.42939101573E-01  0.11794163585E+00 -0.73870526390E-02  0.88893676066E+00  0.88000000000E+00 0.  1.
        -11    1    4    4    0    0 -0.23246508617E-01 -0.68252324868E-01 -0.11913355446E-01  0.73081934647E-01  0.51100000000E-03 0.  1.
         11    1    4    4    0    0 -0.17511715906E-01 -0.57825289125E-01  0.30671655071E-01  0.67760134313E-01  0.51100000000E-03 0. -1.
</event>
<event>
 8    1  0.2039519E+004  0.1043930E+01  0.7957747E-01            NaN
         13   -1    0    0    0    0  0.00000000000E+00  0.00000000000E+00  0.74505805969E-08  0.10566000000E+00  0.10566000000E+00 0. -1.
     999900   -1    0    0    0    0 -0.00000000000E+00 -0.00000000000E+00 -0.74505805969E-08  0.93827000000E+00  0.93827000000E+00 0. -1.
     999902    2    1    2    0    0  0.79301842098E-02  0.11400917008E-01  0.18462286592E-02  0.10299201003E+01  0.10298248082E+01 0.  0.
     999903    2    3    3    0    0  0.84802847253E-01  0.63670118841E-01  0.81829185494E-01  0.14141644289E+00  0.45356232062E-01 0.  0.
         14    1    1    2    0    0 -0.79301842098E-02 -0.11400917008E-01 -0.18462286592E-02  0.14009899731E-01  0.00000000000E+00 0.  1.
     999901    1    3    3    0    0 -0.76872663043E-01 -0.52269201834E-01 -0.79982956835E-01  0.88850365737E+00  0.88000000000E+00 0. -1.
        -11    1    4    4    0    0  0.85317083738E-01  0.48922408216E-01  0.60477157547E-01  0.11545628831E+00  0.51100000000E-03 0.  1.
         11    1    4    4    0    0 -0.51423648552E-03  0.14747710626E-01  0.21352027946E-01  0.25960154589E-01  0.51100000000E-03 0. -1.
</event>
<event>
 8    1  0.2039519E+004  0.1043930E+01  0.7957747E-01            NaN
         13   -1    0    0    0    0  0.00000000000E+00  0.00000000000E+00  0.74505805969E-08  0.10566000000E+00  0.10566000000E+00 0.  1.
     999900   -1    0    0    0    0 -0.00000000000E+00 -0.00000000000E+00 -0.74505805969E-08  0.93827000000E+00  0.93827000000E+00 0. -1.
     999902    2    1    2    0    0 -0.37841373198E-02 -0.13539540703E-01 -0.70627779235E-02  0.10281971779E+01  0.10280768041E+01 0.  0.
     999903    2    3    3    0    0  0.69985557063E-01  0.54590152154E-01 -0.96236526881E-01  0.13800866962E+00  0.43667618143E-01 0.  0.
         14    1    1    2    0    0  0.37841373198E-02  0.13539540703E-01  0.70627779235E-02  0.15732822051E-01  0.00000000000E+00 0.  1.
     999901    1    3    3    0    0 -0.73769694383E-01 -0.68129692857E-01  0.89173748958E-01  0.89018850833E+00  0.88000000000E+00 0.  1.
        -11    1    4    4    0    0  0.92708869876E-02  0.33066553652E-01 -0.37184049443E-01  0.50618780802E-01  0.51100000000E-03 0. -1.
         11    1    4    4    0    0  0.60714670076E-01  0.21523598503E-01 -0.59052477439E-01  0.87389888817E-01  0.51100000000E-03 0.  1.
</event>
<event>
 8    1  0.2039519E+004  0.1043930E+01  0.7957747E-01            NaN
         13   -1    0    0    0    0  0.00000000000E+00  0.00000000000E+00  0.74505805969E-08  0.10566000000E+00  0.10566000000E+00 0.  1.
     999900   -1    0    0    0    0 -0.00000000000E+00 -0.00000000000E+00 -0.74505805969E-08  0.93827000000E+00  0.93827000000E+00 0. -1.
     999902    2    1    2    0    0  0.56197291862E-02 -0.11022268524E-01  0.58697630228E-02  0.10302359912E+01  0.10301449760E+01 0.  0.
     999903    2    3    3    0    0  0.33181606701E-03  0.10668197735E+00  0.78757342286E-01  0.13939658325E+00  0.42982950839E-01 0.  0.
         14    1    1    2    0    0 -0.56197291862E-02  0.11022268524E-01 -0.58697630228E-02  0.13694008817E-01  0.00000000000E+00 0. -1.
     999901    1    3    3    0    0  0.52879131192E-02 -0.11770424588E+00 -0.72887579263E-01  0.89083940794E+00  0.88000000000E+00 0.  1.
        -11    1    4    4    0    0 -0.18516091339E-01  0.50117860519E-01  0.24498146517E-01  0.58779808483E-01  0.51100000000E-03 0.  1.
         11    1    4    4    0    0  0.18847907406E-01  0.56564116834E-01  0.54259195768E-01  0.80616774763E-01  0.51100000000E-03 0. -1.
</event>
<event>
 8    1  0.2039519E+004  0.1043930E+01  0.7957747E-01            NaN
         13   -1    0    0    0    0  0.00000000000E+00  0.00000000000E+00  0.74505805969E-08  0.10566000000E+00  0.10566000000E+00 0. -1.
     999900   -1    0    0    0    0 -0.00000000000E+00 -0.00000000000E+00 -0.74505805969E-08  0.93827000000E+00  0.93827000000E+00 0.  1.
     999902    2    1    2    0    0  0.51332545020E-03  0.88332428094E-02  0.10534832714E-01  0.10301723700E+01  0.10300805015E+01 0.  0.
     999903    2    3    3    0    0 -0.10288424808E+00  0.77092653279E-01  0.36912916549E-01  0.14110195178E+00  0.44930520760E-01 0.  0.
         14    1    1    2    0    0 -0.51332545020E-03 -0.88332428094E-02 -0.10534832714E-01  0.13757629951E-01  0.00000000000E+00 0.  1.
     999901    1    3    3    0    0  0.10339757353E+00 -0.68259410469E-01 -0.26378083834E-01  0.88907041827E+00  0.88000000000E+00 0. -1.
        -11    1    4    4    0    0 -0.83479500316E-01  0.40788777122E-01  0.13924141478E-01  0.93950487753E-01  0.51100000000E-03 0. -1.
         11    1    4    4    0    0 -0.19404747765E-01  0.36303876157E-01  0.22988775070E-01  0.47151464030E-01  0.51100000000E-03 0.  1.
</event>
<event>
 8    1  0.2039519E+004  0.1043930E+01  0.7957747E-01            NaN
         13   -1    0    0    0    0  0.00000000000E+00  0.00000000000E+00  0.74505805969E-08  0.10566000000E+00  0.10566000000E+00 0. -1.
     999900   -1    0    0    0    0 -0.00000000000E+00 -0.00000000000E+00 -0.74505805969E-08  0.93827000000E+00  0.93827000000E+00 0. -1.
     999902    2    1    2    0    0  0.24916089358E-02 -0.12893214660E-01 -0.58767662144E-02  0.10295432185E+01  0.10294426936E+01 0.  0.
     999903    2    3    3    0    0 -0.90426075957E-01  0.76535711620E-01 -0.56535070398E-01  0.13870232770E+00  0.44805481354E-01 0.  0.
         14    1    1    2    0    0 -0.24916089358E-02  0.12893214660E-01  0.58767662144E-02  0.14386781450E-01  0.00000000000E+00 0.  1.
     999901    1    3    3    0    0  0.92917684893E-01 -0.89428926279E-01  0.50658304183E-01  0.89084089085E+00  0.88000000000E+00 0.  1.
        -11    1    4    4    0    0 -0.84848296610E-01  0.81242571259E-01 -0.46632082809E-01  0.12638987733E+00  0.51100000000E-03 0. -1.
         11    1    4    4    0    0 -0.55777793468E-02 -0.47068596394E-02 -0.99029875892E-02  0.12312450377E-01  0.51100000000E-03 0.  1.
</event>
<event>
 8    1  0.2039519E+004  0.1043930E+01  0.7957747E-01            NaN
         13   -1    0    0    0    0  0.00000000000E+00  0.00000000000E+00  0.74505805969E-08  0.10566000000E+00  0.10566000000E+00 0.  1.
     999900   -1    0    0    0    0 -0.00000000000E+00 -0.00000000000E+00 -0.74505805969E-08  0.93827000000E+00  0.93827000000E+00 0. -1.
     999902    2    1    2    0    0 -0.63050059296E-02  0.82795712503E-02  0.82762174142E-02  0.10306333773E+01  0.10305476012E+01 0.  0.
     999903    2    3    3    0    0 -0.97610380231E-01 -0.71821811935E-01  0.56619680977E-01  0.14097614365E+00  0.44523317550E-01 0.  0.
         14    1    1    2    0    0  0.63050059296E-02 -0.82795712503E-02 -0.82762174142E-02  0.13296622674E-01  0.00000000000E+00 0. -1.
     999901    1    3    3    0    0  0.91305374301E-01  0.80101383185E-01 -0.48343463563E-01  0.88965723368E+00  0.88000000000E+00 0. -1.
        -11    1    4    4    0    0 -0.40086616359E-01 -0.56540013534E-01  0.25870502776E-01  0.73981443460E-01  0.51100000000E-03 0.  1.
         11    1    4    4    0    0 -0.57523763871E-01 -0.15281798401E-01  0.30749178200E-01  0.66994700188E-01  0.51100000000E-03 0. -1.
</event>
<event>
 8    1  0.2039519E+004  0.1043930E+01  0.7957747E-01            NaN
         13   -1    0    0    0    0  0.00000000000E+00  0.00000000000E+00  0.74505805969E-08  0.10566000000E+00  0.10566000000E+00 0. -1.
     999900   -1    0    0    0    0 -0.00000000000E+00 -0.00000000000E+00 -0.74505805969E-08  0.93827000000E+00  0.93827000000E+00 0. -1.
     999902    2    1    2    0    0 -0.18851032612E-02  0.69075381885E-02 -0.13898111008E-01  0.10282958966E+01  0.10281770401E+01 0.  0.
     999903    2    3    3    0    0  0.87278365600E-01 -0.55085944753E-01 -0.81270565909E-01  0.13906456353E+00  0.45629743989E-01 0.  0.
         14    1    1    2    0    0  0.18851032612E-02 -0.69075381885E-02  0.13898111008E-01  0.15634103355E-01  0.00000000000E+00 0. -1.
     999901    1    3    3    0    0 -0.89163468861E-01  0.61993482941E-01  0.67372454901E-01  0.88923133311E+00  0.88000000000E+00 0.  1.
        -11    1    4    4    0    0 -0.13422668429E-02 -0.14496997044E-01 -0.16608424745E-01  0.22092204442E-01  0.51100000000E-03 0. -1.
         11    1    4    4    0    0  0.88620632443E-01 -0.40588947709E-01 -0.64662141164E-01  0.11697235909E+00  0.51100000000E-03 0.  1.
</event>
<event>
 8    1  0.2039519E+004  0.1043930E+01  0.7957747E-01            NaN
         13   -1    0    0    0    0  0.00000000000E+00  0.00000000000E+00  0.74505805969E-08  0.10566000000E+00  0.10566000000E+00 0. -1.
     999900   -1    0    0    0    0 -0.00000000000E+00 -0.00000000000E+00 -0.74505805969E-08  0.93827000000E+00  0.93827000000E+00 0. -1.
     999902    2    1    2    0    0 -0.94136523678E-04  0.12327766562E-02  0.12429411500E-01  0.10314392486E+01  0.10313636142E+01 0.  0.
     999903    2    3    3    0    0  0.84294396568E-01  0.96191180981E-01  0.41578095761E-01  0.14183924363E+00  0.45070438154E-01 0.  0.
         14    1    1    2    0    0  0.94136523678E-04 -0.12327766562E-02 -0.12429411500E-01  0.12490751387E-01  0.00000000000E+00 0.  1.
     999901    1    3    3    0    0 -0.84388533092E-01 -0.94958404325E-01 -0.29148684261E-01  0.88960000498E+00  0.88000000000E+00 0.  1.
        -11    1    4    4    0    0  0.79496599985E-01  0.67097004041E-01  0.21682968628E-01  0.10626443248E+00  0.51100000000E-03 0. -1.
         11    1    4    4    0    0  0.47977965830E-02  0.29094176940E-01  0.19895127133E-01  0.35574811152E-01  0.51100000000E-03 0.  1.
</event>
<event>
 8    1  0.2039519E+004  0.1043930E+01  0.7957747E-01            NaN
         13   -1    0    0    0    0  0.00000000000E+00  0.00000000000E+00  0.74505805969E-08  0.10566000000E+00  0.10566000000E+00 0.  1.
     999900   -1    0    0    0    0 -0.00000000000E+00 -0.00000000000E+00 -0.74505805969E-08  0.93827000000E+00  0.93827000000E+00 0. -1.
     999902    2    1    2    0    0  0.39026419054E-02 -0.14639094297E-01  0.75062131402E-02  0.10270221045E+01  0.10268829174E+01 0.  0.
     999903    2    3    3    0    0  0.62220199740E-01 -0.14325280668E-01  0.11368174309E+00  0.13872357402E+00  0.47372189688E-01 0.  0.
         14    1    1    2    0    0 -0.39026419054E-02  0.14639094297E-01 -0.75062131402E-02  0.16907895534E-01  0.00000000000E+00 0.  1.
     999901    1    3    3    0    0 -0.58317557835E-01 -0.31381362835E-03 -0.10617552995E+00  0.88829853044E+00  0.88000000000E+00 0. -1.
        -11    1    4    4    0    0  0.69271822078E-01 -0.12748138186E-01  0.10994459479E+00  0.13057249100E+00  0.51100000000E-03 0.  1.
         11    1    4    4    0    0 -0.70516223378E-02 -0.15771424825E-02  0.37371482935E-02  0.81510830184E-02  0.51100000000E-03 0. -1.
</event>
<event>
 8    1  0.2039519E+004  0.1043930E+01  0.7957747E-01            NaN
         13   -1    0    0    0    0  0.00000000000E+00  0.00000000000E+00  0.74505805969E-08  0.10566000000E+00  0.10566000000E+00 0.  1.
     999900   -1    0    0    0    0 -0.00000000000E+00 -0.00000000000E+00 -0.74505805969E-08  0.93827000000E+00  0.93827000000E+00 0.  1.
     999902    2    1    2    0    0  0.22077928835E-02  0.81324638577E-02 -0.94169620080E-02  0.10312931297E+01  0.10312157043E+01 0.  0.
     999903    2    3    3    0    0 -0.25847175239E-02 -0.11865453920E+00 -0.60726244212E-01  0.14071435454E+00  0.45025241825E-01 0.  0.
         14    1    1    2    0    0 -0.22077928835E-02 -0.81324638577E-02  0.94169620080E-02  0.12636870312E-01  0.00000000000E+00 0.  1.
     999901    1    3    3    0    0  0.47925104074E-02  0.12678700305E+00  0.51309282205E-01  0.89057877515E+00  0.88000000000E+00 0. -1.
        -11    1    4    4    0    0  0.40459188245E-02 -0.77459481068E-01 -0.61483790302E-01  0.98979079897E-01  0.51100000000E-03 0.  1.
         11    1    4    4    0    0 -0.66306363484E-02 -0.41195058129E-01  0.75754608903E-03  0.41735274645E-01  0.51100000000E-03 0. -1.
</event>
<event>
 8    1  0.2039519E+004  0.1043930E+01  0.7957747E-01            NaN
         13   -1    0    0    0    0  0.00000000000E+00  0.00000000000E+00  0.74505805969E-08  0.10566000000E+00  0.10566000000E+00 0. -1.
     999900   -1    0    0    0    0 -0.00000000000E+00 -0.00000000000E+00 -0.74505805969E-08  0.93827000000E+00  0.93827000000E+00 0. -1.
     999902    2    1    2    0    0  0.43640522461E-02 -0.82862008751E-02 -0.11373616848E-01  0.10291968660E+01  0.10290914069E+01 0.  0.
     999903    2    3    3    0    0 -0.10424542084E+00 -0.22676346341E-01  0.75866329104E-01  0.13812228883E+00  0.44053857144E-01 0.  0.
         14    1    1    2    0    0 -0.43640522461E-02  0.82862008751E-02  0.11373616848E-01  0.14733133990E-01  0.00000000000E+00 0. -1.
     999901    1    3    3    0    0  0.10860947309E+00  0.14390145466E-01 -0.87239945952E-01  0.89107457718E+00  0.88000000000E+00 0.  1.
        -11    1    4    4    0    0 -0.36520968684E-01  0.85974473529E-02  0.41624043062E-01  0.56040336691E-01  0.51100000000E-03 0.  1.
         11    1    4    4    0    0 -0.67724452159E-01 -0.31273793694E-01  0.34242286042E-01  0.82081952137E-01  0.51100000000E-03 0. -1.
</event>
<event>
 8    1  0.2039519E+004  0.1043930E+01  0.7957747E-01            NaN
         13   -1    0    0    0    0  0.00000000000E+00  0.00000000000E+00  0.74505805969E-08  0.10566000000E+00  0.10566000000E+00 0. -1.
     999900   -1    0    0    0    0 -0.00000000000E+00 -0.00000000000E+00 -0.74505805969E-08  0.93827000000E+00  0.93827000000E+00 0. -1.
     999902    2    1    2    0    0 -0.72827119852E-03  0.12782911525E-01 -0.26452699536E-02  0.10308559548E+01  0.10307730443E+01 0.  0.
     999903    2    3    3    0    0  0.76070784136E-01 -0.92887867620E-01  0.52197137227E-01  0.13952431160E+00  0.48244919338E-01 0.  0.
         14    1    1    2    0    0  0.72827119852E-03 -0.12782911525E-01  0.26452699536E-02  0.13074045247E-01  0.00000000000E+00 0.  1.
     999901    1    3    3    0    0 -0.76799055335E-01  0.10567077914E+00 -0.54842407181E-01  0.89133164316E+00  0.88000000000E+00 0. -1.
        -11    1    4    4    0    0  0.23387086180E-01 -0.46898623053E-01  0.45258900589E-01  0.69246413971E-01  0.51100000000E-03 0. -1.
         11    1    4    4    0    0  0.52683697956E-01 -0.45989244567E-01  0.69382366380E-02  0.70277897627E-01  0.51100000000E-03 0.  1.
</event>
<event>
 8    1  0.2039519E+004  0.1043930E+01  0.7957747E-01            NaN
         13   -1    0    0    0    0  0.00000000000E+00  0.00000000000E+00  0.74505805969E-08  0.10566000000E+00  0.10566000000E+00 0.  1.
     999900   -1    0    0    0    0 -0.00000000000E+00 -0.00000000000E+00 -0.74505805969E-08  0.93827000000E+00  0.93827000000E+00 0. -1.
     999902    2    1    2    0    0 -0.13911769601E-02 -0.78302759121E-02 -0.11856134052E-01  0.10296535681E+01  0.10295545900E+01 0.  0.
     999903    2    3    3    0    0  0.52624616043E-01  0.62847165091E-01 -0.10496626992E+00  0.14028159641E+00  0.44066904779E-01 0.  0.
         14    1    1    2    0    0  0.13911769601E-02  0.78302759121E-02  0.11856134052E-01  0.14276431937E-01  0.00000000000E+00 0.  1.
     999901    1    3    3    0    0 -0.54015793003E-01 -0.70677441003E-01  0.93110135869E-01  0.88937197165E+00  0.88000000000E+00 0. -1.
        -11    1    4    4    0    0 -0.29318919530E-02  0.24821340325E-01 -0.36663364550E-01  0.44375199685E-01  0.51100000000E-03 0.  1.
         11    1    4    4    0    0  0.55556507996E-01  0.38025824766E-01 -0.68302905371E-01  0.95906396726E-01  0.51100000000E-03 0. -1.
</event>
<event>
 8    1  0.2039519E+004  0.1043930E+01  0.7957747E-01            NaN
         13   -1    0    0    0    0  0.00000000000E+00  0.00000000000E+00  0.74505805969E-08  0.10566000000E+00  0.10566000000E+00 0.  1.
     999900   -1    0    0    0    0 -0.00000000000E+00 -0.00000000000E+00 -0.74505805969E-08  0.93827000000E+00  0.93827000000E+00 0.  1.
     999902    2    1    2    0    0 -0.12293033835E-01 -0.54051453033E-03 -0.20299899119E-02  0.10314587653E+01  0.10313833685E+01 0.  0.
     999903    2    3    3    0    0 -0.83568185005E-01 -0.10277503490E+00  0.26172089962E-01  0.14223022229E+00  0.44700206880E-01 0.  0.
         14    1    1    2    0    0  0.12293033835E-01  0.54051453033E-03  0.20299899119E-02  0.12471234738E-01  0.00000000000E+00 0. -1.
     999901    1    3    3    0    0  0.71275151169E-01  0.10223452037E+00 -0.28202079874E-01  0.88922854297E+00  0.88000000000E+00 0.  1.
        -11    1    4    4    0    0 -0.32696893697E-01 -0.17977695697E-01  0.21861228446E-01  0.43248801489E-01  0.51100000000E-03 0. -1.
         11    1    4    4    0    0 -0.50871291307E-01 -0.84797339205E-01  0.43108615162E-02  0.98981420800E-01  0.51100000000E-03 0.  1.
</event>
<event>
 8    1  0.2039519E+004  0.1043930E+01  0.7957747E-01            NaN
         13   -1    0    0    0    0  0.00000000000E+00  0.00000000000E+00  0.74505805969E-08  0.10566000000E+00  0.10566000000E+00 0. -1.
     999900   -1    0    0    0    0 -0.00000000000E+00 -0.00000000000E+00 -0.74505805969E-08  0.93827000000E+00  0.93827000000E+00 0. -1.
     999902    2    1    2    0    0 -0.13723187427E-01 -0.24446809073E-02  0.41834615777E-03  0.10299844863E+01  0.10298900741E+01 0.  0.
     999903    2    3    3    0    0  0.78301741612E-01  0.21484049667E-01  0.10369638550E+00  0.13885737693E+00  0.43996632047E-01 0.  0.
         14    1    1    2    0    0  0.13723187427E-01  0.24446809073E-02 -0.41834615777E-03  0.13945513666E-01  0.00000000000E+00 0.  1.
     999901    1    3    3    0    0 -0.92024929038E-01 -0.23928730575E-01 -0.10327803934E+00  0.89112710941E+00  0.88000000000E+00 0.  1.
        -11    1    4    4    0    0  0.50914017029E-01 -0.58527969325E-02  0.74286013110E-01  0.90250569122E-01  0.51100000000E-03 0.  1.
         11    1    4    4    0    0  0.27387724583E-01  0.27336846600E-01  0.29410372390E-01  0.48606807805E-01  0.51100000000E-03 0. -1.
</event>
<event>
 8    1  0.2039519E+004  0.1043930E+01  0.7957747E-01            NaN
         13   -1    0    0    0    0  0.00000000000E+00  0.00000000000E+00  0.74505805969E-08  0.10566000000E+00  0.10566000000E+00 0.  1.
     999900   -1    0    0    0    0 -0.00000000000E+00 -0.00000000000E+00 -0.74505805969E-08  0.93827000000E+00  0.93827000000E+00 0. -1.
     999902    2    1    2    0    0  0.13889231767E-02  0.12516369979E-01 -0.59056097468E-02  0.10300208357E+01  0.10299269183E+01 0.  0.
     999903    2    3    3    0    0 -0.87561606321E-01 -0.77165595009E-01  0.58893364780E-01  0.13864327336E+00  0.46173205200E-01 0.  0.
         14    1    1    2    0    0 -0.13889231767E-02 -0.12516369979E-01  0.59056097468E-02  0.13909164300E-01  0.00000000000E+00 0.  1.
     999901    1    3    3    0    0  0.88950529497E-01  0.89681964988E-01 -0.64798974527E-01  0.89137756234E+00  0.88000000000E+00 0. -1.
        -11    1    4    4    0    0 -0.46110258785E-01 -0.59052526864E-01  0.55569739001E-01  0.93282441583E-01  0.51100000000E-03 0. -1.
         11    1    4    4    0    0 -0.41451347536E-01 -0.18113068145E-01  0.33236257794E-02  0.45360831777E-01  0.51100000000E-03 0.  1.
</event>
<event>
 8    1  0.2039519E+004  0.1043930E+01  0.7957747E-01            NaN
         13   -1    0    0    0    0  0.00000000000E+00  0.00000000000E+00  0.74505805969E-08  0.10566000000E+00  0.10566000000E+00 0. -1.
     999900   -1    0    0    0    0 -0.00000000000E+00 -0.00000000000E+00 -0.74505805969E-08  0.93827000000E+00  0.93827000000E+00 0. -1.
     999902    2    1    2    0    0  0.33844453853E-02  0.14179699470E-02 -0.14072069713E-01  0.10293873642E+01  0.10292846338E+01 0.  0.
     999903    2    3    3    0    0  0.42425188556E-01 -0.94736662845E-01  0.79460969807E-01  0.13836642030E+00  0.45346318834E-01 0.  0.
         14    1    1    2    0    0 -0.33844453853E-02 -0.14179699470E-02  0.14072069713E-01  0.14542635777E-01  0.00000000000E+00 0. -1.
     999901    1    3    3    0    0 -0.39040743171E-01  0.96154632792E-01 -0.93533039520E-01  0.89102094393E+00  0.88000000000E+00 0.  1.
        -11    1    4    4    0    0  0.32758983473E-01 -0.59080433256E-01  0.75336108449E-01  0.10119011290E+00  0.51100000000E-03 0.  1.
         11    1    4    4    0    0  0.96662050839E-02 -0.35656229590E-01  0.41248613579E-02  0.37176307394E-01  0.51100000000E-03 0. -1.
</event>
<event>
 8    1  0.2039519E+004  0.1043930E+01  0.7957747E-01            NaN
         13   -1    0    0    0    0  0.00000000000E+00  0.00000000000E+00  0.74505805969E-08  0.10566000000E+00  0.10566000000E+00 0. -1.
     999900   -1    0    0    0    0 -0.00000000000E+00 -0.00000000000E+00 -0.74505805969E-08  0.93827000000E+00  0.93827000000E+00 0.  1.
     999902    2    1    2    0    0  0.12317823737E-01 -0.62540277035E-02 -0.23087627930E-02  0.10299238574E+01  0.10298286168E+01 0.  0.
     999903    2    3    3    0    0 -0.76788710648E-01 -0.70190921308E-01  0.79663494248E-01  0.13933565194E+00  0.47380165343E-01 0.  0.
         14    1    1    2    0    0 -0.12317823737E-01  0.62540277035E-02  0.23087627930E-02  0.14006142572E-01  0.00000000000E+00 0.  1.
     999901    1    3    3    0    0  0.89106534384E-01  0.63936893605E-01 -0.81972257041E-01  0.89058820549E+00  0.88000000000E+00 0.  1.
        -11    1    4    4    0    0 -0.18807634373E-01 -0.44937863960E-01  0.20921394876E-01  0.53019851118E-01  0.51100000000E-03 0. -1.
         11    1    4    4    0    0 -0.57981076275E-01 -0.25253057348E-01  0.58742099372E-01  0.86315800819E-01  0.51100000000E-03 0.  1.
</event>
<event>
 8    1  0.2039519E+004  0.1043930E+01  0.7957747E-01            NaN
         13   -1    0    0    0    0  0.00000000000E+00  0.00000000000E+00  0.74505805969E-08  0.10566000000E+00  0.10566000000E+00 0. -1.
     999900   -1    0    0    0    0 -0.00000000000E+00 -0.00000000000E+00 -0.74505805969E-08  0.93827000000E+00  0.93827000000E+00 0. -1.
     999902    2    1    2    0    0  0.11536681906E-01 -0.75914241671E-02 -0.69110121220E-03  0.10301024054E+01  0.10300095938E+01 0.  0.
     999903    2    3    3    0    0 -0.27146577834E-01 -0.12394748234E+00 -0.41049205286E-01  0.14068467264E+00  0.44802062388E-01 0.  0.
         14    1    1    2    0    0 -0.11536681906E-01  0.75914241671E-02  0.69110121220E-03  0.13827594555E-01  0.00000000000E+00 0.  1.
     999901    1    3    3    0    0  0.38683259741E-01  0.11635605818E+00  0.40358104073E-01  0.88941773280E+00  0.88000000000E+00 0.  1.
        -11    1    4    4    0    0  0.71537872815E-02 -0.20221247429E-01 -0.20186450804E-01  0.29458944943E-01  0.51100000000E-03 0.  1.
         11    1    4    4    0    0 -0.34300365116E-01 -0.10372623492E+00 -0.20862754481E-01  0.11122572770E+00  0.51100000000E-03 0. -1.
</event>
<event>
 8    1  0.2039519E+004  0.1043930E+01  0.7957747E-01            NaN
         13   -1    0    0    0    0  0.00000000000E+00  0.00000000000E+00  0.74505805969E-08  0.10566000000E+00  0.10566000000E+00 0.  1.
     999900   -1    0    0    0    0 -0.00000000000E+00 -0.00000000000E+00 -0.74505805969E-08  0.93827000000E+00  0.93827000000E+00 0. -1.
     999902    2    1    2    0    0  0.13505067461E-01  0.54486348863E-02  0.56190277619E-02  0.10283207738E+01  0.10282022981E+01 0.  0.
     999903    2    3    3    0    0 -0.48620322294E-01 -0.11290491269E-02  0.12119927684E+00  0.13856708657E+00  0.46328849366E-01 0.  0.
         14    1    1    2    0    0 -0.13505067461E-01 -0.54486348863E-02 -0.56190277619E-02  0.15609226189E-01  0.00000000000E+00 0. -1.
     999901    1    3    3    0    0  0.62125389755E-01  0.65776840132E-02 -0.11558024907E+00  0.88975368724E+00  0.88000000000E+00 0. -1.
        -11    1    4    4    0    0 -0.16844036902E-01 -0.15103020410E-01  0.86772415169E-01  0.89674611569E-01  0.51100000000E-03 0. -1.
         11    1    4    4    0    0 -0.31776285391E-01  0.13973971283E-01  0.34426861666E-01  0.48892475003E-01  0.51100000000E-03 0.  1.
</event>
<event>
 8    1  0.2039519E+004  0.1043930E+01  0.7957747E-01            NaN
         13   -1    0    0    0    0  0.00000000000E+00  0.00000000000E+00  0.74505805969E-08  0.10566000000E+00  0.10566000000E+00 0. -1.
     999900   -1    0    0    0    0 -0.00000000000E+00 -0.00000000000E+00 -0.74505805969E-08  0.93827000000E+00  0.93827000000E+00 0. -1.
     999902    2    1    2    0    0  0.78248557175E-02  0.82930593344E-02  0.77179370709E-02  0.10301615668E+01  0.10300695530E+01 0.  0.
     999903    2    3    3    0    0  0.18146997423E-01 -0.13064613716E+00  0.69144680597E-02  0.13920068523E+00  0.43946492811E-01 0.  0.
         14    1    1    2    0    0 -0.78248557175E-02 -0.82930593344E-02 -0.77179370709E-02  0.13768433199E-01  0.00000000000E+00 0.  1.
     999901    1    3    3    0    0 -0.10322141706E-01  0.13893919649E+00  0.80346901118E-03  0.89096088157E+00  0.88000000000E+00 0.  1.
        -11    1    4    4    0    0  0.28485301834E-01 -0.60658708702E-01  0.12726049652E-01  0.68213670351E-01  0.51100000000E-03 0. -1.
         11    1    4    4    0    0 -0.10338304411E-01 -0.69987428453E-01 -0.58115815919E-02  0.70987014877E-01  0.51100000000E-03 0.  1.
</event>
<event>
 8    1  0.2039519E+004  0.1043930E+01  0.7957747E-01            NaN
         13   -1    0    0    0    0  0.00000000000E+00  0.00000000000E+00  0.74505805969E-08  0.10566000000E+00  0.10566000000E+00 0.  1.
     999900   -1    0    0    0    0 -0.00000000000E+00 -0.00000000000E+00 -0.74505805969E-08  0.93827000000E+00  0.93827000000E+00 0. -1.
     999902    2    1    2    0    0 -0.98480155211E-02 -0.79393923068E-02  0.49685611355E-02  0.10303394165E+01  0.10302497800E+01 0.  0.
     999903    2    3    3    0    0  0.18024831340E-01 -0.13171890192E+00  0.16405972898E-01  0.14116616175E+00  0.44541728845E-01 0.  0.
         14    1    1    2    0    0  0.98480155211E-02  0.79393923068E-02 -0.49685611355E-02  0.13590583492E-01  0.00000000000E+00 0. -1.
     999901    1    3    3    0    0 -0.27872846861E-01  0.12377950961E+00 -0.11437411762E-01  0.88917325476E+00  0.88000000000E+00 0.  1.
        -11    1    4    4    0    0  0.42397555272E-03 -0.11048390861E+00  0.22881788565E-01  0.11283045327E+00  0.51100000000E-03 0.  1.
         11    1    4    4    0    0  0.17600855787E-01 -0.21234993313E-01 -0.64758156670E-02  0.28335708479E-01  0.51100000000E-03 0. -1.
</event>
<event>
 8    1  0.2039519E+004  0.1043930E+01  0.7957747E-01            NaN
         13   -1    0    0    0    0  0.00000000000E+00  0.00000000000E+00  0.74505805969E-08  0.10566000000E+00  0.10566000000E+00 0.  1.
     999900   -1    0    0    0    0 -0.00000000000E+00 -0.00000000000E+00 -0.74505805969E-08  0.93827000000E+00  0.93827000000E+00 0.  1.
     999902    2    1    2    0    0  0.78857460885E-03 -0.70638564999E-02 -0.11658949436E-01  0.10302752931E+01  0.10301848031E+01 0.  0.
     999903    2    3    3    0    0  0.11743928471E+00 -0.63104546887E-01 -0.12465610763E-02  0.14074937162E+00  0.45107230754E-01 0.  0.
         14    1    1    2    0    0 -0.78857460885E-03  0.70638564999E-02  0.11658949436E-01  0.13654706900E-01  0.00000000000E+00 0.  1.
     999901    1    3    3    0    0 -0.11665071010E+00  0.56040690387E-01 -0.10412388360E-01  0.88952592148E+00  0.88000000000E+00 0.  1.
        -11    1    4    4    0    0  0.40570601162E-01 -0.40079604825E-01 -0.15835574891E-01  0.59189314532E-01  0.51100000000E-03 0. -1.
         11    1    4    4    0    0  0.76868683551E-01 -0.23024942062E-01  0.14589013815E-01  0.81560057092E-01  0.51100000000E-03 0.  1.
</event>
<event>
 8    1  0.2039519E+004  0.1043930E+01  0.7957747E-01            NaN
         13   -1    0    0    0    0  0.00000000000E+00  0.00000000000E+00  0.74505805969E-08  0.10566000000E+00  0.10566000000E+00 0.  1.
     999900   -1    0    0    0    0 -0.00000000000E+00 -0.00000000000E+00 -0.74505805969E-08  0.93827000000E+00  0.93827000000E+00 0.  1.
     999902    2    1    2    0    0  0.34563197840E-02  0.43632150452E-02 -0.76701623439E-02  0.10344529128E+01  0.10344094999E+01 0.  0.
     999903    2    3    3    0    0  0.20295697902E-01  0.10753193714E+00 -0.83889021701E-01  0.14499427720E+00  0.44843501186E-01 0.  0.
         14    1    1    2    0    0 -0.34563197840E-02 -0.43632150452E-02  0.76701623439E-02  0.94770872298E-02  0.00000000000E+00 0.  1.
     999901    1    3    3    0    0 -0.16839378118E-01 -0.10316872210E+00  0.76218859357E-01  0.88945863557E+00  0.88000000000E+00 0. -1.
        -11    1    4    4    0    0 -0.73642323568E-02  0.46899811581E-02  0.10008803428E-02  0.88028815696E-02  0.51100000000E-03 0.  1.
         11    1    4    4    0    0  0.27659930259E-01  0.10284195599E+00 -0.84889902043E-01  0.13619139563E+00  0.51100000000E-03 0. -1.
</event>
<event>
 8    1  0.2039519E+004  0.1043930E+01  0.7957747E-01            NaN
         13   -1    0    0    0    0  0.00000000000E+00  0.00000000000E+00  0.74505805969E-08  0.10566000000E+00  0.10566000000E+00 0. -1.
     999900   -1    0    0    0    0 -0.00000000000E+00 -0.00000000000E+00 -0.74505805969E-08  0.93827000000E+00  0.93827000000E+00 0.  1.
     999902    2    1    2    0    0  0.10955347516E-01  0.96885457168E-02  0.10234730074E-02  0.10292693365E+01  0.10291649197E+01 0.  0.
     999903    2    3    3    0    0 -0.69723731247E-02  0.10514930098E+00  0.81063697755E-01  0.14031455894E+00  0.44853794413E-01 0.  0.
         14    1    1    2    0    0 -0.10955347516E-01 -0.96885457168E-02 -0.10234730074E-02  0.14660663501E-01  0.00000000000E+00 0.  1.
     999901    1    3    3    0    0  0.17927720641E-01 -0.95460755266E-01 -0.80040224748E-01  0.88895477756E+00  0.88000000000E+00 0.  1.
        -11    1    4    4    0    0  0.13948241503E-01  0.77783666978E-01  0.64904210854E-01  0.10226274980E+00  0.51100000000E-03 0. -1.
         11    1    4    4    0    0 -0.20920614628E-01  0.27365634005E-01  0.16159486901E-01  0.38051809140E-01  0.51100000000E-03 0.  1.
</event>
<event>
 8    1  0.2039519E+004  0.1043930E+01  0.7957747E-01            NaN
         13   -1    0    0    0    0  0.00000000000E+00  0.00000000000E+00  0.74505805969E-08  0.10566000000E+00  0.10566000000E+00 0. -1.
     999900   -1    0    0    0    0 -0.00000000000E+00 -0.00000000000E+00 -0.74505805969E-08  0.93827000000E+00  0.93827000000E+00 0.  1.
     999902    2    1    2    0    0 -0.11857064894E-01  0.30651545022E-02  0.56223155535E-02  0.10304542591E+01  0.10303661410E+01 0.  0.
     999903    2    3    3    0    0 -0.98686075043E-01 -0.85160836559E-01 -0.29507926037E-01  0.14109649288E+00  0.45234866122E-01 0.  0.
         14    1    1    2    0    0  0.11857064894E-01 -0.30651545022E-02 -0.56223155535E-02  0.13475740878E-01  0.00000000000E+00 0.  1.
     999901    1    3    3    0    0  0.86829010150E-01  0.88225991061E-01  0.35130241591E-01  0.88935776624E+00  0.88000000000E+00 0. -1.
        -11    1    4    4    0    0 -0.52322501745E-01 -0.17620959678E-01 -0.19543108243E-01  0.58569075540E-01  0.51100000000E-03 0. -1.
         11    1    4    4    0    0 -0.46363573299E-01 -0.67539876881E-01 -0.99648177941E-02  0.82527417340E-01  0.51100000000E-03 0.  1.
</event>
<event>
 8    1  0.2039519E+004  0.1043930E+01  0.7957747E-01            NaN
         13   -1    0    0    0    0  0.00000000000E+00  0.00000000000E+00  0.74505805969E-08  0.10566000000E+00  0.10566000000E+00 0.  1.
     999900   -1    0    0    0    0 -0.00000000000E+00 -0.00000000000E+00 -0.74505805969E-08  0.93827000000E+00  0.93827000000E+00 0. -1.
     999902    2    1    2    0    0 -0.11331545259E-01 -0.47334587987E-02  0.86062029590E-02  0.10289341246E+01  0.10288248425E+01 0.  0.
     999903    2    3    3    0    0  0.11206048848E+00  0.53147863178E-01  0.40444187812E-01  0.13787324075E+00  0.44621180476E-01 0.  0.
         14    1    1    2    0    0  0.11331545259E-01  0.47334587987E-02 -0.86062029590E-02  0.14995875417E-01  0.00000000000E+00 0. -1.
     999901    1    3    3    0    0 -0.12339203374E+00 -0.57881321977E-01 -0.31837984853E-01  0.89106088384E+00  0.88000000000E+00 0. -1.
        -11    1    4    4    0    0  0.33714017461E-01  0.31404917166E-01  0.32058014581E-01  0.56132710744E-01  0.51100000000E-03 0. -1.
         11    1    4    4    0    0  0.78346471020E-01  0.21742946012E-01  0.83861732305E-02  0.81740530002E-01  0.51100000000E-03 0.  1.
</event>
<event>
 8    1  0.2039519E+004  0.1043930E+01  0.7957747E-01            NaN
         13   -1    0    0    0    0  0.00000000000E+00  0.00000000000E+00  0.74505805969E-08  0.10566000000E+00  0.10566000000E+00 0.  1.
     999900   -1    0    0    0    0 -0.00000000000E+00 -0.00000000000E+00 -0.74505805969E-08  0.93827000000E+00  0.93827000000E+00 0.  1.
     999902    2    1    2    0    0 -0.48009525603E-03 -0.45981025735E-02 -0.13682546166E-01  0.10294875242E+01  0.10293862139E+01 0.  0.
     999903    2    3    3    0    0 -0.37965199833E-01  0.35495566072E-01 -0.12325536508E+00  0.14099507176E+00  0.44569424847E-01 0.  0.
         14    1    1    2    0    0  0.48009525603E-03  0.45981025735E-02  0.13682546166E-01  0.14442475837E-01  0.00000000000E+00 0.  1.
     999901    1    3    3    0    0  0.37485104577E-01 -0.40093668646E-01  0.10957281891E+00  0.88849245240E+00  0.88000000000E+00 0. -1.
        -11    1    4    4    0    0 -0.35629657145E-01  0.28988963040E-02 -0.62244293015E-01  0.71780841468E-01  0.51100000000E-03 0.  1.
         11    1    4    4    0    0 -0.23355426882E-02  0.32596669768E-01 -0.61011072064E-01  0.69214230293E-01  0.51100000000E-03 0. -1.
</event>
<event>
 8    1  0.2039519E+004  0.1043930E+01  0.7957747E-01            NaN
         13   -1    0    0    0    0  0.00000000000E+00  0.00000000000E+00  0.74505805969E-08  0.10566000000E+00  0.10566000000E+00 0. -1.
     999900   -1    0    0    0    0 -0.00000000000E+00 -0.00000000000E+00 -0.74505805969E-08  0.93827000000E+00  0.93827000000E+00 0.  1.
     999902    2    1    2    0    0  0.53376416210E-02 -0.98107476621E-02 -0.71914693023E-02  0.10306462348E+01  0.10305606255E+01 0.  0.
     999903    2    3    3    0    0 -0.30313796360E-01 -0.61727144503E-01 -0.11569358468E+00  0.14174857681E+00  0.44480185199E-01 0.  0.
         14    1    1    2    0    0 -0.53376416210E-02  0.98107476621E-02  0.71914693023E-02  0.13283765223E-01  0.00000000000E+00 0.  1.
     999901    1    3    3    0    0  0.35651437981E-01  0.51916396841E-01  0.10850211537E+00  0.88889765796E+00  0.88000000000E+00 0. -1.
        -11    1    4    4    0    0 -0.30612867532E-01 -0.19754744916E-01 -0.33688224311E-01  0.49624139121E-01  0.51100000000E-03 0.  1.
         11    1    4    4    0    0  0.29907117246E-03 -0.41972399587E-01 -0.82005360366E-01  0.92124437694E-01  0.51100000000E-03 0. -1.
</event>
<event>
 8    1  0.2039519E+004  0.1043930E+01  0.7957747E-01            NaN
         13   -1    0    0    0    0  0.00000000000E+00  0.00000000000E+00  0.74505805969E-08  0.10566000000E+00  0.10566000000E+00 0.  1.
     999900   -1    0    0    0    0 -0.00000000000E+00 -0.00000000000E+00 -0.74505805969E-08  0.93827000000E+00  0.93827000000E+00 0. -1.
     999902    2    1    2    0    0 -0.11776050978E-01  0.23909674306E-02 -0.62853353164E-02  0.10303691172E+01  0.10302798747E+01 0.  0.
     999903    2    3    3    0    0 -0.23995364807E-01 -0.33894625633E-01 -0.12725614022E+00  0.14126850900E+00  0.45144692172E-01 0.  0.
         14    1    1    2    0    0  0.11776050978E-01 -0.23909674306E-02  0.62853353164E-02  0.13560882785E-01  0.00000000000E+00 0. -1.
     999901    1    3    3    0    0  0.12219313829E-01  0.36285593064E-01  0.12097080490E+00  0.88910060822E+00  0.88000000000E+00 0.  1.
        -11    1    4    4    0    0  0.78645343379E-02  0.51815896441E-02 -0.10638299417E-01  0.14217394525E-01  0.51100000000E-03 0. -1.
         11    1    4    4    0    0 -0.31859899145E-01 -0.39076215277E-01 -0.11661784080E+00  0.12705111447E+00  0.51100000000E-03 0.  1.
</event>
<event>
 8    1  0.2039519E+004  0.1043930E+01  0.7957747E-01            NaN
         13   -1    0    0    0    0  0.00000000000E+00  0.00000000000E+00  0.74505805969E-08  0.10566000000E+00  0.10566000000E+00 0. -1.
     999900   -1    0    0    0    0 -0.00000000000E+00 -0.00000000000E+00 -0.74505805969E-08  0.93827000000E+00  0.93827000000E+00 0. -1.
     999902    2    1    2    0    0 -0.13863502130E-01  0.31626115154E-03 -0.86307025825E-03  0.10300360588E+01  0.10299423483E+01 0.  0.
     999903    2    3    3    0    0  0.12721490929E-01  0.98668985591E-01 -0.86968447090E-01  0.13998316362E+00  0.46199245217E-01 0.  0.
         14    1    1    2    0    0  0.13863502130E-01 -0.31626115154E-03  0.86307025825E-03  0.13893941222E-01  0.00000000000E+00 0. -1.
     999901    1    3    3    0    0 -0.26584993059E-01 -0.98352724440E-01  0.86105376832E-01  0.89005289516E+00  0.88000000000E+00 0. -1.
        -11    1    4    4    0    0  0.11038432597E-01  0.87344551992E-01 -0.49932809294E-01  0.10121494120E+00  0.51100000000E-03 0.  1.
         11    1    4    4    0    0  0.16830583317E-02  0.11324433599E-01 -0.37035637796E-01  0.38768222420E-01  0.51100000000E-03 0. -1.
</event>
<event>
 8    1  0.2039519E+004  0.1043930E+01  0.7957747E-01            NaN
         13   -1    0    0    0    0  0.00000000000E+00  0.00000000000E+00  0.74505805969E-08  0.10566000000E+00  0.10566000000E+00 0. -1.
     999900   -1    0    0    0    0 -0.00000000000E+00 -0.00000000000E+00 -0.74505805969E-08  0.93827000000E+00  0.93827000000E+00 0. -1.
     999902    2    1    2    0    0  0.19830805228E-02  0.11475402848E-01 -0.63712733270E-02  0.10306555658E+01  0.10305700776E+01 0.  0.
     999903    2    3    3    0    0 -0.90439437580E-01  0.89711750208E-01 -0.42526404821E-01  0.14162798389E+00  0.44972221640E-01 0.  0.
         14    1    1    2    0    0 -0.19830805228E-02 -0.11475402848E-01  0.63712733270E-02  0.13274434176E-01  0.00000000000E+00 0. -1.
     999901    1    3    3    0    0  0.92422518103E-01 -0.78236347361E-01  0.36155131494E-01  0.88902758193E+00  0.88000000000E+00 0.  1.
        -11    1    4    4    0    0 -0.47384707078E-01  0.65994902729E-01 -0.44104520097E-01  0.92445159230E-01  0.51100000000E-03 0.  1.
         11    1    4    4    0    0 -0.43054730503E-01  0.23716847480E-01  0.15781152757E-02  0.49182824663E-01  0.51100000000E-03 0. -1.
</event>
<event>
 8    1  0.2039519E+004  0.1043930E+01  0.7957747E-01            NaN
         13   -1    0    0    0    0  0.00000000000E+00  0.00000000000E+00  0.74505805969E-08  0.10566000000E+00  0.10566000000E+00 0. -1.
     999900   -1    0    0    0    0 -0.00000000000E+00 -0.00000000000E+00 -0.74505805969E-08  0.93827000000E+00  0.93827000000E+00 0.  1.
     999902    2    1    2    0    0 -0.67721597477E-02 -0.10950689397E-01 -0.21897428332E-02  0.10308695743E+01  0.10307868376E+01 0.  0.
     999903    2    3    3    0    0 -0.40065480591E-01  0.12555603444E+00 -0.11226743443E-01  0.13967700350E+00  0.44878335745E-01 0.  0.
         14    1    1    2    0    0  0.67721597477E-02  0.10950689397E-01  0.21897428332E-02  0.13060425705E-01  0.00000000000E+00 0.  1.
     999901    1    3    3    0    0  0.33293320843E-01 -0.13650672383E+00  0.90370006094E-02  0.89119257080E+00  0.88000000000E+00 0. -1.
        -11    1    4    4    0    0 -0.41477709307E-01  0.75335349741E-01  0.68693848043E-02  0.86274358060E-01  0.51100000000E-03 0.  1.
         11    1    4    4    0    0  0.14122287167E-02  0.50220684695E-01 -0.18096128247E-01  0.53402645438E-01  0.51100000000E-03 0. -1.
</event>
<event>
 8    1  0.2039519E+004  0.1043930E+01  0.7957747E-01            NaN
         13   -1    0    0    0    0  0.00000000000E+00  0.00000000000E+00  0.74505805969E-08  0.10566000000E+00  0.10566000000E+00 0. -1.
     999900   -1    0    0    0    0 -0.00000000000E+00 -0.00000000000E+00 -0.74505805969E-08  0.93827000000E+00  0.93827000000E+00 0.  1.
     999902    2    1    2    0    0 -0.20979414546E-02 -0.80854220182E-02  0.10312520978E-01  0.10306588472E+01  0.10305734015E+01 0.  0.
     999903    2    3    3    0    0 -0.45898076300E-01  0.88435784722E-01  0.88612443963E-01  0.14084669113E+00  0.45366328364E-01 0.  0.
         14    1    1    2    0    0  0.20979414546E-02  0.80854220182E-02 -0.10312520978E-01  0.13271152794E-01  0.00000000000E+00 0. -1.
     999901    1    3    3    0    0  0.43800134845E-01 -0.96521206740E-01 -0.78299922985E-01  0.88981215608E+00  0.88000000000E+00 0.  1.
        -11    1    4    4    0    0 -0.26169279187E-01  0.90779336787E-02  0.22370378673E-01  0.35608075152E-01  0.51100000000E-03 0.  1.
         11    1    4    4    0    0 -0.19728797113E-01  0.79357851044E-01  0.66242065290E-01  0.10523861598E+00  0.51100000000E-03 0. -1.
</event>
<event>
 8    1  0.2039519E+004  0.1043930E+01  0.7957747E-01            NaN
         13   -1    0    0    0    0  0.00000000000E+00  0.00000000000E+00  0.74505805969E-08  0.10566000000E+00  0.10566000000E+00 0.  1.
     999900   -1    0    0    0    0 -0.00000000000E+00 -0.00000000000E+00 -0.74505805969E-08  0.93827000000E+00  0.93827000000E+00 0. -1.
     999902    2    1    2    0    0 -0.42342563032E-02 -0.10782175060E-01 -0.94236856474E-02  0.10289971477E+01  0.10288887889E+01 0.  0.
     999903    2    3    3    0    0  0.13252175431E-01  0.47002063304E-01  0.11927068444E+00  0.13758981414E+00  0.48173090833E-01 0.  0.
         14    1    1    2    0    0  0.42342563032E-02  0.10782175060E-01  0.94236856474E-02  0.14932852261E-01  0.00000000000E+00 0.  1.
     999901    1    3    3    0    0 -0.17486431734E-01 -0.57784238364E-01 -0.12869437009E+00  0.89140733360E+00  0.88000000000E+00 0. -1.
        -11    1    4    4    0    0 -0.13710097108E-01  0.37514160861E-01  0.72443857037E-01  0.82726371679E-01  0.51100000000E-03 0. -1.
         11    1    4    4    0    0  0.26962272539E-01  0.94879024427E-02  0.46826827403E-01  0.54863442463E-01  0.51100000000E-03 0.  1.
</event>
<event>
 8    1  0.2039519E+004  0.1043930E+01  0.7957747E-01            NaN
         13   -1    0    0    0    0  0.00000000000E+00  0.00000000000E+00  0.74505805969E-08  0.10566000000E+00  0.10566000000E+00 0.  1.
     999900   -1    0    0    0    0 -0.00000000000E+00 -0.00000000000E+00 -0.74505805969E-08  0.93827000000E+00  0.93827000000E+00 0. -1.
     999902    2    1    2    0    0  0.16421210651E-01  0.42318622864E-02  0.12424190160E-01  0.10229079801E+01  0.10226919431E+01 0.  0.
     999903    2    3    3    0    0  0.88342990042E-01  0.84226730389E-01  0.38931632617E-01  0.13596121411E+00  0.45509929934E-01 0.  0.
         14    1    1    2    0    0 -0.16421210651E-01 -0.42318622864E-02 -0.12424190160E-01  0.21022019855E-01  0.00000000000E+00 0. -1.
     999901    1    3    3    0    0 -0.71921779391E-01 -0.79994868102E-01 -0.26507442457E-01  0.88694676603E+00  0.88000000000E+00 0. -1.
        -11    1    4    4    0    0  0.24044866729E-01  0.53188834936E-01  0.11634173766E-01  0.59521617065E-01  0.51100000000E-03 0.  1.
         11    1    4    4    0    0  0.64298123313E-01  0.31037895453E-01  0.27297458851E-01  0.76439597045E-01  0.51100000000E-03 0. -1.
</event>
<event>
 8    1  0.2039519E+004  0.1043930E+01  0.7957747E-01            NaN
         13   -1    0    0    0    0  0.00000000000E+00  0.00000000000E+00  0.74505805969E-08  0.10566000000E+00  0.10566000000E+00 0. -1.
     999900   -1    0    0    0    0 -0.00000000000E+00 -0.00000000000E+00 -0.74505805969E-08  0.93827000000E+00  0.93827000000E+00 0.  1.
     999902    2    1    2    0    0  0.26184712188E-02 -0.72281180700E-02 -0.12386477867E-01  0.10293516971E+01  0.10292484585E+01 0.  0.
     999903    2    3    3    0    0 -0.98254066438E-01 -0.82119315775E-01 -0.35078929024E-01  0.14013917597E+00  0.44844328342E-01 0.  0.
         14    1    1    2    0    0 -0.26184712188E-02  0.72281180700E-02  0.12386477867E-01  0.14578302930E-01  0.00000000000E+00 0. -1.
     999901    1    3    3    0    0  0.10087253766E+00  0.74891197705E-01  0.22692451156E-01  0.88921252110E+00  0.88000000000E+00 0. -1.
        -11    1    4    4    0    0 -0.64610351271E-01 -0.63967714571E-01 -0.42394423732E-02  0.91019778024E-01  0.51100000000E-03 0.  1.
         11    1    4    4    0    0 -0.33643715166E-01 -0.18151601203E-01 -0.30839486651E-01  0.49119397943E-01  0.51100000000E-03 0. -1.
</event>
<event>
 8    1  0.2039519E+004  0.1043930E+01  0.7957747E-01            NaN
         13   -1    0    0    0    0  0.00000000000E+00  0.00000000000E+00  0.74505805969E-08  0.10566000000E+00  0.10566000000E+00 0.  1.
     999900   -1    0    0    0    0 -0.00000000000E+00 -0.00000000000E+00 -0.74505805969E-08  0.93827000000E+00  0.93827000000E+00 0.  1.
     999902    2    1    2    0    0 -0.52752759402E-03  0.69737063624E-02 -0.19390208643E-01  0.10233171143E+01  0.10231094884E+01 0.  0.
     999903    2    3    3    0    0 -0.97769068820E-01  0.16955697818E-01 -0.81137814948E-01  0.13575397605E+00  0.44715886349E-01 0.  0.
         14    1    1    2    0    0  0.52752759402E-03 -0.69737063624E-02  0.19390208643E-01  0.20612885703E-01  0.00000000000E+00 0.  1.
     999901    1    3    3    0    0  0.97241541226E-01 -0.99819914554E-02  0.61747606305E-01  0.88756313825E+00  0.88000000000E+00 0. -1.
        -11    1    4    4    0    0 -0.63688392590E-03 -0.15241343064E-02 -0.18774550585E-01  0.18854004275E-01  0.51100000000E-03 0. -1.
         11    1    4    4    0    0 -0.97132184894E-01  0.18479832124E-01 -0.62363264362E-01  0.11689997177E+00  0.51100000000E-03 0.  1.
</event>
<event>
 8    1  0.2039519E+004  0.1043930E+01  0.7957747E-01            NaN
         13   -1    0    0    0    0  0.00000000000E+00  0.00000000000E+00  0.74505805969E-08  0.10566000000E+00  0.10566000000E+00 0. -1.
     999900   -1    0    0    0    0 -0.00000000000E+00 -0.00000000000E+00 -0.74505805969E-08  0.93827000000E+00  0.93827000000E+00 0.  1.
     999902    2    1    2    0    0  0.26402486739E-03  0.93538955551E-02  0.99217950684E-02  0.10302915584E+01  0.10302012853E+01 0.  0.
     999903    2    3    3    0    0  0.85620588557E-01 -0.86259980976E-02 -0.99785810785E-01  0.13919965614E+00  0.44878092730E-01 0.  0.
         14    1    1    2    0    0 -0.26402486739E-03 -0.93538955551E-02 -0.99217950684E-02  0.13638441574E-01  0.00000000000E+00 0.  1.
     999901    1    3    3    0    0 -0.85356563689E-01  0.17979893653E-01  0.10970760585E+00  0.89109190229E+00  0.88000000000E+00 0. -1.
        -11    1    4    4    0    0  0.63551677053E-01 -0.25347101432E-01 -0.61863747734E-01  0.92242482685E-01  0.51100000000E-03 0.  1.
         11    1    4    4    0    0  0.22068911504E-01  0.16721103334E-01 -0.37922063051E-01  0.46957173453E-01  0.51100000000E-03 0. -1.
</event>
<event>
 8    1  0.2039519E+004  0.1043930E+01  0.7957747E-01            NaN
         13   -1    0    0    0    0  0.00000000000E+00  0.00000000000E+00  0.74505805969E-08  0.10566000000E+00  0.10566000000E+00 0.  1.
     999900   -1    0    0    0    0 -0.00000000000E+00 -0.00000000000E+00 -0.74505805969E-08  0.93827000000E+00  0.93827000000E+00 0. -1.
     999902    2    1    2    0    0  0.48879209828E-02 -0.41475958004E-02  0.13032736090E-01  0.10294060015E+01  0.10293035361E+01 0.  0.
     999903    2    3    3    0    0  0.66446761272E-01  0.50218154216E-01 -0.10074236749E+00  0.13828878149E+00  0.45141193858E-01 0.  0.
         14    1    1    2    0    0 -0.48879209828E-02  0.41475958004E-02 -0.13032736090E-01  0.14523998501E-01  0.00000000000E+00 0. -1.
     999901    1    3    3    0    0 -0.61558840289E-01 -0.54365750017E-01  0.11377510358E+00  0.89111722000E+00  0.88000000000E+00 0.  1.
        -11    1    4    4    0    0  0.44592972376E-03  0.22322000695E-01 -0.31751348212E-01  0.38818549723E-01  0.51100000000E-03 0. -1.
         11    1    4    4    0    0  0.66000831548E-01  0.27896153522E-01 -0.68991019281E-01  0.99470231771E-01  0.51100000000E-03 0.  1.
</event>
<event>
 8    1  0.2039519E+004  0.1043930E+01  0.7957747E-01            NaN
         13   -1    0    0    0    0  0.00000000000E+00  0.00000000000E+00  0.74505805969E-08  0.10566000000E+00  0.10566000000E+00 0.  1.
     999900   -1    0    0    0    0 -0.00000000000E+00 -0.00000000000E+00 -0.74505805969E-08  0.93827000000E+00  0.93827000000E+00 0.  1.
     999902    2    1    2    0    0  0.66698135953E-02 -0.36178233646E-02 -0.10858041166E-01  0.10306834111E+01  0.10305982834E+01 0.  0.
     999903    2    3    3    0    0  0.46469073962E-01  0.54162163907E-01 -0.11413876373E+00  0.14186992353E+00  0.44794006089E-01 0.  0.
         14    1    1    2    0    0 -0.66698135953E-02  0.36178233646E-02  0.10858041166E-01  0.13246588892E-01  0.00000000000E+00 0.  1.
     999901    1    3    3    0    0 -0.39799260367E-01 -0.57779987272E-01  0.10328072256E+00  0.88881348758E+00  0.88000000000E+00 0. -1.
        -11    1    4    4    0    0  0.37760669486E-01  0.19085338751E-01 -0.86752589184E-01  0.96521454436E-01  0.51100000000E-03 0.  1.
         11    1    4    4    0    0  0.87084044756E-02  0.35076825156E-01 -0.27386174546E-01  0.45348469090E-01  0.51100000000E-03 0. -1.
</event>
<event>
 8    1  0.2039519E+004  0.1043930E+01  0.7957747E-01            NaN
         13   -1    0    0    0    0  0.00000000000E+00  0.00000000000E+00  0.74505805969E-08  0.10566000000E+00  0.10566000000E+00 0. -1.
     999900   -1    0    0    0    0 -0.00000000000E+00 -0.00000000000E+00 -0.74505805969E-08  0.93827000000E+00  0.93827000000E+00 0.  1.
     999902    2    1    2    0    0  0.29737029426E-02 -0.11047379419E-01 -0.75822907695E-02  0.10302048904E+01  0.10301134586E+01 0.  0.
     999903    2    3    3    0    0  0.85883137489E-02 -0.25786977360E-01  0.12915467962E+00  0.13950528967E+00  0.45189238159E-01 0.  0.
         14    1    1    2    0    0 -0.29737029426E-02  0.11047379419E-01  0.75822907695E-02  0.13725109637E-01  0.00000000000E+00 0.  1.
     999901    1    3    3    0    0 -0.56146108063E-02  0.14739597941E-01 -0.13673697039E+00  0.89069960069E+00  0.88000000000E+00 0.  1.
        -11    1    4    4    0    0 -0.11587379288E-01  0.74083901978E-02  0.29766148414E-01  0.32793845711E-01  0.51100000000E-03 0. -1.
         11    1    4    4    0    0  0.20175693037E-01 -0.33195367558E-01  0.99388531201E-01  0.10671144396E+00  0.51100000000E-03 0.  1.
</event>
<event>
 8    1  0.2039519E+004  0.1043930E+01  0.7957747E-01            NaN
         13   -1    0    0    0    0  0.00000000000E+00  0.00000000000E+00  0.74505805969E-08  0.10566000000E+00  0.10566000000E+00 0.  1.
     999900   -1    0    0    0    0 -0.00000000000E+00 -0.00000000000E+00 -0.74505805969E-08  0.93827000000E+00  0.93827000000E+00 0. -1.
     999902    2    1    2    0    0  0.77412943890E-02  0.80645411238E-02 -0.89277676794E-02  0.10296237252E+01  0.10295243300E+01 0.  0.
     999903    2    3    3    0    0 -0.12421075883E+00 -0.36638155607E-01 -0.20220081604E-01  0.13859219278E+00  0.45036398000E-01 0.  0.
         14    1    1    2    0    0 -0.77412943890E-02 -0.80645411238E-02  0.89277676794E-02  0.14306274780E-01  0.00000000000E+00 0.  1.
     999901    1    3    3    0    0  0.13195205322E+00  0.44702696731E-01  0.11292313924E-01  0.89103153244E+00  0.88000000000E+00 0.  1.
        -11    1    4    4    0    0 -0.65515619718E-01 -0.35158899730E-01  0.53554057241E-02  0.74547878231E-01  0.51100000000E-03 0.  1.
         11    1    4    4    0    0 -0.58695139112E-01 -0.14792558772E-02 -0.25575487328E-01  0.64044314552E-01  0.51100000000E-03 0. -1.
</event>
<event>
 8    1  0.2039519E+004  0.1043930E+01  0.7957747E-01            NaN
         13   -1    0    0    0    0  0.00000000000E+00  0.00000000000E+00  0.74505805969E-08  0.10566000000E+00  0.10566000000E+00 0.  1.
     999900   -1    0    0    0    0 -0.00000000000E+00 -0.00000000000E+00 -0.74505805969E-08  0.93827000000E+00  0.93827000000E+00 0. -1.
     999902    2    1    2    0    0 -0.78428065250E-02 -0.59126898199E-02  0.95730503699E-02  0.10302145777E+01  0.10301232758E+01 0.  0.
     999903    2    3    3    0    0  0.12274036429E+00 -0.49401371328E-01  0.49601142829E-02  0.13950446264E+00  0.43945418946E-01 0.  0.
         14    1    1    2    0    0  0.78428065250E-02  0.59126898199E-02 -0.95730503699E-02  0.13715422286E-01  0.00000000000E+00 0.  1.
     999901    1    3    3    0    0 -0.13058317082E+00  0.43488681508E-01  0.46129360870E-02  0.89071011508E+00  0.88000000000E+00 0.  1.
        -11    1    4    4    0    0  0.10032745612E+00 -0.37144602768E-01 -0.13710874133E-01  0.10785902445E+00  0.51100000000E-03 0. -1.
         11    1    4    4    0    0  0.22412908177E-01 -0.12256768559E-01  0.18670988416E-01  0.31645438185E-01  0.51100000000E-03 0.  1.
</event>
<event>
 8    1  0.2039519E+004  0.1043930E+01  0.7957747E-01            NaN
         13   -1    0    0    0    0  0.00000000000E+00  0.00000000000E+00  0.74505805969E-08  0.10566000000E+00  0.10566000000E+00 0. -1.
     999900   -1    0    0    0    0 -0.00000000000E+00 -0.00000000000E+00 -0.74505805969E-08  0.93827000000E+00  0.93827000000E+00 0. -1.
     999902    2    1    2    0    0 -0.13012561414E-02 -0.75008782500E-02  0.11821538757E-01  0.10298692311E+01  0.10297732411E+01 0.  0.
     999903    2    3    3    0    0  0.11849070173E+00 -0.99647265132E-02  0.59742150346E-01  0.14045787034E+00  0.44943816500E-01 0.  0.
         14    1    1    2    0    0  0.13012561414E-02  0.75008782500E-02 -0.11821538757E-01  0.14060768850E-01  0.00000000000E+00 0.  1.
     999901    1    3    3    0    0 -0.11979195787E+00  0.24638482631E-02 -0.47920611589E-01  0.88941136081E+00  0.88000000000E+00 0.  1.
        -11    1    4    4    0    0  0.64240762642E-01 -0.88705180050E-03  0.76555102079E-02  0.64703403336E-01  0.51100000000E-03 0. -1.
         11    1    4    4    0    0  0.54249939090E-01 -0.90776747127E-02  0.52086640138E-01  0.75754467005E-01  0.51100000000E-03 0.  1.
</event>
<event>
 8    1  0.2039519E+004  0.1043930E+01  0.7957747E-01            NaN
         13   -1    0    0    0    0  0.00000000000E+00  0.00000000000E+00  0.74505805969E-08  0.10566000000E+00  0.10566000000E+00 0.  1.
     999900   -1    0    0    0    0 -0.00000000000E+00 -0.00000000000E+00 -0.74505805969E-08  0.93827000000E+00  0.93827000000E+00 0. -1.
     999902    2    1    2    0    0 -0.57770632987E-02  0.11741651905E-01 -0.31569068101E-02  0.10304686884E+01  0.10303807601E+01 0.  0.
     999903    2    3    3    0    0 -0.40649965081E-01  0.10170044562E+00  0.77609159709E-01  0.14151882402E+00  0.44821820364E-01 0.  0.
         14    1    1    2    0    0  0.57770632987E-02 -0.11741651905E-01  0.31569068101E-02  0.13461311616E-01  0.00000000000E+00 0. -1.
     999901    1    3    3    0    0  0.34872901783E-01 -0.89958793720E-01 -0.80766066519E-01  0.88894986436E+00  0.88000000000E+00 0. -1.
        -11    1    4    4    0    0 -0.35781363709E-03  0.61217746810E-01  0.39976216948E-01  0.73117026728E-01  0.51100000000E-03 0. -1.
         11    1    4    4    0    0 -0.40292151444E-01  0.40482698815E-01  0.37632942761E-01  0.68401797295E-01  0.51100000000E-03 0.  1.
</event>
<event>
 8    1  0.2039519E+004  0.1043930E+01  0.7957747E-01            NaN
         13   -1    0    0    0    0  0.00000000000E+00  0.00000000000E+00  0.74505805969E-08  0.10566000000E+00  0.10566000000E+00 0. -1.
     999900   -1    0    0    0    0 -0.00000000000E+00 -0.00000000000E+00 -0.74505805969E-08  0.93827000000E+00  0.93827000000E+00 0.  1.
     999902    2    1    2    0    0  0.74481120989E-02 -0.10746363295E-01  0.27939420336E-02  0.10305597042E+01  0.10304729686E+01 0.  0.
     999903    2    3    3    0    0 -0.13026307216E+00 -0.13529928991E-01  0.19049344893E-01  0.13969700061E+00  0.44730833792E-01 0.  0.
         14    1    1    2    0    0 -0.74481120989E-02  0.10746363295E-01 -0.27939420336E-02  0.13370295808E-01  0.00000000000E+00 0. -1.
     999901    1    3    3    0    0  0.13771118426E+00  0.27835656951E-02 -0.16255402859E-01  0.89086270358E+00  0.88000000000E+00 0.  1.
        -11    1    4    4    0    0 -0.12628776162E+00 -0.11317310048E-01  0.72058954402E-02  0.12699947359E+00  0.51100000000E-03 0.  1.
         11    1    4    4    0    0 -0.39753105365E-02 -0.22126189426E-02  0.11843449452E-01  0.12697527018E-01  0.51100000000E-03 0. -1.
</event>
<event>
 8    1  0.2039519E+004  0.1043930E+01  0.7957747E-01            NaN
         13   -1    0    0    0    0  0.00000000000E+00  0.00000000000E+00  0.74505805969E-08  0.10566000000E+00  0.10566000000E+00 0.  1.
     999900   -1    0    0    0    0 -0.00000000000E+00 -0.00000000000E+00 -0.74505805969E-08  0.93827000000E+00  0.93827000000E+00 0.  1.
     999902    2    1    2    0    0  0.24167359203E-01  0.12401673543E-01  0.63349487958E-02  0.10160374502E+01  0.10156545209E+01 0.  0.
     999903    2    3    3    0    0  0.73858771502E-01 -0.84542212793E-01  0.44353572814E-01  0.12850560891E+00  0.44090228257E-01 0.  0.
         14    1    1    2    0    0 -0.24167359203E-01 -0.12401673543E-01 -0.63349487958E-02  0.27892549789E-01  0.00000000000E+00 0. -1.
     999901    1    3    3    0    0 -0.49691412299E-01  0.96943886336E-01 -0.38018624018E-01  0.88753184130E+00  0.88000000000E+00 0.  1.
        -11    1    4    4    0    0  0.27039082793E-01 -0.13715592484E-01  0.29512213292E-01  0.42313843242E-01  0.51100000000E-03 0.  1.
         11    1    4    4    0    0  0.46819688709E-01 -0.70826620309E-01  0.14841359521E-01  0.86191765666E-01  0.51100000000E-03 0. -1.
</event>
<event>
 8    1  0.2039519E+004  0.1043930E+01  0.7957747E-01            NaN
         13   -1    0    0    0    0  0.00000000000E+00  0.00000000000E+00  0.74505805969E-08  0.10566000000E+00  0.10566000000E+00 0. -1.
     999900   -1    0    0    0    0 -0.00000000000E+00 -0.00000000000E+00 -0.74505805969E-08  0.93827000000E+00  0.93827000000E+00 0.  1.
     999902    2    1    2    0    0 -0.12709839048E-01 -0.16021627196E-01 -0.39331344177E-02  0.10231044846E+01  0.10228925086E+01 0.  0.
     999903    2    3    3    0    0  0.67091790010E-02  0.41394329223E-01  0.11726218098E+00  0.13273265506E+00  0.45924231695E-01 0.  0.
         14    1    1    2    0    0  0.12709839048E-01  0.16021627196E-01  0.39331344177E-02  0.20825515431E-01  0.00000000000E+00 0.  1.
     999901    1    3    3    0    0 -0.19419018049E-01 -0.57415956419E-01 -0.12119531539E+00  0.89037182951E+00  0.88000000000E+00 0.  1.
        -11    1    4    4    0    0 -0.99462697651E-02  0.79549985652E-02  0.76031460935E-01  0.77092505844E-01  0.51100000000E-03 0.  1.
         11    1    4    4    0    0  0.16655448766E-01  0.33439330657E-01  0.41230720040E-01  0.55640149213E-01  0.51100000000E-03 0. -1.
</event>
<event>
 8    1  0.2039519E+004  0.1043930E+01  0.7957747E-01            NaN
         13   -1    0    0    0    0  0.00000000000E+00  0.00000000000E+00  0.74505805969E-08  0.10566000000E+00  0.10566000000E+00 0.  1.
     999900   -1    0    0    0    0 -0.00000000000E+00 -0.00000000000E+00 -0.74505805969E-08  0.93827000000E+00  0.93827000000E+00 0.  1.
     999902    2    1    2    0    0  0.59359106597E-02  0.74599195348E-02  0.58805977972E-02  0.10327288007E+01  0.10326680536E+01 0.  0.
     999903    2    3    3    0    0  0.76365705908E-01 -0.30814137014E-01  0.10879016442E+00  0.14311335663E+00  0.43184498301E-01 0.  0.
         14    1    1    2    0    0 -0.59359106597E-02 -0.74599195348E-02 -0.58805977972E-02  0.11201199279E-01  0.00000000000E+00 0. -1.
     999901    1    3    3    0    0 -0.70429795249E-01  0.38274056549E-01 -0.10290956662E+00  0.88961544409E+00  0.88000000000E+00 0.  1.
        -11    1    4    4    0    0  0.52726173432E-01 -0.40829703744E-01  0.70839317325E-01  0.97291233278E-01  0.51100000000E-03 0.  1.
         11    1    4    4    0    0  0.23639532476E-01  0.10015566730E-01  0.37950847091E-01  0.45822123353E-01  0.51100000000E-03 0. -1.
</event>
<event>
 8    1  0.2039519E+004  0.1043930E+01  0.7957747E-01            NaN
         13   -1    0    0    0    0  0.00000000000E+00  0.00000000000E+00  0.74505805969E-08  0.10566000000E+00  0.10566000000E+00 0. -1.
     999900   -1    0    0    0    0 -0.00000000000E+00 -0.00000000000E+00 -0.74505805969E-08  0.93827000000E+00  0.93827000000E+00 0.  1.
     999902    2    1    2    0    0 -0.72953372498E-03 -0.12314412831E-01 -0.51719932153E-02  0.10305536591E+01  0.10304668446E+01 0.  0.
     999903    2    3    3    0    0 -0.98638083020E-01 -0.83443908190E-01  0.36420249351E-01  0.14129812562E+00  0.44117666582E-01 0.  0.
         14    1    1    2    0    0  0.72953372498E-03  0.12314412831E-01  0.51719932153E-02  0.13376340929E-01  0.00000000000E+00 0. -1.
     999901    1    3    3    0    0  0.97908549295E-01  0.71129495359E-01 -0.41592242567E-01  0.88925553345E+00  0.88000000000E+00 0.  1.
        -11    1    4    4    0    0 -0.39032133974E-01 -0.51751690520E-01  0.35230887617E-01  0.73778191341E-01  0.51100000000E-03 0.  1.
         11    1    4    4    0    0 -0.59605949046E-01 -0.31692217669E-01  0.11893617340E-02  0.67519934277E-01  0.51100000000E-03 0. -1.
</event>
<event>
 8    1  0.2039519E+004  0.1043930E+01  0.7957747E-01            NaN
         13   -1    0    0    0    0  0.00000000000E+00  0.00000000000E+00  0.74505805969E-08  0.10566000000E+00  0.10566000000E+00 0.  1.
     999900   -1    0    0    0    0 -0.00000000000E+00 -0.00000000000E+00 -0.74505805969E-08  0.93827000000E+00  0.93827000000E+00 0. -1.
     999902    2    1    2    0    0  0.10536525772E-01 -0.85076743354E-02 -0.32093437966E-02  0.10300124289E+01  0.10299183972E+01 0.  0.
     999903    2    3    3    0    0  0.27410897017E-01  0.89725486953E-02  0.12890540986E+00  0.13981884841E+00  0.45834940517E-01 0.  0.
         14    1    1    2    0    0 -0.10536525772E-01  0.85076743354E-02  0.32093437966E-02  0.13917571108E-01  0.00000000000E+00 0.  1.
     999901    1    3    3    0    0 -0.16874371246E-01 -0.17480223031E-01 -0.13211475366E+00  0.89019358049E+00  0.88000000000E+00 0. -1.
        -11    1    4    4    0    0  0.22045827215E-01  0.26174806374E-01  0.65530809694E-01  0.73930285583E-01  0.51100000000E-03 0.  1.
         11    1    4    4    0    0  0.53650698026E-02 -0.17202257678E-01  0.63374600171E-01  0.65888562824E-01  0.51100000000E-03 0. -1.
</event>
<event>
 8    1  0.2039519E+004  0.1043930E+01  0.7957747E-01            NaN
         13   -1    0    0    0    0  0.00000000000E+00  0.00000000000E+00  0.74505805969E-08  0.10566000000E+00  0.10566000000E+00 0.  1.
     999900   -1    0    0    0    0 -0.00000000000E+00 -0.00000000000E+00 -0.74505805969E-08  0.93827000000E+00  0.93827000000E+00 0.  1.
     999902    2    1    2    0    0 -0.19035663803E-02  0.13725328106E-01 -0.13888174413E-02  0.10300038731E+01  0.10299097250E+01 0.  0.
     999903    2    3    3    0    0  0.55501699588E-01 -0.11348586736E+00 -0.34019045285E-01  0.13840823348E+00  0.45167055537E-01 0.  0.
         14    1    1    2    0    0  0.19035663803E-02 -0.13725328106E-01  0.13888174413E-02  0.13926126901E-01  0.00000000000E+00 0. -1.
     999901    1    3    3    0    0 -0.57405265968E-01  0.12721119547E+00  0.32630227844E-01  0.89159563962E+00  0.88000000000E+00 0.  1.
        -11    1    4    4    0    0  0.20004099060E-01 -0.64116697132E-02 -0.90108398432E-02  0.22863285927E-01  0.51100000000E-03 0.  1.
         11    1    4    4    0    0  0.35497600528E-01 -0.10707419765E+00 -0.25008205442E-01  0.11554494756E+00  0.51100000000E-03 0. -1.
</event>
<event>
 8    1  0.2039519E+004  0.1043930E+01  0.7957747E-01            NaN
         13   -1    0    0    0    0  0.00000000000E+00  0.00000000000E+00  0.74505805969E-08  0.10566000000E+00  0.10566000000E+00 0. -1.
     999900   -1    0    0    0    0 -0.00000000000E+00 -0.00000000000E+00 -0.74505805969E-08  0.93827000000E+00  0.93827000000E+00 0. -1.
     999902    2    1    2    0    0  0.28466059257E-02  0.11644211364E-01  0.77916394575E-02  0.10296331308E+01  0.10295338671E+01 0.  0.
     999903    2    3    3    0    0 -0.14854467998E-01 -0.77546863415E-01  0.10559054827E+00  0.13955841348E+00  0.45749487909E-01 0.  0.
         14    1    1    2    0    0 -0.28466059257E-02 -0.11644211364E-01 -0.77916394575E-02  0.14296869204E-01  0.00000000000E+00 0.  1.
     999901    1    3    3    0    0  0.17701073924E-01  0.89191074779E-01 -0.97798908815E-01  0.89007471732E+00  0.88000000000E+00 0. -1.
        -11    1    4    4    0    0 -0.28994900417E-01 -0.47072899120E-01  0.80353346972E-01  0.97537088189E-01  0.51100000000E-03 0. -1.
         11    1    4    4    0    0  0.14140432419E-01 -0.30473964295E-01  0.25237201301E-01  0.42021325293E-01  0.51100000000E-03 0.  1.
</event>
<event>
 8    1  0.2039519E+004  0.1043930E+01  0.7957747E-01            NaN
         13   -1    0    0    0    0  0.00000000000E+00  0.00000000000E+00  0.74505805969E-08  0.10566000000E+00  0.10566000000E+00 0.  1.
     999900   -1    0    0    0    0 -0.00000000000E+00 -0.00000000000E+00 -0.74505805969E-08  0.93827000000E+00  0.93827000000E+00 0.  1.
     999902    2    1    2    0    0  0.93159222413E-02 -0.78397810429E-02 -0.97523755803E-02  0.10283300832E+01  0.10282117499E+01 0.  0.
     999903    2    3    3    0    0  0.63192010090E-01 -0.18172859049E-01 -0.11552612600E+00  0.14029996458E+00  0.44881079819E-01 0.  0.
         14    1    1    2    0    0 -0.93159222413E-02  0.78397810429E-02  0.97523755803E-02  0.15599916778E-01  0.00000000000E+00 0.  1.
     999901    1    3    3    0    0 -0.53876087849E-01  0.10333078006E-01  0.10577375042E+00  0.88803011865E+00  0.88000000000E+00 0. -1.
        -11    1    4    4    0    0  0.38059835883E-01 -0.32949592641E-03 -0.97318408440E-01  0.10449781537E+00  0.51100000000E-03 0. -1.
         11    1    4    4    0    0  0.25132174207E-01 -0.17843363123E-01 -0.18207717563E-01  0.35802149206E-01  0.51100000000E-03 0.  1.
</event>
<event>
 8    1  0.2039519E+004  0.1043930E+01  0.7957747E-01            NaN
         13   -1    0    0    0    0  0.00000000000E+00  0.00000000000E+00  0.74505805969E-08  0.10566000000E+00  0.10566000000E+00 0. -1.
     999900   -1    0    0    0    0 -0.00000000000E+00 -0.00000000000E+00 -0.74505805969E-08  0.93827000000E+00  0.93827000000E+00 0.  1.
     999902    2    1    2    0    0  0.34305660138E-02 -0.13213843603E-01 -0.12653105216E-02  0.10302195858E+01  0.10301283510E+01 0.  0.
     999903    2    3    3    0    0  0.95178077129E-01  0.91354389471E-01  0.31948650216E-02  0.13928074712E+00  0.44546924848E-01 0.  0.
         14    1    1    2    0    0 -0.34305660138E-02  0.13213843603E-01  0.12653105216E-02  0.13710414168E-01  0.00000000000E+00 0. -1.
     999901    1    3    3    0    0 -0.91747511116E-01 -0.10456823307E+00 -0.44601755432E-02  0.89093883871E+00  0.88000000000E+00 0.  1.
        -11    1    4    4    0    0  0.56418825370E-01  0.25697236662E-01 -0.68560342278E-02  0.62375461157E-01  0.51100000000E-03 0. -1.
         11    1    4    4    0    0  0.38759251759E-01  0.65657152809E-01  0.10050899249E-01  0.76905285961E-01  0.51100000000E-03 0.  1.
</event>
<event>
 8    1  0.2039519E+004  0.1043930E+01  0.7957747E-01            NaN
         13   -1    0    0    0    0  0.00000000000E+00  0.00000000000E+00  0.74505805969E-08  0.10566000000E+00  0.10566000000E+00 0.  1.
     999900   -1    0    0    0    0 -0.00000000000E+00 -0.00000000000E+00 -0.74505805969E-08  0.93827000000E+00  0.93827000000E+00 0.  1.
     999902    2    1    2    0    0  0.23805987959E-02  0.51890271976E-02 -0.17127125030E-01  0.10258764224E+01  0.10257175548E+01 0.  0.
     999903    2    3    3    0    0 -0.35485312982E-01  0.36190916376E-01  0.11647876296E+00  0.13444752575E+00  0.44043672581E-01 0.  0.
         14    1    1    2    0    0 -0.23805987959E-02 -0.51890271976E-02  0.17127125030E-01  0.18053577642E-01  0.00000000000E+00 0.  1.
     999901    1    3    3    0    0  0.37865911778E-01 -0.31001889178E-01 -0.13360588799E+00  0.89142889661E+00  0.88000000000E+00 0.  1.
        -11    1    4    4    0    0 -0.94653918154E-03  0.27999792672E-01  0.30443281284E-01  0.41375582442E-01  0.51100000000E-03 0. -1.
         11    1    4    4    0    0 -0.34538773800E-01  0.81911237040E-02  0.86035481672E-01  0.93071943306E-01  0.51100000000E-03 0.  1.
</event>
<event>
 8    1  0.2039519E+004  0.1043930E+01  0.7957747E-01            NaN
         13   -1    0    0    0    0  0.00000000000E+00  0.00000000000E+00  0.74505805969E-08  0.10566000000E+00  0.10566000000E+00 0.  1.
     999900   -1    0    0    0    0 -0.00000000000E+00 -0.00000000000E+00 -0.74505805969E-08  0.93827000000E+00  0.93827000000E+00 0. -1.
     999902    2    1    2    0    0 -0.42286173544E-02  0.12469051684E-01 -0.47228681331E-02  0.10299420074E+01  0.10298470151E+01 0.  0.
     999903    2    3    3    0    0  0.31825727654E-01  0.60601019225E-01  0.11341085811E+00  0.14001381960E+00  0.45348500210E-01 0.  0.
         14    1    1    2    0    0  0.42286173544E-02 -0.12469051684E-01  0.47228681331E-02  0.13987992638E-01  0.00000000000E+00 0.  1.
     999901    1    3    3    0    0 -0.36054345008E-01 -0.48131967541E-01 -0.11813372624E+00  0.88992818776E+00  0.88000000000E+00 0. -1.
        -11    1    4    4    0    0  0.25006238731E-01  0.29118898867E-01  0.96008400290E-01  0.10339775768E+00  0.51100000000E-03 0. -1.
         11    1    4    4    0    0  0.68194889222E-02  0.31482120358E-01  0.17402457818E-01  0.36616061920E-01  0.51100000000E-03 0.  1.
</event>
<event>
 8    1  0.2039519E+004  0.1043930E+01  0.7957747E-01            NaN
         13   -1    0    0    0    0  0.00000000000E+00  0.00000000000E+00  0.74505805969E-08  0.10566000000E+00  0.10566000000E+00 0.  1.
     999900   -1    0    0    0    0 -0.00000000000E+00 -0.00000000000E+00 -0.74505805969E-08  0.93827000000E+00  0.93827000000E+00 0. -1.
     999902    2    1    2    0    0 -0.66090230708E-02  0.11858906451E-01  0.36594972294E-02  0.10298692472E+01  0.10297732574E+01 0.  0.
     999903    2    3    3    0    0 -0.10773000434E+00 -0.52662684106E-01 -0.55305682188E-01  0.13977634148E+00  0.45821338073E-01 0.  0.
         14    1    1    2    0    0  0.66090230708E-02 -0.11858906451E-01 -0.36594972294E-02  0.14060752759E-01  0.00000000000E+00 0. -1.
     999901    1    3    3    0    0  0.10112098127E+00  0.64521590557E-01  0.58965179417E-01  0.89009290576E+00  0.88000000000E+00 0.  1.
        -11    1    4    4    0    0 -0.44282043096E-01 -0.25904289806E-01 -0.48463772301E-01  0.70575703452E-01  0.51100000000E-03 0. -1.
         11    1    4    4    0    0 -0.63447961246E-01 -0.26758394300E-01 -0.68419098872E-02  0.69200638029E-01  0.51100000000E-03 0.  1.
</event>
<event>
 8    1  0.2039519E+004  0.1043930E+01  0.7957747E-01            NaN
         13   -1    0    0    0    0  0.00000000000E+00  0.00000000000E+00  0.74505805969E-08  0.10566000000E+00  0.10566000000E+00 0.  1.
     999900   -1    0    0    0    0 -0.00000000000E+00 -0.00000000000E+00 -0.74505805969E-08  0.93827000000E+00  0.93827000000E+00 0.  1.
     999902    2    1    2    0    0  0.81372263161E-02 -0.49097816500E-02  0.94569005552E-02  0.10305227864E+01  0.10304355681E+01 0.  0.
     999903    2    3    3    0    0  0.10842670380E+00 -0.74241567389E-02 -0.76778279577E-01  0.14063469926E+00  0.45516439001E-01 0.  0.
         14    1    1    2    0    0 -0.81372263161E-02  0.49097816500E-02 -0.94569005552E-02  0.13407213584E-01  0.00000000000E+00 0. -1.
     999901    1    3    3    0    0 -0.10028947749E+00  0.25143750889E-02  0.86235180132E-01  0.88988808716E+00  0.88000000000E+00 0.  1.
        -11    1    4    4    0    0  0.48717583407E-01  0.14506034339E-01 -0.50973497535E-01  0.71988794526E-01  0.51100000000E-03 0. -1.
         11    1    4    4    0    0  0.59709120395E-01 -0.21930191078E-01 -0.25804782042E-01  0.68645904731E-01  0.51100000000E-03 0.  1.
</event>
<event>
 8    1  0.2039519E+004  0.1043930E+01  0.7957747E-01            NaN
         13   -1    0    0    0    0  0.00000000000E+00  0.00000000000E+00  0.74505805969E-08  0.10566000000E+00  0.10566000000E+00 0.  1.
     999900   -1    0    0    0    0 -0.00000000000E+00 -0.00000000000E+00 -0.74505805969E-08  0.93827000000E+00  0.93827000000E+00 0. -1.
     999902    2    1    2    0    0 -0.22168401799E-02  0.13530574296E-01  0.36796164269E-02  0.10297338597E+01  0.10296359995E+01 0.  0.
     999903    2    3    3    0    0  0.11282177606E+00  0.35636584442E-01  0.60877822284E-01  0.14013046853E+00  0.43951332859E-01 0.  0.
         14    1    1    2    0    0  0.22168401799E-02 -0.13530574296E-01 -0.36796164269E-02  0.14196140258E-01  0.00000000000E+00 0. -1.
     999901    1    3    3    0    0 -0.11503861624E+00 -0.22106010145E-01 -0.57198205857E-01  0.88960339122E+00  0.88000000000E+00 0. -1.
        -11    1    4    4    0    0  0.14440845280E-02  0.23753091511E-02  0.14839237495E-01  0.15106010861E-01  0.51100000000E-03 0.  1.
         11    1    4    4    0    0  0.11137769153E+00  0.33261275291E-01  0.46038584789E-01  0.12502445767E+00  0.51100000000E-03 0. -1.
</event>
<event>
 8    1  0.2039519E+004  0.1043930E+01  0.7957747E-01            NaN
         13   -1    0    0    0    0  0.00000000000E+00  0.00000000000E+00  0.74505805969E-08  0.10566000000E+00  0.10566000000E+00 0. -1.
     999900   -1    0    0    0    0 -0.00000000000E+00 -0.00000000000E+00 -0.74505805969E-08  0.93827000000E+00  0.93827000000E+00 0.  1.
     999902    2    1    2    0    0  0.20202030113E-01 -0.60411323055E-02  0.14421267165E-02  0.10227947917E+01  0.10225763976E+01 0.  0.
     999903    2    3    3    0    0  0.95968038427E-01 -0.52567095225E-01  0.67212469221E-01  0.13587264676E+00  0.44392524354E-01 0.  0.
         14    1    1    2    0    0 -0.20202030113E-01  0.60411323055E-02 -0.14421267165E-02  0.21135208296E-01  0.00000000000E+00 0.  1.
     999901    1    3    3    0    0 -0.75766008314E-01  0.46525962920E-01 -0.65770342505E-01  0.88692214495E+00  0.88000000000E+00 0.  1.
        -11    1    4    4    0    0  0.73019838938E-01 -0.34489742100E-01  0.69527422576E-01  0.10656342149E+00  0.51100000000E-03 0.  1.
         11    1    4    4    0    0  0.22948199489E-01 -0.18077353126E-01 -0.23149533551E-02  0.29309225268E-01  0.51100000000E-03 0. -1.
</event>
<event>
 8    1  0.2039519E+004  0.1043930E+01  0.7957747E-01            NaN
         13   -1    0    0    0    0  0.00000000000E+00  0.00000000000E+00  0.74505805969E-08  0.10566000000E+00  0.10566000000E+00 0.  1.
     999900   -1    0    0    0    0 -0.00000000000E+00 -0.00000000000E+00 -0.74505805969E-08  0.93827000000E+00  0.93827000000E+00 0. -1.
     999902    2    1    2    0    0 -0.66636504480E-02 -0.12677233245E-01  0.70721051831E-02  0.10279571746E+01  0.10278330709E+01 0.  0.
     999903    2    3    3    0    0  0.12023465729E+00 -0.45668573721E-01 -0.24299353555E-01  0.13768992399E+00  0.42732483499E-01 0.  0.
         14    1    1    2    0    0  0.66636504480E-02  0.12677233245E-01 -0.70721051831E-02  0.15972825415E-01  0.00000000000E+00 0.  1.
     999901    1    3    3    0    0 -0.12689830774E+00  0.32991340477E-01  0.31371458738E-01  0.89026725059E+00  0.88000000000E+00 0.  1.
        -11    1    4    4    0    0  0.52535894174E-01  0.12359994914E-02 -0.31022141713E-02  0.52644398801E-01  0.51100000000E-03 0.  1.
         11    1    4    4    0    0  0.67698763118E-01 -0.46904573213E-01 -0.21197139384E-01  0.85045525191E-01  0.51100000000E-03 0. -1.
</event>
<event>
 8    1  0.2039519E+004  0.1043930E+01  0.7957747E-01            NaN
         13   -1    0    0    0    0  0.00000000000E+00  0.00000000000E+00  0.74505805969E-08  0.10566000000E+00  0.10566000000E+00 0.  1.
     999900   -1    0    0    0    0 -0.00000000000E+00 -0.00000000000E+00 -0.74505805969E-08  0.93827000000E+00  0.93827000000E+00 0. -1.
     999902    2    1    2    0    0  0.20846140753E-02  0.51762571700E-02  0.12511258120E-01  0.10302306995E+01  0.10301396135E+01 0.  0.
     999903    2    3    3    0    0 -0.68340739048E-01 -0.10510022574E+00 -0.39771561922E-01  0.13902133785E+00  0.45040439323E-01 0.  0.
         14    1    1    2    0    0 -0.20846140753E-02 -0.51762571700E-02 -0.12511258120E-01  0.13699300489E-01  0.00000000000E+00 0. -1.
     999901    1    3    3    0    0  0.70425353123E-01  0.11027648291E+00  0.52282820042E-01  0.89120936166E+00  0.88000000000E+00 0.  1.
        -11    1    4    4    0    0 -0.59335938465E-01 -0.58797194522E-01 -0.38112812029E-01  0.91818904584E-01  0.51100000000E-03 0. -1.
         11    1    4    4    0    0 -0.90048005821E-02 -0.46303031221E-01 -0.16587498927E-02  0.47202433263E-01  0.51100000000E-03 0.  1.
</event>
<event>
 8    1  0.2039519E+004  0.1043930E+01  0.7957747E-01            NaN
         13   -1    0    0    0    0  0.00000000000E+00  0.00000000000E+00  0.74505805969E-08  0.10566000000E+00  0.10566000000E+00 0.  1.
     999900   -1    0    0    0    0 -0.00000000000E+00 -0.00000000000E+00 -0.74505805969E-08  0.93827000000E+00  0.93827000000E+00 0. -1.
     999902    2    1    2    0    0  0.13089286728E-01  0.54117309844E-02  0.66338592232E-02  0.10282895285E+01  0.10281705744E+01 0.  0.
     999903    2    3    3    0    0  0.11487926868E+00 -0.64246955446E-01 -0.10350334062E-01  0.13952522016E+00  0.45113634184E-01 0.  0.
         14    1    1    2    0    0 -0.13089286728E-01 -0.54117309844E-02 -0.66338592232E-02  0.15640471460E-01  0.00000000000E+00 0. -1.
     999901    1    3    3    0    0 -0.10178998196E+00  0.69658686431E-01  0.16984193286E-01  0.88876430838E+00  0.88000000000E+00 0. -1.
        -11    1    4    4    0    0  0.39921838318E-01 -0.30757722577E-01 -0.24788873206E-01  0.56165292028E-01  0.51100000000E-03 0. -1.
         11    1    4    4    0    0  0.74957430366E-01 -0.33489232869E-01  0.14438539144E-01  0.83359928136E-01  0.51100000000E-03 0.  1.
</event>
<event>
 8    1  0.2039519E+004  0.1043930E+01  0.7957747E-01            NaN
         13   -1    0    0    0    0  0.00000000000E+00  0.00000000000E+00  0.74505805969E-08  0.10566000000E+00  0.10566000000E+00 0. -1.
     999900   -1    0    0    0    0 -0.00000000000E+00 -0.00000000000E+00 -0.74505805969E-08  0.93827000000E+00  0.93827000000E+00 0.  1.
     999902    2    1    2    0    0 -0.14872770296E-01  0.17395806736E-01  0.44054365603E-02  0.10206228925E+01  0.10203567354E+01 0.  0.
     999903    2    3    3    0    0 -0.42735499769E-01 -0.11830227738E-02 -0.11549247728E+00  0.13186138662E+00  0.47129507650E-01 0.  0.
         14    1    1    2    0    0  0.14872770296E-01 -0.17395806736E-01 -0.44054365603E-02  0.23307107491E-01  0.00000000000E+00 0. -1.
     999901    1    3    3    0    0  0.27862729472E-01  0.18578829510E-01  0.11989791384E+00  0.88876150588E+00  0.88000000000E+00 0. -1.
        -11    1    4    4    0    0  0.11906857009E-02 -0.14746014814E-01 -0.13707421592E-01  0.20174667606E-01  0.51100000000E-03 0.  1.
         11    1    4    4    0    0 -0.43926185470E-01  0.13562992040E-01 -0.10178505569E+00  0.11168671902E+00  0.51100000000E-03 0. -1.
</event>
<event>
 8    1  0.2039519E+004  0.1043930E+01  0.7957747E-01            NaN
         13   -1    0    0    0    0  0.00000000000E+00  0.00000000000E+00  0.74505805969E-08  0.10566000000E+00  0.10566000000E+00 0. -1.
     999900   -1    0    0    0    0 -0.00000000000E+00 -0.00000000000E+00 -0.74505805969E-08  0.93827000000E+00  0.93827000000E+00 0.  1.
     999902    2    1    2    0    0  0.27898600302E-02 -0.77639965881E-02 -0.99443549248E-02  0.10310089646E+01  0.10309279955E+01 0.  0.
     999903    2    3    3    0    0  0.38738248591E-01  0.12501727693E+00 -0.16882796979E-01  0.14029504010E+00  0.47620352885E-01 0.  0.
         14    1    1    2    0    0 -0.27898600302E-02  0.77639965881E-02  0.99443549248E-02  0.12921035441E-01  0.00000000000E+00 0. -1.
     999901    1    3    3    0    0 -0.35948388560E-01 -0.13278127352E+00  0.69384420545E-02  0.89071392445E+00  0.88000000000E+00 0. -1.
        -11    1    4    4    0    0  0.20510145610E-01  0.32965653877E-01  0.14347049120E-01  0.41394436195E-01  0.51100000000E-03 0.  1.
         11    1    4    4    0    0  0.18228102980E-01  0.92051623055E-01 -0.31229846099E-01  0.98900603909E-01  0.51100000000E-03 0. -1.
</event>
<event>
 8    1  0.2039519E+004  0.1043930E+01  0.7957747E-01            NaN
         13   -1    0    0    0    0  0.00000000000E+00  0.00000000000E+00  0.74505805969E-08  0.10566000000E+00  0.10566000000E+00 0. -1.
     999900   -1    0    0    0    0 -0.00000000000E+00 -0.00000000000E+00 -0.74505805969E-08  0.93827000000E+00  0.93827000000E+00 0. -1.
     999902    2    1    2    0    0  0.97026429221E-02  0.10538441219E-01  0.41308085068E-02  0.10290214923E+01  0.10289134891E+01 0.  0.
     999903    2    3    3    0    0 -0.69685399083E-02 -0.11061716872E+00  0.70206426084E-01  0.13811038708E+00  0.43137201965E-01 0.  0.
         14    1    1    2    0    0 -0.97026429221E-02 -0.10538441219E-01 -0.41308085068E-02  0.14908507703E-01  0.00000000000E+00 0.  1.
     999901    1    3    3    0    0  0.16671182830E-01  0.12115560994E+00 -0.66075617577E-01  0.89091110521E+00  0.88000000000E+00 0.  1.
        -11    1    4    4    0    0 -0.87941752388E-02 -0.42739782605E-02 -0.14019220815E-02  0.98909511588E-02  0.51100000000E-03 0. -1.
         11    1    4    4    0    0  0.18256353305E-02 -0.10634319046E+00  0.71608348165E-01  0.12821943592E+00  0.51100000000E-03 0.  1.
</event>
<event>
 8    1  0.2039519E+004  0.1043930E+01  0.7957747E-01            NaN
         13   -1    0    0    0    0  0.00000000000E+00  0.00000000000E+00  0.74505805969E-08  0.10566000000E+00  0.10566000000E+00 0.  1.
     999900   -1    0    0    0    0 -0.00000000000E+00 -0.00000000000E+00 -0.74505805969E-08  0.93827000000E+00  0.93827000000E+00 0. -1.
     999902    2    1    2    0    0  0.55519609533E-02  0.16724147786E-01 -0.70784932588E-03  0.10262941717E+01  0.10261426336E+01 0.  0.
     999903    2    3    3    0    0  0.98392919314E-01  0.86513900712E-01  0.36322278070E-02  0.13865185102E+00  0.45225226658E-01 0.  0.
         14    1    1    2    0    0 -0.55519609533E-02 -0.16724147786E-01  0.70784932588E-03  0.17635828312E-01  0.00000000000E+00 0. -1.
     999901    1    3    3    0    0 -0.92840958361E-01 -0.69789752926E-01 -0.43400771329E-02  0.88764232066E+00  0.88000000000E+00 0.  1.
        -11    1    4    4    0    0  0.63944612948E-01  0.77051838680E-01 -0.95150801985E-02  0.10058179379E+00  0.51100000000E-03 0. -1.
         11    1    4    4    0    0  0.34448306366E-01  0.94620620319E-02  0.13147308006E-01  0.38070057239E-01  0.51100000000E-03 0.  1.
</event>
<event>
 8    1  0.2039519E+004  0.1043930E+01  0.7957747E-01            NaN
         13   -1    0    0    0    0  0.00000000000E+00  0.00000000000E+00  0.74505805969E-08  0.10566000000E+00  0.10566000000E+00 0. -1.
     999900   -1    0    0    0    0 -0.00000000000E+00 -0.00000000000E+00 -0.74505805969E-08  0.93827000000E+00  0.93827000000E+00 0.  1.
     999902    2    1    2    0    0 -0.11274176649E-01 -0.25248337768E-02 -0.86209467818E-02  0.10295146412E+01  0.10294137137E+01 0.  0.
     999903    2    3    3    0    0 -0.64921416368E-01  0.10510667782E+00 -0.48247256425E-01  0.14045175650E+00  0.46224388853E-01 0.  0.
         14    1    1    2    0    0  0.11274176649E-01  0.25248337768E-02  0.86209467818E-02  0.14415358758E-01  0.00000000000E+00 0. -1.
     999901    1    3    3    0    0  0.53647239720E-01 -0.10763151160E+00  0.39626309643E-01  0.88906288475E+00  0.88000000000E+00 0.  1.
        -11    1    4    4    0    0 -0.75522471867E-02  0.49595187713E-01 -0.71920684039E-02  0.50682403759E-01  0.51100000000E-03 0. -1.
         11    1    4    4    0    0 -0.57369169182E-01  0.55511490106E-01 -0.41055188021E-01  0.89769352737E-01  0.51100000000E-03 0.  1.
</event>
<event>
 8    1  0.2039519E+004  0.1043930E+01  0.7957747E-01            NaN
         13   -1    0    0    0    0  0.00000000000E+00  0.00000000000E+00  0.74505805969E-08  0.10566000000E+00  0.10566000000E+00 0. -1.
     999900   -1    0    0    0    0 -0.00000000000E+00 -0.00000000000E+00 -0.74505805969E-08  0.93827000000E+00  0.93827000000E+00 0.  1.
     999902    2    1    2    0    0  0.87635219104E-02 -0.12357527149E-02  0.10720449284E-01  0.10300284018E+01  0.10299345872E+01 0.  0.
     999903    2    3    3    0    0 -0.12696427386E-02 -0.12583440762E+00 -0.35270524666E-01  0.14000555997E+00  0.50215901658E-01 0.  0.
         14    1    1    2    0    0 -0.87635219104E-02  0.12357527149E-02 -0.10720449284E-01  0.13901598250E-01  0.00000000000E+00 0.  1.
     999901    1    3    3    0    0  0.10033164649E-01  0.12459865491E+00  0.45990973950E-01  0.89002284178E+00  0.88000000000E+00 0.  1.
        -11    1    4    4    0    0  0.23070592704E-01 -0.52261756649E-01 -0.71970153710E-02  0.57581260902E-01  0.51100000000E-03 0.  1.
         11    1    4    4    0    0 -0.24340235442E-01 -0.73572650973E-01 -0.28073509295E-01  0.82424299073E-01  0.51100000000E-03 0. -1.
</event>
<event>
 8    1  0.2039519E+004  0.1043930E+01  0.7957747E-01            NaN
         13   -1    0    0    0    0  0.00000000000E+00  0.00000000000E+00  0.74505805969E-08  0.10566000000E+00  0.10566000000E+00 0.  1.
     999900   -1    0    0    0    0 -0.00000000000E+00 -0.00000000000E+00 -0.74505805969E-08  0.93827000000E+00  0.93827000000E+00 0.  1.
     999902    2    1    2    0    0  0.12722079359E-01  0.30026400545E-02  0.36831533627E-02  0.10303493973E+01  0.10302598933E+01 0.  0.
     999903    2    3    3    0    0 -0.95248760321E-01 -0.72562149768E-01  0.53927489736E-01  0.13911865670E+00  0.45915515586E-01 0.  0.
         14    1    1    2    0    0 -0.12722079359E-01 -0.30026400545E-02 -0.36831533627E-02  0.13580602682E-01  0.00000000000E+00 0.  1.
     999901    1    3    3    0    0  0.10797083968E+00  0.75564789823E-01 -0.50244336373E-01  0.89123074062E+00  0.88000000000E+00 0.  1.
        -11    1    4    4    0    0 -0.82293464347E-01 -0.49173399968E-01  0.58032110809E-01  0.11206348444E+00  0.51100000000E-03 0. -1.
         11    1    4    4    0    0 -0.12955295973E-01 -0.23388749801E-01 -0.41046210729E-02  0.27055172262E-01  0.51100000000E-03 0.  1.
</event>
<event>
 8    1  0.2039519E+004  0.1043930E+01  0.7957747E-01            NaN
         13   -1    0    0    0    0  0.00000000000E+00  0.00000000000E+00  0.74505805969E-08  0.10566000000E+00  0.10566000000E+00 0. -1.
     999900   -1    0    0    0    0 -0.00000000000E+00 -0.00000000000E+00 -0.74505805969E-08  0.93827000000E+00  0.93827000000E+00 0.  1.
     999902    2    1    2    0    0  0.11988845965E-01  0.23641496067E-02  0.46969622885E-02  0.10308386637E+01  0.10307555324E+01 0.  0.
     999903    2    3    3    0    0 -0.11876979811E+00 -0.10603926575E-01  0.56794791282E-01  0.13955858552E+00  0.45080397895E-01 0.  0.
         14    1    1    2    0    0 -0.11988845965E-01 -0.23641496067E-02 -0.46969622885E-02  0.13091336283E-01  0.00000000000E+00 0.  1.
     999901    1    3    3    0    0  0.13075864408E+00  0.12968076181E-01 -0.52097828994E-01  0.89128007819E+00  0.88000000000E+00 0. -1.
        -11    1    4    4    0    0 -0.93316571647E-01 -0.13665962079E-01  0.62690147880E-01  0.11324776742E+00  0.51100000000E-03 0.  1.
         11    1    4    4    0    0 -0.25453226463E-01  0.30620355040E-02 -0.58953565975E-02  0.26310818103E-01  0.51100000000E-03 0. -1.
</event>
<event>
 8    1  0.2351845E+004  0.1043930E+01  0.7957747E-01            NaN
         13   -1    0    0    0    0  0.00000000000E+00  0.00000000000E+00  0.74505805969E-08  0.10566000000E+00  0.10566000000E+00 0.  1.
     999900   -1    0    0    0    0 -0.00000000000E+00 -0.00000000000E+00 -0.74505805969E-08  0.93827000000E+00  0.93827000000E+00 0. -1.
     999902    2    1    2    0    0 -0.13356216939E-02 -0.12174510830E-01 -0.60893655735E-02  0.10302521722E+01  0.10301613735E+01 0.  0.
     999903    2    3    3    0    0 -0.73964121326E-01 -0.93521049454E-01  0.60192082657E-01  0.14104725284E+00  0.45325078969E-01 0.  0.
         14    1    1    2    0    0  0.13356216939E-02  0.12174510830E-01  0.60893655735E-02  0.13677827764E-01  0.00000000000E+00 0. -1.
     999901    1    3    3    0    0  0.72628499632E-01  0.81346538625E-01 -0.66281448230E-01  0.88920491940E+00  0.88000000000E+00 0. -1.
        -11    1    4    4    0    0 -0.55567382056E-01 -0.33980258448E-01  0.27927976582E-01  0.70870479818E-01  0.51100000000E-03 0.  1.
         11    1    4    4    0    0 -0.18396739270E-01 -0.59540791006E-01  0.32264106075E-01  0.70176773018E-01  0.51100000000E-03 0. -1.
</event>
<event>
 8    1  0.2039519E+004  0.1043930E+01  0.7957747E-01            NaN
         13   -1    0    0    0    0  0.00000000000E+00  0.00000000000E+00  0.74505805969E-08  0.10566000000E+00  0.10566000000E+00 0.  1.
     999900   -1    0    0    0    0 -0.00000000000E+00 -0.00000000000E+00 -0.74505805969E-08  0.93827000000E+00  0.93827000000E+00 0. -1.
     999902    2    1    2    0    0 -0.65973331379E-02  0.11596084849E-01  0.60085059624E-03  0.10305750380E+01  0.10304885026E+01 0.  0.
     999903    2    3    3    0    0 -0.15353643302E-01 -0.10517597661E-01  0.13192284281E+00  0.14051259438E+00  0.44651970832E-01 0.  0.
         14    1    1    2    0    0  0.65973331379E-02 -0.11596084849E-01 -0.60085059624E-03  0.13354961992E-01  0.00000000000E+00 0. -1.
     999901    1    3    3    0    0  0.87563101640E-02  0.22113682510E-01 -0.13132199222E+00  0.89006244363E+00  0.88000000000E+00 0. -1.
        -11    1    4    4    0    0 -0.17801662529E-01  0.14308368092E-01  0.52299660987E-01  0.57071396045E-01  0.51100000000E-03 0.  1.
         11    1    4    4    0    0  0.24480192267E-02 -0.24825965753E-01  0.79623181828E-01  0.83441198332E-01  0.51100000000E-03 0. -1.
</event>
<event>
 8    1  0.2039519E+004  0.1043930E+01  0.7957747E-01            NaN
         13   -1    0    0    0    0  0.00000000000E+00  0.00000000000E+00  0.74505805969E-08  0.10566000000E+00  0.10566000000E+00 0. -1.
     999900   -1    0    0    0    0 -0.00000000000E+00 -0.00000000000E+00 -0.74505805969E-08  0.93827000000E+00  0.93827000000E+00 0.  1.
     999902    2    1    2    0    0 -0.10891997170E-01 -0.70556237718E-03 -0.11227120994E-01  0.10282717221E+01  0.10281524949E+01 0.  0.
     999903    2    3    3    0    0 -0.83485542757E-01 -0.97181892566E-01 -0.32894672663E-01  0.13976342843E+00  0.45139786713E-01 0.  0.
         14    1    1    2    0    0  0.10891997170E-01  0.70556237718E-03  0.11227120994E-01  0.15658277889E-01  0.00000000000E+00 0. -1.
     999901    1    3    3    0    0  0.72593545587E-01  0.96476330189E-01  0.21667551668E-01  0.88850829368E+00  0.88000000000E+00 0.  1.
        -11    1    4    4    0    0 -0.46270016587E-01 -0.49958081134E-01  0.56700428726E-02  0.68331067698E-01  0.51100000000E-03 0. -1.
         11    1    4    4    0    0 -0.37215526169E-01 -0.47223811432E-01 -0.38564715535E-01  0.71432360731E-01  0.51100000000E-03 0.  1.
</event>
<event>
 8    1  0.2039519E+004  0.1043930E+01  0.7957747E-01            NaN
         13   -1    0    0    0    0  0.00000000000E+00  0.00000000000E+00  0.74505805969E-08  0.10566000000E+00  0.10566000000E+00 0. -1.
     999900   -1    0    0    0    0 -0.00000000000E+00 -0.00000000000E+00 -0.74505805969E-08  0.93827000000E+00  0.93827000000E+00 0. -1.
     999902    2    1    2    0    0 -0.12232951381E-01 -0.10533909792E-02 -0.11848074593E-02  0.10315947456E+01  0.10315209938E+01 0.  0.
     999903    2    3    3    0    0  0.15082972367E-01  0.32042047038E-01  0.12860756063E+00  0.14104012824E+00  0.45806378253E-01 0.  0.
         14    1    1    2    0    0  0.12232951381E-01  0.10533909792E-02  0.11848074593E-02  0.12335254385E-01  0.00000000000E+00 0. -1.
     999901    1    3    3    0    0 -0.27315923748E-01 -0.33095438017E-01 -0.12979236809E+00  0.89055461737E+00  0.88000000000E+00 0. -1.
        -11    1    4    4    0    0 -0.71770842832E-02  0.12255981213E-01  0.70089059605E-02  0.15846308657E-01  0.51100000000E-03 0. -1.
         11    1    4    4    0    0  0.22260056651E-01  0.19786065825E-01  0.12159865467E+00  0.12519381959E+00  0.51100000000E-03 0.  1.
</event>
<event>
 8    1  0.2039519E+004  0.1043930E+01  0.7957747E-01            NaN
         13   -1    0    0    0    0  0.00000000000E+00  0.00000000000E+00  0.74505805969E-08  0.10566000000E+00  0.10566000000E+00 0. -1.
     999900   -1    0    0    0    0 -0.00000000000E+00 -0.00000000000E+00 -0.74505805969E-08  0.93827000000E+00  0.93827000000E+00 0. -1.
     999902    2    1    2    0    0 -0.97827889743E-02  0.50520013681E-02 -0.78663244558E-02  0.10303983801E+01  0.10303095248E+01 0.  0.
     999903    2    3    3    0    0 -0.14743827021E-01  0.13056616545E+00 -0.14258253494E-01  0.14145559560E+00  0.50413130603E-01 0.  0.
         14    1    1    2    0    0  0.97827889743E-02 -0.50520013681E-02  0.78663244558E-02  0.13531619947E-01  0.00000000000E+00 0.  1.
     999901    1    3    3    0    0  0.49610380464E-02 -0.12551416408E+00  0.63919290381E-02  0.88894278446E+00  0.88000000000E+00 0.  1.
        -11    1    4    4    0    0  0.32425927323E-02  0.80609745568E-01  0.13084746273E-01  0.81730760391E-01  0.51100000000E-03 0.  1.
         11    1    4    4    0    0 -0.17986419753E-01  0.49956419881E-01 -0.27342999767E-01  0.59724835204E-01  0.51100000000E-03 0. -1.
</event>
<event>
 8    1  0.2039519E+004  0.1043930E+01  0.7957747E-01            NaN
         13   -1    0    0    0    0  0.00000000000E+00  0.00000000000E+00  0.74505805969E-08  0.10566000000E+00  0.10566000000E+00 0.  1.
     999900   -1    0    0    0    0 -0.00000000000E+00 -0.00000000000E+00 -0.74505805969E-08  0.93827000000E+00  0.93827000000E+00 0. -1.
     999902    2    1    2    0    0 -0.12148018058E-01 -0.52533682243E-02  0.27412207285E-02  0.10304138426E+01  0.10303251916E+01 0.  0.
     999903    2    3    3    0    0 -0.69164313808E-01  0.10932127717E+00  0.28668309618E-01  0.14077884929E+00  0.47560156476E-01 0.  0.
         14    1    1    2    0    0  0.12148018058E-01  0.52533682243E-02 -0.27412207285E-02  0.13516157424E-01  0.00000000000E+00 0.  1.
     999901    1    3    3    0    0  0.57016295750E-01 -0.11457464539E+00 -0.25927088890E-01  0.88963499329E+00  0.88000000000E+00 0. -1.
        -11    1    4    4    0    0 -0.12642469049E-01  0.33239182485E-01  0.29167305197E-01  0.45996392134E-01  0.51100000000E-03 0.  1.
         11    1    4    4    0    0 -0.56521844758E-01  0.76082094683E-01 -0.49899557862E-03  0.94782457152E-01  0.51100000000E-03 0. -1.
</event>
<event>
 8    1  0.2039519E+004  0.1043930E+01  0.7957747E-01            NaN
         13   -1    0    0    0    0  0.00000000000E+00  0.00000000000E+00  0.74505805969E-08  0.10566000000E+00  0.10566000000E+00 0. -1.
     999900   -1    0    0    0    0 -0.00000000000E+00 -0.00000000000E+00 -0.74505805969E-08  0.93827000000E+00  0.93827000000E+00 0. -1.
     999902    2    1    2    0    0  0.57366472314E-02 -0.60577898953E-02  0.11065951416E-01  0.10300713846E+01  0.10299781532E+01 0.  0.
     999903    2    3    3    0    0 -0.13609503541E-01  0.34204321457E-01 -0.12590952157E+00  0.13835529113E+00  0.43975274524E-01 0.  0.
         14    1    1    2    0    0 -0.57366472314E-02  0.60577898953E-02 -0.11065951416E-01  0.13858615393E-01  0.00000000000E+00 0.  1.
     999901    1    3    3    0    0  0.19346150772E-01 -0.40262111353E-01  0.13697547299E+00  0.89171609347E+00  0.88000000000E+00 0.  1.
        -11    1    4    4    0    0 -0.94268901437E-02 -0.94233781820E-02 -0.24949997569E-01  0.28291868334E-01  0.51100000000E-03 0. -1.
         11    1    4    4    0    0 -0.41826133972E-02  0.43627699639E-01 -0.10095952400E+00  0.11006342280E+00  0.51100000000E-03 0.  1.
</event>
<event>
 8    1  0.2039519E+004  0.1043930E+01  0.7957747E-01            NaN
         13   -1    0    0    0    0  0.00000000000E+00  0.00000000000E+00  0.74505805969E-08  0.10566000000E+00  0.10566000000E+00 0. -1.
     999900   -1    0    0    0    0 -0.00000000000E+00 -0.00000000000E+00 -0.74505805969E-08  0.93827000000E+00  0.93827000000E+00 0. -1.
     999902    2    1    2    0    0  0.84364944928E-02 -0.25851580511E-03  0.11038705010E-01  0.10300341633E+01  0.10299404270E+01 0.  0.
     999903    2    3    3    0    0  0.34548585617E-01 -0.95458714122E-01  0.87331167478E-01  0.14123415266E+00  0.44881869316E-01 0.  0.
         14    1    1    2    0    0 -0.84364944928E-02  0.25851580511E-03 -0.11038705010E-01  0.13895836717E-01  0.00000000000E+00 0.  1.
     999901    1    3    3    0    0 -0.26112091124E-01  0.95200198317E-01 -0.76292462468E-01  0.88880001063E+00  0.88000000000E+00 0. -1.
        -11    1    4    4    0    0  0.29083718308E-01 -0.51884177426E-01  0.74790396457E-01  0.95559902998E-01  0.51100000000E-03 0. -1.
         11    1    4    4    0    0  0.54648673097E-02 -0.43574536696E-01  0.12540771021E-01  0.45674249658E-01  0.51100000000E-03 0.  1.
</event>
<event>
 8    1  0.2039519E+004  0.1043930E+01  0.7957747E-01            NaN
         13   -1    0    0    0    0  0.00000000000E+00  0.00000000000E+00  0.74505805969E-08  0.10566000000E+00  0.10566000000E+00 0.  1.
     999900   -1    0    0    0    0 -0.00000000000E+00 -0.00000000000E+00 -0.74505805969E-08  0.93827000000E+00  0.93827000000E+00 0. -1.
     999902    2    1    2    0    0 -0.34179384422E-02  0.13992882997E-01  0.20142903906E-02  0.10293855700E+01  0.10292828141E+01 0.  0.
     999903    2    3    3    0    0 -0.79982947647E-01  0.10714128848E+00  0.82121761678E-02  0.14114166215E+00  0.44463483260E-01 0.  0.
         14    1    1    2    0    0  0.34179384422E-02 -0.13992882997E-01 -0.20142903906E-02  0.14544429984E-01  0.00000000000E+00 0. -1.
     999901    1    3    3    0    0  0.76565009205E-01 -0.93148405488E-01 -0.61978857772E-02  0.88824390787E+00  0.88000000000E+00 0.  1.
        -11    1    4    4    0    0 -0.44349290134E-01  0.81566647750E-01  0.21513093960E-01  0.95305046526E-01  0.51100000000E-03 0.  1.
         11    1    4    4    0    0 -0.35633657513E-01  0.25574640735E-01 -0.13300917792E-01  0.45836615621E-01  0.51100000000E-03 0. -1.
</event>
<event>
 8    1  0.2039519E+004  0.1043930E+01  0.7957747E-01            NaN
         13   -1    0    0    0    0  0.00000000000E+00  0.00000000000E+00  0.74505805969E-08  0.10566000000E+00  0.10566000000E+00 0. -1.
     999900   -1    0    0    0    0 -0.00000000000E+00 -0.00000000000E+00 -0.74505805969E-08  0.93827000000E+00  0.93827000000E+00 0.  1.
     999902    2    1    2    0    0  0.60587320422E-02 -0.10415489538E-02 -0.12607340060E-01  0.10299036647E+01  0.10298081474E+01 0.  0.
     999903    2    3    3    0    0  0.38278713761E-01 -0.65991163844E-01 -0.11055466238E+00  0.14150608612E+00  0.44514552712E-01 0.  0.
         14    1    1    2    0    0 -0.60587320422E-02  0.10415489538E-02  0.12607340060E-01  0.14026335287E-01  0.00000000000E+00 0. -1.
     999901    1    3    3    0    0 -0.32219981719E-01  0.64949614890E-01  0.97947322319E-01  0.88839757859E+00  0.88000000000E+00 0. -1.
        -11    1    4    4    0    0  0.35226794555E-01 -0.67485790929E-01 -0.78804105840E-01  0.10957010199E+00  0.51100000000E-03 0. -1.
         11    1    4    4    0    0  0.30519192068E-02  0.14946270843E-02 -0.31750556539E-01  0.31935984132E-01  0.51100000000E-03 0.  1.
</event>
<event>
 8    1  0.2039519E+004  0.1043930E+01  0.7957747E-01            NaN
         13   -1    0    0    0    0  0.00000000000E+00  0.00000000000E+00  0.74505805969E-08  0.10566000000E+00  0.10566000000E+00 0.  1.
     999900   -1    0    0    0    0 -0.00000000000E+00 -0.00000000000E+00 -0.74505805969E-08  0.93827000000E+00  0.93827000000E+00 0. -1.
     999902    2    1    2    0    0  0.65758880570E-02 -0.96222857182E-02  0.86943016965E-02  0.10293896572E+01  0.10292869594E+01 0.  0.
     999903    2    3    3    0    0 -0.70734422156E-01  0.98199655846E-01 -0.47113561253E-01  0.13769633958E+00  0.45760937437E-01 0.  0.
         14    1    1    2    0    0 -0.65758880570E-02  0.96222857182E-02 -0.86943016965E-02  0.14540342780E-01  0.00000000000E+00 0. -1.
     999901    1    3    3    0    0  0.77310310213E-01 -0.10782194156E+00  0.55807862949E-01  0.89169331763E+00  0.88000000000E+00 0.  1.
        -11    1    4    4    0    0 -0.15002373611E-01  0.45372702511E-01 -0.36264797866E-03  0.47792739842E-01  0.51100000000E-03 0.  1.
         11    1    4    4    0    0 -0.55732048545E-01  0.52826953335E-01 -0.46750913274E-01  0.89903599742E-01  0.51100000000E-03 0. -1.
</event>
<event>
 8    1  0.2039519E+004  0.1043930E+01  0.7957747E-01            NaN
         13   -1    0    0    0    0  0.00000000000E+00  0.00000000000E+00  0.74505805969E-08  0.10566000000E+00  0.10566000000E+00 0.  1.
     999900   -1    0    0    0    0 -0.00000000000E+00 -0.00000000000E+00 -0.74505805969E-08  0.93827000000E+00  0.93827000000E+00 0.  1.
     999902    2    1    2    0    0 -0.13630301606E-01 -0.25167584746E-02  0.11365827480E-02  0.10300227711E+01  0.10299288801E+01 0.  0.
     999903    2    3    3    0    0  0.46008999099E-02 -0.10952965552E+00 -0.74372693092E-01  0.14014312330E+00  0.45726183001E-01 0.  0.
         14    1    1    2    0    0  0.13630301606E-01  0.25167584746E-02 -0.11365827480E-02  0.13907228891E-01  0.00000000000E+00 0. -1.
     999901    1    3    3    0    0 -0.18231201516E-01  0.10701289705E+00  0.75509275840E-01  0.88987964781E+00  0.88000000000E+00 0.  1.
        -11    1    4    4    0    0 -0.10252991885E-01 -0.51208791284E-01 -0.57413025893E-01  0.77614308027E-01  0.51100000000E-03 0.  1.
         11    1    4    4    0    0  0.14853891795E-01 -0.58320864240E-01 -0.16959667199E-01  0.62528815275E-01  0.51100000000E-03 0. -1.
</event>
<event>
 8    1  0.2039519E+004  0.1043930E+01  0.7957747E-01            NaN
         13   -1    0    0    0    0  0.00000000000E+00  0.00000000000E+00  0.74505805969E-08  0.10566000000E+00  0.10566000000E+00 0.  1.
     999900   -1    0    0    0    0 -0.00000000000E+00 -0.00000000000E+00 -0.74505805969E-08  0.93827000000E+00  0.93827000000E+00 0. -1.
     999902    2    1    2    0    0  0.11550497837E-01  0.56776663467E-02  0.20552281854E-02  0.10308964334E+01  0.10308140388E+01 0.  0.
     999903    2    3    3    0    0  0.12112378813E-01  0.13046695420E+00  0.30264107901E-01  0.14164482504E+00  0.44486002013E-01 0.  0.
         14    1    1    2    0    0 -0.11550497837E-01 -0.56776663467E-02 -0.20552281854E-02  0.13033566600E-01  0.00000000000E+00 0.  1.
     999901    1    3    3    0    0 -0.56188097619E-03 -0.12478928785E+00 -0.28208879715E-01  0.88925160836E+00  0.88000000000E+00 0.  1.
        -11    1    4    4    0    0 -0.11288952479E-01  0.80515058363E-01  0.29453588874E-01  0.86474794535E-01  0.51100000000E-03 0.  1.
         11    1    4    4    0    0  0.23401331292E-01  0.49951895838E-01  0.81051902631E-03  0.55170030507E-01  0.51100000000E-03 0. -1.
</event>
<event>
 8    1  0.2039519E+004  0.1043930E+01  0.7957747E-01            NaN
         13   -1    0    0    0    0  0.00000000000E+00  0.00000000000E+00  0.74505805969E-08  0.10566000000E+00  0.10566000000E+00 0.  1.
     999900   -1    0    0    0    0 -0.00000000000E+00 -0.00000000000E+00 -0.74505805969E-08  0.93827000000E+00  0.93827000000E+00 0. -1.
     999902    2    1    2    0    0  0.12068577690E-01 -0.82611586123E-03 -0.75499042289E-02  0.10296704738E+01  0.10295717316E+01 0.  0.
     999903    2    3    3    0    0 -0.12611753668E+00 -0.12287025084E-01 -0.39598759224E-01  0.13823686223E+00  0.38532639486E-01 0.  0.
         14    1    1    2    0    0 -0.12068577690E-01  0.82611586123E-03  0.75499042289E-02  0.14259526245E-01  0.00000000000E+00 0.  1.
     999901    1    3    3    0    0  0.13818611436E+00  0.11460909223E-01  0.32048854995E-01  0.89143361152E+00  0.88000000000E+00 0. -1.
        -11    1    4    4    0    0 -0.20373023629E-01 -0.60215048301E-02 -0.22474829792E-01  0.30930530344E-01  0.51100000000E-03 0. -1.
         11    1    4    4    0    0 -0.10574451305E+00 -0.62655202538E-02 -0.17123929432E-01  0.10730633189E+00  0.51100000000E-03 0.  1.
</event>
<event>
 8    1  0.2039519E+004  0.1043930E+01  0.7957747E-01            NaN
         13   -1    0    0    0    0  0.00000000000E+00  0.00000000000E+00  0.74505805969E-08  0.10566000000E+00  0.10566000000E+00 0. -1.
     999900   -1    0    0    0    0 -0.00000000000E+00 -0.00000000000E+00 -0.74505805969E-08  0.93827000000E+00  0.93827000000E+00 0. -1.
     999902    2    1    2    0    0 -0.77585659820E-02 -0.11156111535E-01 -0.76934359802E-02  0.10283145228E+01  0.10281959515E+01 0.  0.
     999903    2    3    3    0    0 -0.10990457212E+00  0.26741836994E-01  0.68704847449E-01  0.13831072575E+00  0.40191541106E-01 0.  0.
         14    1    1    2    0    0  0.77585659820E-02  0.11156111535E-01  0.76934359802E-02  0.15615477190E-01  0.00000000000E+00 0. -1.
     999901    1    3    3    0    0  0.10214600613E+00 -0.37897948529E-01 -0.76398283429E-01  0.89000379706E+00  0.88000000000E+00 0. -1.
        -11    1    4    4    0    0 -0.79077729229E-01  0.24525332274E-02  0.34751332202E-01  0.86413068399E-01  0.51100000000E-03 0. -1.
         11    1    4    4    0    0 -0.30826842887E-01  0.24289303766E-01  0.33953515248E-01  0.51897657351E-01  0.51100000000E-03 0.  1.
</event>
<event>
 8    1  0.2039519E+004  0.1043930E+01  0.7957747E-01            NaN
         13   -1    0    0    0    0  0.00000000000E+00  0.00000000000E+00  0.74505805969E-08  0.10566000000E+00  0.10566000000E+00 0.  1.
     999900   -1    0    0    0    0 -0.00000000000E+00 -0.00000000000E+00 -0.74505805969E-08  0.93827000000E+00  0.93827000000E+00 0.  1.
     999902    2    1    2    0    0 -0.13971124991E-03  0.13289661110E-01 -0.10198249971E-02  0.10306005343E+01  0.10305143312E+01 0.  0.
     999903    2    3    3    0    0  0.27360247356E-01 -0.11732615824E+00  0.46942651803E-01  0.13924362537E+00  0.51683305885E-01 0.  0.
         14    1    1    2    0    0  0.13971124991E-03 -0.13289661110E-01  0.10198249971E-02  0.13329465656E-01  0.00000000000E+00 0.  1.
     999901    1    3    3    0    0 -0.27499958606E-01  0.13061581935E+00 -0.47962476800E-01  0.89135690897E+00  0.88000000000E+00 0.  1.
        -11    1    4    4    0    0 -0.30339541332E-02 -0.56237948448E-01 -0.17533959721E-03  0.56322318740E-01  0.51100000000E-03 0.  1.
         11    1    4    4    0    0  0.30394201489E-01 -0.61088209789E-01  0.47117991400E-01  0.82921306634E-01  0.51100000000E-03 0. -1.
</event>
<event>
 8    1  0.2039519E+004  0.1043930E+01  0.7957747E-01            NaN
         13   -1    0    0    0    0  0.00000000000E+00  0.00000000000E+00  0.74505805969E-08  0.10566000000E+00  0.10566000000E+00 0. -1.
     999900   -1    0    0    0    0 -0.00000000000E+00 -0.00000000000E+00 -0.74505805969E-08  0.93827000000E+00  0.93827000000E+00 0. -1.
     999902    2    1    2    0    0 -0.34245788908E-02  0.79749834026E-02  0.53007732199E-02  0.10337601279E+01  0.10337101024E+01 0.  0.
     999903    2    3    3    0    0  0.32728798327E-01  0.12321288072E+00 -0.49114640333E-01  0.14384559447E+00  0.45019095246E-01 0.  0.
         14    1    1    2    0    0  0.34245788908E-02 -0.79749834026E-02 -0.53007732199E-02  0.10169872053E-01  0.00000000000E+00 0.  1.
     999901    1    3    3    0    0 -0.36153377218E-01 -0.11523789732E+00  0.54415413553E-01  0.88991453348E+00  0.88000000000E+00 0.  1.
        -11    1    4    4    0    0 -0.96415681524E-02  0.30406925663E-01 -0.35123621218E-02  0.32095775008E-01  0.51100000000E-03 0.  1.
         11    1    4    4    0    0  0.42370366479E-01  0.92805955061E-01 -0.45602278211E-01  0.11174981946E+00  0.51100000000E-03 0. -1.
</event>
<event>
 8    1  0.2039519E+004  0.1043930E+01  0.7957747E-01            NaN
         13   -1    0    0    0    0  0.00000000000E+00  0.00000000000E+00  0.74505805969E-08  0.10566000000E+00  0.10566000000E+00 0.  1.
     999900   -1    0    0    0    0 -0.00000000000E+00 -0.00000000000E+00 -0.74505805969E-08  0.93827000000E+00  0.93827000000E+00 0. -1.
     999902    2    1    2    0    0 -0.18559474818E-02  0.12678753324E-01 -0.49398612720E-02  0.10301969175E+01  0.10301053787E+01 0.  0.
     999903    2    3    3    0    0  0.48771046685E-01 -0.11953930341E+00 -0.15973284101E-01  0.13881235202E+00  0.48429982596E-01 0.  0.
         14    1    1    2    0    0  0.18559474818E-02 -0.12678753324E-01  0.49398612720E-02  0.13733082549E-01  0.00000000000E+00 0. -1.
     999901    1    3    3    0    0 -0.50626994167E-01  0.13221805674E+00  0.11033422829E-01  0.89138456543E+00  0.88000000000E+00 0. -1.
        -11    1    4    4    0    0 -0.83899204349E-02 -0.27392875522E-01 -0.94801717781E-02  0.30181039946E-01  0.51100000000E-03 0. -1.
         11    1    4    4    0    0  0.57160967120E-01 -0.92146427889E-01 -0.64931123231E-02  0.10863131208E+00  0.51100000000E-03 0.  1.
</event>
<event>
 8    1  0.2039519E+004  0.1043930E+01  0.7957747E-01            NaN
         13   -1    0    0    0    0  0.00000000000E+00  0.00000000000E+00  0.74505805969E-08  0.10566000000E+00  0.10566000000E+00 0. -1.
     999900   -1    0    0    0    0 -0.00000000000E+00 -0.00000000000E+00 -0.74505805969E-08  0.93827000000E+00  0.93827000000E+00 0.  1.
     999902    2    1    2    0    0  0.17329736863E-02 -0.62545687799E-02 -0.13533776194E-01  0.10289204721E+01  0.10288109895E+01 0.  0.
     999903    2    3    3    0    0 -0.25856482342E-01 -0.10573032347E+00 -0.76700719101E-01  0.14063748428E+00  0.45259724859E-01 0.  0.
         14    1    1    2    0    0 -0.17329736863E-02  0.62545687799E-02  0.13533776194E-01  0.15009527857E-01  0.00000000000E+00 0. -1.
     999901    1    3    3    0    0  0.27589456028E-01  0.99475754686E-01  0.63166942908E-01  0.88828298787E+00  0.88000000000E+00 0. -1.
        -11    1    4    4    0    0 -0.24665827850E-01 -0.92153165164E-01 -0.82204187542E-01  0.12593013334E+00  0.51100000000E-03 0. -1.
         11    1    4    4    0    0 -0.11906544917E-02 -0.13577158301E-01  0.55034684408E-02  0.14707350936E-01  0.51100000000E-03 0.  1.
</event>
<event>
 7    1  0.2039519E+004  0.1043930E+01  0.7957747E-01            NaN
         13   -1    0    0    0    0  0.00000000000E+00  0.00000000000E+00  0.74505805969E-08  0.10566000000E+00  0.10566000000E+00 0. -1.
     999900   -1    0    0    0    0 -0.00000000000E+00 -0.00000000000E+00 -0.74505805969E-08  0.93827000000E+00  0.93827000000E+00 0.  1.
     999903    2    1    2    0    0  0.17436554801E-01 -0.10948018243E+00 -0.92288143905E-02  0.11980049275E+00  0.44463954613E-01 0.  0.
         14    1    1    2    0    0  0.50267217037E-02 -0.64309549276E-02 -0.34221876526E-01  0.35181841131E-01  0.00000000000E+00 0.  1.
     999901    1    1    2    0    0 -0.22463276505E-01  0.11591113736E+00  0.43450690917E-01  0.88894766612E+00  0.88000000000E+00 0.  1.
        -11    1    3    3    0    0  0.37728522964E-02 -0.15796712841E-01 -0.18557459316E-01  0.24665988086E-01  0.51100000000E-03 0.  1.
         11    1    3    3    0    0  0.13663702505E-01 -0.93683469591E-01  0.93286449252E-02  0.95134504665E-01  0.51100000000E-03 0. -1.
</event>
<event>
 8    1  0.2039519E+004  0.1043930E+01  0.7957747E-01            NaN
         13   -1    0    0    0    0  0.00000000000E+00  0.00000000000E+00  0.74505805969E-08  0.10566000000E+00  0.10566000000E+00 0. -1.
     999900   -1    0    0    0    0 -0.00000000000E+00 -0.00000000000E+00 -0.74505805969E-08  0.93827000000E+00  0.93827000000E+00 0. -1.
     999902    2    1    2    0    0 -0.78318680880E-02  0.77461797823E-02 -0.93093427917E-02  0.10295076104E+01  0.10294065837E+01 0.  0.
     999903    2    3    3    0    0  0.53828825316E-01  0.11124937386E+00  0.46638035126E-01  0.13953847531E+00  0.44965699718E-01 0.  0.
         14    1    1    2    0    0  0.78318680880E-02 -0.77461797823E-02  0.93093427917E-02  0.14422389614E-01  0.00000000000E+00 0. -1.
     999901    1    3    3    0    0 -0.61660693404E-01 -0.10350319408E+00 -0.55947377918E-01  0.88996913508E+00  0.88000000000E+00 0. -1.
        -11    1    4    4    0    0  0.47950578576E-01  0.96183652160E-01  0.21439034422E-01  0.10959218150E+00  0.51100000000E-03 0. -1.
         11    1    4    4    0    0  0.58782467398E-02  0.15065721702E-01  0.25199000705E-01  0.29946293805E-01  0.51100000000E-03 0.  1.
</event>
<event>
 8    1  0.2039519E+004  0.1043930E+01  0.7957747E-01            NaN
         13   -1    0    0    0    0  0.00000000000E+00  0.00000000000E+00  0.74505805969E-08  0.10566000000E+00  0.10566000000E+00 0. -1.
     999900   -1    0    0    0    0 -0.00000000000E+00 -0.00000000000E+00 -0.74505805969E-08  0.93827000000E+00  0.93827000000E+00 0. -1.
     999902    2    1    2    0    0  0.15643258487E-01  0.25200983252E-02  0.78587203263E-02  0.10262432276E+01  0.10260908051E+01 0.  0.
     999903    2    3    3    0    0 -0.20359260664E-01 -0.60254987549E-01 -0.11118662894E+00  0.13528380769E+00  0.43521019632E-01 0.  0.
         14    1    1    2    0    0 -0.15643258487E-01 -0.25200983252E-02 -0.78587203263E-02  0.17686772369E-01  0.00000000000E+00 0. -1.
     999901    1    3    3    0    0  0.36002519152E-01  0.62775085874E-01  0.11904534927E+00  0.89095941994E+00  0.88000000000E+00 0.  1.
        -11    1    4    4    0    0 -0.34269018879E-02 -0.28567738324E-01 -0.87840584416E-01  0.92434239982E-01  0.51100000000E-03 0.  1.
         11    1    4    4    0    0 -0.16932358776E-01 -0.31687249225E-01 -0.23346044524E-01  0.42849567712E-01  0.51100000000E-03 0. -1.
</event>
<event>
 8    1  0.2039519E+004  0.1043930E+01  0.7957747E-01            NaN
         13   -1    0    0    0    0  0.00000000000E+00  0.00000000000E+00  0.74505805969E-08  0.10566000000E+00  0.10566000000E+00 0.  1.
     999900   -1    0    0    0    0 -0.00000000000E+00 -0.00000000000E+00 -0.74505805969E-08  0.93827000000E+00  0.93827000000E+00 0. -1.
     999902    2    1    2    0    0 -0.12468382359E-04 -0.60516819309E-02 -0.12228065598E-01  0.10302863715E+01  0.10301960293E+01 0.  0.
     999903    2    3    3    0    0 -0.29332753733E-01 -0.11054760169E+00 -0.70895261181E-01  0.14168020667E+00  0.44339150012E-01 0.  0.
         14    1    1    2    0    0  0.12468382359E-04  0.60516819309E-02  0.12228065598E-01  0.13643628474E-01  0.00000000000E+00 0.  1.
     999901    1    3    3    0    0  0.29320285350E-01  0.10449591976E+00  0.58667195583E-01  0.88860616485E+00  0.88000000000E+00 0.  1.
        -11    1    4    4    0    0 -0.31745154285E-01 -0.42440133832E-01 -0.20116568209E-01  0.56690891841E-01  0.51100000000E-03 0. -1.
         11    1    4    4    0    0  0.24124005526E-02 -0.68107467858E-01 -0.50778692972E-01  0.84989314831E-01  0.51100000000E-03 0.  1.
</event>
<event>
 8    1  0.2039519E+004  0.1043930E+01  0.7957747E-01            NaN
         13   -1    0    0    0    0  0.00000000000E+00  0.00000000000E+00  0.74505805969E-08  0.10566000000E+00  0.10566000000E+00 0.  1.
     999900   -1    0    0    0    0 -0.00000000000E+00 -0.00000000000E+00 -0.74505805969E-08  0.93827000000E+00  0.93827000000E+00 0.  1.
     999902    2    1    2    0    0 -0.57229557410E-02  0.11627340357E-01 -0.54197590087E-02  0.10298828987E+01  0.10297870965E+01 0.  0.
     999903    2    3    3    0    0  0.11894414994E+00  0.61414091556E-01 -0.31888606931E-02  0.13970000475E+00  0.39831156754E-01 0.  0.
         14    1    1    2    0    0  0.57229557410E-02 -0.11627340357E-01  0.54197590087E-02  0.14047101264E-01  0.00000000000E+00 0. -1.
     999901    1    3    3    0    0 -0.12466710568E+00 -0.49786751198E-01 -0.22308983157E-02  0.89018289398E+00  0.88000000000E+00 0.  1.
        -11    1    4    4    0    0  0.91282664088E-01  0.50651809791E-01 -0.18931866375E-01  0.10609810217E+00  0.51100000000E-03 0.  1.
         11    1    4    4    0    0  0.27661485854E-01  0.10762281765E-01  0.15743005682E-01  0.33601902585E-01  0.51100000000E-03 0. -1.
</event>
<event>
 8    1  0.2039519E+004  0.1043930E+01  0.7957747E-01            NaN
         13   -1    0    0    0    0  0.00000000000E+00  0.00000000000E+00  0.74505805969E-08  0.10566000000E+00  0.10566000000E+00 0.  1.
     999900   -1    0    0    0    0 -0.00000000000E+00 -0.00000000000E+00 -0.74505805969E-08  0.93827000000E+00  0.93827000000E+00 0. -1.
     999902    2    1    2    0    0  0.51645849802E-02 -0.37302140115E-02 -0.14655620258E-01  0.10279495545E+01  0.10278253314E+01 0.  0.
     999903    2    3    3    0    0 -0.45339238097E-01  0.11321298897E+00 -0.47404015577E-01  0.13817497274E+00  0.44411203740E-01 0.  0.
         14    1    1    2    0    0 -0.51645849802E-02  0.37302140115E-02  0.14655620258E-01  0.15980445543E-01  0.00000000000E+00 0.  1.
     999901    1    3    3    0    0  0.50503823077E-01 -0.11694320298E+00  0.32748395319E-01  0.88977458171E+00  0.88000000000E+00 0. -1.
        -11    1    4    4    0    0  0.82198813286E-02  0.26766537387E-01 -0.12363327277E-01  0.30612529382E-01  0.51100000000E-03 0.  1.
         11    1    4    4    0    0 -0.53559119425E-01  0.86446451580E-01 -0.35040688300E-01  0.10756244336E+00  0.51100000000E-03 0. -1.
</event>
<event>
 8    1  0.2039519E+004  0.1043930E+01  0.7957747E-01            NaN
         13   -1    0    0    0    0  0.00000000000E+00  0.00000000000E+00  0.74505805969E-08  0.10566000000E+00  0.10566000000E+00 0. -1.
     999900   -1    0    0    0    0 -0.00000000000E+00 -0.00000000000E+00 -0.74505805969E-08  0.93827000000E+00  0.93827000000E+00 0.  1.
     999902    2    1    2    0    0  0.12343171407E-01 -0.61879385217E-02 -0.11761341297E-02  0.10300725921E+01  0.10299793770E+01 0.  0.
     999903    2    3    3    0    0 -0.12701712084E+00 -0.22872224155E-01  0.23255440401E-01  0.13861504496E+00  0.44909103264E-01 0.  0.
         14    1    1    2    0    0 -0.12343171407E-01  0.61879385217E-02  0.11761341297E-02  0.13857407947E-01  0.00000000000E+00 0. -1.
     999901    1    3    3    0    0  0.13936029225E+00  0.16684285633E-01 -0.24431574530E-01  0.89145754710E+00  0.88000000000E+00 0. -1.
        -11    1    4    4    0    0 -0.91912290363E-01  0.37526656169E-02  0.96244433410E-02  0.92492392387E-01  0.51100000000E-03 0.  1.
         11    1    4    4    0    0 -0.35104830476E-01 -0.26624889772E-01  0.13630997060E-01  0.46122652569E-01  0.51100000000E-03 0. -1.
</event>
<event>
 7    1  0.2158988E+004  0.1043930E+01  0.7957747E-01            NaN
         13   -1    0    0    0    0  0.00000000000E+00  0.00000000000E+00  0.74505805969E-08  0.10566000000E+00  0.10566000000E+00 0. -1.
     999900   -1    0    0    0    0 -0.00000000000E+00 -0.00000000000E+00 -0.74505805969E-08  0.93827000000E+00  0.93827000000E+00 0. -1.
     999903    2    1    2    0    0  0.84406405111E-01  0.34602974453E-01  0.49578000565E-01  0.11303612544E+00  0.44692062484E-01 0.  0.
         14    1    1    2    0    0  0.21182765012E-01  0.34163085120E-01  0.34005420618E-02  0.40340917252E-01  0.00000000000E+00 0. -1.
     999901    1    1    2    0    0 -0.10558917012E+00 -0.68766059572E-01 -0.52978542627E-01  0.89055295731E+00  0.88000000000E+00 0. -1.
        -11    1    3    3    0    0  0.50815570621E-01  0.30302889635E-01  0.52420230879E-01  0.79048270469E-01  0.51100000000E-03 0. -1.
         11    1    3    3    0    0  0.33590834490E-01  0.43000848181E-02 -0.28422303139E-02  0.33987854968E-01  0.51100000000E-03 0.  1.
</event>
<event>
 8    1  0.2039519E+004  0.1043930E+01  0.7957747E-01            NaN
         13   -1    0    0    0    0  0.00000000000E+00  0.00000000000E+00  0.74505805969E-08  0.10566000000E+00  0.10566000000E+00 0. -1.
     999900   -1    0    0    0    0 -0.00000000000E+00 -0.00000000000E+00 -0.74505805969E-08  0.93827000000E+00  0.93827000000E+00 0.  1.
     999902    2    1    2    0    0  0.30400220448E-02 -0.10624217182E-01  0.82587900471E-02  0.10301342275E+01  0.10300418455E+01 0.  0.
     999903    2    3    3    0    0  0.82635534906E-01  0.13670637229E-01 -0.10196605920E+00  0.13936197662E+00  0.44823714113E-01 0.  0.
         14    1    1    2    0    0 -0.30400220448E-02  0.10624217182E-01 -0.82587900471E-02  0.13795772461E-01  0.00000000000E+00 0. -1.
     999901    1    3    3    0    0 -0.79595512861E-01 -0.24294854411E-01  0.11022484925E+00  0.89077225092E+00  0.88000000000E+00 0. -1.
        -11    1    4    4    0    0  0.52965149260E-01 -0.68575709796E-02 -0.82727262488E-01  0.98470271633E-01  0.51100000000E-03 0.  1.
         11    1    4    4    0    0  0.29670385646E-01  0.20528208209E-01 -0.19238796712E-01  0.40891704985E-01  0.51100000000E-03 0. -1.
</event>
<event>
 8    1  0.2039519E+004  0.1043930E+01  0.7957747E-01            NaN
         13   -1    0    0    0    0  0.00000000000E+00  0.00000000000E+00  0.74505805969E-08  0.10566000000E+00  0.10566000000E+00 0. -1.
     999900   -1    0    0    0    0 -0.00000000000E+00 -0.00000000000E+00 -0.74505805969E-08  0.93827000000E+00  0.93827000000E+00 0. -1.
     999902    2    1    2    0    0 -0.95845273047E-02  0.17629672469E-02  0.97241331493E-02  0.10301630111E+01  0.10300710167E+01 0.  0.
     999903    2    3    3    0    0 -0.95761038890E-01 -0.75295131470E-01  0.55787271120E-01  0.14140761485E+00  0.45214605234E-01 0.  0.
         14    1    1    2    0    0  0.95845273047E-02 -0.17629672469E-02 -0.97241331493E-02  0.13766988875E-01  0.00000000000E+00 0.  1.
     999901    1    3    3    0    0  0.86176511586E-01  0.77058098716E-01 -0.46063137971E-01  0.88875539627E+00  0.88000000000E+00 0. -1.
        -11    1    4    4    0    0 -0.22836652179E-01 -0.12924095012E-01  0.34094344719E-01  0.43025926805E-01  0.51100000000E-03 0. -1.
         11    1    4    4    0    0 -0.72924386711E-01 -0.62371036457E-01  0.21692926402E-01  0.98381688046E-01  0.51100000000E-03 0.  1.
</event>
<event>
 8    1  0.2039519E+004  0.1043930E+01  0.7957747E-01            NaN
         13   -1    0    0    0    0  0.00000000000E+00  0.00000000000E+00  0.74505805969E-08  0.10566000000E+00  0.10566000000E+00 0. -1.
     999900   -1    0    0    0    0 -0.00000000000E+00 -0.00000000000E+00 -0.74505805969E-08  0.93827000000E+00  0.93827000000E+00 0.  1.
     999902    2    1    2    0    0  0.50445893657E-02  0.24802676005E-01  0.83692281583E-02  0.10172717068E+01  0.10169223475E+01 0.  0.
     999903    2    3    3    0    0 -0.11948118330E+00  0.92169377106E-02 -0.22022025500E-02  0.12830526282E+00  0.45789580325E-01 0.  0.
         14    1    1    2    0    0 -0.50445893657E-02 -0.24802676005E-01 -0.83692281583E-02  0.26658293247E-01  0.00000000000E+00 0.  1.
     999901    1    3    3    0    0  0.12452577267E+00  0.15585738294E-01  0.10571430708E-01  0.88896644394E+00  0.88000000000E+00 0.  1.
        -11    1    4    4    0    0 -0.93153645677E-01  0.21939676299E-01  0.10778664654E-01  0.96308835688E-01  0.51100000000E-03 0.  1.
         11    1    4    4    0    0 -0.26327537626E-01 -0.12722738588E-01 -0.12980867204E-01  0.31996427129E-01  0.51100000000E-03 0. -1.
</event>
<event>
 8    1  0.2039519E+004  0.1043930E+01  0.7957747E-01            NaN
         13   -1    0    0    0    0  0.00000000000E+00  0.00000000000E+00  0.74505805969E-08  0.10566000000E+00  0.10566000000E+00 0.  1.
     999900   -1    0    0    0    0 -0.00000000000E+00 -0.00000000000E+00 -0.74505805969E-08  0.93827000000E+00  0.93827000000E+00 0. -1.
     999902    2    1    2    0    0  0.60080445197E-02  0.10023033320E-01  0.61995315380E-02  0.10307015463E+01  0.10306166531E+01 0.  0.
     999903    2    3    3    0    0  0.72299509015E-01  0.85777968760E-01 -0.72690153461E-01  0.14145638837E+00  0.46270643743E-01 0.  0.
         14    1    1    2    0    0 -0.60080445197E-02 -0.10023033320E-01 -0.61995315380E-02  0.13228453696E-01  0.00000000000E+00 0. -1.
     999901    1    3    3    0    0 -0.66291464495E-01 -0.75754935440E-01  0.78889684999E-01  0.88924515793E+00  0.88000000000E+00 0.  1.
        -11    1    4    4    0    0  0.71369086366E-01  0.78913750457E-01 -0.49693194274E-01  0.11743339039E+00  0.51100000000E-03 0.  1.
         11    1    4    4    0    0  0.93042264815E-03  0.68642183037E-02 -0.22996959187E-01  0.24022997983E-01  0.51100000000E-03 0. -1.
</event>
<event>
 8    1  0.2039519E+004  0.1043930E+01  0.7957747E-01            NaN
         13   -1    0    0    0    0  0.00000000000E+00  0.00000000000E+00  0.74505805969E-08  0.10566000000E+00  0.10566000000E+00 0. -1.
     999900   -1    0    0    0    0 -0.00000000000E+00 -0.00000000000E+00 -0.74505805969E-08  0.93827000000E+00  0.93827000000E+00 0. -1.
     999902    2    1    2    0    0 -0.76758771346E-02  0.10366895256E-01  0.54160535414E-02  0.10299398162E+01  0.10298447940E+01 0.  0.
     999903    2    3    3    0    0 -0.97525732937E-01 -0.56457047731E-01  0.70375415393E-01  0.14046910018E+00  0.45609233616E-01 0.  0.
         14    1    1    2    0    0  0.76758771346E-02 -0.10366895256E-01 -0.54160535414E-02  0.13990183809E-01  0.00000000000E+00 0.  1.
     999901    1    3    3    0    0  0.89849855802E-01  0.66823942987E-01 -0.64959361851E-01  0.88947071601E+00  0.88000000000E+00 0.  1.
        -11    1    4    4    0    0 -0.53233131006E-02 -0.20654952607E-01  0.50259342699E-02  0.21919987816E-01  0.51100000000E-03 0.  1.
         11    1    4    4    0    0 -0.92202419836E-01 -0.35802095124E-01  0.65349481123E-01  0.11854911237E+00  0.51100000000E-03 0. -1.
</event>
<event>
 8    1  0.2039519E+004  0.1043930E+01  0.7957747E-01            NaN
         13   -1    0    0    0    0  0.00000000000E+00  0.00000000000E+00  0.74505805969E-08  0.10566000000E+00  0.10566000000E+00 0.  1.
     999900   -1    0    0    0    0 -0.00000000000E+00 -0.00000000000E+00 -0.74505805969E-08  0.93827000000E+00  0.93827000000E+00 0.  1.
     999902    2    1    2    0    0  0.14793980814E-01 -0.11225533055E-02 -0.27044671601E-02  0.10288490141E+01  0.10287384787E+01 0.  0.
     999903    2    3    3    0    0 -0.25071108141E-01 -0.10171538026E+00  0.78336097701E-01  0.13852563725E+00  0.45587596184E-01 0.  0.
         14    1    1    2    0    0 -0.14793980814E-01  0.11225533055E-02  0.27044671601E-02  0.15080985938E-01  0.00000000000E+00 0.  1.
     999901    1    3    3    0    0  0.39865088955E-01  0.10059282696E+00 -0.81040564861E-01  0.89032337682E+00  0.88000000000E+00 0.  1.
        -11    1    4    4    0    0 -0.75465092557E-02 -0.41439093264E-01  0.59659567063E-01  0.73032001996E-01  0.51100000000E-03 0.  1.
         11    1    4    4    0    0 -0.17524598885E-01 -0.60276286999E-01  0.18676530638E-01  0.65493635249E-01  0.51100000000E-03 0. -1.
</event>
<event>
 8    1  0.2039519E+004  0.1043930E+01  0.7957747E-01            NaN
         13   -1    0    0    0    0  0.00000000000E+00  0.00000000000E+00  0.74505805969E-08  0.10566000000E+00  0.10566000000E+00 0.  1.
     999900   -1    0    0    0    0 -0.00000000000E+00 -0.00000000000E+00 -0.74505805969E-08  0.93827000000E+00  0.93827000000E+00 0. -1.
     999902    2    1    2    0    0  0.14746270491E-01  0.16025185263E-02 -0.66225401139E-03  0.10290821335E+01  0.10289750135E+01 0.  0.
     999903    2    3    3    0    0  0.76729797416E-01  0.10146191262E+00  0.38726036934E-01  0.14039473421E+00  0.45044355199E-01 0.  0.
         14    1    1    2    0    0 -0.14746270491E-01 -0.16025185263E-02  0.66225401139E-03  0.14847866493E-01  0.00000000000E+00 0.  1.
     999901    1    3    3    0    0 -0.61983526925E-01 -0.99859394089E-01 -0.39388290946E-01  0.88868739929E+00  0.88000000000E+00 0.  1.
        -11    1    4    4    0    0  0.35729970412E-01  0.33719225615E-01 -0.59263030374E-02  0.49487363543E-01  0.51100000000E-03 0. -1.
         11    1    4    4    0    0  0.40999827004E-01  0.67742687000E-01  0.44652339972E-01  0.90907370671E-01  0.51100000000E-03 0.  1.
</event>
<event>
 8    1  0.2039519E+004  0.1043930E+01  0.7957747E-01            NaN
         13   -1    0    0    0    0  0.00000000000E+00  0.00000000000E+00  0.74505805969E-08  0.10566000000E+00  0.10566000000E+00 0. -1.
     999900   -1    0    0    0    0 -0.00000000000E+00 -0.00000000000E+00 -0.74505805969E-08  0.93827000000E+00  0.93827000000E+00 0. -1.
     999902    2    1    2    0    0  0.11165638491E-01  0.58565607868E-02  0.32221779504E-02  0.10309164218E+01  0.10308342813E+01 0.  0.
     999903    2    3    3    0    0  0.63097556221E-01 -0.43639721906E-01  0.10941646413E+00  0.14163354638E+00  0.46929435399E-01 0.  0.
         14    1    1    2    0    0 -0.11165638491E-01 -0.58565607868E-02 -0.32221779504E-02  0.13013578213E-01  0.00000000000E+00 0. -1.
     999901    1    3    3    0    0 -0.51931917731E-01  0.49496282693E-01 -0.10619428618E+00  0.88928287541E+00  0.88000000000E+00 0. -1.
        -11    1    4    4    0    0  0.43395795845E-01 -0.27129140830E-01  0.32728002934E-01  0.60750050833E-01  0.51100000000E-03 0. -1.
         11    1    4    4    0    0  0.19701760377E-01 -0.16510581076E-01  0.76688461199E-01  0.80883495544E-01  0.51100000000E-03 0.  1.
</event>
<event>
 8    1  0.2039519E+004  0.1043930E+01  0.7957747E-01            NaN
         13   -1    0    0    0    0  0.00000000000E+00  0.00000000000E+00  0.74505805969E-08  0.10566000000E+00  0.10566000000E+00 0.  1.
     999900   -1    0    0    0    0 -0.00000000000E+00 -0.00000000000E+00 -0.74505805969E-08  0.93827000000E+00  0.93827000000E+00 0.  1.
     999902    2    1    2    0    0 -0.12351570793E-01  0.21363743021E-02 -0.30790468425E-03  0.10313912520E+01  0.10313150316E+01 0.  0.
     999903    2    3    3    0    0 -0.10105919848E+00 -0.52598028958E-01 -0.72204792489E-01  0.14232766564E+00  0.45432566521E-01 0.  0.
         14    1    1    2    0    0  0.12351570793E-01 -0.21363743021E-02  0.30790468425E-03  0.12538748004E-01  0.00000000000E+00 0. -1.
     999901    1    3    3    0    0  0.88707627685E-01  0.54734403260E-01  0.71896887805E-01  0.88906358636E+00  0.88000000000E+00 0.  1.
        -11    1    4    4    0    0 -0.38007446847E-01 -0.29898458980E-01 -0.54803137285E-01  0.73089868262E-01  0.51100000000E-03 0.  1.
         11    1    4    4    0    0 -0.63051751630E-01 -0.22699569978E-01 -0.17401655204E-01  0.69237797377E-01  0.51100000000E-03 0. -1.
</event>
<event>
 8    1  0.2039519E+004  0.1043930E+01  0.7957747E-01            NaN
         13   -1    0    0    0    0  0.00000000000E+00  0.00000000000E+00  0.74505805969E-08  0.10566000000E+00  0.10566000000E+00 0. -1.
     999900   -1    0    0    0    0 -0.00000000000E+00 -0.00000000000E+00 -0.74505805969E-08  0.93827000000E+00  0.93827000000E+00 0.  1.
     999902    2    1    2    0    0  0.60367632059E-02 -0.94492793510E-03 -0.12825734270E-01  0.10297231404E+01  0.10296251314E+01 0.  0.
     999903    2    3    3    0    0  0.15478061270E-04 -0.11534789986E+00 -0.69354143226E-01  0.14049889602E+00  0.40308862042E-01 0.  0.
         14    1    1    2    0    0 -0.60367632059E-02  0.94492793510E-03  0.12825734270E-01  0.14206859554E-01  0.00000000000E+00 0. -1.
     999901    1    3    3    0    0  0.60212851447E-02  0.11440297192E+00  0.56528408956E-01  0.88922424443E+00  0.88000000000E+00 0. -1.
        -11    1    4    4    0    0 -0.50212196624E-02 -0.56361608271E-01 -0.11545011437E-01  0.57752852258E-01  0.51100000000E-03 0. -1.
         11    1    4    4    0    0  0.50366977236E-02 -0.58986291584E-01 -0.57809131789E-01  0.82746043761E-01  0.51100000000E-03 0.  1.
</event>
<event>
 8    1  0.2039519E+004  0.1043930E+01  0.7957747E-01            NaN
         13   -1    0    0    0    0  0.00000000000E+00  0.00000000000E+00  0.74505805969E-08  0.10566000000E+00  0.10566000000E+00 0. -1.
     999900   -1    0    0    0    0 -0.00000000000E+00 -0.00000000000E+00 -0.74505805969E-08  0.93827000000E+00  0.93827000000E+00 0.  1.
     999902    2    1    2    0    0 -0.12122391534E-02 -0.14006700750E-01  0.39779626093E-02  0.10293189981E+01  0.10292152926E+01 0.  0.
     999903    2    3    3    0    0 -0.95530377630E-01 -0.41309055959E-02 -0.90553235787E-01  0.13919002428E+00  0.45065029877E-01 0.  0.
         14    1    1    2    0    0  0.12122391534E-02  0.14006700750E-01 -0.39779626093E-02  0.14611001888E-01  0.00000000000E+00 0.  1.
     999901    1    3    3    0    0  0.94318138476E-01 -0.98757951539E-02  0.94531198396E-01  0.89012897383E+00  0.88000000000E+00 0.  1.
        -11    1    4    4    0    0 -0.84248692821E-01  0.12137312812E-01 -0.79694184364E-01  0.11660437705E+00  0.51100000000E-03 0. -1.
         11    1    4    4    0    0 -0.11281684808E-01 -0.16268218408E-01 -0.10859051423E-01  0.22585647236E-01  0.51100000000E-03 0.  1.
</event>
<event>
 8    1  0.2039519E+004  0.1043930E+01  0.7957747E-01            NaN
         13   -1    0    0    0    0  0.00000000000E+00  0.00000000000E+00  0.74505805969E-08  0.10566000000E+00  0.10566000000E+00 0.  1.
     999900   -1    0    0    0    0 -0.00000000000E+00 -0.00000000000E+00 -0.74505805969E-08  0.93827000000E+00  0.93827000000E+00 0. -1.
     999902    2    1    2    0    0  0.25144892863E-02  0.99274675352E-02  0.97022152604E-02  0.10298229008E+01  0.10297262727E+01 0.  0.
     999903    2    3    3    0    0 -0.11738207631E+00 -0.16731845513E-01  0.60179004660E-01  0.13986008598E+00  0.43368474230E-01 0.  0.
         14    1    1    2    0    0 -0.25144892863E-02 -0.99274675352E-02 -0.97022152604E-02  0.14107099241E-01  0.00000000000E+00 0. -1.
     999901    1    3    3    0    0  0.11989656559E+00  0.26659313048E-01 -0.50476789400E-01  0.88996281477E+00  0.88000000000E+00 0.  1.
        -11    1    4    4    0    0 -0.72734450676E-01  0.55966495070E-02  0.51228737631E-01  0.89141839117E-01  0.51100000000E-03 0.  1.
         11    1    4    4    0    0 -0.44647625631E-01 -0.22328495020E-01  0.89502670291E-02  0.50718246867E-01  0.51100000000E-03 0. -1.
</event>
<event>
 8    1  0.2039519E+004  0.1043930E+01  0.7957747E-01            NaN
         13   -1    0    0    0    0  0.00000000000E+00  0.00000000000E+00  0.74505805969E-08  0.10566000000E+00  0.10566000000E+00 0. -1.
     999900   -1    0    0    0    0 -0.00000000000E+00 -0.00000000000E+00 -0.74505805969E-08  0.93827000000E+00  0.93827000000E+00 0. -1.
     999902    2    1    2    0    0 -0.19979895161E-01  0.16743064764E-03  0.23143284734E-02  0.10238158169E+01  0.10236182133E+01 0.  0.
     999903    2    3    3    0    0 -0.11766423407E+00 -0.25262946628E-01 -0.46636792899E-01  0.13669398403E+00  0.45024064294E-01 0.  0.
         14    1    1    2    0    0  0.19979895161E-01 -0.16743064764E-03 -0.23143284734E-02  0.20114183054E-01  0.00000000000E+00 0.  1.
     999901    1    3    3    0    0  0.97684338910E-01  0.25430377275E-01  0.48951121372E-01  0.88712183292E+00  0.88000000000E+00 0.  1.
        -11    1    4    4    0    0 -0.34208075426E-01  0.11651706494E-02 -0.33994702690E-01  0.48243662578E-01  0.51100000000E-03 0.  1.
         11    1    4    4    0    0 -0.83456158646E-01 -0.26428117277E-01 -0.12642090209E-01  0.88450321450E-01  0.51100000000E-03 0. -1.
</event>
<event>
 8    1  0.2039519E+004  0.1043930E+01  0.7957747E-01            NaN
         13   -1    0    0    0    0  0.00000000000E+00  0.00000000000E+00  0.74505805969E-08  0.10566000000E+00  0.10566000000E+00 0.  1.
     999900   -1    0    0    0    0 -0.00000000000E+00 -0.00000000000E+00 -0.74505805969E-08  0.93827000000E+00  0.93827000000E+00 0.  1.
     999902    2    1    2    0    0 -0.91453139593E-02 -0.81744805782E-02 -0.81507148377E-02  0.10292027106E+01  0.10290973358E+01 0.  0.
     999903    2    3    3    0    0 -0.12187092315E+00  0.32291333718E-01 -0.43853805634E-01  0.14037243673E+00  0.43428246346E-01 0.  0.
         14    1    1    2    0    0  0.91453139593E-02  0.81744805782E-02  0.81507148377E-02  0.14727289381E-01  0.00000000000E+00 0.  1.
     999901    1    3    3    0    0  0.11272560919E+00 -0.40465814296E-01  0.35703090797E-01  0.88883027389E+00  0.88000000000E+00 0. -1.
        -11    1    4    4    0    0 -0.52369992851E-01  0.85163837966E-02 -0.40657212610E-01  0.66846204098E-01  0.51100000000E-03 0. -1.
         11    1    4    4    0    0 -0.69500930302E-01  0.23774949921E-01 -0.31965930245E-02  0.73526232629E-01  0.51100000000E-03 0.  1.
</event>
<event>
 8    1  0.2039519E+004  0.1043930E+01  0.7957747E-01            NaN
         13   -1    0    0    0    0  0.00000000000E+00  0.00000000000E+00  0.74505805969E-08  0.10566000000E+00  0.10566000000E+00 0. -1.
     999900   -1    0    0    0    0 -0.00000000000E+00 -0.00000000000E+00 -0.74505805969E-08  0.93827000000E+00  0.93827000000E+00 0. -1.
     999902    2    1    2    0    0 -0.99391815509E-02 -0.39417152147E-02  0.96756404615E-02  0.10295097896E+01  0.10294087937E+01 0.  0.
     999903    2    3    3    0    0 -0.74164757471E-01  0.10916396267E+00  0.11924162561E-01  0.13994648394E+00  0.45007229623E-01 0.  0.
         14    1    1    2    0    0  0.99391815509E-02  0.39417152147E-02 -0.96756404615E-02  0.14420210369E-01  0.00000000000E+00 0.  1.
     999901    1    3    3    0    0  0.64225575920E-01 -0.11310567789E+00 -0.22485220991E-02  0.88956330569E+00  0.88000000000E+00 0.  1.
        -11    1    4    4    0    0 -0.46984984912E-01  0.10002501394E+00  0.12819787452E-01  0.11125286644E+00  0.51100000000E-03 0.  1.
         11    1    4    4    0    0 -0.27179772560E-01  0.91389487354E-02 -0.89562489100E-03  0.28693617502E-01  0.51100000000E-03 0. -1.
</event>
<event>
 8    1  0.2039519E+004  0.1043930E+01  0.7957747E-01            NaN
         13   -1    0    0    0    0  0.00000000000E+00  0.00000000000E+00  0.74505805969E-08  0.10566000000E+00  0.10566000000E+00 0. -1.
     999900   -1    0    0    0    0 -0.00000000000E+00 -0.00000000000E+00 -0.74505805969E-08  0.93827000000E+00  0.93827000000E+00 0.  1.
     999902    2    1    2    0    0 -0.14764378550E-01  0.21484551569E-01 -0.98940736147E-02  0.10160469313E+01  0.10156642659E+01 0.  0.
     999903    2    3    3    0    0 -0.21466256116E-02 -0.17284219052E-01 -0.11898936911E+00  0.12837356297E+00  0.44921592548E-01 0.  0.
         14    1    1    2    0    0  0.14764378550E-01 -0.21484551569E-01  0.98940736147E-02  0.27883068748E-01  0.00000000000E+00 0. -1.
     999901    1    3    3    0    0 -0.12617752938E-01  0.38768770621E-01  0.10909529550E+00  0.88767336829E+00  0.88000000000E+00 0. -1.
        -11    1    4    4    0    0 -0.12113583493E-01 -0.15874464529E-01 -0.18018933996E-01  0.26901312839E-01  0.51100000000E-03 0.  1.
         11    1    4    4    0    0  0.99669578811E-02 -0.14097545230E-02 -0.10097043512E+00  0.10147225013E+00  0.51100000000E-03 0. -1.
</event>
<event>
 8    1  0.2039519E+004  0.1043930E+01  0.7957747E-01            NaN
         13   -1    0    0    0    0  0.00000000000E+00  0.00000000000E+00  0.74505805969E-08  0.10566000000E+00  0.10566000000E+00 0. -1.
     999900   -1    0    0    0    0 -0.00000000000E+00 -0.00000000000E+00 -0.74505805969E-08  0.93827000000E+00  0.93827000000E+00 0.  1.
     999902    2    1    2    0    0  0.23810749656E-02 -0.10732632897E-01 -0.83731877739E-02  0.10301108394E+01  0.10300181417E+01 0.  0.
     999903    2    3    3    0    0 -0.44268077993E-01 -0.17826258722E-01 -0.12474512916E+00  0.14119639369E+00  0.45799957569E-01 0.  0.
         14    1    1    2    0    0 -0.23810749656E-02  0.10732632897E-01  0.83731877739E-02  0.13819160625E-01  0.00000000000E+00 0. -1.
     999901    1    3    3    0    0  0.46649152959E-01  0.70936258252E-02  0.11637194139E+00  0.88891444568E+00  0.88000000000E+00 0. -1.
        -11    1    4    4    0    0 -0.25102026005E-02 -0.23790368421E-01 -0.43063811769E-01  0.49264954600E-01  0.51100000000E-03 0. -1.
         11    1    4    4    0    0 -0.41757875393E-01  0.59641096987E-02 -0.81681317392E-01  0.91931439093E-01  0.51100000000E-03 0.  1.
</event>
<event>
 8    1  0.2039519E+004  0.1043930E+01  0.7957747E-01            NaN
         13   -1    0    0    0    0  0.00000000000E+00  0.00000000000E+00  0.74505805969E-08  0.10566000000E+00  0.10566000000E+00 0.  1.
     999900   -1    0    0    0    0 -0.00000000000E+00 -0.00000000000E+00 -0.74505805969E-08  0.93827000000E+00  0.93827000000E+00 0. -1.
     999902    2    1    2    0    0  0.48464778672E-02 -0.67311839713E-02  0.10746730653E-01  0.10303546766E+01  0.10302652426E+01 0.  0.
     999903    2    3    3    0    0  0.90024543037E-01 -0.93281773715E-01 -0.30780833769E-01  0.14104548067E+00  0.46265108180E-01 0.  0.
         14    1    1    2    0    0 -0.48464778672E-02  0.67311839713E-02 -0.10746730653E-01  0.13575323388E-01  0.00000000000E+00 0. -1.
     999901    1    3    3    0    0 -0.85178065170E-01  0.86550589743E-01  0.41527564422E-01  0.88930919594E+00  0.88000000000E+00 0.  1.
        -11    1    4    4    0    0  0.15555858789E-01 -0.32155905185E-01 -0.26727075105E-01  0.44615968505E-01  0.51100000000E-03 0. -1.
         11    1    4    4    0    0  0.74468684248E-01 -0.61125868529E-01 -0.40537586646E-02  0.96429512170E-01  0.51100000000E-03 0.  1.
</event>
<event>
 8    1  0.2039519E+004  0.1043930E+01  0.7957747E-01            NaN
         13   -1    0    0    0    0  0.00000000000E+00  0.00000000000E+00  0.74505805969E-08  0.10566000000E+00  0.10566000000E+00 0. -1.
     999900   -1    0    0    0    0 -0.00000000000E+00 -0.00000000000E+00 -0.74505805969E-08  0.93827000000E+00  0.93827000000E+00 0. -1.
     999902    2    1    2    0    0 -0.11311909189E-01 -0.21862894283E-02 -0.73337417136E-02  0.10302726606E+01  0.10301821355E+01 0.  0.
     999903    2    3    3    0    0 -0.67675092200E-01 -0.94068099041E-01  0.65843393499E-01  0.14068063704E+00  0.45021814798E-01 0.  0.
         14    1    1    2    0    0  0.11311909189E-01  0.21862894283E-02  0.73337417136E-02  0.13657339364E-01  0.00000000000E+00 0.  1.
     999901    1    3    3    0    0  0.56363183010E-01  0.91881809613E-01 -0.73177135213E-01  0.88959202360E+00  0.88000000000E+00 0. -1.
        -11    1    4    4    0    0 -0.68547686654E-01 -0.82853030889E-01  0.70403891844E-01  0.12853162716E+00  0.51100000000E-03 0.  1.
         11    1    4    4    0    0  0.87259445416E-03 -0.11215068152E-01 -0.45604983453E-02  0.12149009873E-01  0.51100000000E-03 0. -1.
</event>
<event>
 8    1  0.2039519E+004  0.1043930E+01  0.7957747E-01            NaN
         13   -1    0    0    0    0  0.00000000000E+00  0.00000000000E+00  0.74505805969E-08  0.10566000000E+00  0.10566000000E+00 0.  1.
     999900   -1    0    0    0    0 -0.00000000000E+00 -0.00000000000E+00 -0.74505805969E-08  0.93827000000E+00  0.93827000000E+00 0. -1.
     999902    2    1    2    0    0 -0.80149973116E-02  0.84947976255E-02  0.22972894145E-02  0.10320270883E+01  0.10319584447E+01 0.  0.
     999903    2    3    3    0    0 -0.38381046157E-01 -0.11958882221E+00  0.46574411556E-01  0.14113541466E+00  0.44445903734E-01 0.  0.
         14    1    1    2    0    0  0.80149973116E-02 -0.84947976255E-02 -0.22972894145E-02  0.11902911713E-01  0.00000000000E+00 0. -1.
     999901    1    3    3    0    0  0.30366048845E-01  0.12808361983E+00 -0.44277122141E-01  0.89089167363E+00  0.88000000000E+00 0.  1.
        -11    1    4    4    0    0 -0.46492051576E-01 -0.82421124707E-01  0.27324811854E-01  0.98497000571E-01  0.51100000000E-03 0.  1.
         11    1    4    4    0    0  0.81110054195E-02 -0.37167697500E-01  0.19249599702E-01  0.42638414089E-01  0.51100000000E-03 0. -1.
</event>
<event>
 8    1  0.2120486E+004  0.1043930E+01  0.7957747E-01            NaN
         13   -1    0    0    0    0  0.00000000000E+00  0.00000000000E+00  0.74505805969E-08  0.10566000000E+00  0.10566000000E+00 0. -1.
     999900   -1    0    0    0    0 -0.00000000000E+00 -0.00000000000E+00 -0.74505805969E-08  0.93827000000E+00  0.93827000000E+00 0. -1.
     999902    2    1    2    0    0  0.93040621040E-02 -0.22793306158E-03  0.95522412726E-02  0.10305934773E+01  0.10305071822E+01 0.  0.
     999903    2    3    3    0    0 -0.65108493710E-01  0.10186066548E+00  0.56590592531E-01  0.14032839489E+00  0.43299562648E-01 0.  0.
         14    1    1    2    0    0 -0.93040621040E-02  0.22793306158E-03 -0.95522412726E-02  0.13336522727E-01  0.00000000000E+00 0.  1.
     999901    1    3    3    0    0  0.74412555814E-01 -0.10208859854E+00 -0.47038351258E-01  0.89026508238E+00  0.88000000000E+00 0.  1.
        -11    1    4    4    0    0 -0.12387102201E-01  0.56645198136E-01  0.34355264953E-01  0.67399288749E-01  0.51100000000E-03 0. -1.
         11    1    4    4    0    0 -0.52721391509E-01  0.45215467342E-01  0.22235327578E-01  0.72929106145E-01  0.51100000000E-03 0.  1.
</event>
<event>
 8    1  0.2039519E+004  0.1043930E+01  0.7957747E-01            NaN
         13   -1    0    0    0    0  0.00000000000E+00  0.00000000000E+00  0.74505805969E-08  0.10566000000E+00  0.10566000000E+00 0.  1.
     999900   -1    0    0    0    0 -0.00000000000E+00 -0.00000000000E+00 -0.74505805969E-08  0.93827000000E+00  0.93827000000E+00 0.  1.
     999902    2    1    2    0    0  0.97628624497E-02 -0.18213103648E-02  0.10206186532E-01  0.10296893224E+01  0.10295908429E+01 0.  0.
     999903    2    3    3    0    0 -0.85962393587E-01  0.68779577893E-01  0.71102494334E-01  0.13960159057E+00  0.48092368870E-01 0.  0.
         14    1    1    2    0    0 -0.97628624497E-02  0.18213103648E-02 -0.10206186532E-01  0.14240677588E-01  0.00000000000E+00 0. -1.
     999901    1    3    3    0    0  0.95725256037E-01 -0.70600888258E-01 -0.60896307803E-01  0.89008773184E+00  0.88000000000E+00 0.  1.
        -11    1    4    4    0    0 -0.59365787905E-01  0.70139358678E-01  0.64164399616E-01  0.11207657074E+00  0.51100000000E-03 0.  1.
         11    1    4    4    0    0 -0.26596605682E-01 -0.13597807847E-02  0.69380947179E-02  0.27525019834E-01  0.51100000000E-03 0. -1.
</event>
<event>
 8    1  0.2039519E+004  0.1043930E+01  0.7957747E-01            NaN
         13   -1    0    0    0    0  0.00000000000E+00  0.00000000000E+00  0.74505805969E-08  0.10566000000E+00  0.10566000000E+00 0. -1.
     999900   -1    0    0    0    0 -0.00000000000E+00 -0.00000000000E+00 -0.74505805969E-08  0.93827000000E+00  0.93827000000E+00 0.  1.
     999902    2    1    2    0    0  0.92612789318E-02 -0.28245358598E-03  0.12872973999E-01  0.10280692142E+01  0.10279468588E+01 0.  0.
     999903    2    3    3    0    0 -0.75275620347E-01  0.94223928542E-01 -0.46982806018E-01  0.13696840169E+00  0.44815078622E-01 0.  0.
         14    1    1    2    0    0 -0.92612789318E-02  0.28245358598E-03 -0.12872973999E-01  0.15860785828E-01  0.00000000000E+00 0.  1.
     999901    1    3    3    0    0  0.84536899279E-01 -0.94506382128E-01  0.59855780018E-01  0.89110081248E+00  0.88000000000E+00 0.  1.
        -11    1    4    4    0    0 -0.59409654053E-01  0.39668780550E-01 -0.20773829798E-01  0.74397125418E-01  0.51100000000E-03 0.  1.
         11    1    4    4    0    0 -0.15865966294E-01  0.54555147992E-01 -0.26208976220E-01  0.62571276273E-01  0.51100000000E-03 0. -1.
</event>
<event>
 8    1  0.2039519E+004  0.1043930E+01  0.7957747E-01            NaN
         13   -1    0    0    0    0  0.00000000000E+00  0.00000000000E+00  0.74505805969E-08  0.10566000000E+00  0.10566000000E+00 0. -1.
     999900   -1    0    0    0    0 -0.00000000000E+00 -0.00000000000E+00 -0.74505805969E-08  0.93827000000E+00  0.93827000000E+00 0. -1.
     999902    2    1    2    0    0 -0.56361041354E-02  0.12204111014E-01 -0.81325993723E-02  0.10282186930E+01  0.10280986506E+01 0.  0.
     999903    2    3    3    0    0 -0.41247953431E-02  0.40046377100E-01 -0.12619263000E+00  0.13989687818E+00  0.45009225747E-01 0.  0.
         14    1    1    2    0    0  0.56361041354E-02 -0.12204111014E-01  0.81325993723E-02  0.15711307011E-01  0.00000000000E+00 0. -1.
     999901    1    3    3    0    0 -0.15113087923E-02 -0.27842266086E-01  0.11806003063E+00  0.88832181481E+00  0.88000000000E+00 0.  1.
        -11    1    4    4    0    0  0.19703977518E-01  0.22460696206E-01 -0.51442205847E-01  0.59491942878E-01  0.51100000000E-03 0.  1.
         11    1    4    4    0    0 -0.23828772861E-01  0.17585680894E-01 -0.74750424154E-01  0.80404935301E-01  0.51100000000E-03 0. -1.
</event>
<event>
 8    1  0.2039519E+004  0.1043930E+01  0.7957747E-01            NaN
         13   -1    0    0    0    0  0.00000000000E+00  0.00000000000E+00  0.74505805969E-08  0.10566000000E+00  0.10566000000E+00 0. -1.
     999900   -1    0    0    0    0 -0.00000000000E+00 -0.00000000000E+00 -0.74505805969E-08  0.93827000000E+00  0.93827000000E+00 0.  1.
     999902    2    1    2    0    0  0.18946594024E-02 -0.26313362411E-02  0.21056904418E-01  0.10226249093E+01  0.10224029530E+01 0.  0.
     999903    2    3    3    0    0 -0.10026233429E+00 -0.41263339237E-01  0.66734060625E-01  0.13469761185E+00  0.43986508699E-01 0.  0.
         14    1    1    2    0    0 -0.18946594024E-02  0.26313362411E-02 -0.21056904418E-01  0.21305090667E-01  0.00000000000E+00 0.  1.
     999901    1    3    3    0    0  0.10215699370E+00  0.38632002996E-01 -0.45677156206E-01  0.88792729748E+00  0.88000000000E+00 0.  1.
        -11    1    4    4    0    0 -0.44888521435E-01 -0.25982674247E-01  0.78949992502E-02  0.52465901801E-01  0.51100000000E-03 0.  1.
         11    1    4    4    0    0 -0.55373812859E-01 -0.15280664989E-01  0.58839061375E-01  0.82231710048E-01  0.51100000000E-03 0. -1.
</event>
<event>
 8    1  0.2039519E+004  0.1043930E+01  0.7957747E-01            NaN
         13   -1    0    0    0    0  0.00000000000E+00  0.00000000000E+00  0.74505805969E-08  0.10566000000E+00  0.10566000000E+00 0.  1.
     999900   -1    0    0    0    0 -0.00000000000E+00 -0.00000000000E+00 -0.74505805969E-08  0.93827000000E+00  0.93827000000E+00 0. -1.
     999902    2    1    2    0    0 -0.24345188562E-02  0.13623986354E-01 -0.68441065050E-03  0.10300732939E+01  0.10299800884E+01 0.  0.
     999903    2    3    3    0    0 -0.20194911865E-01  0.11728969962E+00  0.62268859746E-01  0.14157730295E+00  0.44743867893E-01 0.  0.
         14    1    1    2    0    0  0.24345188562E-02 -0.13623986354E-01  0.68441065050E-03  0.13856706108E-01  0.00000000000E+00 0.  1.
     999901    1    3    3    0    0  0.17760393009E-01 -0.10366571327E+00 -0.62953270396E-01  0.88849599094E+00  0.88000000000E+00 0. -1.
        -11    1    4    4    0    0 -0.15949675071E-01  0.93923530231E-01  0.68114083616E-01  0.11711452162E+00  0.51100000000E-03 0. -1.
         11    1    4    4    0    0 -0.42452367947E-02  0.23366169389E-01 -0.58452238703E-02  0.24462781331E-01  0.51100000000E-03 0.  1.
</event>
<event>
 8    1  0.2039519E+004  0.1043930E+01  0.7957747E-01            NaN
         13   -1    0    0    0    0  0.00000000000E+00  0.00000000000E+00  0.74505805969E-08  0.10566000000E+00  0.10566000000E+00 0. -1.
     999900   -1    0    0    0    0 -0.00000000000E+00 -0.00000000000E+00 -0.74505805969E-08  0.93827000000E+00  0.93827000000E+00 0. -1.
     999902    2    1    2    0    0  0.82144997658E-03 -0.72187428135E-02  0.17061926863E-01  0.10253856107E+01  0.10252179067E+01 0.  0.
     999903    2    3    3    0    0 -0.75737336741E-01 -0.61096667873E-01  0.83073992664E-01  0.13796143279E+00  0.51605442331E-01 0.  0.
         14    1    1    2    0    0 -0.82144997658E-03  0.72187428135E-02 -0.17061926863E-01  0.18544389344E-01  0.00000000000E+00 0.  1.
     999901    1    3    3    0    0  0.76558786718E-01  0.53877925059E-01 -0.66012065801E-01  0.88742417787E+00  0.88000000000E+00 0. -1.
        -11    1    4    4    0    0 -0.81073473666E-01 -0.45366740156E-01  0.75425697933E-01  0.11966764924E+00  0.51100000000E-03 0. -1.
         11    1    4    4    0    0  0.53361369254E-02 -0.15729927717E-01  0.76482947306E-02  0.18293783549E-01  0.51100000000E-03 0.  1.
</event>
<event>
 8    1  0.2039519E+004  0.1043930E+01  0.7957747E-01            NaN
         13   -1    0    0    0    0  0.00000000000E+00  0.00000000000E+00  0.74505805969E-08  0.10566000000E+00  0.10566000000E+00 0.  1.
     999900   -1    0    0    0    0 -0.00000000000E+00 -0.00000000000E+00 -0.74505805969E-08  0.93827000000E+00  0.93827000000E+00 0. -1.
     999902    2    1    2    0    0  0.49772620959E-02  0.10618103902E-01  0.34573246182E-02  0.10317041928E+01  0.10316317517E+01 0.  0.
     999903    2    3    3    0    0 -0.11610316898E+00  0.48374430637E-01  0.47132102888E-01  0.14153932196E+00  0.44630854269E-01 0.  0.
         14    1    1    2    0    0 -0.49772620959E-02 -0.10618103902E-01 -0.34573246182E-02  0.12225807211E-01  0.00000000000E+00 0. -1.
     999901    1    3    3    0    0  0.12108043107E+00 -0.37756326735E-01 -0.43674778270E-01  0.89016487083E+00  0.88000000000E+00 0. -1.
        -11    1    4    4    0    0 -0.69107756852E-01  0.50062529212E-01  0.21605050833E-01  0.88029416849E-01  0.51100000000E-03 0. -1.
         11    1    4    4    0    0 -0.46995412125E-01 -0.16880985747E-02  0.25527052056E-01  0.53509905113E-01  0.51100000000E-03 0.  1.
</event>
<event>
 8    1  0.2039519E+004  0.1043930E+01  0.7957747E-01            NaN
         13   -1    0    0    0    0  0.00000000000E+00  0.00000000000E+00  0.74505805969E-08  0.10566000000E+00  0.10566000000E+00 0. -1.
     999900   -1    0    0    0    0 -0.00000000000E+00 -0.00000000000E+00 -0.74505805969E-08  0.93827000000E+00  0.93827000000E+00 0.  1.
     999902    2    1    2    0    0 -0.11669446782E-01  0.65440954721E-02  0.15590389376E-02  0.10304603387E+01  0.10303723006E+01 0.  0.
     999903    2    3    3    0    0  0.10203726957E+00 -0.59270333736E-01 -0.59198761467E-01  0.13863509417E+00  0.42315707863E-01 0.  0.
         14    1    1    2    0    0  0.11669446782E-01 -0.65440954721E-02 -0.15590389376E-02  0.13469661323E-01  0.00000000000E+00 0. -1.
     999901    1    3    3    0    0 -0.11370671636E+00  0.65814429208E-01  0.60757800405E-01  0.89182524451E+00  0.88000000000E+00 0. -1.
        -11    1    4    4    0    0  0.91011682965E-01 -0.60855375589E-01 -0.40248840606E-01  0.11664790382E+00  0.51100000000E-03 0.  1.
         11    1    4    4    0    0  0.11025586609E-01  0.15850418531E-02 -0.18949920861E-01  0.21987190348E-01  0.51100000000E-03 0. -1.
</event>
<event>
 8    1  0.2039519E+004  0.1043930E+01  0.7957747E-01            NaN
         13   -1    0    0    0    0  0.00000000000E+00  0.00000000000E+00  0.74505805969E-08  0.10566000000E+00  0.10566000000E+00 0. -1.
     999900   -1    0    0    0    0 -0.00000000000E+00 -0.00000000000E+00 -0.74505805969E-08  0.93827000000E+00  0.93827000000E+00 0. -1.
     999902    2    1    2    0    0  0.11003391499E-02  0.12295900624E-01  0.68718887196E-02  0.10298012077E+01  0.10297042801E+01 0.  0.
     999903    2    3    3    0    0 -0.51208506579E-01  0.43358110939E-01  0.11552566732E+00  0.14103424166E+00  0.45191156006E-01 0.  0.
         14    1    1    2    0    0 -0.11003391499E-02 -0.12295900624E-01 -0.68718887196E-02  0.14128792340E-01  0.00000000000E+00 0.  1.
     999901    1    3    3    0    0  0.52308845729E-01 -0.31062210314E-01 -0.10865377860E+00  0.88876696600E+00  0.88000000000E+00 0. -1.
        -11    1    4    4    0    0 -0.22239647366E-01  0.18626942239E-01  0.91517615152E-01  0.96006770054E-01  0.51100000000E-03 0. -1.
         11    1    4    4    0    0 -0.28968859214E-01  0.24731168700E-01  0.24008052164E-01  0.45027471605E-01  0.51100000000E-03 0.  1.
</event>
<event>
 8    1  0.2039519E+004  0.1043930E+01  0.7957747E-01            NaN
         13   -1    0    0    0    0  0.00000000000E+00  0.00000000000E+00  0.74505805969E-08  0.10566000000E+00  0.10566000000E+00 0.  1.
     999900   -1    0    0    0    0 -0.00000000000E+00 -0.00000000000E+00 -0.74505805969E-08  0.93827000000E+00  0.93827000000E+00 0.  1.
     999902    2    1    2    0    0 -0.13572747184E-02 -0.97082202107E-02  0.11154376375E-02  0.10340641024E+01  0.10340170366E+01 0.  0.
     999903    2    3    3    0    0 -0.92894529737E-01  0.98315618914E-01  0.82466403700E-02  0.14271732761E+00  0.44775818757E-01 0.  0.
         14    1    1    2    0    0  0.13572747184E-02  0.97082202107E-02 -0.11154376375E-02  0.98658975995E-02  0.00000000000E+00 0. -1.
     999901    1    3    3    0    0  0.91537255019E-01 -0.10802383913E+00 -0.71312027325E-02  0.89134677479E+00  0.88000000000E+00 0. -1.
        -11    1    4    4    0    0 -0.80684704405E-01  0.62010442577E-01  0.17629613181E-01  0.10327817241E+00  0.51100000000E-03 0. -1.
         11    1    4    4    0    0 -0.12209825332E-01  0.36305176337E-01 -0.93829728106E-02  0.39439155205E-01  0.51100000000E-03 0.  1.
</event>
<event>
 8    1  0.2039519E+004  0.1043930E+01  0.7957747E-01            NaN
         13   -1    0    0    0    0  0.00000000000E+00  0.00000000000E+00  0.74505805969E-08  0.10566000000E+00  0.10566000000E+00 0. -1.
     999900   -1    0    0    0    0 -0.00000000000E+00 -0.00000000000E+00 -0.74505805969E-08  0.93827000000E+00  0.93827000000E+00 0. -1.
     999902    2    1    2    0    0 -0.61978693956E-02 -0.12195714469E-01  0.32862027527E-02  0.10298605947E+01  0.10297644859E+01 0.  0.
     999903    2    3    3    0    0 -0.52007617083E-01 -0.10613411624E+00  0.63774637262E-01  0.14161411596E+00  0.44923386087E-01 0.  0.
         14    1    1    2    0    0  0.61978693956E-02  0.12195714469E-01 -0.32862027527E-02  0.14069405282E-01  0.00000000000E+00 0. -1.
     999901    1    3    3    0    0  0.45809747687E-01  0.93938401770E-01 -0.60488434510E-01  0.88824647875E+00  0.88000000000E+00 0. -1.
        -11    1    4    4    0    0 -0.58954416710E-02 -0.51250091188E-01  0.11403633459E-01  0.52835897421E-01  0.51100000000E-03 0.  1.
         11    1    4    4    0    0 -0.46112175412E-01 -0.54884025052E-01  0.52371003804E-01  0.88778218542E-01  0.51100000000E-03 0. -1.
</event>
<event>
 8    1  0.2039519E+004  0.1043930E+01  0.7957747E-01            NaN
         13   -1    0    0    0    0  0.00000000000E+00  0.00000000000E+00  0.74505805969E-08  0.10566000000E+00  0.10566000000E+00 0. -1.
     999900   -1    0    0    0    0 -0.00000000000E+00 -0.00000000000E+00 -0.74505805969E-08  0.93827000000E+00  0.93827000000E+00 0. -1.
     999902    2    1    2    0    0  0.56283700846E-02 -0.36477085087E-02  0.12125896015E-01  0.10300728112E+01  0.10299795992E+01 0.  0.
     999903    2    3    3    0    0  0.88576157128E-01 -0.16079911467E-02 -0.97786620431E-01  0.13936227624E+00  0.44847515611E-01 0.  0.
         14    1    1    2    0    0 -0.56283700846E-02  0.36477085087E-02 -0.12125896015E-01  0.13857188797E-01  0.00000000000E+00 0. -1.
     999901    1    3    3    0    0 -0.82947787043E-01 -0.20397173620E-02  0.10991251645E+00  0.89071053496E+00  0.88000000000E+00 0.  1.
        -11    1    4    4    0    0  0.41661945298E-01  0.48404883154E-02 -0.76914918536E-01  0.87608868430E-01  0.51100000000E-03 0.  1.
         11    1    4    4    0    0  0.46914211830E-01 -0.64484794621E-02 -0.20871701895E-01  0.51753407811E-01  0.51100000000E-03 0. -1.
</event>
<event>
 8    1  0.2039519E+004  0.1043930E+01  0.7957747E-01            NaN
         13   -1    0    0    0    0  0.00000000000E+00  0.00000000000E+00  0.74505805969E-08  0.10566000000E+00  0.10566000000E+00 0. -1.
     999900   -1    0    0    0    0 -0.00000000000E+00 -0.00000000000E+00 -0.74505805969E-08  0.93827000000E+00  0.93827000000E+00 0. -1.
     999902    2    1    2    0    0 -0.32921010042E-02  0.13433950198E-01  0.46996886833E-02  0.10293219193E+01  0.10292182556E+01 0.  0.
     999903    2    3    3    0    0 -0.91427647683E-01 -0.92006314056E-01  0.18122307124E-01  0.13855500785E+00  0.45220521862E-01 0.  0.
         14    1    1    2    0    0  0.32921010042E-02 -0.13433950198E-01 -0.46996886833E-02  0.14608080664E-01  0.00000000000E+00 0.  1.
     999901    1    3    3    0    0  0.88135546679E-01  0.10544026425E+00 -0.13422618441E-01  0.89076691149E+00  0.88000000000E+00 0.  1.
        -11    1    4    4    0    0 -0.41132562294E-01 -0.25191402764E-01 -0.11927930275E-01  0.49689345898E-01  0.51100000000E-03 0. -1.
         11    1    4    4    0    0 -0.50295085389E-01 -0.66814911292E-01  0.30050237399E-01  0.88865661952E-01  0.51100000000E-03 0.  1.
</event>
<event>
 8    1  0.2039519E+004  0.1043930E+01  0.7957747E-01            NaN
         13   -1    0    0    0    0  0.00000000000E+00  0.00000000000E+00  0.74505805969E-08  0.10566000000E+00  0.10566000000E+00 0. -1.
     999900   -1    0    0    0    0 -0.00000000000E+00 -0.00000000000E+00 -0.74505805969E-08  0.93827000000E+00  0.93827000000E+00 0.  1.
     999902    2    1    2    0    0  0.64384760849E-03 -0.51612824075E-02  0.13155272348E-01  0.10297838144E+01  0.10296866465E+01 0.  0.
     999903    2    3    3    0    0  0.11135319100E+00 -0.70204638019E-01 -0.18467506478E-01  0.13990337472E+00  0.43631194309E-01 0.  0.
         14    1    1    2    0    0 -0.64384760849E-03  0.51612824075E-02 -0.13155272348E-01  0.14146185577E-01  0.00000000000E+00 0.  1.
     999901    1    3    3    0    0 -0.11070934339E+00  0.65043355611E-01  0.31622778827E-01  0.88988043970E+00  0.88000000000E+00 0. -1.
        -11    1    4    4    0    0  0.18846456261E-01 -0.71479125109E-02  0.12526705776E-01  0.23737334422E-01  0.51100000000E-03 0. -1.
         11    1    4    4    0    0  0.92506734742E-01 -0.63056725508E-01 -0.30994212255E-01  0.11616604030E+00  0.51100000000E-03 0.  1.
</event>
<event>
 8    1  0.2039519E+004  0.1043930E+01  0.7957747E-01            NaN
         13   -1    0    0    0    0  0.00000000000E+00  0.00000000000E+00  0.74505805969E-08  0.10566000000E+00  0.10566000000E+00 0.  1.
     999900   -1    0    0    0    0 -0.00000000000E+00 -0.00000000000E+00 -0.74505805969E-08  0.93827000000E+00  0.93827000000E+00 0. -1.
     999902    2    1    2    0    0 -0.11635894502E-01 -0.46754930205E-02  0.59813327246E-02  0.10300364541E+01  0.10299427490E+01 0.  0.
     999903    2    3    3    0    0 -0.40923035871E-01  0.31534162851E-01 -0.12139548752E+00  0.13964680337E+00  0.45774086671E-01 0.  0.
         14    1    1    2    0    0  0.11635894502E-01  0.46754930205E-02 -0.59813327246E-02  0.13893545876E-01  0.00000000000E+00 0. -1.
     999901    1    3    3    0    0  0.29287141369E-01 -0.36209655871E-01  0.12737682024E+00  0.89038965075E+00  0.88000000000E+00 0.  1.
        -11    1    4    4    0    0 -0.36562769496E-01  0.20661391252E-02 -0.47565042663E-01  0.60031653722E-01  0.51100000000E-03 0. -1.
         11    1    4    4    0    0 -0.43602663753E-02  0.29468023725E-01 -0.73830444858E-01  0.79615149651E-01  0.51100000000E-03 0.  1.
</event>
<event>
 8    1  0.2039519E+004  0.1043930E+01  0.7957747E-01            NaN
         13   -1    0    0    0    0  0.00000000000E+00  0.00000000000E+00  0.74505805969E-08  0.10566000000E+00  0.10566000000E+00 0.  1.
     999900   -1    0    0    0    0 -0.00000000000E+00 -0.00000000000E+00 -0.74505805969E-08  0.93827000000E+00  0.93827000000E+00 0.  1.
     999902    2    1    2    0    0 -0.97173527957E-02  0.12643418227E-01  0.79043726184E-02  0.10261321890E+01  0.10259778298E+01 0.  0.
     999903    2    3    3    0    0  0.21384070101E-01  0.11955453705E+00  0.48857929135E-01  0.13817133422E+00  0.44200164897E-01 0.  0.
         14    1    1    2    0    0  0.97173527957E-02 -0.12643418227E-01 -0.79043726184E-02  0.17797810998E-01  0.00000000000E+00 0. -1.
     999901    1    3    3    0    0 -0.31101422897E-01 -0.10691111882E+00 -0.40953556517E-01  0.88796085478E+00  0.88000000000E+00 0. -1.
        -11    1    4    4    0    0  0.11508957709E-01  0.99222954057E-01  0.20616342891E-01  0.10199483043E+00  0.51100000000E-03 0.  1.
         11    1    4    4    0    0  0.98751123920E-02  0.20331582995E-01  0.28241586244E-01  0.36176503790E-01  0.51100000000E-03 0. -1.
</event>
<event>
 8    1  0.2039519E+004  0.1043930E+01  0.7957747E-01            NaN
         13   -1    0    0    0    0  0.00000000000E+00  0.00000000000E+00  0.74505805969E-08  0.10566000000E+00  0.10566000000E+00 0. -1.
     999900   -1    0    0    0    0 -0.00000000000E+00 -0.00000000000E+00 -0.74505805969E-08  0.93827000000E+00  0.93827000000E+00 0. -1.
     999902    2    1    2    0    0  0.11854867031E-01  0.27320606171E-02  0.75820731821E-02  0.10295950824E+01  0.10294952860E+01 0.  0.
     999903    2    3    3    0    0  0.11431089334E+00  0.24085379115E-01 -0.62586268987E-01  0.14061994343E+00  0.47008952362E-01 0.  0.
         14    1    1    2    0    0 -0.11854867031E-01 -0.27320606171E-02 -0.75820731821E-02  0.14334917554E-01  0.00000000000E+00 0.  1.
     999901    1    3    3    0    0 -0.10245602631E+00 -0.21353318498E-01  0.70168342169E-01  0.88897513901E+00  0.88000000000E+00 0.  1.
        -11    1    4    4    0    0  0.47626014167E-01 -0.79571138074E-02 -0.41544193799E-01  0.63700345721E-01  0.51100000000E-03 0. -1.
         11    1    4    4    0    0  0.66684879174E-01  0.32042492923E-01 -0.21042075189E-01  0.76919597714E-01  0.51100000000E-03 0.  1.
</event>
<event>
 8    1  0.2039519E+004  0.1043930E+01  0.7957747E-01            NaN
         13   -1    0    0    0    0  0.00000000000E+00  0.00000000000E+00  0.74505805969E-08  0.10566000000E+00  0.10566000000E+00 0. -1.
     999900   -1    0    0    0    0 -0.00000000000E+00 -0.00000000000E+00 -0.74505805969E-08  0.93827000000E+00  0.93827000000E+00 0.  1.
     999902    2    1    2    0    0  0.15782593713E-02 -0.77111656371E-02  0.82529705111E-02  0.10325254176E+01  0.10324624320E+01 0.  0.
     999903    2    3    3    0    0  0.11734397003E+00 -0.43883982338E-01 -0.49432059752E-01  0.14233569894E+00  0.46049011444E-01 0.  0.
         14    1    1    2    0    0 -0.15782593713E-02  0.77111656371E-02 -0.82529705111E-02  0.11404582429E-01  0.00000000000E+00 0. -1.
     999901    1    3    3    0    0 -0.11576571066E+00  0.36172816700E-01  0.57685030263E-01  0.89018971863E+00  0.88000000000E+00 0. -1.
        -11    1    4    4    0    0  0.75210756701E-01 -0.42491537667E-01 -0.14519285349E-01  0.87597143018E-01  0.51100000000E-03 0.  1.
         11    1    4    4    0    0  0.42133213327E-01 -0.13924446702E-02 -0.34912774403E-01  0.54738555927E-01  0.51100000000E-03 0. -1.
</event>
<event>
 8    1  0.2039519E+004  0.1043930E+01  0.7957747E-01            NaN
         13   -1    0    0    0    0  0.00000000000E+00  0.00000000000E+00  0.74505805969E-08  0.10566000000E+00  0.10566000000E+00 0. -1.
     999900   -1    0    0    0    0 -0.00000000000E+00 -0.00000000000E+00 -0.74505805969E-08  0.93827000000E+00  0.93827000000E+00 0.  1.
     999902    2    1    2    0    0  0.63741330714E-02  0.16675143482E-02 -0.12967241208E-01  0.10293849142E+01  0.10292821489E+01 0.  0.
     999903    2    3    3    0    0 -0.95274259764E-01  0.90540948237E-01  0.58399075738E-02  0.13888809115E+00  0.44507858408E-01 0.  0.
         14    1    1    2    0    0 -0.63741330714E-02 -0.16675143482E-02  0.12967241208E-01  0.14545085805E-01  0.00000000000E+00 0. -1.
     999901    1    3    3    0    0  0.10164839284E+00 -0.88873433889E-01 -0.18807148782E-01  0.89049682305E+00  0.88000000000E+00 0.  1.
        -11    1    4    4    0    0 -0.63192434567E-01  0.57750697114E-01  0.24980908455E-01  0.89178101079E-01  0.51100000000E-03 0. -1.
         11    1    4    4    0    0 -0.32081825197E-01  0.32790251123E-01 -0.19141000881E-01  0.49709990066E-01  0.51100000000E-03 0.  1.
</event>
<event>
 8    1  0.2039519E+004  0.1043930E+01  0.7957747E-01            NaN
         13   -1    0    0    0    0  0.00000000000E+00  0.00000000000E+00  0.74505805969E-08  0.10566000000E+00  0.10566000000E+00 0.  1.
     999900   -1    0    0    0    0 -0.00000000000E+00 -0.00000000000E+00 -0.74505805969E-08  0.93827000000E+00  0.93827000000E+00 0.  1.
     999902    2    1    2    0    0 -0.71962901529E-02 -0.10063038516E-01  0.62218821653E-02  0.10300821426E+01  0.10299890569E+01 0.  0.
     999903    2    3    3    0    0  0.11385763756E+00 -0.61226793413E-01  0.30488593235E-01  0.13999189074E+00  0.44225482402E-01 0.  0.
         14    1    1    2    0    0  0.71962901529E-02  0.10063038516E-01 -0.62218821653E-02  0.13847857373E-01  0.00000000000E+00 0. -1.
     999901    1    3    3    0    0 -0.12105392772E+00  0.51163754897E-01 -0.24266711070E-01  0.89009025188E+00  0.88000000000E+00 0.  1.
        -11    1    4    4    0    0  0.42328280313E-01 -0.32466195333E-01 -0.77932493094E-02  0.53914126251E-01  0.51100000000E-03 0. -1.
         11    1    4    4    0    0  0.71529357250E-01 -0.28760598080E-01  0.38281842544E-01  0.86077764493E-01  0.51100000000E-03 0.  1.
</event>
<event>
 8    1  0.2039519E+004  0.1043930E+01  0.7957747E-01            NaN
         13   -1    0    0    0    0  0.00000000000E+00  0.00000000000E+00  0.74505805969E-08  0.10566000000E+00  0.10566000000E+00 0. -1.
     999900   -1    0    0    0    0 -0.00000000000E+00 -0.00000000000E+00 -0.74505805969E-08  0.93827000000E+00  0.93827000000E+00 0. -1.
     999902    2    1    2    0    0 -0.38277274329E-02  0.14378982137E-02 -0.13368194928E-01  0.10299504548E+01  0.10298555781E+01 0.  0.
     999903    2    3    3    0    0 -0.57591093825E-01  0.84265069354E-01  0.81796183017E-01  0.13932870642E+00  0.48005592125E-01 0.  0.
         14    1    1    2    0    0  0.38277274329E-02 -0.14378982137E-02  0.13368194928E-01  0.13979545208E-01  0.00000000000E+00 0. -1.
     999901    1    3    3    0    0  0.53763366392E-01 -0.82827171140E-01 -0.95164377945E-01  0.89062174837E+00  0.88000000000E+00 0. -1.
        -11    1    4    4    0    0  0.19288741760E-02  0.15171977046E-01  0.31886936972E-01  0.35368733559E-01  0.51100000000E-03 0. -1.
         11    1    4    4    0    0 -0.59519968001E-01  0.69093092308E-01  0.49909246044E-01  0.10395997286E+00  0.51100000000E-03 0.  1.
</event>
<event>
 8    1  0.2039519E+004  0.1043930E+01  0.7957747E-01            NaN
         13   -1    0    0    0    0  0.00000000000E+00  0.00000000000E+00  0.74505805969E-08  0.10566000000E+00  0.10566000000E+00 0. -1.
     999900   -1    0    0    0    0 -0.00000000000E+00 -0.00000000000E+00 -0.74505805969E-08  0.93827000000E+00  0.93827000000E+00 0.  1.
     999902    2    1    2    0    0  0.11335531763E-03  0.53233862267E-02 -0.13356247919E-01  0.10295515213E+01  0.10294511132E+01 0.  0.
     999903    2    3    3    0    0  0.46136427286E-01 -0.68602131877E-02 -0.12520453101E+00  0.14119539810E+00  0.45654500470E-01 0.  0.
         14    1    1    2    0    0 -0.11335531763E-03 -0.53233862267E-02  0.13356247919E-01  0.14378478669E-01  0.00000000000E+00 0. -1.
     999901    1    3    3    0    0 -0.46023071968E-01  0.12183599414E-01  0.11184828309E+00  0.88835612323E+00  0.88000000000E+00 0. -1.
        -11    1    4    4    0    0  0.10442225553E-01  0.18213829308E-01 -0.50393109336E-01  0.54594049512E-01  0.51100000000E-03 0. -1.
         11    1    4    4    0    0  0.35694201733E-01 -0.25074042496E-01 -0.74811421670E-01  0.86601348591E-01  0.51100000000E-03 0.  1.
</event>
<event>
 8    1  0.2039519E+004  0.1043930E+01  0.7957747E-01            NaN
         13   -1    0    0    0    0  0.00000000000E+00  0.00000000000E+00  0.74505805969E-08  0.10566000000E+00  0.10566000000E+00 0. -1.
     999900   -1    0    0    0    0 -0.00000000000E+00 -0.00000000000E+00 -0.74505805969E-08  0.93827000000E+00  0.93827000000E+00 0.  1.
     999902    2    1    2    0    0 -0.10682283123E-01 -0.37858606582E-02  0.77244206046E-02  0.10302146587E+01  0.10301233578E+01 0.  0.
     999903    2    3    3    0    0 -0.55744998619E-01 -0.11712954322E+00 -0.32631176798E-01  0.14088569090E+00  0.44239681673E-01 0.  0.
         14    1    1    2    0    0  0.10682283123E-01  0.37858606582E-02 -0.77244206046E-02  0.13715341312E-01  0.00000000000E+00 0.  1.
     999901    1    3    3    0    0  0.45062715496E-01  0.11334368256E+00  0.40355597403E-01  0.88932896779E+00  0.88000000000E+00 0.  1.
        -11    1    4    4    0    0 -0.55826902830E-01 -0.69929268575E-01 -0.16416781775E-01  0.90975367698E-01  0.51100000000E-03 0.  1.
         11    1    4    4    0    0  0.81904210768E-04 -0.47200274648E-01 -0.16214395023E-01  0.49910323202E-01  0.51100000000E-03 0. -1.
</event>
<event>
 8    1  0.2039519E+004  0.1043930E+01  0.7957747E-01            NaN
         13   -1    0    0    0    0  0.00000000000E+00  0.00000000000E+00  0.74505805969E-08  0.10566000000E+00  0.10566000000E+00 0. -1.
     999900   -1    0    0    0    0 -0.00000000000E+00 -0.00000000000E+00 -0.74505805969E-08  0.93827000000E+00  0.93827000000E+00 0.  1.
     999902    2    1    2    0    0 -0.40809171670E-02 -0.18056754530E-01 -0.32268186369E-02  0.10251387087E+01  0.10249664675E+01 0.  0.
     999903    2    3    3    0    0 -0.99963235008E-01 -0.65608489077E-01  0.49993734710E-01  0.13705818669E+00  0.44592049018E-01 0.  0.
         14    1    1    2    0    0  0.40809171670E-02  0.18056754530E-01  0.32268186369E-02  0.18791291270E-01  0.00000000000E+00 0.  1.
     999901    1    3    3    0    0  0.95882317841E-01  0.47551734547E-01 -0.53220553346E-01  0.88808052204E+00  0.88000000000E+00 0.  1.
        -11    1    4    4    0    0 -0.36805589539E-01 -0.17837417230E-01  0.40048965121E-01  0.57245136064E-01  0.51100000000E-03 0. -1.
         11    1    4    4    0    0 -0.63157645469E-01 -0.47771071847E-01  0.99447695886E-02  0.79813050624E-01  0.51100000000E-03 0.  1.
</event>
<event>
 8    1  0.2039519E+004  0.1043930E+01  0.7957747E-01            NaN
         13   -1    0    0    0    0  0.00000000000E+00  0.00000000000E+00  0.74505805969E-08  0.10566000000E+00  0.10566000000E+00 0.  1.
     999900   -1    0    0    0    0 -0.00000000000E+00 -0.00000000000E+00 -0.74505805969E-08  0.93827000000E+00  0.93827000000E+00 0. -1.
     999902    2    1    2    0    0 -0.11713609204E-01 -0.83679723412E-03 -0.41648333517E-02  0.10314698753E+01  0.10313946136E+01 0.  0.
     999903    2    3    3    0    0 -0.34637644964E-01  0.12622692667E+00  0.18599821181E-01  0.14175703915E+00  0.51147838026E-01 0.  0.
         14    1    1    2    0    0  0.11713609204E-01  0.83679723412E-03  0.41648333517E-02  0.12460124680E-01  0.00000000000E+00 0.  1.
     999901    1    3    3    0    0  0.22924035761E-01 -0.12706372391E+00 -0.22764654533E-01  0.88971283617E+00  0.88000000000E+00 0.  1.
        -11    1    4    4    0    0 -0.42245964290E-01  0.57495380215E-01  0.80030643328E-02  0.71796590480E-01  0.51100000000E-03 0.  1.
         11    1    4    4    0    0  0.76083193256E-02  0.68731546458E-01  0.10596756849E-01  0.69960448671E-01  0.51100000000E-03 0. -1.
</event>
<event>
 8    1  0.2039519E+004  0.1043930E+01  0.7957747E-01            NaN
         13   -1    0    0    0    0  0.00000000000E+00  0.00000000000E+00  0.74505805969E-08  0.10566000000E+00  0.10566000000E+00 0. -1.
     999900   -1    0    0    0    0 -0.00000000000E+00 -0.00000000000E+00 -0.74505805969E-08  0.93827000000E+00  0.93827000000E+00 0. -1.
     999902    2    1    2    0    0 -0.36645054124E-02  0.64587049149E-02 -0.98179743302E-02  0.10316200004E+01  0.10315465521E+01 0.  0.
     999903    2    3    3    0    0 -0.93677008055E-01 -0.73984990415E-01 -0.62105137466E-01  0.14184059735E+00  0.44861412271E-01 0.  0.
         14    1    1    2    0    0  0.36645054124E-02 -0.64587049149E-02  0.98179743302E-02  0.12309999555E-01  0.00000000000E+00 0. -1.
     999901    1    3    3    0    0  0.90012502643E-01  0.80443695330E-01  0.52287163136E-01  0.88977940310E+00  0.88000000000E+00 0.  1.
        -11    1    4    4    0    0 -0.10512749578E-01 -0.33185537676E-01 -0.19108621987E-01  0.39713956864E-01  0.51100000000E-03 0.  1.
         11    1    4    4    0    0 -0.83164258477E-01 -0.40799452739E-01 -0.42996515479E-01  0.10212664048E+00  0.51100000000E-03 0. -1.
</event>
<event>
 8    1  0.2039519E+004  0.1043930E+01  0.7957747E-01            NaN
         13   -1    0    0    0    0  0.00000000000E+00  0.00000000000E+00  0.74505805969E-08  0.10566000000E+00  0.10566000000E+00 0.  1.
     999900   -1    0    0    0    0 -0.00000000000E+00 -0.00000000000E+00 -0.74505805969E-08  0.93827000000E+00  0.93827000000E+00 0.  1.
     999902    2    1    2    0    0  0.74502028474E-02 -0.64863218490E-02  0.12693690949E-01  0.10278456075E+01  0.10277197503E+01 0.  0.
     999903    2    3    3    0    0 -0.79739141600E-01 -0.10286305504E+00  0.98782306488E-02  0.13829606791E+00  0.45706500252E-01 0.  0.
         14    1    1    2    0    0 -0.74502028474E-02  0.64863218490E-02 -0.12693690949E-01  0.16084392544E-01  0.00000000000E+00 0. -1.
     999901    1    3    3    0    0  0.87189344447E-01  0.96376733186E-01  0.28154603000E-02  0.88954953954E+00  0.88000000000E+00 0. -1.
        -11    1    4    4    0    0 -0.60463022354E-01 -0.56763059528E-01 -0.11904697403E-01  0.83784276212E-01  0.51100000000E-03 0.  1.
         11    1    4    4    0    0 -0.19276119246E-01 -0.46099995507E-01  0.21782928052E-01  0.54511791701E-01  0.51100000000E-03 0. -1.
</event>
<event>
 8    1  0.2039519E+004  0.1043930E+01  0.7957747E-01            NaN
         13   -1    0    0    0    0  0.00000000000E+00  0.00000000000E+00  0.74505805969E-08  0.10566000000E+00  0.10566000000E+00 0.  1.
     999900   -1    0    0    0    0 -0.00000000000E+00 -0.00000000000E+00 -0.74505805969E-08  0.93827000000E+00  0.93827000000E+00 0. -1.
     999902    2    1    2    0    0  0.97944945681E-02  0.12929715624E-01 -0.16867702913E-02  0.10276218774E+01  0.10274924661E+01 0.  0.
     999903    2    3    3    0    0  0.46582885807E-01 -0.10854592569E-02 -0.12152370758E+00  0.13862766906E+00  0.47733380901E-01 0.  0.
         14    1    1    2    0    0 -0.97944945681E-02 -0.12929715624E-01  0.16867702913E-02  0.16308122638E-01  0.00000000000E+00 0.  1.
     999901    1    3    3    0    0 -0.36788391239E-01  0.14015174881E-01  0.11983693729E+00  0.88899420830E+00  0.88000000000E+00 0.  1.
        -11    1    4    4    0    0  0.89526362451E-02 -0.19791084590E-01 -0.23667183778E-01  0.32128389844E-01  0.51100000000E-03 0.  1.
         11    1    4    4    0    0  0.37630249562E-01  0.18705625333E-01 -0.97856523804E-01  0.10649927921E+00  0.51100000000E-03 0. -1.
</event>
<event>
 8    1  0.2039519E+004  0.1043930E+01  0.7957747E-01            NaN
         13   -1    0    0    0    0  0.00000000000E+00  0.00000000000E+00  0.74505805969E-08  0.10566000000E+00  0.10566000000E+00 0. -1.
     999900   -1    0    0    0    0 -0.00000000000E+00 -0.00000000000E+00 -0.74505805969E-08  0.93827000000E+00  0.93827000000E+00 0.  1.
     999902    2    1    2    0    0  0.12611337678E-01  0.50594869972E-02  0.37142478610E-02  0.10298431308E+01  0.10297467816E+01 0.  0.
     999903    2    3    3    0    0 -0.58035695962E-01  0.11134454048E+00 -0.40836623289E-01  0.13952167420E+00  0.45087903800E-01 0.  0.
         14    1    1    2    0    0 -0.12611337678E-01 -0.50594869972E-02 -0.37142478610E-02  0.14086869201E-01  0.00000000000E+00 0. -1.
     999901    1    3    3    0    0  0.70647033640E-01 -0.10628505349E+00  0.44550871150E-01  0.89032145660E+00  0.88000000000E+00 0.  1.
        -11    1    4    4    0    0  0.68444537678E-02  0.14762193360E-01 -0.21163193971E-03  0.16281118182E-01  0.51100000000E-03 0.  1.
         11    1    4    4    0    0 -0.64880149730E-01  0.96582347124E-01 -0.40624991349E-01  0.12324055602E+00  0.51100000000E-03 0. -1.
</event>
<event>
 8    1  0.2039519E+004  0.1043930E+01  0.7957747E-01            NaN
         13   -1    0    0    0    0  0.00000000000E+00  0.00000000000E+00  0.74505805969E-08  0.10566000000E+00  0.10566000000E+00 0. -1.
     999900   -1    0    0    0    0 -0.00000000000E+00 -0.00000000000E+00 -0.74505805969E-08  0.93827000000E+00  0.93827000000E+00 0.  1.
     999902    2    1    2    0    0  0.85144904330E-02  0.26846452623E-02  0.10053510503E-01  0.10304846684E+01  0.10303969502E+01 0.  0.
     999903    2    3    3    0    0 -0.29878197285E-01 -0.99061629449E-01  0.83391148073E-01  0.14076296364E+00  0.46413524480E-01 0.  0.
         14    1    1    2    0    0 -0.85144904330E-02 -0.26846452623E-02 -0.10053510503E-01  0.13445331567E-01  0.00000000000E+00 0.  1.
     999901    1    3    3    0    0  0.38392687718E-01  0.10174627471E+00 -0.73337637570E-01  0.88972170479E+00  0.88000000000E+00 0. -1.
        -11    1    4    4    0    0 -0.74794168760E-02 -0.67114848511E-01  0.74862726821E-01  0.10082179108E+00  0.51100000000E-03 0.  1.
         11    1    4    4    0    0 -0.22398780409E-01 -0.31946780938E-01  0.85284212521E-02  0.39941172569E-01  0.51100000000E-03 0. -1.
</event>
<event>
 8    1  0.2039519E+004  0.1043930E+01  0.7957747E-01            NaN
         13   -1    0    0    0    0  0.00000000000E+00  0.00000000000E+00  0.74505805969E-08  0.10566000000E+00  0.10566000000E+00 0. -1.
     999900   -1    0    0    0    0 -0.00000000000E+00 -0.00000000000E+00 -0.74505805969E-08  0.93827000000E+00  0.93827000000E+00 0. -1.
     999902    2    1    2    0    0 -0.50631696673E-02 -0.51865675233E-02 -0.12171516428E-01  0.10297637732E+01  0.10296663278E+01 0.  0.
     999903    2    3    3    0    0 -0.61076579002E-01 -0.60901676672E-01  0.10327942668E+00  0.13871349645E+00  0.33696162979E-01 0.  0.
         14    1    1    2    0    0  0.50631696673E-02  0.51865675233E-02  0.12171516428E-01  0.14166226806E-01  0.00000000000E+00 0. -1.
     999901    1    3    3    0    0  0.56013409334E-01  0.55715109149E-01 -0.11545094311E+00  0.89105027674E+00  0.88000000000E+00 0. -1.
        -11    1    4    4    0    0 -0.34813827714E-01 -0.20816879871E-01  0.27350748077E-01  0.48925143117E-01  0.51100000000E-03 0.  1.
         11    1    4    4    0    0 -0.26262751287E-01 -0.40084796801E-01  0.75928678602E-01  0.89788353337E-01  0.51100000000E-03 0. -1.
</event>
<event>
 8    1  0.2039519E+004  0.1043930E+01  0.7957747E-01            NaN
         13   -1    0    0    0    0  0.00000000000E+00  0.00000000000E+00  0.74505805969E-08  0.10566000000E+00  0.10566000000E+00 0.  1.
     999900   -1    0    0    0    0 -0.00000000000E+00 -0.00000000000E+00 -0.74505805969E-08  0.93827000000E+00  0.93827000000E+00 0. -1.
     999902    2    1    2    0    0 -0.20174006947E-02  0.86302656199E-02 -0.11906385172E-01  0.10290870421E+01  0.10289799934E+01 0.  0.
     999903    2    3    3    0    0  0.42855455410E-01  0.78026846619E-01  0.96512593976E-01  0.13859047633E+00  0.44360573516E-01 0.  0.
         14    1    1    2    0    0  0.20174006947E-02 -0.86302656199E-02  0.11906385172E-01  0.14842957862E-01  0.00000000000E+00 0.  1.
     999901    1    3    3    0    0 -0.44872856105E-01 -0.69396580999E-01 -0.10841897915E+00  0.89049656580E+00  0.88000000000E+00 0. -1.
        -11    1    4    4    0    0  0.32300125131E-01  0.76255537691E-01  0.97388420385E-01  0.12783962867E+00  0.51100000000E-03 0. -1.
         11    1    4    4    0    0  0.10555330280E-01  0.17713089285E-02 -0.87582640858E-03  0.10750847666E-01  0.51100000000E-03 0.  1.
</event>
<event>
 8    1  0.2039519E+004  0.1043930E+01  0.7957747E-01            NaN
         13   -1    0    0    0    0  0.00000000000E+00  0.00000000000E+00  0.74505805969E-08  0.10566000000E+00  0.10566000000E+00 0. -1.
     999900   -1    0    0    0    0 -0.00000000000E+00 -0.00000000000E+00 -0.74505805969E-08  0.93827000000E+00  0.93827000000E+00 0.  1.
     999902    2    1    2    0    0  0.13576723572E-01  0.38386547339E-02  0.28184589239E-02  0.10295422829E+01  0.10294417448E+01 0.  0.
     999903    2    3    3    0    0 -0.50973387890E-01  0.74255896216E-01  0.96534729391E-01  0.13942541183E+00  0.44813693095E-01 0.  0.
         14    1    1    2    0    0 -0.13576723572E-01 -0.38386547339E-02 -0.28184589239E-02  0.14387717117E-01  0.00000000000E+00 0. -1.
     999901    1    3    3    0    0  0.64550111462E-01 -0.70417241482E-01 -0.93716270467E-01  0.89011687106E+00  0.88000000000E+00 0.  1.
        -11    1    4    4    0    0  0.83562492600E-02  0.11110436177E-01  0.14786787562E-01  0.20302189565E-01  0.51100000000E-03 0. -1.
         11    1    4    4    0    0 -0.59329637150E-01  0.63145460039E-01  0.81747941829E-01  0.11912322226E+00  0.51100000000E-03 0.  1.
</event>
<event>
 8    1  0.2039519E+004  0.1043930E+01  0.7957747E-01            NaN
         13   -1    0    0    0    0  0.00000000000E+00  0.00000000000E+00  0.74505805969E-08  0.10566000000E+00  0.10566000000E+00 0. -1.
     999900   -1    0    0    0    0 -0.00000000000E+00 -0.00000000000E+00 -0.74505805969E-08  0.93827000000E+00  0.93827000000E+00 0. -1.
     999902    2    1    2    0    0  0.93742230515E-02 -0.43211346427E-03 -0.10203075094E-01  0.10300676221E+01  0.10299743398E+01 0.  0.
     999903    2    3    3    0    0 -0.78614106516E-01 -0.76849994407E-01 -0.73248287430E-01  0.14014833504E+00  0.46798983108E-01 0.  0.
         14    1    1    2    0    0 -0.93742230515E-02  0.43211346427E-03  0.10203075094E-01  0.13862377907E-01  0.00000000000E+00 0. -1.
     999901    1    3    3    0    0  0.87988329567E-01  0.76417880943E-01  0.63045212336E-01  0.88991928705E+00  0.88000000000E+00 0.  1.
        -11    1    4    4    0    0 -0.61159524964E-01 -0.42455946741E-01 -0.68703453619E-01  0.10130854144E+00  0.51100000000E-03 0.  1.
         11    1    4    4    0    0 -0.17454581551E-01 -0.34394047667E-01 -0.45448338104E-02  0.38839793606E-01  0.51100000000E-03 0. -1.
</event>
<event>
 8    1  0.2039519E+004  0.1043930E+01  0.7957747E-01            NaN
         13   -1    0    0    0    0  0.00000000000E+00  0.00000000000E+00  0.74505805969E-08  0.10566000000E+00  0.10566000000E+00 0.  1.
     999900   -1    0    0    0    0 -0.00000000000E+00 -0.00000000000E+00 -0.74505805969E-08  0.93827000000E+00  0.93827000000E+00 0. -1.
     999902    2    1    2    0    0  0.48819261904E-03 -0.19470655076E-01  0.13399999593E-02  0.10244071841E+01  0.10242211375E+01 0.  0.
     999903    2    3    3    0    0 -0.11711953563E+00  0.46095448897E-01  0.98901868712E-02  0.13412430914E+00  0.45274037482E-01 0.  0.
         14    1    1    2    0    0 -0.48819261904E-03  0.19470655076E-01 -0.13399999593E-02  0.19522815909E-01  0.00000000000E+00 0. -1.
     999901    1    3    3    0    0  0.11760772825E+00 -0.65566103973E-01 -0.85501869119E-02  0.89028287495E+00  0.88000000000E+00 0. -1.
        -11    1    4    4    0    0 -0.58940614023E-01  0.45076776627E-01  0.15020265539E-01  0.75708528386E-01  0.51100000000E-03 0.  1.
         11    1    4    4    0    0 -0.58178921611E-01  0.10186722697E-02 -0.51300786680E-02  0.58415780754E-01  0.51100000000E-03 0. -1.
</event>
<event>
 8    1  0.2039519E+004  0.1043930E+01  0.7957747E-01            NaN
         13   -1    0    0    0    0  0.00000000000E+00  0.00000000000E+00  0.74505805969E-08  0.10566000000E+00  0.10566000000E+00 0. -1.
     999900   -1    0    0    0    0 -0.00000000000E+00 -0.00000000000E+00 -0.74505805969E-08  0.93827000000E+00  0.93827000000E+00 0.  1.
     999902    2    1    2    0    0  0.89230980952E-02 -0.93944539665E-02 -0.33099094538E-03  0.10309690201E+01  0.10308875464E+01 0.  0.
     999903    2    3    3    0    0  0.13395971008E+00 -0.38193364523E-02  0.12128990955E-01  0.14202555316E+00  0.45435163382E-01 0.  0.
         14    1    1    2    0    0 -0.89230980952E-02  0.93944539665E-02  0.33099094538E-03  0.12960979899E-01  0.00000000000E+00 0. -1.
     999901    1    3    3    0    0 -0.12503661199E+00 -0.55751175142E-02 -0.12459981901E-01  0.88894346694E+00  0.88000000000E+00 0. -1.
        -11    1    4    4    0    0  0.13072416626E+00 -0.51897153975E-03  0.20622154521E-01  0.13234277975E+00  0.51100000000E-03 0. -1.
         11    1    4    4    0    0  0.32355438260E-02 -0.33003649126E-02 -0.84931635662E-02  0.96827734028E-02  0.51100000000E-03 0.  1.
</event>
<event>
 8    1  0.2039519E+004  0.1043930E+01  0.7957747E-01            NaN
         13   -1    0    0    0    0  0.00000000000E+00  0.00000000000E+00  0.74505805969E-08  0.10566000000E+00  0.10566000000E+00 0.  1.
     999900   -1    0    0    0    0 -0.00000000000E+00 -0.00000000000E+00 -0.74505805969E-08  0.93827000000E+00  0.93827000000E+00 0. -1.
     999902    2    1    2    0    0 -0.10774980734E-01 -0.10131209340E-01 -0.22598185917E-02  0.10289684362E+01  0.10288596572E+01 0.  0.
     999903    2    3    3    0    0  0.50290172238E-01 -0.10623025126E+00  0.61893203098E-01  0.13931704996E+00  0.42006000928E-01 0.  0.
         14    1    1    2    0    0  0.10774980734E-01  0.10131209340E-01  0.22598185917E-02  0.14961563841E-01  0.00000000000E+00 0.  1.
     999901    1    3    3    0    0 -0.61065152971E-01  0.96099041923E-01 -0.64153021690E-01  0.88965138619E+00  0.88000000000E+00 0. -1.
        -11    1    4    4    0    0  0.32701021300E-01 -0.41616410250E-01  0.46839791916E-01  0.70678919233E-01  0.51100000000E-03 0.  1.
         11    1    4    4    0    0  0.17589150938E-01 -0.64613841013E-01  0.15053411182E-01  0.68638130732E-01  0.51100000000E-03 0. -1.
</event>
<event>
 8    1  0.2039519E+004  0.1043930E+01  0.7957747E-01            NaN
         13   -1    0    0    0    0  0.00000000000E+00  0.00000000000E+00  0.74505805969E-08  0.10566000000E+00  0.10566000000E+00 0. -1.
     999900   -1    0    0    0    0 -0.00000000000E+00 -0.00000000000E+00 -0.74505805969E-08  0.93827000000E+00  0.93827000000E+00 0. -1.
     999902    2    1    2    0    0  0.19643930868E-02  0.58761307262E-02 -0.12641259747E-01  0.10298520314E+01  0.10297558047E+01 0.  0.
     999903    2    3    3    0    0 -0.31503983061E-01 -0.23937311584E-01  0.12439300507E+00  0.13811924445E+00  0.45142110543E-01 0.  0.
         14    1    1    2    0    0 -0.19643930868E-02 -0.58761307262E-02  0.12641259747E-01  0.14077968622E-01  0.00000000000E+00 0. -1.
     999901    1    3    3    0    0  0.33468376148E-01  0.29813442310E-01 -0.13703426481E+00  0.89173278693E+00  0.88000000000E+00 0. -1.
        -11    1    4    4    0    0 -0.17143773339E-01  0.11994377292E-01  0.36306549642E-01  0.41907048558E-01  0.51100000000E-03 0.  1.
         11    1    4    4    0    0 -0.14360209722E-01 -0.35931688876E-01  0.88086455424E-01  0.96212195895E-01  0.51100000000E-03 0. -1.
</event>
<event>
 8    1  0.2039519E+004  0.1043930E+01  0.7957747E-01            NaN
         13   -1    0    0    0    0  0.00000000000E+00  0.00000000000E+00  0.74505805969E-08  0.10566000000E+00  0.10566000000E+00 0.  1.
     999900   -1    0    0    0    0 -0.00000000000E+00 -0.00000000000E+00 -0.74505805969E-08  0.93827000000E+00  0.93827000000E+00 0.  1.
     999902    2    1    2    0    0  0.11981043294E-01 -0.71135926033E-02  0.75142188275E-03  0.10299760316E+01  0.10298815041E+01 0.  0.
     999903    2    3    3    0    0 -0.78371018583E-01  0.99538600690E-01 -0.36645867195E-01  0.13815949073E+00  0.41172511630E-01 0.  0.
         14    1    1    2    0    0 -0.11981043294E-01  0.71135926033E-02 -0.75142188275E-03  0.13953968360E-01  0.00000000000E+00 0. -1.
     999901    1    3    3    0    0  0.90352061877E-01 -0.10665219329E+00  0.37397289078E-01  0.89181654092E+00  0.88000000000E+00 0. -1.
        -11    1    4    4    0    0 -0.45221629706E-01  0.27994059607E-01 -0.23789612609E-01  0.58265512575E-01  0.51100000000E-03 0.  1.
         11    1    4    4    0    0 -0.33149388878E-01  0.71544541083E-01 -0.12856254585E-01  0.79893978150E-01  0.51100000000E-03 0. -1.
</event>
<event>
 8    1  0.2039519E+004  0.1043930E+01  0.7957747E-01            NaN
         13   -1    0    0    0    0  0.00000000000E+00  0.00000000000E+00  0.74505805969E-08  0.10566000000E+00  0.10566000000E+00 0.  1.
     999900   -1    0    0    0    0 -0.00000000000E+00 -0.00000000000E+00 -0.74505805969E-08  0.93827000000E+00  0.93827000000E+00 0. -1.
     999902    2    1    2    0    0  0.61544575821E-02  0.45781548670E-02 -0.12151800946E-01  0.10295597837E+01  0.10294594917E+01 0.  0.
     999903    2    3    3    0    0  0.38383353178E-01  0.12122346063E+00 -0.40516004975E-01  0.14082508925E+00  0.44963873216E-01 0.  0.
         14    1    1    2    0    0 -0.61544575821E-02 -0.45781548670E-02  0.12151800946E-01  0.14370216294E-01  0.00000000000E+00 0. -1.
     999901    1    3    3    0    0 -0.32228895596E-01 -0.11664530576E+00  0.28364204029E-01  0.88873469446E+00  0.88000000000E+00 0.  1.
        -11    1    4    4    0    0  0.49364750203E-03  0.74087438505E-01 -0.26976900705E-01  0.78849264580E-01  0.51100000000E-03 0. -1.
         11    1    4    4    0    0  0.37889705676E-01  0.47136022121E-01 -0.13539104269E-01  0.61975824666E-01  0.51100000000E-03 0.  1.
</event>
<event>
 8    1  0.2039519E+004  0.1043930E+01  0.7957747E-01            NaN
         13   -1    0    0    0    0  0.00000000000E+00  0.00000000000E+00  0.74505805969E-08  0.10566000000E+00  0.10566000000E+00 0. -1.
     999900   -1    0    0    0    0 -0.00000000000E+00 -0.00000000000E+00 -0.74505805969E-08  0.93827000000E+00  0.93827000000E+00 0. -1.
     999902    2    1    2    0    0 -0.10217726912E-01  0.15686256276E-02 -0.78832795422E-02  0.10309296682E+01  0.10308476959E+01 0.  0.
     999903    2    3    3    0    0 -0.11717151780E+00  0.67115246563E-01 -0.33465644917E-02  0.14202244322E+00  0.43881134667E-01 0.  0.
         14    1    1    2    0    0  0.10217726912E-01 -0.15686256276E-02  0.78832795422E-02  0.13000331763E-01  0.00000000000E+00 0. -1.
     999901    1    3    3    0    0  0.10695379089E+00 -0.65546620935E-01 -0.45367150505E-02  0.88890722502E+00  0.88000000000E+00 0.  1.
        -11    1    4    4    0    0 -0.42481239848E-01  0.16667429353E-01  0.18558907763E-01  0.49266145766E-01  0.51100000000E-03 0.  1.
         11    1    4    4    0    0 -0.74690277953E-01  0.50447817210E-01 -0.21905472255E-01  0.92756297455E-01  0.51100000000E-03 0. -1.
</event>
<event>
 8    1  0.2039519E+004  0.1043930E+01  0.7957747E-01            NaN
         13   -1    0    0    0    0  0.00000000000E+00  0.00000000000E+00  0.74505805969E-08  0.10566000000E+00  0.10566000000E+00 0. -1.
     999900   -1    0    0    0    0 -0.00000000000E+00 -0.00000000000E+00 -0.74505805969E-08  0.93827000000E+00  0.93827000000E+00 0. -1.
     999902    2    1    2    0    0 -0.13277228878E-01  0.32031888631E-02 -0.86883619949E-03  0.10302442373E+01  0.10301533324E+01 0.  0.
     999903    2    3    3    0    0 -0.30268418841E-01  0.50877160765E-01 -0.11937460830E+00  0.14085954762E+00  0.45677701150E-01 0.  0.
         14    1    1    2    0    0  0.13277228878E-01 -0.32031888631E-02  0.86883619949E-03  0.13685762745E-01  0.00000000000E+00 0. -1.
     999901    1    3    3    0    0  0.16991189963E-01 -0.47673971902E-01  0.11850577210E+00  0.88938468963E+00  0.88000000000E+00 0.  1.
        -11    1    4    4    0    0 -0.35956714149E-01  0.56341564980E-01 -0.10794030704E+00  0.12695915974E+00  0.51100000000E-03 0.  1.
         11    1    4    4    0    0  0.56882953084E-02 -0.54644042149E-02 -0.11434301262E-01  0.13900387883E-01  0.51100000000E-03 0. -1.
</event>
<event>
 8    1  0.2039519E+004  0.1043930E+01  0.7957747E-01            NaN
         13   -1    0    0    0    0  0.00000000000E+00  0.00000000000E+00  0.74505805969E-08  0.10566000000E+00  0.10566000000E+00 0.  1.
     999900   -1    0    0    0    0 -0.00000000000E+00 -0.00000000000E+00 -0.74505805969E-08  0.93827000000E+00  0.93827000000E+00 0. -1.
     999902    2    1    2    0    0  0.10699463739E-01  0.54066226949E-02  0.76976889040E-02  0.10296834387E+01  0.10295848773E+01 0.  0.
     999903    2    3    3    0    0  0.12015482820E+00  0.13588187968E-01  0.58271133804E-01  0.14142385498E+00  0.44534931550E-01 0.  0.
         14    1    1    2    0    0 -0.10699463739E-01 -0.54066226949E-02 -0.76976889040E-02  0.14246561260E-01  0.00000000000E+00 0.  1.
     999901    1    3    3    0    0 -0.10945536447E+00 -0.81815652729E-02 -0.50573444900E-01  0.88825958376E+00  0.88000000000E+00 0. -1.
        -11    1    4    4    0    0  0.40368482421E-01  0.23386912588E-01  0.33037496066E-01  0.57169041628E-01  0.51100000000E-03 0.  1.
         11    1    4    4    0    0  0.79786345784E-01 -0.97987246202E-02  0.25233637738E-01  0.84254813348E-01  0.51100000000E-03 0. -1.
</event>
<event>
 8    1  0.2039519E+004  0.1043930E+01  0.7957747E-01            NaN
         13   -1    0    0    0    0  0.00000000000E+00  0.00000000000E+00  0.74505805969E-08  0.10566000000E+00  0.10566000000E+00 0.  1.
     999900   -1    0    0    0    0 -0.00000000000E+00 -0.00000000000E+00 -0.74505805969E-08  0.93827000000E+00  0.93827000000E+00 0. -1.
     999902    2    1    2    0    0 -0.25821685528E-02 -0.12240439424E-01  0.58372398782E-02  0.10301253152E+01  0.10300328130E+01 0.  0.
     999903    2    3    3    0    0  0.11653056888E+00  0.58415706011E-01  0.17009383530E-01  0.13922411315E+00  0.45850478331E-01 0.  0.
         14    1    1    2    0    0  0.25821685528E-02  0.12240439424E-01 -0.58372398782E-02  0.13804684752E-01  0.00000000000E+00 0. -1.
     999901    1    3    3    0    0 -0.11911273743E+00 -0.70656145435E-01 -0.11172143652E-01  0.89090120210E+00  0.88000000000E+00 0. -1.
        -11    1    4    4    0    0  0.26848632407E-01  0.10605275580E-01 -0.15176916998E-01  0.32617799785E-01  0.51100000000E-03 0.  1.
         11    1    4    4    0    0  0.89681936468E-01  0.47810430431E-01  0.32186300527E-01  0.10660631337E+00  0.51100000000E-03 0. -1.
</event>
<event>
 8    1  0.2039519E+004  0.1043930E+01  0.7957747E-01            NaN
         13   -1    0    0    0    0  0.00000000000E+00  0.00000000000E+00  0.74505805969E-08  0.10566000000E+00  0.10566000000E+00 0. -1.
     999900   -1    0    0    0    0 -0.00000000000E+00 -0.00000000000E+00 -0.74505805969E-08  0.93827000000E+00  0.93827000000E+00 0.  1.
     999902    2    1    2    0    0  0.89495102986E-02  0.87106174528E-03  0.57957035076E-02  0.10332322123E+01  0.10331768299E+01 0.  0.
     999903    2    3    3    0    0  0.60558917932E-01  0.73048345473E-01  0.98677890667E-01  0.14390651719E+00  0.44365710467E-01 0.  0.
         14    1    1    2    0    0 -0.89495102986E-02 -0.87106174528E-03 -0.57957035076E-02  0.10697787729E-01  0.00000000000E+00 0.  1.
     999901    1    3    3    0    0 -0.51609407634E-01 -0.72177283728E-01 -0.92882187160E-01  0.88932569508E+00  0.88000000000E+00 0. -1.
        -11    1    4    4    0    0  0.45363885355E-01  0.75550258786E-01  0.91053783899E-01  0.12671533601E+00  0.51100000000E-03 0. -1.
         11    1    4    4    0    0  0.15195032578E-01 -0.25019133125E-02  0.76241067685E-02  0.17191181177E-01  0.51100000000E-03 0.  1.
</event>
<event>
 8    1  0.2039519E+004  0.1043930E+01  0.7957747E-01            NaN
         13   -1    0    0    0    0  0.00000000000E+00  0.00000000000E+00  0.74505805969E-08  0.10566000000E+00  0.10566000000E+00 0.  1.
     999900   -1    0    0    0    0 -0.00000000000E+00 -0.00000000000E+00 -0.74505805969E-08  0.93827000000E+00  0.93827000000E+00 0. -1.
     999902    2    1    2    0    0 -0.49946138132E-03 -0.11592108792E-01 -0.90591449476E-02  0.10292094513E+01  0.10291041735E+01 0.  0.
     999903    2    3    3    0    0 -0.67891099797E-01 -0.11367445353E+00  0.14833648606E-01  0.14042752997E+00  0.44370837551E-01 0.  0.
         14    1    1    2    0    0  0.49946138132E-03  0.11592108792E-01  0.90591449476E-02  0.14720548736E-01  0.00000000000E+00 0.  1.
     999901    1    3    3    0    0  0.67391638416E-01  0.10208234474E+00 -0.23892793554E-01  0.88878192129E+00  0.88000000000E+00 0. -1.
        -11    1    4    4    0    0 -0.12366963517E-02 -0.28239813970E-01  0.15130966397E-01  0.32065928586E-01  0.51100000000E-03 0.  1.
         11    1    4    4    0    0 -0.66654403445E-01 -0.85434639561E-01 -0.29731779058E-03  0.10836160138E+00  0.51100000000E-03 0. -1.
</event>
<event>
 8    1  0.2039519E+004  0.1043930E+01  0.7957747E-01            NaN
         13   -1    0    0    0    0  0.00000000000E+00  0.00000000000E+00  0.74505805969E-08  0.10566000000E+00  0.10566000000E+00 0. -1.
     999900   -1    0    0    0    0 -0.00000000000E+00 -0.00000000000E+00 -0.74505805969E-08  0.93827000000E+00  0.93827000000E+00 0. -1.
     999902    2    1    2    0    0  0.61550114765E-02 -0.11520986897E-01  0.48915599390E-02  0.10299820731E+01  0.10298876280E+01 0.  0.
     999903    2    3    3    0    0 -0.13118312814E-01 -0.62420755398E-01  0.11752723253E+00  0.14113504343E+00  0.45144315961E-01 0.  0.
         14    1    1    2    0    0 -0.61550114765E-02  0.11520986897E-01 -0.48915599390E-02  0.13947926871E-01  0.00000000000E+00 0. -1.
     999901    1    3    3    0    0  0.19273324290E-01  0.50899768501E-01 -0.11263567259E+00  0.88884702970E+00  0.88000000000E+00 0. -1.
        -11    1    4    4    0    0 -0.22461838594E-01 -0.32670989711E-01  0.34915162824E-01  0.52832352567E-01  0.51100000000E-03 0.  1.
         11    1    4    4    0    0  0.93435257804E-02 -0.29749765688E-01  0.82612069702E-01  0.88302690865E-01  0.51100000000E-03 0. -1.
</event>
<event>
 8    1  0.2039519E+004  0.1043930E+01  0.7957747E-01            NaN
         13   -1    0    0    0    0  0.00000000000E+00  0.00000000000E+00  0.74505805969E-08  0.10566000000E+00  0.10566000000E+00 0. -1.
     999900   -1    0    0    0    0 -0.00000000000E+00 -0.00000000000E+00 -0.74505805969E-08  0.93827000000E+00  0.93827000000E+00 0. -1.
     999902    2    1    2    0    0 -0.14195962288E-01  0.42774225758E-02 -0.91211939476E-02  0.10265225916E+01  0.10263749866E+01 0.  0.
     999903    2    3    3    0    0 -0.11580400910E+00 -0.60309945869E-01 -0.11320831738E-01  0.13832184751E+00  0.44237022658E-01 0.  0.
         14    1    1    2    0    0  0.14195962288E-01 -0.42774225758E-02  0.91211939476E-02  0.17407408429E-01  0.00000000000E+00 0. -1.
     999901    1    3    3    0    0  0.10160804681E+00  0.64587368445E-01  0.21996377908E-02  0.88820074406E+00  0.88000000000E+00 0. -1.
        -11    1    4    4    0    0 -0.78563169962E-01 -0.16361542517E-01 -0.65392769385E-02  0.80516426969E-01  0.51100000000E-03 0.  1.
         11    1    4    4    0    0 -0.37240839138E-01 -0.43948403352E-01 -0.47815547999E-02  0.57805420543E-01  0.51100000000E-03 0. -1.
</event>
<event>
 8    1  0.2039519E+004  0.1043930E+01  0.7957747E-01            NaN
         13   -1    0    0    0    0  0.00000000000E+00  0.00000000000E+00  0.74505805969E-08  0.10566000000E+00  0.10566000000E+00 0. -1.
     999900   -1    0    0    0    0 -0.00000000000E+00 -0.00000000000E+00 -0.74505805969E-08  0.93827000000E+00  0.93827000000E+00 0. -1.
     999902    2    1    2    0    0 -0.71228572166E-03 -0.39344343129E-02 -0.13539790774E-01  0.10298121723E+01  0.10297153962E+01 0.  0.
     999903    2    3    3    0    0 -0.29165146730E-01  0.83952425014E-01  0.95618425499E-01  0.13826902612E+00  0.45572193727E-01 0.  0.
         14    1    1    2    0    0  0.71228572166E-03  0.39344343129E-02  0.13539790774E-01  0.14117827684E-01  0.00000000000E+00 0. -1.
     999901    1    3    3    0    0  0.28452861008E-01 -0.87886859327E-01 -0.10915821627E+00  0.89154314619E+00  0.88000000000E+00 0. -1.
        -11    1    4    4    0    0 -0.21289728291E-01  0.10046820278E-01  0.12122814893E-01  0.26484238526E-01  0.51100000000E-03 0.  1.
         11    1    4    4    0    0 -0.78754184390E-02  0.73905604736E-01  0.83495610606E-01  0.11178478760E+00  0.51100000000E-03 0. -1.
</event>
<event>
 8    1  0.2039519E+004  0.1043930E+01  0.7957747E-01            NaN
         13   -1    0    0    0    0  0.00000000000E+00  0.00000000000E+00  0.74505805969E-08  0.10566000000E+00  0.10566000000E+00 0.  1.
     999900   -1    0    0    0    0 -0.00000000000E+00 -0.00000000000E+00 -0.74505805969E-08  0.93827000000E+00  0.93827000000E+00 0.  1.
     999902    2    1    2    0    0 -0.14760729645E-01  0.27146850431E-02 -0.34805519331E-02  0.10285234139E+01  0.10284080173E+01 0.  0.
     999903    2    3    3    0    0  0.93348098894E-01  0.50477022870E-01  0.74316937061E-01  0.13722031782E+00  0.45217375911E-01 0.  0.
         14    1    1    2    0    0  0.14760729645E-01 -0.27146850431E-02  0.34805519331E-02  0.15406586134E-01  0.00000000000E+00 0. -1.
     999901    1    3    3    0    0 -0.10810882854E+00 -0.47762337827E-01 -0.77797488994E-01  0.89130309604E+00  0.88000000000E+00 0.  1.
        -11    1    4    4    0    0  0.77311792950E-01  0.24040344037E-01  0.37758043804E-01  0.89336344583E-01  0.51100000000E-03 0. -1.
         11    1    4    4    0    0  0.16036305944E-01  0.26436678832E-01  0.36558893257E-01  0.47883973239E-01  0.51100000000E-03 0.  1.
</event>
<event>
 8    1  0.2039519E+004  0.1043930E+01  0.7957747E-01            NaN
         13   -1    0    0    0    0  0.00000000000E+00  0.00000000000E+00  0.74505805969E-08  0.10566000000E+00  0.10566000000E+00 0. -1.
     999900   -1    0    0    0    0 -0.00000000000E+00 -0.00000000000E+00 -0.74505805969E-08  0.93827000000E+00  0.93827000000E+00 0. -1.
     999902    2    1    2    0    0  0.16125583466E-01 -0.89811667215E-03  0.13706551021E-01  0.10227472099E+01  0.10225278210E+01 0.  0.
     999903    2    3    3    0    0 -0.53955406278E-03 -0.76705916122E-01 -0.97835394230E-01  0.13231688987E+00  0.45297972306E-01 0.  0.
         14    1    1    2    0    0 -0.16125583466E-01  0.89811667215E-03 -0.13706551021E-01  0.21182790103E-01  0.00000000000E+00 0.  1.
     999901    1    3    3    0    0  0.16665137529E-01  0.75807799450E-01  0.11154194525E+00  0.89043032002E+00  0.88000000000E+00 0.  1.
        -11    1    4    4    0    0 -0.23503364527E-02 -0.22721598751E-01 -0.65477624503E-01  0.69349661591E-01  0.51100000000E-03 0. -1.
         11    1    4    4    0    0  0.18107823899E-02 -0.53984317371E-01 -0.32357769726E-01  0.62967228282E-01  0.51100000000E-03 0.  1.
</event>
<event>
 8    1  0.2039519E+004  0.1043930E+01  0.7957747E-01            NaN
         13   -1    0    0    0    0  0.00000000000E+00  0.00000000000E+00  0.74505805969E-08  0.10566000000E+00  0.10566000000E+00 0. -1.
     999900   -1    0    0    0    0 -0.00000000000E+00 -0.00000000000E+00 -0.74505805969E-08  0.93827000000E+00  0.93827000000E+00 0.  1.
     999902    2    1    2    0    0 -0.12604102894E-01  0.60156370825E-02 -0.56977542531E-03  0.10299523055E+01  0.10298574541E+01 0.  0.
     999903    2    3    3    0    0  0.87008064109E-01 -0.29818068705E-01 -0.93536215856E-01  0.13874559698E+00  0.45186243066E-01 0.  0.
         14    1    1    2    0    0  0.12604102894E-01 -0.60156370825E-02  0.56977542531E-03  0.13977694492E-01  0.00000000000E+00 0. -1.
     999901    1    3    3    0    0 -0.99612167003E-01  0.35833705788E-01  0.92966440431E-01  0.89120670853E+00  0.88000000000E+00 0.  1.
        -11    1    4    4    0    0  0.44359144524E-01  0.83513293241E-02 -0.38249820003E-01  0.59167459432E-01  0.51100000000E-03 0. -1.
         11    1    4    4    0    0  0.42648919585E-01 -0.38169398029E-01 -0.55286395853E-01  0.79578137545E-01  0.51100000000E-03 0.  1.
</event>
<event>
 8    1  0.2039519E+004  0.1043930E+01  0.7957747E-01            NaN
         13   -1    0    0    0    0  0.00000000000E+00  0.00000000000E+00  0.74505805969E-08  0.10566000000E+00  0.10566000000E+00 0. -1.
     999900   -1    0    0    0    0 -0.00000000000E+00 -0.00000000000E+00 -0.74505805969E-08  0.93827000000E+00  0.93827000000E+00 0. -1.
     999902    2    1    2    0    0  0.91958390119E-02  0.10496742031E-01  0.36198498605E-03  0.10299701977E+01  0.10298755905E+01 0.  0.
     999903    2    3    3    0    0 -0.85649732550E-01  0.96857470569E-01  0.33196777750E-01  0.14006459508E+00  0.42412479897E-01 0.  0.
         14    1    1    2    0    0 -0.91958390119E-02 -0.10496742031E-01 -0.36198498605E-03  0.13959802346E-01  0.00000000000E+00 0.  1.
     999901    1    3    3    0    0  0.94845571561E-01 -0.86360728537E-01 -0.32834792763E-01  0.88990560257E+00  0.88000000000E+00 0. -1.
        -11    1    4    4    0    0 -0.40448338371E-01  0.56193561702E-01  0.38162051466E-01  0.79059393792E-01  0.51100000000E-03 0.  1.
         11    1    4    4    0    0 -0.45201394179E-01  0.40663908867E-01 -0.49652737161E-02  0.61005201287E-01  0.51100000000E-03 0. -1.
</event>
<event>
 8    1  0.2039519E+004  0.1043930E+01  0.7957747E-01            NaN
         13   -1    0    0    0    0  0.00000000000E+00  0.00000000000E+00  0.74505805969E-08  0.10566000000E+00  0.10566000000E+00 0.  1.
     999900   -1    0    0    0    0 -0.00000000000E+00 -0.00000000000E+00 -0.74505805969E-08  0.93827000000E+00  0.93827000000E+00 0.  1.
     999902    2    1    2    0    0  0.49179385550E-02 -0.12153806989E-02  0.12803616997E-01  0.10301606181E+01  0.10300685915E+01 0.  0.
     999903    2    3    3    0    0 -0.13433054031E-01  0.81007725005E-01 -0.10222618907E+00  0.13868473265E+00  0.45172590009E-01 0.  0.
         14    1    1    2    0    0 -0.49179385550E-02  0.12153806989E-02 -0.12803616997E-01  0.13769381906E-01  0.00000000000E+00 0. -1.
     999901    1    3    3    0    0  0.18350992586E-01 -0.82223105704E-01  0.11502980607E+00  0.89147588544E+00  0.88000000000E+00 0. -1.
        -11    1    4    4    0    0 -0.17140361683E-01  0.57684602977E-02 -0.24343063922E-01  0.30330067836E-01  0.51100000000E-03 0.  1.
         11    1    4    4    0    0  0.37073076520E-02  0.75239264707E-01 -0.77883125147E-01  0.10835466482E+00  0.51100000000E-03 0. -1.
</event>
<event>
 8    1  0.2039519E+004  0.1043930E+01  0.7957747E-01            NaN
         13   -1    0    0    0    0  0.00000000000E+00  0.00000000000E+00  0.74505805969E-08  0.10566000000E+00  0.10566000000E+00 0. -1.
     999900   -1    0    0    0    0 -0.00000000000E+00 -0.00000000000E+00 -0.74505805969E-08  0.93827000000E+00  0.93827000000E+00 0.  1.
     999902    2    1    2    0    0 -0.56266601988E-02 -0.30226952309E-02  0.11676382620E-01  0.10306208339E+01  0.10305348948E+01 0.  0.
     999903    2    3    3    0    0  0.59802532628E-01 -0.58887705236E-01  0.10511663989E+00  0.14150162912E+00  0.43921501846E-01 0.  0.
         14    1    1    2    0    0  0.56266601988E-02  0.30226952309E-02 -0.11676382620E-01  0.13309166109E-01  0.00000000000E+00 0.  1.
     999901    1    3    3    0    0 -0.65429192827E-01  0.55865010005E-01 -0.93440257271E-01  0.88911920477E+00  0.88000000000E+00 0.  1.
        -11    1    4    4    0    0  0.62615761156E-01 -0.39847266372E-01  0.91989887661E-01  0.11819872561E+00  0.51100000000E-03 0. -1.
         11    1    4    4    0    0 -0.28132285282E-02 -0.19040438864E-01  0.13126752230E-01  0.23302903510E-01  0.51100000000E-03 0.  1.
</event>
<event>
 8    1  0.2039519E+004  0.1043930E+01  0.7957747E-01            NaN
         13   -1    0    0    0    0  0.00000000000E+00  0.00000000000E+00  0.74505805969E-08  0.10566000000E+00  0.10566000000E+00 0. -1.
     999900   -1    0    0    0    0 -0.00000000000E+00 -0.00000000000E+00 -0.74505805969E-08  0.93827000000E+00  0.93827000000E+00 0.  1.
     999902    2    1    2    0    0  0.45065101851E-02  0.96678452143E-02  0.89781859442E-02  0.10299878449E+01  0.10298934785E+01 0.  0.
     999903    2    3    3    0    0 -0.70543117756E-01  0.65754956998E-01  0.92211283317E-01  0.14110879846E+00  0.45920871054E-01 0.  0.
         14    1    1    2    0    0 -0.45065101851E-02 -0.96678452143E-02 -0.89781859442E-02  0.13942155070E-01  0.00000000000E+00 0.  1.
     999901    1    3    3    0    0  0.75049627941E-01 -0.56087111784E-01 -0.83233097372E-01  0.88887904647E+00  0.88000000000E+00 0.  1.
        -11    1    4    4    0    0 -0.48389761243E-01  0.15153569391E-01  0.35230156914E-01  0.61746455247E-01  0.51100000000E-03 0. -1.
         11    1    4    4    0    0 -0.22153356513E-01  0.50601387607E-01  0.56981126402E-01  0.79362343209E-01  0.51100000000E-03 0.  1.
</event>
<event>
 8    1  0.2039519E+004  0.1043930E+01  0.7957747E-01            NaN
         13   -1    0    0    0    0  0.00000000000E+00  0.00000000000E+00  0.74505805969E-08  0.10566000000E+00  0.10566000000E+00 0.  1.
     999900   -1    0    0    0    0 -0.00000000000E+00 -0.00000000000E+00 -0.74505805969E-08  0.93827000000E+00  0.93827000000E+00 0. -1.
     999902    2    1    2    0    0  0.12247396730E-01  0.44062025193E-02 -0.41958888372E-02  0.10302545172E+01  0.10301637498E+01 0.  0.
     999903    2    3    3    0    0 -0.73079666616E-02  0.59812785389E-01  0.11822792523E+00  0.13983894459E+00  0.44114764491E-01 0.  0.
         14    1    1    2    0    0 -0.12247396730E-01 -0.44062025193E-02  0.41958888372E-02  0.13675482823E-01  0.00000000000E+00 0. -1.
     999901    1    3    3    0    0  0.19555363392E-01 -0.55406582870E-01 -0.12242381407E+00  0.89041557259E+00  0.88000000000E+00 0. -1.
        -11    1    4    4    0    0  0.14037953588E-02  0.53512353668E-01  0.59106511228E-01  0.79745742376E-01  0.51100000000E-03 0. -1.
         11    1    4    4    0    0 -0.87117620204E-02  0.63004317210E-02  0.59121414001E-01  0.60093202210E-01  0.51100000000E-03 0.  1.
</event>
<event>
 8    1  0.2039519E+004  0.1043930E+01  0.7957747E-01            NaN
         13   -1    0    0    0    0  0.00000000000E+00  0.00000000000E+00  0.74505805969E-08  0.10566000000E+00  0.10566000000E+00 0.  1.
     999900   -1    0    0    0    0 -0.00000000000E+00 -0.00000000000E+00 -0.74505805969E-08  0.93827000000E+00  0.93827000000E+00 0.  1.
     999902    2    1    2    0    0  0.14801538096E-01  0.22563853843E-02 -0.10520424720E-02  0.10289205497E+01  0.10288110682E+01 0.  0.
     999903    2    3    3    0    0 -0.12849569671E+00  0.16326633214E-01 -0.46687465870E-02  0.13721143237E+00  0.45027513279E-01 0.  0.
         14    1    1    2    0    0 -0.14801538096E-01 -0.22563853843E-02  0.10520424720E-02  0.15009450302E-01  0.00000000000E+00 0. -1.
     999901    1    3    3    0    0  0.14329723481E+00 -0.14070247829E-01  0.36167041151E-02  0.89170911733E+00  0.88000000000E+00 0. -1.
        -11    1    4    4    0    0 -0.75184310571E-01  0.29785257871E-01 -0.11935711543E-01  0.81746953910E-01  0.51100000000E-03 0. -1.
         11    1    4    4    0    0 -0.53311386143E-01 -0.13458624657E-01  0.72669649563E-02  0.55464478460E-01  0.51100000000E-03 0.  1.
</event>
<event>
 8    1  0.2039519E+004  0.1043930E+01  0.7957747E-01            NaN
         13   -1    0    0    0    0  0.00000000000E+00  0.00000000000E+00  0.74505805969E-08  0.10566000000E+00  0.10566000000E+00 0. -1.
     999900   -1    0    0    0    0 -0.00000000000E+00 -0.00000000000E+00 -0.74505805969E-08  0.93827000000E+00  0.93827000000E+00 0.  1.
     999902    2    1    2    0    0  0.47830420163E-02 -0.83114348769E-02 -0.88465357441E-02  0.10308832136E+01  0.10308006507E+01 0.  0.
     999903    2    3    3    0    0  0.70193268031E-01  0.10914873232E+00 -0.28454010499E-01  0.14045643862E+00  0.45583327985E-01 0.  0.
         14    1    1    2    0    0 -0.47830420163E-02  0.83114348769E-02  0.88465357441E-02  0.13046786398E-01  0.00000000000E+00 0. -1.
     999901    1    3    3    0    0 -0.65410226015E-01 -0.11746016720E+00  0.19607474755E-01  0.89042677499E+00  0.88000000000E+00 0. -1.
        -11    1    4    4    0    0  0.44081397972E-01  0.83450406220E-01 -0.51653387251E-03  0.94380442221E-01  0.51100000000E-03 0.  1.
         11    1    4    4    0    0  0.26111870059E-01  0.25698326104E-01 -0.27937476627E-01  0.46075996395E-01  0.51100000000E-03 0. -1.
</event>
<event>
 8    1  0.2039519E+004  0.1043930E+01  0.7957747E-01            NaN
         13   -1    0    0    0    0  0.00000000000E+00  0.00000000000E+00  0.74505805969E-08  0.10566000000E+00  0.10566000000E+00 0. -1.
     999900   -1    0    0    0    0 -0.00000000000E+00 -0.00000000000E+00 -0.74505805969E-08  0.93827000000E+00  0.93827000000E+00 0.  1.
     999902    2    1    2    0    0 -0.11239805450E-01 -0.59753925672E-02  0.61161662060E-02  0.10298074637E+01  0.10297106226E+01 0.  0.
     999903    2    3    3    0    0 -0.12529150945E+00 -0.47850240027E-01  0.16341982612E-02  0.14144864988E+00  0.44915945247E-01 0.  0.
         14    1    1    2    0    0  0.11239805450E-01  0.59753925672E-02 -0.61161662060E-02  0.14122536314E-01  0.00000000000E+00 0. -1.
     999901    1    3    3    0    0  0.11405170400E+00  0.41874847460E-01  0.44819679448E-02  0.88835881381E+00  0.88000000000E+00 0.  1.
        -11    1    4    4    0    0 -0.47989814555E-01 -0.16123986487E-03  0.13479189839E-01  0.49849754052E-01  0.51100000000E-03 0. -1.
         11    1    4    4    0    0 -0.77301694894E-01 -0.47689000162E-01 -0.11844991577E-01  0.91598895826E-01  0.51100000000E-03 0.  1.
</event>
<event>
 8    1  0.2039519E+004  0.1043930E+01  0.7957747E-01            NaN
         13   -1    0    0    0    0  0.00000000000E+00  0.00000000000E+00  0.74505805969E-08  0.10566000000E+00  0.10566000000E+00 0.  1.
     999900   -1    0    0    0    0 -0.00000000000E+00 -0.00000000000E+00 -0.74505805969E-08  0.93827000000E+00  0.93827000000E+00 0.  1.
     999902    2    1    2    0    0  0.55785277752E-02 -0.97289685506E-02  0.79702415264E-02  0.10301714553E+01  0.10300795745E+01 0.  0.
     999903    2    3    3    0    0  0.58057294764E-02 -0.13396705022E+00  0.13407119004E-02  0.14142002596E+00  0.44910457526E-01 0.  0.
         14    1    1    2    0    0 -0.55785277752E-02  0.97289685506E-02 -0.79702415264E-02  0.13758544661E-01  0.00000000000E+00 0.  1.
     999901    1    3    3    0    0 -0.22720170115E-03  0.12423808167E+00  0.66295296260E-02  0.88875142938E+00  0.88000000000E+00 0.  1.
        -11    1    4    4    0    0 -0.11529297768E-01 -0.72109377592E-01  0.17670054621E-01  0.75134406200E-01  0.51100000000E-03 0.  1.
         11    1    4    4    0    0  0.17335027244E-01 -0.61857672628E-01 -0.16329342720E-01  0.66285619762E-01  0.51100000000E-03 0. -1.
</event>
<event>
 8    1  0.2039519E+004  0.1043930E+01  0.7957747E-01            NaN
         13   -1    0    0    0    0  0.00000000000E+00  0.00000000000E+00  0.74505805969E-08  0.10566000000E+00  0.10566000000E+00 0.  1.
     999900   -1    0    0    0    0 -0.00000000000E+00 -0.00000000000E+00 -0.74505805969E-08  0.93827000000E+00  0.93827000000E+00 0.  1.
     999902    2    1    2    0    0 -0.35356960257E-02  0.63845583361E-02 -0.11813178849E-01  0.10300442186E+01  0.10299506189E+01 0.  0.
     999903    2    3    3    0    0  0.34954177302E-02 -0.42418165499E-01 -0.12719654740E+00  0.14114351311E+00  0.43943269282E-01 0.  0.
         14    1    1    2    0    0  0.35356960257E-02 -0.63845583361E-02  0.11813178849E-01  0.13885781435E-01  0.00000000000E+00 0.  1.
     999901    1    3    3    0    0 -0.70311137559E-02  0.48802723835E-01  0.11538336855E+00  0.88890070545E+00  0.88000000000E+00 0. -1.
        -11    1    4    4    0    0  0.36721320906E-02 -0.22303136183E-01 -0.14943913937E-01  0.27101588929E-01  0.51100000000E-03 0. -1.
         11    1    4    4    0    0 -0.17671436042E-03 -0.20115029316E-01 -0.11225263346E+00  0.11404192419E+00  0.51100000000E-03 0.  1.
</event>
<event>
 8    1  0.2039519E+004  0.1043930E+01  0.7957747E-01            NaN
         13   -1    0    0    0    0  0.00000000000E+00  0.00000000000E+00  0.74505805969E-08  0.10566000000E+00  0.10566000000E+00 0. -1.
     999900   -1    0    0    0    0 -0.00000000000E+00 -0.00000000000E+00 -0.74505805969E-08  0.93827000000E+00  0.93827000000E+00 0. -1.
     999902    2    1    2    0    0 -0.27184903281E-02 -0.12369359092E-01 -0.50751053148E-02  0.10302863961E+01  0.10301960542E+01 0.  0.
     999903    2    3    3    0    0  0.10781879540E+00  0.10636421695E-01 -0.76122350783E-01  0.14023276366E+00  0.46179969777E-01 0.  0.
         14    1    1    2    0    0  0.27184903281E-02  0.12369359092E-01  0.50751053148E-02  0.13643603921E-01  0.00000000000E+00 0. -1.
     999901    1    3    3    0    0 -0.11053728573E+00 -0.23005780787E-01  0.71047245468E-01  0.89005363241E+00  0.88000000000E+00 0.  1.
        -11    1    4    4    0    0  0.98911854529E-01 -0.20600237145E-02 -0.75931087561E-01  0.12471403226E+00  0.51100000000E-03 0.  1.
         11    1    4    4    0    0  0.89069408688E-02  0.12696445409E-01 -0.19126322179E-03  0.15518731401E-01  0.51100000000E-03 0. -1.
</event>
<event>
 8    1  0.2039519E+004  0.1043930E+01  0.7957747E-01            NaN
         13   -1    0    0    0    0  0.00000000000E+00  0.00000000000E+00  0.74505805969E-08  0.10566000000E+00  0.10566000000E+00 0.  1.
     999900   -1    0    0    0    0 -0.00000000000E+00 -0.00000000000E+00 -0.74505805969E-08  0.93827000000E+00  0.93827000000E+00 0. -1.
     999902    2    1    2    0    0 -0.11529835440E-01 -0.69609080911E-02 -0.29471135495E-02  0.10301431648E+01  0.10300509032E+01 0.  0.
     999903    2    3    3    0    0  0.47507828699E-01  0.82037073025E-01 -0.85858943222E-01  0.13981712455E+00  0.56480041159E-01 0.  0.
         14    1    1    2    0    0  0.11529835440E-01  0.69609080911E-02  0.29471135495E-02  0.13786835206E-01  0.00000000000E+00 0. -1.
     999901    1    3    3    0    0 -0.59037664139E-01 -0.88997981116E-01  0.82911829672E-01  0.89032604024E+00  0.88000000000E+00 0.  1.
        -11    1    4    4    0    0  0.58297029131E-01  0.76232903574E-01 -0.65988402550E-01  0.11646771907E+00  0.51100000000E-03 0. -1.
         11    1    4    4    0    0 -0.10789200432E-01  0.58041694514E-02 -0.19870540672E-01  0.23349405487E-01  0.51100000000E-03 0.  1.
</event>
<event>
 8    1  0.2039519E+004  0.1043930E+01  0.7957747E-01            NaN
         13   -1    0    0    0    0  0.00000000000E+00  0.00000000000E+00  0.74505805969E-08  0.10566000000E+00  0.10566000000E+00 0. -1.
     999900   -1    0    0    0    0 -0.00000000000E+00 -0.00000000000E+00 -0.74505805969E-08  0.93827000000E+00  0.93827000000E+00 0.  1.
     999902    2    1    2    0    0 -0.32928083359E-02  0.16119417871E-02  0.12629844045E-01  0.10307788060E+01  0.10306949078E+01 0.  0.
     999903    2    3    3    0    0 -0.37892292544E-01  0.70526266508E-01 -0.10529176815E+00  0.13957074102E+00  0.44540489518E-01 0.  0.
         14    1    1    2    0    0  0.32928083359E-02 -0.16119417871E-02 -0.12629844045E-01  0.13151194002E-01  0.00000000000E+00 0.  1.
     999901    1    3    3    0    0  0.34599484208E-01 -0.68914324721E-01  0.11792161220E+00  0.89120806498E+00  0.88000000000E+00 0. -1.
        -11    1    4    4    0    0 -0.37602304437E-01  0.27552992478E-01 -0.69255021121E-01  0.83484248604E-01  0.51100000000E-03 0.  1.
         11    1    4    4    0    0 -0.28998810623E-03  0.42973274030E-01 -0.36036747031E-01  0.56086492416E-01  0.51100000000E-03 0. -1.
</event>
<event>
 8    1  0.2039519E+004  0.1043930E+01  0.7957747E-01            NaN
         13   -1    0    0    0    0  0.00000000000E+00  0.00000000000E+00  0.74505805969E-08  0.10566000000E+00  0.10566000000E+00 0. -1.
     999900   -1    0    0    0    0 -0.00000000000E+00 -0.00000000000E+00 -0.74505805969E-08  0.93827000000E+00  0.93827000000E+00 0.  1.
     999902    2    1    2    0    0  0.91537410596E-02 -0.78134234488E-02 -0.58185274257E-02  0.10305622843E+01  0.10304755824E+01 0.  0.
     999903    2    3    3    0    0 -0.21882697155E-01  0.46158508740E-01  0.12141013068E+00  0.13923554208E+00  0.45129325089E-01 0.  0.
         14    1    1    2    0    0 -0.91537410596E-02  0.78134234488E-02  0.58185274257E-02  0.13367715690E-01  0.00000000000E+00 0. -1.
     999901    1    3    3    0    0  0.31036438215E-01 -0.53971932188E-01 -0.12722865811E+00  0.89132674223E+00  0.88000000000E+00 0. -1.
        -11    1    4    4    0    0 -0.24623523676E-01  0.60461198888E-02  0.66546725269E-01  0.71215175693E-01  0.51100000000E-03 0.  1.
         11    1    4    4    0    0  0.27408265203E-02  0.40112388851E-01  0.54863405415E-01  0.68020366392E-01  0.51100000000E-03 0. -1.
</event>
<event>
 8    1  0.2039519E+004  0.1043930E+01  0.7957747E-01            NaN
         13   -1    0    0    0    0  0.00000000000E+00  0.00000000000E+00  0.74505805969E-08  0.10566000000E+00  0.10566000000E+00 0. -1.
     999900   -1    0    0    0    0 -0.00000000000E+00 -0.00000000000E+00 -0.74505805969E-08  0.93827000000E+00  0.93827000000E+00 0. -1.
     999902    2    1    2    0    0 -0.44930740338E-02 -0.10139072785E-01 -0.82693747983E-02  0.10300963067E+01  0.10300034126E+01 0.  0.
     999903    2    3    3    0    0  0.11102216303E+00  0.33419685607E-01 -0.64049627187E-01  0.13972976869E+00  0.44488846290E-01 0.  0.
         14    1    1    2    0    0  0.44930740338E-02  0.10139072785E-01  0.82693747983E-02  0.13833693316E-01  0.00000000000E+00 0. -1.
     999901    1    3    3    0    0 -0.11551523707E+00 -0.43558758392E-01  0.55780252389E-01  0.89036653800E+00  0.88000000000E+00 0.  1.
        -11    1    4    4    0    0  0.21289363644E-01  0.11434302567E-02  0.51088473965E-02  0.21929566340E-01  0.51100000000E-03 0.  1.
         11    1    4    4    0    0  0.89732799388E-01  0.32276255350E-01 -0.69158474584E-01  0.11780020235E+00  0.51100000000E-03 0. -1.
</event>
<event>
 8    1  0.2039519E+004  0.1043930E+01  0.7957747E-01            NaN
         13   -1    0    0    0    0  0.00000000000E+00  0.00000000000E+00  0.74505805969E-08  0.10566000000E+00  0.10566000000E+00 0.  1.
     999900   -1    0    0    0    0 -0.00000000000E+00 -0.00000000000E+00 -0.74505805969E-08  0.93827000000E+00  0.93827000000E+00 0.  1.
     999902    2    1    2    0    0 -0.72534093332E-02 -0.12515180602E-01 -0.13946246186E-01  0.10238367306E+01  0.10236395418E+01 0.  0.
     999903    2    3    3    0    0 -0.69474291437E-01 -0.10816734766E+00  0.80085144386E-02  0.13619784753E+00  0.44259067964E-01 0.  0.
         14    1    1    2    0    0  0.72534093332E-02  0.12515180602E-01  0.13946246186E-01  0.20093269398E-01  0.00000000000E+00 0.  1.
     999901    1    3    3    0    0  0.62220882104E-01  0.95652167057E-01 -0.21954760624E-01  0.88763888308E+00  0.88000000000E+00 0.  1.
        -11    1    4    4    0    0 -0.25170628172E-01 -0.68876749131E-01 -0.10664610144E-01  0.74105074887E-01  0.51100000000E-03 0. -1.
         11    1    4    4    0    0 -0.44303663266E-01 -0.39290598527E-01  0.18673124582E-01  0.62092772640E-01  0.51100000000E-03 0.  1.
</event>
<event>
 8    1  0.2039519E+004  0.1043930E+01  0.7957747E-01            NaN
         13   -1    0    0    0    0  0.00000000000E+00  0.00000000000E+00  0.74505805969E-08  0.10566000000E+00  0.10566000000E+00 0.  1.
     999900   -1    0    0    0    0 -0.00000000000E+00 -0.00000000000E+00 -0.74505805969E-08  0.93827000000E+00  0.93827000000E+00 0. -1.
     999902    2    1    2    0    0  0.11153330242E-01  0.80072363824E-02 -0.21060305106E-02  0.10300394286E+01  0.10299457638E+01 0.  0.
     999903    2    3    3    0    0 -0.92960626375E-01 -0.38746777281E-01  0.83779699938E-01  0.13852273639E+00  0.45016880933E-01 0.  0.
         14    1    1    2    0    0 -0.11153330242E-01 -0.80072363824E-02  0.21060305106E-02  0.13890571424E-01  0.00000000000E+00 0. -1.
     999901    1    3    3    0    0  0.10411395662E+00  0.46754013663E-01 -0.85885730449E-01  0.89151669219E+00  0.88000000000E+00 0. -1.
        -11    1    4    4    0    0 -0.45394423047E-01 -0.33674812194E-01  0.22633873596E-01  0.60886779970E-01  0.51100000000E-03 0.  1.
         11    1    4    4    0    0 -0.47566203327E-01 -0.50719650866E-02  0.61145826342E-01  0.77635956418E-01  0.51100000000E-03 0. -1.
</event>
<event>
 8    1  0.2039519E+004  0.1043930E+01  0.7957747E-01            NaN
         13   -1    0    0    0    0  0.00000000000E+00  0.00000000000E+00  0.74505805969E-08  0.10566000000E+00  0.10566000000E+00 0. -1.
     999900   -1    0    0    0    0 -0.00000000000E+00 -0.00000000000E+00 -0.74505805969E-08  0.93827000000E+00  0.93827000000E+00 0. -1.
     999902    2    1    2    0    0  0.95754916000E-02  0.11047568173E-01  0.17366323900E-02  0.10292074087E+01  0.10291021016E+01 0.  0.
     999903    2    3    3    0    0  0.57667097352E-01  0.11530372626E+00  0.20752403946E-01  0.14154545245E+00  0.54626087481E-01 0.  0.
         14    1    1    2    0    0 -0.95754916000E-02 -0.11047568173E-01 -0.17366323900E-02  0.14722591280E-01  0.00000000000E+00 0.  1.
     999901    1    3    3    0    0 -0.48091605752E-01 -0.10425615809E+00 -0.19015771556E-01  0.88766195627E+00  0.88000000000E+00 0. -1.
        -11    1    4    4    0    0  0.55971086631E-01  0.60784346301E-01 -0.14726530549E-02  0.82643385228E-01  0.51100000000E-03 0.  1.
         11    1    4    4    0    0  0.16960107214E-02  0.54519379957E-01  0.22225057001E-01  0.58902067222E-01  0.51100000000E-03 0. -1.
</event>
<event>
 8    1  0.2039519E+004  0.1043930E+01  0.7957747E-01            NaN
         13   -1    0    0    0    0  0.00000000000E+00  0.00000000000E+00  0.74505805969E-08  0.10566000000E+00  0.10566000000E+00 0. -1.
     999900   -1    0    0    0    0 -0.00000000000E+00 -0.00000000000E+00 -0.74505805969E-08  0.93827000000E+00  0.93827000000E+00 0. -1.
     999902    2    1    2    0    0  0.14107544271E-01  0.13631791602E-02 -0.46840403354E-02  0.10290028001E+01  0.10288945239E+01 0.  0.
     999903    2    3    3    0    0  0.64479391512E-01  0.36554798905E-01  0.10897130484E+00  0.13956853577E+00  0.45943287271E-01 0.  0.
         14    1    1    2    0    0 -0.14107544271E-01 -0.13631791602E-02  0.46840403354E-02  0.14927199893E-01  0.00000000000E+00 0. -1.
     999901    1    3    3    0    0 -0.50371847241E-01 -0.35191619744E-01 -0.11365534517E+00  0.88943426434E+00  0.88000000000E+00 0. -1.
        -11    1    4    4    0    0  0.11296519554E-01  0.16529147862E-02 -0.20525103201E-02  0.11611089567E-01  0.51100000000E-03 0. -1.
         11    1    4    4    0    0  0.53182871959E-01  0.34901884118E-01  0.11102381516E+00  0.12795744620E+00  0.51100000000E-03 0.  1.
</event>
<event>
 8    1  0.2039519E+004  0.1043930E+01  0.7957747E-01            NaN
         13   -1    0    0    0    0  0.00000000000E+00  0.00000000000E+00  0.74505805969E-08  0.10566000000E+00  0.10566000000E+00 0. -1.
     999900   -1    0    0    0    0 -0.00000000000E+00 -0.00000000000E+00 -0.74505805969E-08  0.93827000000E+00  0.93827000000E+00 0.  1.
     999902    2    1    2    0    0 -0.22008441089E-02 -0.75771968478E-02  0.11019822594E-01  0.10303766197E+01  0.10302874766E+01 0.  0.
     999903    2    3    3    0    0 -0.93989934438E-01 -0.66970668729E-01 -0.66074071826E-01  0.14026635118E+00  0.44605919577E-01 0.  0.
         14    1    1    2    0    0  0.22008441089E-02  0.75771968478E-02 -0.11019822594E-01  0.13553380274E-01  0.00000000000E+00 0. -1.
     999901    1    3    3    0    0  0.91789090329E-01  0.59393471881E-01  0.77093894420E-01  0.89011026854E+00  0.88000000000E+00 0. -1.
        -11    1    4    4    0    0 -0.56582996872E-01 -0.34862443337E-01 -0.12805187034E-01  0.67685001488E-01  0.51100000000E-03 0.  1.
         11    1    4    4    0    0 -0.37406937566E-01 -0.32108225392E-01 -0.53268884791E-01  0.72581349697E-01  0.51100000000E-03 0. -1.
</event>
<event>
 8    1  0.2039519E+004  0.1043930E+01  0.7957747E-01            NaN
         13   -1    0    0    0    0  0.00000000000E+00  0.00000000000E+00  0.74505805969E-08  0.10566000000E+00  0.10566000000E+00 0.  1.
     999900   -1    0    0    0    0 -0.00000000000E+00 -0.00000000000E+00 -0.74505805969E-08  0.93827000000E+00  0.93827000000E+00 0. -1.
     999902    2    1    2    0    0 -0.32696362560E-02  0.13088291027E-01  0.42594287941E-02  0.10297830351E+01  0.10296858563E+01 0.  0.
     999903    2    3    3    0    0 -0.12183356095E+00 -0.49912180579E-01  0.10661267865E-01  0.13957662798E+00  0.45092461710E-01 0.  0.
         14    1    1    2    0    0  0.32696362560E-02 -0.13088291027E-01 -0.42594287941E-02  0.14146964936E-01  0.00000000000E+00 0. -1.
     999901    1    3    3    0    0  0.11856392469E+00  0.63000471606E-01 -0.64018390712E-02  0.89020640708E+00  0.88000000000E+00 0. -1.
        -11    1    4    4    0    0 -0.11228094486E+00 -0.52181801181E-01 -0.16437300978E-02  0.12382614393E+00  0.51100000000E-03 0.  1.
         11    1    4    4    0    0 -0.95526160947E-02  0.22696206020E-02  0.12304997963E-01  0.15750484050E-01  0.51100000000E-03 0. -1.
</event>
<event>
 8    1  0.2039519E+004  0.1043930E+01  0.7957747E-01            NaN
         13   -1    0    0    0    0  0.00000000000E+00  0.00000000000E+00  0.74505805969E-08  0.10566000000E+00  0.10566000000E+00 0. -1.
     999900   -1    0    0    0    0 -0.00000000000E+00 -0.00000000000E+00 -0.74505805969E-08  0.93827000000E+00  0.93827000000E+00 0.  1.
     999902    2    1    2    0    0 -0.98074886095E-02 -0.11892505707E-01  0.87026598588E-03  0.10284905736E+01  0.10283746808E+01 0.  0.
     999903    2    3    3    0    0 -0.13131860718E+00  0.24291454098E-02  0.16612199426E-01  0.13988612273E+00  0.45185006619E-01 0.  0.
         14    1    1    2    0    0  0.98074886095E-02  0.11892505707E-01 -0.87026598588E-03  0.15439426404E-01  0.00000000000E+00 0. -1.
     999901    1    3    3    0    0  0.12151111857E+00 -0.14321651116E-01 -0.15741933440E-01  0.88860445086E+00  0.88000000000E+00 0.  1.
        -11    1    4    4    0    0 -0.93867493959E-01  0.10416226941E-01 -0.73170784608E-02  0.94728057955E-01  0.51100000000E-03 0.  1.
         11    1    4    4    0    0 -0.37451113224E-01 -0.79870815316E-02  0.23929277887E-01  0.45158064776E-01  0.51100000000E-03 0. -1.
</event>
<event>
 8    1  0.2039519E+004  0.1043930E+01  0.7957747E-01            NaN
         13   -1    0    0    0    0  0.00000000000E+00  0.00000000000E+00  0.74505805969E-08  0.10566000000E+00  0.10566000000E+00 0.  1.
     999900   -1    0    0    0    0 -0.00000000000E+00 -0.00000000000E+00 -0.74505805969E-08  0.93827000000E+00  0.93827000000E+00 0. -1.
     999902    2    1    2    0    0 -0.28856218368E-02  0.11367698300E-01  0.35870844981E-02  0.10316654758E+01  0.10315925724E+01 0.  0.
     999903    2    3    3    0    0  0.28524961724E-01  0.71193058651E-01 -0.11063439216E+00  0.14171477819E+00  0.44283005626E-01 0.  0.
         14    1    1    2    0    0  0.28856218368E-02 -0.11367698300E-01 -0.35870844981E-02  0.12264524175E-01  0.00000000000E+00 0. -1.
     999901    1    3    3    0    0 -0.31410583561E-01 -0.59825360350E-01  0.11422147665E+00  0.88995069764E+00  0.88000000000E+00 0.  1.
        -11    1    4    4    0    0 -0.83797913079E-03  0.38771253803E-01 -0.26765167519E-01  0.47122687146E-01  0.51100000000E-03 0.  1.
         11    1    4    4    0    0  0.29362940855E-01  0.32421804847E-01 -0.83869224637E-01  0.94592091040E-01  0.51100000000E-03 0. -1.
</event>
<event>
 8    1  0.2039519E+004  0.1043930E+01  0.7957747E-01            NaN
         13   -1    0    0    0    0  0.00000000000E+00  0.00000000000E+00  0.74505805969E-08  0.10566000000E+00  0.10566000000E+00 0. -1.
     999900   -1    0    0    0    0 -0.00000000000E+00 -0.00000000000E+00 -0.74505805969E-08  0.93827000000E+00  0.93827000000E+00 0. -1.
     999902    2    1    2    0    0  0.12090312141E-01 -0.55092050413E-02 -0.45286519696E-02  0.10298930603E+01  0.10297973975E+01 0.  0.
     999903    2    3    3    0    0  0.12061148130E+00 -0.57662310226E-01  0.12802286267E-01  0.14152537067E+00  0.44648186609E-01 0.  0.
         14    1    1    2    0    0 -0.12090312141E-01  0.55092050413E-02  0.45286519696E-02  0.14036939713E-01  0.00000000000E+00 0.  1.
     999901    1    3    3    0    0 -0.10852116916E+00  0.52153105185E-01 -0.17330938237E-01  0.88836768962E+00  0.88000000000E+00 0.  1.
        -11    1    4    4    0    0  0.85066644660E-01 -0.38792761377E-01 -0.11981200604E-01  0.94260398142E-01  0.51100000000E-03 0. -1.
         11    1    4    4    0    0  0.35544836640E-01 -0.18869548849E-01  0.24783486871E-01  0.47264972527E-01  0.51100000000E-03 0.  1.
</event>
<event>
 7    1  0.2039519E+004  0.1043930E+01  0.7957747E-01            NaN
         13   -1    0    0    0    0  0.00000000000E+00  0.00000000000E+00  0.74505805969E-08  0.10566000000E+00  0.10566000000E+00 0.  1.
     999900   -1    0    0    0    0 -0.00000000000E+00 -0.00000000000E+00 -0.74505805969E-08  0.93827000000E+00  0.93827000000E+00 0.  1.
     999903    2    1    2    0    0 -0.88372032251E-01 -0.19906388262E-01  0.13317482363E-01  0.10226435818E+00  0.45549569029E-01 0.  0.
         14    1    1    2    0    0 -0.46154587854E-01 -0.17562960205E-01 -0.11265277439E-01  0.50651851170E-01  0.00000000000E+00 0.  1.
     999901    1    1    2    0    0  0.13452662011E+00  0.37469348467E-01 -0.20522049239E-02  0.89101379065E+00  0.88000000000E+00 0.  1.
        -11    1    3    3    0    0 -0.27391166457E-01 -0.23225457884E-01 -0.93618876997E-02  0.37116087565E-01  0.51100000000E-03 0. -1.
         11    1    3    3    0    0 -0.60980865794E-01  0.33190696218E-02  0.22679370063E-01  0.65148270611E-01  0.51100000000E-03 0.  1.
</event>
<event>
 8    1  0.2039519E+004  0.1043930E+01  0.7957747E-01            NaN
         13   -1    0    0    0    0  0.00000000000E+00  0.00000000000E+00  0.74505805969E-08  0.10566000000E+00  0.10566000000E+00 0.  1.
     999900   -1    0    0    0    0 -0.00000000000E+00 -0.00000000000E+00 -0.74505805969E-08  0.93827000000E+00  0.93827000000E+00 0. -1.
     999902    2    1    2    0    0  0.23992945673E-02 -0.69330377236E-02  0.11367412331E-01  0.10304007099E+01  0.10303118855E+01 0.  0.
     999903    2    3    3    0    0 -0.32261161625E-01  0.10551873088E+00 -0.72257285121E-01  0.13863850088E+00  0.42714559068E-01 0.  0.
         14    1    1    2    0    0 -0.23992945673E-02  0.69330377236E-02 -0.11367412331E-01  0.13529290063E-01  0.00000000000E+00 0. -1.
     999901    1    3    3    0    0  0.34660456192E-01 -0.11245176860E+00  0.83624697452E-01  0.89176220906E+00  0.88000000000E+00 0.  1.
        -11    1    4    4    0    0 -0.26563920784E-02  0.67079700761E-01 -0.27237966298E-01  0.72449365782E-01  0.51100000000E-03 0. -1.
         11    1    4    4    0    0 -0.29604769547E-01  0.38439030118E-01 -0.45019318822E-01  0.66189135095E-01  0.51100000000E-03 0.  1.
</event>
<event>
 8    1  0.2039519E+004  0.1043930E+01  0.7957747E-01            NaN
         13   -1    0    0    0    0  0.00000000000E+00  0.00000000000E+00  0.74505805969E-08  0.10566000000E+00  0.10566000000E+00 0.  1.
     999900   -1    0    0    0    0 -0.00000000000E+00 -0.00000000000E+00 -0.74505805969E-08  0.93827000000E+00  0.93827000000E+00 0.  1.
     999902    2    1    2    0    0 -0.58406290344E-02  0.85780795810E-02 -0.83273228806E-02  0.10306243357E+01  0.10305384421E+01 0.  0.
     999903    2    3    3    0    0  0.99448263093E-01 -0.30026417022E-01 -0.83181062532E-01  0.14035519642E+00  0.44597637240E-01 0.  0.
         14    1    1    2    0    0  0.58406290344E-02 -0.85780795810E-02  0.83273228806E-02  0.13305664327E-01  0.00000000000E+00 0.  1.
     999901    1    3    3    0    0 -0.10528889213E+00  0.38604496603E-01  0.74853739652E-01  0.89026913925E+00  0.88000000000E+00 0. -1.
        -11    1    4    4    0    0  0.35473727352E-01 -0.27286783680E-01 -0.53565576225E-01  0.69803194577E-01  0.51100000000E-03 0. -1.
         11    1    4    4    0    0  0.63974535741E-01 -0.27396333413E-02 -0.29615486307E-01  0.70552001845E-01  0.51100000000E-03 0.  1.
</event>
<event>
 8    1  0.2039519E+004  0.1043930E+01  0.7957747E-01            NaN
         13   -1    0    0    0    0  0.00000000000E+00  0.00000000000E+00  0.74505805969E-08  0.10566000000E+00  0.10566000000E+00 0. -1.
     999900   -1    0    0    0    0 -0.00000000000E+00 -0.00000000000E+00 -0.74505805969E-08  0.93827000000E+00  0.93827000000E+00 0. -1.
     999902    2    1    2    0    0 -0.97318347810E-03 -0.11175309206E-02  0.13797506276E-01  0.10300531437E+01  0.10299596651E+01 0.  0.
     999903    2    3    3    0    0  0.33543519430E-01  0.65894425109E-01  0.11322555166E+00  0.14125173661E+00  0.40801771907E-01 0.  0.
         14    1    1    2    0    0  0.97318347810E-03  0.11175309206E-02 -0.13797506276E-01  0.13876856303E-01  0.00000000000E+00 0.  1.
     999901    1    3    3    0    0 -0.34516702908E-01 -0.67011956030E-01 -0.99428045383E-01  0.88880140709E+00  0.88000000000E+00 0. -1.
        -11    1    4    4    0    0  0.16485058441E-01  0.37452653325E-01  0.27425095565E-01  0.49263123944E-01  0.51100000000E-03 0. -1.
         11    1    4    4    0    0  0.17058460990E-01  0.28441771784E-01  0.85800456093E-01  0.91988612666E-01  0.51100000000E-03 0.  1.
</event>
<event>
 8    1  0.2039519E+004  0.1043930E+01  0.7957747E-01            NaN
         13   -1    0    0    0    0  0.00000000000E+00  0.00000000000E+00  0.74505805969E-08  0.10566000000E+00  0.10566000000E+00 0. -1.
     999900   -1    0    0    0    0 -0.00000000000E+00 -0.00000000000E+00 -0.74505805969E-08  0.93827000000E+00  0.93827000000E+00 0.  1.
     999902    2    1    2    0    0 -0.16316136796E-02  0.72298993555E-02 -0.11860043003E-01  0.10299444994E+01  0.10298495412E+01 0.  0.
     999903    2    3    3    0    0 -0.88155242837E-02  0.23850490319E-01 -0.13197311031E+00  0.14160053358E+00  0.44578581259E-01 0.  0.
         14    1    1    2    0    0  0.16316136796E-02 -0.72298993555E-02  0.11860043003E-01  0.13985500632E-01  0.00000000000E+00 0. -1.
     999901    1    3    3    0    0  0.71839106041E-02 -0.16620590964E-01  0.12011306731E+00  0.88834396579E+00  0.88000000000E+00 0. -1.
        -11    1    4    4    0    0  0.12410680954E-01  0.58341522176E-02 -0.91195526293E-01  0.92222272097E-01  0.51100000000E-03 0.  1.
         11    1    4    4    0    0 -0.21226205238E-01  0.18016338102E-01 -0.40777584020E-01  0.49378261481E-01  0.51100000000E-03 0. -1.
</event>
<event>
 8    1  0.2039519E+004  0.1043930E+01  0.7957747E-01            NaN
         13   -1    0    0    0    0  0.00000000000E+00  0.00000000000E+00  0.74505805969E-08  0.10566000000E+00  0.10566000000E+00 0.  1.
     999900   -1    0    0    0    0 -0.00000000000E+00 -0.00000000000E+00 -0.74505805969E-08  0.93827000000E+00  0.93827000000E+00 0.  1.
     999902    2    1    2    0    0 -0.71018958146E-02  0.11936766946E-01  0.75094752716E-02  0.10281402708E+01  0.10280190178E+01 0.  0.
     999903    2    3    3    0    0 -0.10312263237E+00  0.64678246624E-01  0.52786547169E-01  0.14019226626E+00  0.45275811028E-01 0.  0.
         14    1    1    2    0    0  0.71018958146E-02 -0.11936766946E-01 -0.75094752716E-02  0.15789729198E-01  0.00000000000E+00 0. -1.
     999901    1    3    3    0    0  0.96020736556E-01 -0.52741479678E-01 -0.45277071897E-01  0.88794800454E+00  0.88000000000E+00 0. -1.
        -11    1    4    4    0    0 -0.11222802243E-01  0.66654852909E-02 -0.83431772465E-02  0.15499990707E-01  0.51100000000E-03 0.  1.
         11    1    4    4    0    0 -0.91899830127E-01  0.58012761333E-01  0.61129724415E-01  0.12469227555E+00  0.51100000000E-03 0. -1.
</event>
<event>
 8    1  0.2039519E+004  0.1043930E+01  0.7957747E-01            NaN
         13   -1    0    0    0    0  0.00000000000E+00  0.00000000000E+00  0.74505805969E-08  0.10566000000E+00  0.10566000000E+00 0.  1.
     999900   -1    0    0    0    0 -0.00000000000E+00 -0.00000000000E+00 -0.74505805969E-08  0.93827000000E+00  0.93827000000E+00 0. -1.
     999902    2    1    2    0    0  0.34345243347E-02  0.11435388686E-01  0.64191226937E-02  0.10303738498E+01  0.10302846700E+01 0.  0.
     999903    2    3    3    0    0  0.45830393523E-02  0.50187673589E-01 -0.12251391212E+00  0.14013411461E+00  0.45695782995E-01 0.  0.
         14    1    1    2    0    0 -0.34345243347E-02 -0.11435388686E-01 -0.64191226937E-02  0.13556150189E-01  0.00000000000E+00 0. -1.
     999901    1    3    3    0    0 -0.11485150176E-02 -0.38752284904E-01  0.12893303481E+00  0.89023973521E+00  0.88000000000E+00 0.  1.
        -11    1    4    4    0    0 -0.61288697081E-02 -0.31259849283E-02 -0.44530171531E-01  0.45061426112E-01  0.51100000000E-03 0. -1.
         11    1    4    4    0    0  0.10711909060E-01  0.53313658518E-01 -0.77983740588E-01  0.95072688493E-01  0.51100000000E-03 0.  1.
</event>
<event>
 8    1  0.2039519E+004  0.1043930E+01  0.7957747E-01            NaN
         13   -1    0    0    0    0  0.00000000000E+00  0.00000000000E+00  0.74505805969E-08  0.10566000000E+00  0.10566000000E+00 0. -1.
     999900   -1    0    0    0    0 -0.00000000000E+00 -0.00000000000E+00 -0.74505805969E-08  0.93827000000E+00  0.93827000000E+00 0. -1.
     999902    2    1    2    0    0  0.12232319800E-01 -0.21142762049E-01 -0.28178279436E-02  0.10193416656E+01  0.10190450653E+01 0.  0.
     999903    2    3    3    0    0 -0.80893435318E-01  0.39713107133E-01 -0.80666609619E-01  0.12892812353E+00  0.44659605606E-01 0.  0.
         14    1    1    2    0    0 -0.12232319800E-01  0.21142762049E-01  0.28178279436E-02  0.24588334411E-01  0.00000000000E+00 0. -1.
     999901    1    3    3    0    0  0.93125755119E-01 -0.60855869183E-01  0.77848781675E-01  0.89041354206E+00  0.88000000000E+00 0. -1.
        -11    1    4    4    0    0 -0.38264141231E-01 -0.44122552607E-02 -0.23855799135E-01  0.45309742595E-01  0.51100000000E-03 0. -1.
         11    1    4    4    0    0 -0.42629294087E-01  0.44125362394E-01 -0.56810810484E-01  0.83618380932E-01  0.51100000000E-03 0.  1.
</event>
<event>
 8    1  0.2039519E+004  0.1043930E+01  0.7957747E-01            NaN
         13   -1    0    0    0    0  0.00000000000E+00  0.00000000000E+00  0.74505805969E-08  0.10566000000E+00  0.10566000000E+00 0. -1.
     999900   -1    0    0    0    0 -0.00000000000E+00 -0.00000000000E+00 -0.74505805969E-08  0.93827000000E+00  0.93827000000E+00 0.  1.
     999902    2    1    2    0    0  0.82782736483E-02  0.11540656820E-01 -0.14684196161E-02  0.10296515957E+01  0.10295525900E+01 0.  0.
     999903    2    3    3    0    0  0.31159219955E-01 -0.10209834208E+00 -0.76182048557E-01  0.13891061977E+00  0.45798333136E-01 0.  0.
         14    1    1    2    0    0 -0.82782736483E-02 -0.11540656820E-01  0.14684196161E-02  0.14278404344E-01  0.00000000000E+00 0.  1.
     999901    1    3    3    0    0 -0.22880946307E-01  0.11363899890E+00  0.74713628941E-01  0.89074097589E+00  0.88000000000E+00 0. -1.
        -11    1    4    4    0    0  0.27313656446E-01 -0.10102070095E+00 -0.81214231141E-01  0.13246595906E+00  0.51100000000E-03 0.  1.
         11    1    4    4    0    0  0.38455635089E-02 -0.10776411344E-02  0.50321825838E-02  0.64446607104E-02  0.51100000000E-03 0. -1.
</event>
<event>
 8    1  0.2039519E+004  0.1043930E+01  0.7957747E-01            NaN
         13   -1    0    0    0    0  0.00000000000E+00  0.00000000000E+00  0.74505805969E-08  0.10566000000E+00  0.10566000000E+00 0. -1.
     999900   -1    0    0    0    0 -0.00000000000E+00 -0.00000000000E+00 -0.74505805969E-08  0.93827000000E+00  0.93827000000E+00 0. -1.
     999902    2    1    2    0    0 -0.31090500188E-02  0.88783534152E-02  0.10739800054E-01  0.10296529325E+01  0.10295539455E+01 0.  0.
     999903    2    3    3    0    0  0.25193021809E-01 -0.49386394118E-01 -0.11794759506E+00  0.13793760026E+00  0.45182320822E-01 0.  0.
         14    1    1    2    0    0  0.31090500188E-02 -0.88783534152E-02 -0.10739800054E-01  0.14277067507E-01  0.00000000000E+00 0.  1.
     999901    1    3    3    0    0 -0.28302071828E-01  0.58264747533E-01  0.12868739511E+00  0.89171533223E+00  0.88000000000E+00 0.  1.
        -11    1    4    4    0    0 -0.25401519779E-02 -0.14862178155E-01 -0.74086665875E-01  0.75607088907E-01  0.51100000000E-03 0. -1.
         11    1    4    4    0    0  0.27733173787E-01 -0.34524215963E-01 -0.43860929182E-01  0.62330511356E-01  0.51100000000E-03 0.  1.
</event>
<event>
 8    1  0.2039519E+004  0.1043930E+01  0.7957747E-01            NaN
         13   -1    0    0    0    0  0.00000000000E+00  0.00000000000E+00  0.74505805969E-08  0.10566000000E+00  0.10566000000E+00 0. -1.
     999900   -1    0    0    0    0 -0.00000000000E+00 -0.00000000000E+00 -0.74505805969E-08  0.93827000000E+00  0.93827000000E+00 0.  1.
     999902    2    1    2    0    0 -0.10058699897E-01  0.17912935224E-02 -0.75587448097E-02  0.10312209167E+01  0.10311425984E+01 0.  0.
     999903    2    3    3    0    0  0.12375260959E+00 -0.18432567098E-01 -0.42251158250E-01  0.14020013428E+00  0.47079181914E-01 0.  0.
         14    1    1    2    0    0  0.10058699897E-01 -0.17912935224E-02  0.75587448097E-02  0.12709083334E-01  0.00000000000E+00 0. -1.
     999901    1    3    3    0    0 -0.13381130949E+00  0.20223860620E-01  0.34692413440E-01  0.89102078238E+00  0.88000000000E+00 0. -1.
        -11    1    4    4    0    0  0.96470286448E-01 -0.33974585805E-01 -0.32332401586E-01  0.10726804725E+00  0.51100000000E-03 0.  1.
         11    1    4    4    0    0  0.27282323142E-01  0.15542018707E-01 -0.99187566636E-02  0.32932087032E-01  0.51100000000E-03 0. -1.
</event>
<event>
 8    1  0.2039519E+004  0.1043930E+01  0.7957747E-01            NaN
         13   -1    0    0    0    0  0.00000000000E+00  0.00000000000E+00  0.74505805969E-08  0.10566000000E+00  0.10566000000E+00 0.  1.
     999900   -1    0    0    0    0 -0.00000000000E+00 -0.00000000000E+00 -0.74505805969E-08  0.93827000000E+00  0.93827000000E+00 0.  1.
     999902    2    1    2    0    0  0.11369131889E-01  0.16934868770E-02  0.88235545895E-02  0.10294393074E+01  0.10293373147E+01 0.  0.
     999903    2    3    3    0    0 -0.14696591506E-01 -0.11014931795E+00 -0.69514099380E-01  0.13852684086E+00  0.44817558827E-01 0.  0.
         14    1    1    2    0    0 -0.11369131889E-01 -0.16934868770E-02 -0.88235545895E-02  0.14490692644E-01  0.00000000000E+00 0.  1.
     999901    1    3    3    0    0  0.26065723395E-01  0.11184280483E+00  0.78337653969E-01  0.89091246650E+00  0.88000000000E+00 0. -1.
        -11    1    4    4    0    0 -0.65882141130E-02 -0.11140089104E+00 -0.64401083243E-01  0.12884612425E+00  0.51100000000E-03 0.  1.
         11    1    4    4    0    0 -0.81083773929E-02  0.12515730881E-02 -0.51130161365E-02  0.96807166136E-02  0.51100000000E-03 0. -1.
</event>
<event>
 8    1  0.2145676E+004  0.1043930E+01  0.7957747E-01            NaN
         13   -1    0    0    0    0  0.00000000000E+00  0.00000000000E+00  0.74505805969E-08  0.10566000000E+00  0.10566000000E+00 0. -1.
     999900   -1    0    0    0    0 -0.00000000000E+00 -0.00000000000E+00 -0.74505805969E-08  0.93827000000E+00  0.93827000000E+00 0. -1.
     999902    2    1    2    0    0  0.16443548947E-02 -0.15850527986E-01 -0.62595960893E-02  0.10268090864E+01  0.10266663402E+01 0.  0.
     999903    2    3    3    0    0  0.12679123293E+00 -0.98272726425E-02 -0.27697772421E-01  0.13767601641E+00  0.44887936700E-01 0.  0.
         14    1    1    2    0    0 -0.16443548947E-02  0.15850527986E-01  0.62595960893E-02  0.17120913634E-01  0.00000000000E+00 0. -1.
     999901    1    3    3    0    0 -0.12514687804E+00 -0.60232553438E-02  0.21438176331E-01  0.88913306996E+00  0.88000000000E+00 0. -1.
        -11    1    4    4    0    0  0.61444628131E-01 -0.27265802394E-01 -0.13505367313E-01  0.68567648155E-01  0.51100000000E-03 0. -1.
         11    1    4    4    0    0  0.65346604801E-01  0.17438529751E-01 -0.14192405108E-01  0.69108368253E-01  0.51100000000E-03 0.  1.
</event>
<event>
 8    1  0.2039519E+004  0.1043930E+01  0.7957747E-01            NaN
         13   -1    0    0    0    0  0.00000000000E+00  0.00000000000E+00  0.74505805969E-08  0.10566000000E+00  0.10566000000E+00 0.  1.
     999900   -1    0    0    0    0 -0.00000000000E+00 -0.00000000000E+00 -0.74505805969E-08  0.93827000000E+00  0.93827000000E+00 0.  1.
     999902    2    1    2    0    0  0.13084435505E-01  0.41956671376E-02  0.43744400314E-03  0.10301823663E+01  0.10300906321E+01 0.  0.
     999903    2    3    3    0    0 -0.67214905924E-01  0.97050377615E-02 -0.11369609780E+00  0.13916900906E+00  0.42768903336E-01 0.  0.
         14    1    1    2    0    0 -0.13084435505E-01 -0.41956671376E-02 -0.43744400314E-03  0.13747633705E-01  0.00000000000E+00 0. -1.
     999901    1    3    3    0    0  0.80299341430E-01 -0.55093706239E-02  0.11413354180E+00  0.89101335723E+00  0.88000000000E+00 0.  1.
        -11    1    4    4    0    0 -0.66450963113E-01  0.11523186455E-01 -0.76775450689E-01  0.10219219772E+00  0.51100000000E-03 0.  1.
         11    1    4    4    0    0 -0.76394281105E-03 -0.18181486935E-02 -0.36920647111E-01  0.36976811347E-01  0.51100000000E-03 0. -1.
</event>
<event>
 8    1  0.2039519E+004  0.1043930E+01  0.7957747E-01            NaN
         13   -1    0    0    0    0  0.00000000000E+00  0.00000000000E+00  0.74505805969E-08  0.10566000000E+00  0.10566000000E+00 0.  1.
     999900   -1    0    0    0    0 -0.00000000000E+00 -0.00000000000E+00 -0.74505805969E-08  0.93827000000E+00  0.93827000000E+00 0.  1.
     999902    2    1    2    0    0 -0.27566118810E-02 -0.14045392062E-01  0.19869154030E-02  0.10294794021E+01  0.10293779770E+01 0.  0.
     999903    2    3    3    0    0 -0.12232509675E+00  0.46339983371E-01 -0.13230314666E-01  0.13921282390E+00  0.45764022533E-01 0.  0.
         14    1    1    2    0    0  0.27566118810E-02  0.14045392062E-01 -0.19869154030E-02  0.14450597914E-01  0.00000000000E+00 0.  1.
     999901    1    3    3    0    0  0.11956848487E+00 -0.60385375433E-01  0.15217230069E-01  0.89026657818E+00  0.88000000000E+00 0. -1.
        -11    1    4    4    0    0 -0.11409691895E+00  0.54601266256E-01 -0.90402048844E-02  0.12681242690E+00  0.51100000000E-03 0.  1.
         11    1    4    4    0    0 -0.82281778030E-02 -0.82612828852E-02 -0.41901097818E-02  0.12400397004E-01  0.51100000000E-03 0. -1.
</event>
<event>
 7    1  0.2039519E+004  0.1043930E+01  0.7957747E-01            NaN
         13   -1    0    0    0    0  0.00000000000E+00  0.00000000000E+00  0.74505805969E-08  0.10566000000E+00  0.10566000000E+00 0. -1.
     999900   -1    0    0    0    0 -0.00000000000E+00 -0.00000000000E+00 -0.74505805969E-08  0.93827000000E+00  0.93827000000E+00 0. -1.
     999903    2    1    2    0    0 -0.54722569890E-01 -0.51461267662E-01 -0.82397281108E-01  0.12141372857E+00  0.48053718130E-01 0.  0.
         14    1    1    2    0    0 -0.15503453552E-02 -0.32952379259E-01  0.20932361851E-02  0.33055173683E-01  0.00000000000E+00 0. -1.
     999901    1    1    2    0    0  0.56272915245E-01  0.84413646920E-01  0.80304044923E-01  0.88946109775E+00  0.88000000000E+00 0. -1.
        -11    1    3    3    0    0 -0.34693728660E-01 -0.21561627575E-02 -0.23118869789E-01  0.41749815658E-01  0.51100000000E-03 0. -1.
         11    1    3    3    0    0 -0.20028841230E-01 -0.49305104904E-01 -0.59278411319E-01  0.79663912910E-01  0.51100000000E-03 0.  1.
</event>
<event>
 8    1  0.2039519E+004  0.1043930E+01  0.7957747E-01            NaN
         13   -1    0    0    0    0  0.00000000000E+00  0.00000000000E+00  0.74505805969E-08  0.10566000000E+00  0.10566000000E+00 0.  1.
     999900   -1    0    0    0    0 -0.00000000000E+00 -0.00000000000E+00 -0.74505805969E-08  0.93827000000E+00  0.93827000000E+00 0. -1.
     999902    2    1    2    0    0 -0.15240884009E-02  0.99249074076E-02  0.75491133366E-02  0.10313675263E+01  0.10312910155E+01 0.  0.
     999903    2    3    3    0    0  0.66558935648E-01  0.48774628618E-01  0.10687076867E+00  0.14231781444E+00  0.44988251779E-01 0.  0.
         14    1    1    2    0    0  0.15240884009E-02 -0.99249074076E-02 -0.75491133366E-02  0.12562473669E-01  0.00000000000E+00 0.  1.
     999901    1    3    3    0    0 -0.68083024049E-01 -0.38849721210E-01 -0.99321655335E-01  0.88904971189E+00  0.88000000000E+00 0. -1.
        -11    1    4    4    0    0  0.22808906005E-01  0.35931233302E-01  0.76459866902E-01  0.87508125837E-01  0.51100000000E-03 0. -1.
         11    1    4    4    0    0  0.43750029643E-01  0.12843395315E-01  0.30410901770E-01  0.54809688600E-01  0.51100000000E-03 0.  1.
</event>
<event>
 7    1  0.2039519E+004  0.1043930E+01  0.7957747E-01            NaN
         13   -1    0    0    0    0  0.00000000000E+00  0.00000000000E+00  0.74505805969E-08  0.10566000000E+00  0.10566000000E+00 0. -1.
     999900   -1    0    0    0    0 -0.00000000000E+00 -0.00000000000E+00 -0.74505805969E-08  0.93827000000E+00  0.93827000000E+00 0.  1.
     999903    2    1    2    0    0  0.82778135786E-01  0.13025379328E-01 -0.80465440181E-01  0.12436528162E+00  0.44386438676E-01 0.  0.
         14    1    1    2    0    0 -0.16371618634E-01  0.97760233666E-02  0.29719642072E-01  0.35310871618E-01  0.00000000000E+00 0. -1.
     999901    1    1    2    0    0 -0.66406517152E-01 -0.22801402695E-01  0.50745798109E-01  0.88425384676E+00  0.88000000000E+00 0. -1.
        -11    1    3    3    0    0  0.37284826232E-01 -0.91771584016E-03 -0.63880992013E-01  0.73973256864E-01  0.51100000000E-03 0.  1.
         11    1    3    3    0    0  0.45493309555E-01  0.13943095169E-01 -0.16584448168E-01  0.50392024757E-01  0.51100000000E-03 0. -1.
</event>
<event>
 8    1  0.2039519E+004  0.1043930E+01  0.7957747E-01            NaN
         13   -1    0    0    0    0  0.00000000000E+00  0.00000000000E+00  0.74505805969E-08  0.10566000000E+00  0.10566000000E+00 0. -1.
     999900   -1    0    0    0    0 -0.00000000000E+00 -0.00000000000E+00 -0.74505805969E-08  0.93827000000E+00  0.93827000000E+00 0. -1.
     999902    2    1    2    0    0  0.13555877950E-01  0.17611351391E-03  0.35732567930E-02  0.10299099783E+01  0.10298145476E+01 0.  0.
     999903    2    3    3    0    0  0.43803213239E-01 -0.44439675250E-02 -0.12443468847E+00  0.14012220562E+00  0.47029463930E-01 0.  0.
         14    1    1    2    0    0 -0.13555877950E-01 -0.17611351391E-03 -0.35732567930E-02  0.14020021650E-01  0.00000000000E+00 0.  1.
     999901    1    3    3    0    0 -0.30247335289E-01  0.46200810389E-02  0.12800794526E+00  0.88978777272E+00  0.88000000000E+00 0.  1.
        -11    1    4    4    0    0 -0.14694583582E-02  0.53050599490E-02 -0.62716449783E-01  0.62959647103E-01  0.51100000000E-03 0.  1.
         11    1    4    4    0    0  0.45272671597E-01 -0.97490274740E-02 -0.61718238686E-01  0.77162558522E-01  0.51100000000E-03 0. -1.
</event>
<event>
 8    1  0.2039519E+004  0.1043930E+01  0.7957747E-01            NaN
         13   -1    0    0    0    0  0.00000000000E+00  0.00000000000E+00  0.74505805969E-08  0.10566000000E+00  0.10566000000E+00 0.  1.
     999900   -1    0    0    0    0 -0.00000000000E+00 -0.00000000000E+00 -0.74505805969E-08  0.93827000000E+00  0.93827000000E+00 0.  1.
     999902    2    1    2    0    0 -0.15274989837E-02  0.13784019514E-01  0.39711782801E-02  0.10295042347E+01  0.10294031604E+01 0.  0.
     999903    2    3    3    0    0 -0.70824121853E-01 -0.10657633034E+00  0.24998795940E-01  0.13836406815E+00  0.46315279675E-01 0.  0.
         14    1    1    2    0    0  0.15274989837E-02 -0.13784019514E-01 -0.39711782801E-02  0.14425765285E-01  0.00000000000E+00 0.  1.
     999901    1    3    3    0    0  0.69296622869E-01  0.12036034986E+00 -0.21027617660E-01  0.89114016656E+00  0.88000000000E+00 0. -1.
        -11    1    4    4    0    0 -0.50536266257E-02 -0.38852447616E-01  0.19578885492E-01  0.43802348178E-01  0.51100000000E-03 0.  1.
         11    1    4    4    0    0 -0.65770495227E-01 -0.67723882727E-01  0.54199104486E-02  0.94561719973E-01  0.51100000000E-03 0. -1.
</event>
<event>
 8    1  0.2039519E+004  0.1043930E+01  0.7957747E-01            NaN
         13   -1    0    0    0    0  0.00000000000E+00  0.00000000000E+00  0.74505805969E-08  0.10566000000E+00  0.10566000000E+00 0.  1.
     999900   -1    0    0    0    0 -0.00000000000E+00 -0.00000000000E+00 -0.74505805969E-08  0.93827000000E+00  0.93827000000E+00 0. -1.
     999902    2    1    2    0    0 -0.12671198891E-01 -0.58279930493E-02  0.13406061550E-02  0.10299185044E+01  0.10298231905E+01 0.  0.
     999903    2    3    3    0    0  0.45035287643E-03 -0.43472824023E-01 -0.12513216621E+00  0.13998329856E+00  0.45245724771E-01 0.  0.
         14    1    1    2    0    0  0.12671198891E-01  0.58279930493E-02 -0.13406061550E-02  0.14011495609E-01  0.00000000000E+00 0. -1.
     999901    1    3    3    0    0 -0.13121551768E-01  0.37644830974E-01  0.12647277237E+00  0.88993520583E+00  0.88000000000E+00 0.  1.
        -11    1    4    4    0    0  0.15062366045E-01 -0.43268530694E-01 -0.10884400437E+00  0.11809453428E+00  0.51100000000E-03 0. -1.
         11    1    4    4    0    0 -0.14612013169E-01 -0.20429332840E-03 -0.16288161845E-01  0.21888764284E-01  0.51100000000E-03 0.  1.
</event>
<event>
 8    1  0.2039519E+004  0.1043930E+01  0.7957747E-01            NaN
         13   -1    0    0    0    0  0.00000000000E+00  0.00000000000E+00  0.74505805969E-08  0.10566000000E+00  0.10566000000E+00 0. -1.
     999900   -1    0    0    0    0 -0.00000000000E+00 -0.00000000000E+00 -0.74505805969E-08  0.93827000000E+00  0.93827000000E+00 0.  1.
     999902    2    1    2    0    0  0.74919359376E-02  0.30280391013E-02 -0.34381060678E-02  0.10351482748E+01  0.10351110240E+01 0.  0.
     999903    2    3    3    0    0 -0.16994756917E-01  0.11565589540E+00 -0.73438719878E-01  0.14487600288E+00  0.43939762516E-01 0.  0.
         14    1    1    2    0    0 -0.74919359376E-02 -0.30280391013E-02  0.34381060678E-02  0.87817252420E-02  0.00000000000E+00 0.  1.
     999901    1    3    3    0    0  0.24486692855E-01 -0.11262785630E+00  0.70000613810E-01  0.89027227188E+00  0.88000000000E+00 0. -1.
        -11    1    4    4    0    0 -0.20963431200E-01  0.65841487466E-01 -0.63658030167E-01  0.93953035316E-01  0.51100000000E-03 0. -1.
         11    1    4    4    0    0  0.39686742825E-02  0.49814407933E-01 -0.97806897112E-02  0.50922967564E-01  0.51100000000E-03 0.  1.
</event>
<event>
 8    1  0.2039519E+004  0.1043930E+01  0.7957747E-01            NaN
         13   -1    0    0    0    0  0.00000000000E+00  0.00000000000E+00  0.74505805969E-08  0.10566000000E+00  0.10566000000E+00 0.  1.
     999900   -1    0    0    0    0 -0.00000000000E+00 -0.00000000000E+00 -0.74505805969E-08  0.93827000000E+00  0.93827000000E+00 0. -1.
     999902    2    1    2    0    0  0.15014374580E-02 -0.11478086456E-01 -0.78312274237E-02  0.10299539882E+01  0.10298591597E+01 0.  0.
     999903    2    3    3    0    0  0.82646280569E-01  0.74797683851E-01  0.68330906015E-01  0.13875891152E+00  0.46473880933E-01 0.  0.
         14    1    1    2    0    0 -0.15014374580E-02  0.11478086456E-01  0.78312274237E-02  0.13976011809E-01  0.00000000000E+00 0.  1.
     999901    1    3    3    0    0 -0.81144843111E-01 -0.86275770307E-01 -0.76162133439E-01  0.89119507667E+00  0.88000000000E+00 0. -1.
        -11    1    4    4    0    0  0.79812375151E-01  0.77288227318E-01  0.53249038106E-01  0.12320392238E+00  0.51100000000E-03 0. -1.
         11    1    4    4    0    0  0.28339054185E-02 -0.24905434672E-02  0.15081867909E-01  0.15554989145E-01  0.51100000000E-03 0.  1.
</event>
<event>
 8    1  0.2039519E+004  0.1043930E+01  0.7957747E-01            NaN
         13   -1    0    0    0    0  0.00000000000E+00  0.00000000000E+00  0.74505805969E-08  0.10566000000E+00  0.10566000000E+00 0.  1.
     999900   -1    0    0    0    0 -0.00000000000E+00 -0.00000000000E+00 -0.74505805969E-08  0.93827000000E+00  0.93827000000E+00 0.  1.
     999902    2    1    2    0    0  0.77830633971E-02  0.10363922307E-01 -0.50539983443E-02  0.10300184990E+01  0.10299245498E+01 0.  0.
     999903    2    3    3    0    0  0.11952676740E-01  0.13065788660E+00 -0.27852675972E-01  0.14153225642E+00  0.45180285928E-01 0.  0.
         14    1    1    2    0    0 -0.77830633971E-02 -0.10363922307E-01  0.50539983443E-02  0.13911501022E-01  0.00000000000E+00 0. -1.
     999901    1    3    3    0    0 -0.41696133428E-02 -0.12029396429E+00  0.22798677628E-01  0.88848624256E+00  0.88000000000E+00 0. -1.
        -11    1    4    4    0    0 -0.14064538048E-01  0.67603442292E-01 -0.36375211411E-02  0.69148603177E-01  0.51100000000E-03 0.  1.
         11    1    4    4    0    0  0.26017214788E-01  0.63054444304E-01 -0.24215154831E-01  0.72383653239E-01  0.51100000000E-03 0. -1.
</event>
<event>
 8    1  0.2039519E+004  0.1043930E+01  0.7957747E-01            NaN
         13   -1    0    0    0    0  0.00000000000E+00  0.00000000000E+00  0.74505805969E-08  0.10566000000E+00  0.10566000000E+00 0. -1.
     999900   -1    0    0    0    0 -0.00000000000E+00 -0.00000000000E+00 -0.74505805969E-08  0.93827000000E+00  0.93827000000E+00 0.  1.
     999902    2    1    2    0    0  0.86927054281E-02 -0.31784100886E-02  0.10222644973E-01  0.10301398626E+01  0.10300475565E+01 0.  0.
     999903    2    3    3    0    0 -0.11681117769E+00 -0.32737035736E-01  0.52744170589E-01  0.13972815046E+00  0.45004930386E-01 0.  0.
         14    1    1    2    0    0 -0.86927054281E-02  0.31784100886E-02 -0.10222644973E-01  0.13790137367E-01  0.00000000000E+00 0.  1.
     999901    1    3    3    0    0  0.12550388312E+00  0.29558625648E-01 -0.42521525616E-01  0.89041171217E+00  0.88000000000E+00 0.  1.
        -11    1    4    4    0    0 -0.54050282402E-01 -0.32398445216E-01  0.42806620793E-01  0.76182413882E-01  0.51100000000E-03 0.  1.
         11    1    4    4    0    0 -0.62760895287E-01 -0.33859051976E-03  0.99375497958E-02  0.63545736582E-01  0.51100000000E-03 0. -1.
</event>
<event>
 8    1  0.2039519E+004  0.1043930E+01  0.7957747E-01            NaN
         13   -1    0    0    0    0  0.00000000000E+00  0.00000000000E+00  0.74505805969E-08  0.10566000000E+00  0.10566000000E+00 0. -1.
     999900   -1    0    0    0    0 -0.00000000000E+00 -0.00000000000E+00 -0.74505805969E-08  0.93827000000E+00  0.93827000000E+00 0.  1.
     999902    2    1    2    0    0 -0.17172281968E-02 -0.52459543560E-02 -0.12934051388E-01  0.10298673333E+01  0.10297713171E+01 0.  0.
     999903    2    3    3    0    0  0.95183200382E-03  0.94822197124E-01  0.93709879942E-01  0.13779464179E+00  0.34837718868E-01 0.  0.
         14    1    1    2    0    0  0.17172281968E-02  0.52459543560E-02  0.12934051388E-01  0.14062666713E-01  0.00000000000E+00 0. -1.
     999901    1    3    3    0    0 -0.26690602006E-02 -0.10006815148E+00 -0.10664393133E+00  0.89207269150E+00  0.88000000000E+00 0.  1.
        -11    1    4    4    0    0  0.13801000796E-01  0.16263038237E-01  0.22138900661E-01  0.30746480760E-01  0.51100000000E-03 0. -1.
         11    1    4    4    0    0 -0.12849168793E-01  0.78559158887E-01  0.71570979281E-01  0.10704816103E+00  0.51100000000E-03 0.  1.
</event>
<event>
 8    1  0.2039519E+004  0.1043930E+01  0.7957747E-01            NaN
         13   -1    0    0    0    0  0.00000000000E+00  0.00000000000E+00  0.74505805969E-08  0.10566000000E+00  0.10566000000E+00 0.  1.
     999900   -1    0    0    0    0 -0.00000000000E+00 -0.00000000000E+00 -0.74505805969E-08  0.93827000000E+00  0.93827000000E+00 0.  1.
     999902    2    1    2    0    0 -0.31327925531E-02  0.20771329815E-02  0.13536478966E-01  0.10298813298E+01  0.10297855060E+01 0.  0.
     999903    2    3    3    0    0  0.63466117105E-01 -0.90529375895E-01  0.73676441296E-01  0.14048367112E+00  0.45650059471E-01 0.  0.
         14    1    1    2    0    0  0.31327925531E-02 -0.20771329815E-02 -0.13536478966E-01  0.14048670165E-01  0.00000000000E+00 0. -1.
     999901    1    3    3    0    0 -0.66598909658E-01  0.92606508877E-01 -0.60139962330E-01  0.88939765871E+00  0.88000000000E+00 0.  1.
        -11    1    4    4    0    0  0.61439031151E-01 -0.50577194702E-01  0.50413639891E-01  0.94205113347E-01  0.51100000000E-03 0.  1.
         11    1    4    4    0    0  0.20270859537E-02 -0.39952181193E-01  0.23262801405E-01  0.46278557776E-01  0.51100000000E-03 0. -1.
</event>
<event>
 8    1  0.2039519E+004  0.1043930E+01  0.7957747E-01            NaN
         13   -1    0    0    0    0  0.00000000000E+00  0.00000000000E+00  0.74505805969E-08  0.10566000000E+00  0.10566000000E+00 0. -1.
     999900   -1    0    0    0    0 -0.00000000000E+00 -0.00000000000E+00 -0.74505805969E-08  0.93827000000E+00  0.93827000000E+00 0. -1.
     999902    2    1    2    0    0  0.13797656890E-01 -0.42264083359E-02 -0.20677356598E-02  0.10293521609E+01  0.10292489289E+01 0.  0.
     999903    2    3    3    0    0 -0.11932470317E+00 -0.53589234105E-01  0.15685742908E-02  0.13796477366E+00  0.43836372438E-01 0.  0.
         14    1    1    2    0    0 -0.13797656890E-01  0.42264083359E-02  0.20677356598E-02  0.14577839135E-01  0.00000000000E+00 0. -1.
     999901    1    3    3    0    0  0.13312236006E+00  0.49362825769E-01 -0.36363099506E-02  0.89138738720E+00  0.88000000000E+00 0.  1.
        -11    1    4    4    0    0 -0.53445053397E-01 -0.40450433374E-01  0.16753677679E-01  0.69090941009E-01  0.51100000000E-03 0. -1.
         11    1    4    4    0    0 -0.65879649769E-01 -0.13138800731E-01 -0.15185103388E-01  0.68873832653E-01  0.51100000000E-03 0.  1.
</event>
<event>
 8    1  0.2039519E+004  0.1043930E+01  0.7957747E-01            NaN
         13   -1    0    0    0    0  0.00000000000E+00  0.00000000000E+00  0.74505805969E-08  0.10566000000E+00  0.10566000000E+00 0. -1.
     999900   -1    0    0    0    0 -0.00000000000E+00 -0.00000000000E+00 -0.74505805969E-08  0.93827000000E+00  0.93827000000E+00 0.  1.
     999902    2    1    2    0    0  0.14090095378E-01  0.74253492220E-03 -0.16733341166E-03  0.10298193605E+01  0.10297226836E+01 0.  0.
     999903    2    3    3    0    0  0.12043269990E-01 -0.22125865082E-01 -0.13016617446E+00  0.13997282775E+00  0.44883908897E-01 0.  0.
         14    1    1    2    0    0 -0.14090095378E-01 -0.74253492220E-03  0.16733341166E-03  0.14110639473E-01  0.00000000000E+00 0. -1.
     999901    1    3    3    0    0  0.20468253884E-02  0.22868400004E-01  0.12999884105E+00  0.88984653277E+00  0.88000000000E+00 0. -1.
        -11    1    4    4    0    0  0.15081643086E-01 -0.33772278051E-01 -0.76534812501E-01  0.85005066722E-01  0.51100000000E-03 0.  1.
         11    1    4    4    0    0 -0.30383730959E-02  0.11646412969E-01 -0.53631361961E-01  0.54967761032E-01  0.51100000000E-03 0. -1.
</event>
<event>
 8    1  0.2039519E+004  0.1043930E+01  0.7957747E-01            NaN
         13   -1    0    0    0    0  0.00000000000E+00  0.00000000000E+00  0.74505805969E-08  0.10566000000E+00  0.10566000000E+00 0.  1.
     999900   -1    0    0    0    0 -0.00000000000E+00 -0.00000000000E+00 -0.74505805969E-08  0.93827000000E+00  0.93827000000E+00 0.  1.
     999902    2    1    2    0    0  0.11967472045E-01 -0.57767075605E-02  0.10537631462E-02  0.10305995404E+01  0.10305133242E+01 0.  0.
     999903    2    3    3    0    0 -0.41742175247E-01 -0.90711858730E-01 -0.87003916983E-01  0.14051366746E+00  0.46939947413E-01 0.  0.
         14    1    1    2    0    0 -0.11967472045E-01  0.57767075605E-02 -0.10537631462E-02  0.13330459638E-01  0.00000000000E+00 0. -1.
     999901    1    3    3    0    0  0.53709647292E-01  0.84935151169E-01  0.88057680130E-01  0.89008587291E+00  0.88000000000E+00 0. -1.
        -11    1    4    4    0    0 -0.40209850940E-01 -0.80401993815E-01 -0.51708779385E-01  0.10370810821E+00  0.51100000000E-03 0. -1.
         11    1    4    4    0    0 -0.15323243068E-02 -0.10309864915E-01 -0.35295137599E-01  0.36805559246E-01  0.51100000000E-03 0.  1.
</event>
<event>
 8    1  0.2039519E+004  0.1043930E+01  0.7957747E-01            NaN
         13   -1    0    0    0    0  0.00000000000E+00  0.00000000000E+00  0.74505805969E-08  0.10566000000E+00  0.10566000000E+00 0.  1.
     999900   -1    0    0    0    0 -0.00000000000E+00 -0.00000000000E+00 -0.74505805969E-08  0.93827000000E+00  0.93827000000E+00 0. -1.
     999902    2    1    2    0    0 -0.12649029243E-01 -0.20577226963E-02  0.67250213031E-02  0.10294573335E+01  0.10293555962E+01 0.  0.
     999903    2    3    3    0    0  0.10552564125E-01 -0.10259471646E+00  0.83962307714E-01  0.14006900469E+00  0.43961625352E-01 0.  0.
         14    1    1    2    0    0  0.12649029243E-01  0.20577226963E-02 -0.67250213031E-02  0.14472666479E-01  0.00000000000E+00 0. -1.
     999901    1    3    3    0    0 -0.23201593369E-01  0.10053699376E+00 -0.77237286411E-01  0.88938832883E+00  0.88000000000E+00 0. -1.
        -11    1    4    4    0    0 -0.10442205216E-01 -0.54810435065E-01  0.62082909550E-01  0.83473182645E-01  0.51100000000E-03 0. -1.
         11    1    4    4    0    0  0.20994769341E-01 -0.47784281392E-01  0.21879398164E-01  0.56595822044E-01  0.51100000000E-03 0.  1.
</event>
<event>
 8    1  0.2039519E+004  0.1043930E+01  0.7957747E-01            NaN
         13   -1    0    0    0    0  0.00000000000E+00  0.00000000000E+00  0.74505805969E-08  0.10566000000E+00  0.10566000000E+00 0.  1.
     999900   -1    0    0    0    0 -0.00000000000E+00 -0.00000000000E+00 -0.74505805969E-08  0.93827000000E+00  0.93827000000E+00 0. -1.
     999902    2    1    2    0    0  0.30577525432E-02  0.78510610404E-02  0.12121289153E-01  0.10291680672E+01  0.10290621924E+01 0.  0.
     999903    2    3    3    0    0  0.84196737057E-01  0.51544475865E-01 -0.86728031859E-01  0.13885136084E+00  0.44855605827E-01 0.  0.
         14    1    1    2    0    0 -0.30577525432E-02 -0.78510610404E-02 -0.12121289153E-01  0.14761932827E-01  0.00000000000E+00 0. -1.
     999901    1    3    3    0    0 -0.81138984514E-01 -0.43693414824E-01  0.98849321012E-01  0.89031670633E+00  0.88000000000E+00 0.  1.
        -11    1    4    4    0    0  0.79606826864E-01  0.59302418818E-01 -0.81339625778E-01  0.12833713260E+00  0.51100000000E-03 0.  1.
         11    1    4    4    0    0  0.45899101936E-02 -0.77579429531E-02 -0.53884060809E-02  0.10514228243E-01  0.51100000000E-03 0. -1.
</event>
<event>
 8    1  0.2039519E+004  0.1043930E+01  0.7957747E-01            NaN
         13   -1    0    0    0    0  0.00000000000E+00  0.00000000000E+00  0.74505805969E-08  0.10566000000E+00  0.10566000000E+00 0.  1.
     999900   -1    0    0    0    0 -0.00000000000E+00 -0.00000000000E+00 -0.74505805969E-08  0.93827000000E+00  0.93827000000E+00 0.  1.
     999902    2    1    2    0    0  0.65803782956E-02 -0.70610904238E-02 -0.58580503332E-03  0.10342602769E+01  0.10342150729E+01 0.  0.
     999903    2    3    3    0    0 -0.39713725595E-01 -0.13106050051E+00 -0.53882181402E-02  0.14434901118E+00  0.45316325326E-01 0.  0.
         14    1    1    2    0    0 -0.65803782956E-02  0.70610904238E-02  0.58580503332E-03  0.96697230583E-02  0.00000000000E+00 0.  1.
     999901    1    3    3    0    0  0.46294103891E-01  0.12399941008E+00  0.48024131069E-02  0.88991126576E+00  0.88000000000E+00 0. -1.
        -11    1    4    4    0    0 -0.18794358893E-01 -0.13539432730E-01 -0.91746314215E-02  0.24919453196E-01  0.51100000000E-03 0. -1.
         11    1    4    4    0    0 -0.20919366703E-01 -0.11752106777E+00  0.37864132813E-02  0.11942955799E+00  0.51100000000E-03 0.  1.
</event>
<event>
 8    1  0.2039519E+004  0.1043930E+01  0.7957747E-01            NaN
         13   -1    0    0    0    0  0.00000000000E+00  0.00000000000E+00  0.74505805969E-08  0.10566000000E+00  0.10566000000E+00 0. -1.
     999900   -1    0    0    0    0 -0.00000000000E+00 -0.00000000000E+00 -0.74505805969E-08  0.93827000000E+00  0.93827000000E+00 0. -1.
     999902    2    1    2    0    0 -0.10839110688E-01 -0.11960020497E-01 -0.26623944988E-02  0.10275710038E+01  0.10274407775E+01 0.  0.
     999903    2    3    3    0    0  0.52539821129E-02  0.12141981302E+00 -0.42533821846E-01  0.13648240087E+00  0.45254219980E-01 0.  0.
         14    1    1    2    0    0  0.10839110688E-01  0.11960020497E-01  0.26623944988E-02  0.16358996157E-01  0.00000000000E+00 0. -1.
     999901    1    3    3    0    0 -0.16093092801E-01 -0.13337983351E+00  0.39871427348E-01  0.89108860297E+00  0.88000000000E+00 0.  1.
        -11    1    4    4    0    0 -0.12145308811E-01  0.34964255544E-01  0.31700436468E-02  0.37152630992E-01  0.51100000000E-03 0. -1.
         11    1    4    4    0    0  0.17399290924E-01  0.86455557474E-01 -0.45703865493E-01  0.99329769882E-01  0.51100000000E-03 0.  1.
</event>
<event>
 8    1  0.2039519E+004  0.1043930E+01  0.7957747E-01            NaN
         13   -1    0    0    0    0  0.00000000000E+00  0.00000000000E+00  0.74505805969E-08  0.10566000000E+00  0.10566000000E+00 0. -1.
     999900   -1    0    0    0    0 -0.00000000000E+00 -0.00000000000E+00 -0.74505805969E-08  0.93827000000E+00  0.93827000000E+00 0.  1.
     999902    2    1    2    0    0 -0.13819598321E-01  0.15023804168E-02 -0.29919600326E-02  0.10297106375E+01  0.10296124546E+01 0.  0.
     999903    2    3    3    0    0 -0.49637931212E-02 -0.48946885504E-01  0.12221498519E+00  0.13937343575E+00  0.45475434500E-01 0.  0.
         14    1    1    2    0    0  0.13819598321E-01 -0.15023804168E-02  0.29919600326E-02  0.14219362486E-01  0.00000000000E+00 0.  1.
     999901    1    3    3    0    0 -0.88558052002E-02  0.50449265921E-01 -0.12520694523E+00  0.89033720177E+00  0.88000000000E+00 0.  1.
        -11    1    4    4    0    0 -0.22422859278E-01 -0.20940913577E-01  0.37491329636E-01  0.48447573711E-01  0.51100000000E-03 0.  1.
         11    1    4    4    0    0  0.17459066157E-01 -0.28005971927E-01  0.84723655559E-01  0.90925862035E-01  0.51100000000E-03 0. -1.
</event>
<event>
 8    1  0.2039519E+004  0.1043930E+01  0.7957747E-01            NaN
         13   -1    0    0    0    0  0.00000000000E+00  0.00000000000E+00  0.74505805969E-08  0.10566000000E+00  0.10566000000E+00 0.  1.
     999900   -1    0    0    0    0 -0.00000000000E+00 -0.00000000000E+00 -0.74505805969E-08  0.93827000000E+00  0.93827000000E+00 0. -1.
     999902    2    1    2    0    0 -0.13369279634E-01  0.48813337284E-02  0.16456029759E-02  0.10296026462E+01  0.10295029558E+01 0.  0.
     999903    2    3    3    0    0 -0.52321777404E-01 -0.10929800551E+00 -0.53097485843E-01  0.13968634434E+00  0.44825320902E-01 0.  0.
         14    1    1    2    0    0  0.13369279634E-01 -0.48813337284E-02 -0.16456029759E-02  0.14327353770E-01  0.00000000000E+00 0.  1.
     999901    1    3    3    0    0  0.38952497771E-01  0.11417933924E+00  0.54743088819E-01  0.88991630189E+00  0.88000000000E+00 0.  1.
        -11    1    4    4    0    0 -0.31380344460E-01 -0.48393879044E-01 -0.48070103713E-01  0.75084549272E-01  0.51100000000E-03 0.  1.
         11    1    4    4    0    0 -0.20941432944E-01 -0.60904126466E-01 -0.50273821294E-02  0.64601795071E-01  0.51100000000E-03 0. -1.
</event>
<event>
 8    1  0.2039519E+004  0.1043930E+01  0.7957747E-01            NaN
         13   -1    0    0    0    0  0.00000000000E+00  0.00000000000E+00  0.74505805969E-08  0.10566000000E+00  0.10566000000E+00 0. -1.
     999900   -1    0    0    0    0 -0.00000000000E+00 -0.00000000000E+00 -0.74505805969E-08  0.93827000000E+00  0.93827000000E+00 0. -1.
     999902    2    1    2    0    0 -0.11325460971E-01  0.28413382690E-02  0.82760274072E-02  0.10296180505E+01  0.10295185758E+01 0.  0.
     999903    2    3    3    0    0  0.84055001105E-01 -0.98201460761E-01  0.19074759691E-01  0.13865021021E+00  0.46381722989E-01 0.  0.
         14    1    1    2    0    0  0.11325460971E-01 -0.28413382690E-02 -0.82760274072E-02  0.14311949518E-01  0.00000000000E+00 0.  1.
     999901    1    3    3    0    0 -0.95380462076E-01  0.10104279903E+00 -0.10798732283E-01  0.89096784027E+00  0.88000000000E+00 0. -1.
        -11    1    4    4    0    0  0.86479431209E-01 -0.87363172280E-01  0.25869372212E-01  0.12562046582E+00  0.51100000000E-03 0.  1.
         11    1    4    4    0    0 -0.24244301043E-02 -0.10838288481E-01 -0.67946125218E-02  0.13029744389E-01  0.51100000000E-03 0. -1.
</event>
<event>
 8    1  0.2039519E+004  0.1043930E+01  0.7957747E-01            NaN
         13   -1    0    0    0    0  0.00000000000E+00  0.00000000000E+00  0.74505805969E-08  0.10566000000E+00  0.10566000000E+00 0. -1.
     999900   -1    0    0    0    0 -0.00000000000E+00 -0.00000000000E+00 -0.74505805969E-08  0.93827000000E+00  0.93827000000E+00 0.  1.
     999902    2    1    2    0    0  0.15285776696E-02  0.11981791232E-01  0.62920162602E-02  0.10303105529E+01  0.10302205327E+01 0.  0.
     999903    2    3    3    0    0  0.12512827936E+00 -0.41242507011E-01 -0.13175015324E-01  0.13986758588E+00  0.45070277039E-01 0.  0.
         14    1    1    2    0    0 -0.15285776696E-02 -0.11981791232E-01 -0.62920162602E-02  0.13619447104E-01  0.00000000000E+00 0.  1.
     999901    1    3    3    0    0 -0.12359970169E+00  0.53224298243E-01  0.19467031584E-01  0.89044296701E+00  0.88000000000E+00 0. -1.
        -11    1    4    4    0    0  0.66681598047E-01 -0.55219556631E-04 -0.14965403782E-01  0.68342249002E-01  0.51100000000E-03 0. -1.
         11    1    4    4    0    0  0.58446681312E-01 -0.41187287455E-01  0.17903884588E-02  0.71525336882E-01  0.51100000000E-03 0.  1.
</event>
<event>
 8    1  0.2039519E+004  0.1043930E+01  0.7957747E-01            NaN
         13   -1    0    0    0    0  0.00000000000E+00  0.00000000000E+00  0.74505805969E-08  0.10566000000E+00  0.10566000000E+00 0.  1.
     999900   -1    0    0    0    0 -0.00000000000E+00 -0.00000000000E+00 -0.74505805969E-08  0.93827000000E+00  0.93827000000E+00 0. -1.
     999902    2    1    2    0    0 -0.94755559786E-02 -0.12074434174E-03 -0.93430148871E-02  0.10306223831E+01  0.10305364641E+01 0.  0.
     999903    2    3    3    0    0 -0.13188839855E-01  0.13040619776E+00  0.22722678145E-01  0.14040933009E+00  0.44930367919E-01 0.  0.
         14    1    1    2    0    0  0.94755559786E-02  0.12074434174E-03  0.93430148871E-02  0.13307616897E-01  0.00000000000E+00 0. -1.
     999901    1    3    3    0    0  0.37132838761E-02 -0.13052694210E+00 -0.32065693032E-01  0.89021305302E+00  0.88000000000E+00 0. -1.
        -11    1    4    4    0    0 -0.22579765250E-01  0.57693529287E-01 -0.46896100985E-02  0.62134070237E-01  0.51100000000E-03 0.  1.
         11    1    4    4    0    0  0.93909253950E-02  0.72712668476E-01  0.27412288243E-01  0.78275259849E-01  0.51100000000E-03 0. -1.
</event>
<event>
 8    1  0.2039519E+004  0.1043930E+01  0.7957747E-01            NaN
         13   -1    0    0    0    0  0.00000000000E+00  0.00000000000E+00  0.74505805969E-08  0.10566000000E+00  0.10566000000E+00 0. -1.
     999900   -1    0    0    0    0 -0.00000000000E+00 -0.00000000000E+00 -0.74505805969E-08  0.93827000000E+00  0.93827000000E+00 0.  1.
     999902    2    1    2    0    0  0.61297305006E-02  0.37938000766E-02 -0.10433328122E-01  0.10312484839E+01  0.10311705071E+01 0.  0.
     999903    2    3    3    0    0 -0.12146819267E+00  0.10752873835E-01 -0.54865706667E-01  0.14090928170E+00  0.44441352074E-01 0.  0.
         14    1    1    2    0    0 -0.61297305006E-02 -0.37938000766E-02  0.10433328122E-01  0.12681516106E-01  0.00000000000E+00 0. -1.
     999901    1    3    3    0    0  0.12759792317E+00 -0.69590737581E-02  0.44432378545E-01  0.89033920220E+00  0.88000000000E+00 0. -1.
        -11    1    4    4    0    0 -0.73148072697E-01  0.19873852951E-01 -0.14250716203E-01  0.77129466507E-01  0.51100000000E-03 0.  1.
         11    1    4    4    0    0 -0.48320119974E-01 -0.91209791163E-02 -0.40614990465E-01  0.63779815191E-01  0.51100000000E-03 0. -1.
</event>
<event>
 8    1  0.2039519E+004  0.1043930E+01  0.7957747E-01            NaN
         13   -1    0    0    0    0  0.00000000000E+00  0.00000000000E+00  0.74505805969E-08  0.10566000000E+00  0.10566000000E+00 0. -1.
     999900   -1    0    0    0    0 -0.00000000000E+00 -0.00000000000E+00 -0.74505805969E-08  0.93827000000E+00  0.93827000000E+00 0.  1.
     999902    2    1    2    0    0 -0.62385127383E-02 -0.76730023175E-02  0.92045892316E-02  0.10304200604E+01  0.10303314915E+01 0.  0.
     999903    2    3    3    0    0  0.23382597157E-02  0.90634868338E-01 -0.95030603906E-01  0.13879066766E+00  0.44854062632E-01 0.  0.
         14    1    1    2    0    0  0.62385127383E-02  0.76730023175E-02 -0.92045892316E-02  0.13509939625E-01  0.00000000000E+00 0. -1.
     999901    1    3    3    0    0 -0.85767724541E-02 -0.98307870655E-01  0.10423519314E+00  0.89162939271E+00  0.88000000000E+00 0. -1.
        -11    1    4    4    0    0  0.18380347541E-02  0.47902022353E-01 -0.18993626855E-01  0.51565502997E-01  0.51100000000E-03 0.  1.
         11    1    4    4    0    0  0.50022496167E-03  0.42732845985E-01 -0.76036977051E-01  0.87225164666E-01  0.51100000000E-03 0. -1.
</event>
<event>
 7    1  0.2039519E+004  0.1043930E+01  0.7957747E-01            NaN
         13   -1    0    0    0    0  0.00000000000E+00  0.00000000000E+00  0.74505805969E-08  0.10566000000E+00  0.10566000000E+00 0.  1.
     999900   -1    0    0    0    0 -0.00000000000E+00 -0.00000000000E+00 -0.74505805969E-08  0.93827000000E+00  0.93827000000E+00 0. -1.
     999902    2    1    2    0    0 -0.80479190684E-02  0.87528155019E-02  0.67867547793E-02  0.10302390971E+01  0.10301481236E+01 0.  0.
         14    1    1    2    0    0  0.80479190684E-02 -0.87528155019E-02 -0.67867547793E-02  0.13690902855E-01  0.00000000000E+00 0. -1.
     999901    1    3    3    0    0 -0.11847943403E+00  0.11911472113E-01 -0.52141720698E-01  0.88954933449E+00  0.88000000000E+00 0. -1.
        -11    1    3    3    0    0  0.21011854465E-01 -0.29883856143E-02  0.45574987228E-01  0.50276923717E-01  0.51100000000E-03 0.  1.
         11    1    3    3    0    0  0.89419660495E-01 -0.17027099633E-03  0.13353488249E-01  0.90412838937E-01  0.51100000000E-03 0. -1.
</event>
<event>
 8    1  0.2039519E+004  0.1043930E+01  0.7957747E-01            NaN
         13   -1    0    0    0    0  0.00000000000E+00  0.00000000000E+00  0.74505805969E-08  0.10566000000E+00  0.10566000000E+00 0.  1.
     999900   -1    0    0    0    0 -0.00000000000E+00 -0.00000000000E+00 -0.74505805969E-08  0.93827000000E+00  0.93827000000E+00 0. -1.
     999902    2    1    2    0    0  0.10005014303E-01 -0.95968501605E-04 -0.99912203821E-02  0.10297901978E+01  0.10296931181E+01 0.  0.
     999903    2    3    3    0    0 -0.38044367368E-01 -0.17415326334E-01 -0.12657571596E+00  0.14063292947E+00  0.44783272573E-01 0.  0.
         14    1    1    2    0    0 -0.10005014303E-01  0.95968501605E-04  0.99912203821E-02  0.14139802187E-01  0.00000000000E+00 0.  1.
     999901    1    3    3    0    0  0.48049381671E-01  0.17319357832E-01  0.11658449557E+00  0.88915726834E+00  0.88000000000E+00 0.  1.
        -11    1    4    4    0    0 -0.44891321031E-01 -0.18156113394E-01 -0.79756970243E-01  0.93307612663E-01  0.51100000000E-03 0. -1.
         11    1    4    4    0    0  0.68469536630E-02  0.74078706027E-03 -0.46818745713E-01  0.47325316809E-01  0.51100000000E-03 0.  1.
</event>
<event>
 8    1  0.2039519E+004  0.1043930E+01  0.7957747E-01            NaN
         13   -1    0    0    0    0  0.00000000000E+00  0.00000000000E+00  0.74505805969E-08  0.10566000000E+00  0.10566000000E+00 0. -1.
     999900   -1    0    0    0    0 -0.00000000000E+00 -0.00000000000E+00 -0.74505805969E-08  0.93827000000E+00  0.93827000000E+00 0. -1.
     999902    2    1    2    0    0 -0.75290665127E-02 -0.11295548251E-01  0.28159422620E-02  0.10300661699E+01  0.10299728679E+01 0.  0.
     999903    2    3    3    0    0  0.50138230179E-01 -0.12277474278E+00  0.15891478208E-01  0.14106442779E+00  0.45377903413E-01 0.  0.
         14    1    1    2    0    0  0.75290665127E-02  0.11295548251E-01 -0.28159422620E-02  0.13863830050E-01  0.00000000000E+00 0. -1.
     999901    1    3    3    0    0 -0.57667296692E-01  0.11147919453E+00 -0.13075535946E-01  0.88900174216E+00  0.88000000000E+00 0.  1.
        -11    1    4    4    0    0  0.12437789511E-01 -0.10498728257E-02  0.38199050564E-02  0.13063446579E-01  0.51100000000E-03 0. -1.
         11    1    4    4    0    0  0.37700440668E-01 -0.12172486995E+00  0.12071573152E-01  0.12800098121E+00  0.51100000000E-03 0.  1.
</event>
<event>
 8    1  0.2039519E+004  0.1043930E+01  0.7957747E-01            NaN
         13   -1    0    0    0    0  0.00000000000E+00  0.00000000000E+00  0.74505805969E-08  0.10566000000E+00  0.10566000000E+00 0. -1.
     999900   -1    0    0    0    0 -0.00000000000E+00 -0.00000000000E+00 -0.74505805969E-08  0.93827000000E+00  0.93827000000E+00 0.  1.
     999902    2    1    2    0    0  0.26850325402E-02  0.11216480993E-01  0.67112980190E-02  0.10305860738E+01  0.10304996823E+01 0.  0.
     999903    2    3    3    0    0 -0.53586100977E-01 -0.94206735618E-01  0.77323945913E-01  0.13970637310E+00  0.42337912302E-01 0.  0.
         14    1    1    2    0    0 -0.26850325402E-02 -0.11216480993E-01 -0.67112980190E-02  0.13343926210E-01  0.00000000000E+00 0.  1.
     999901    1    3    3    0    0  0.56271133517E-01  0.10542321661E+00 -0.70612647894E-01  0.89087970070E+00  0.88000000000E+00 0.  1.
        -11    1    4    4    0    0 -0.32299192502E-01 -0.17880061332E-01  0.28380591368E-01  0.46568804117E-01  0.51100000000E-03 0. -1.
         11    1    4    4    0    0 -0.21286908475E-01 -0.76326674286E-01  0.48943354545E-01  0.93137568978E-01  0.51100000000E-03 0.  1.
</event>
<event>
 8    1  0.2039519E+004  0.1043930E+01  0.7957747E-01            NaN
         13   -1    0    0    0    0  0.00000000000E+00  0.00000000000E+00  0.74505805969E-08  0.10566000000E+00  0.10566000000E+00 0.  1.
     999900   -1    0    0    0    0 -0.00000000000E+00 -0.00000000000E+00 -0.74505805969E-08  0.93827000000E+00  0.93827000000E+00 0. -1.
     999902    2    1    2    0    0 -0.13674912716E-02 -0.14270725331E-01  0.24436283240E-02  0.10293871339E+01  0.10292844002E+01 0.  0.
     999903    2    3    3    0    0  0.70562296114E-02 -0.23667491122E-01 -0.12958297981E+00  0.13944877454E+00  0.45213621295E-01 0.  0.
         14    1    1    2    0    0  0.13674912716E-02  0.14270725331E-01 -0.24436283240E-02  0.14542866060E-01  0.00000000000E+00 0. -1.
     999901    1    3    3    0    0 -0.84237208831E-02  0.93967657917E-02  0.13202660814E+00  0.88993835940E+00  0.88000000000E+00 0.  1.
        -11    1    4    4    0    0  0.16599956827E-01  0.22641563963E-03 -0.94447993822E-01  0.95897312208E-01  0.51100000000E-03 0.  1.
         11    1    4    4    0    0 -0.95437272155E-02 -0.23893906762E-01 -0.35134985990E-01  0.43551462330E-01  0.51100000000E-03 0. -1.
</event>
<event>
 8    1  0.2039519E+004  0.1043930E+01  0.7957747E-01            NaN
         13   -1    0    0    0    0  0.00000000000E+00  0.00000000000E+00  0.74505805969E-08  0.10566000000E+00  0.10566000000E+00 0.  1.
     999900   -1    0    0    0    0 -0.00000000000E+00 -0.00000000000E+00 -0.74505805969E-08  0.93827000000E+00  0.93827000000E+00 0.  1.
     999902    2    1    2    0    0  0.13812501547E-01  0.92435867802E-02 -0.14483471768E-02  0.10272468706E+01  0.10271113895E+01 0.  0.
     999903    2    3    3    0    0 -0.77329510646E-01 -0.78159991984E-01  0.65705595942E-01  0.13569995430E+00  0.44815339954E-01 0.  0.
         14    1    1    2    0    0 -0.13812501547E-01 -0.92435867802E-02  0.14483471768E-02  0.16683129355E-01  0.00000000000E+00 0.  1.
     999901    1    3    3    0    0  0.91142012193E-01  0.87403578764E-01 -0.67153943119E-01  0.89154691634E+00  0.88000000000E+00 0. -1.
        -11    1    4    4    0    0 -0.38809858768E-01 -0.13600780613E-01  0.10552251590E-01  0.42459362990E-01  0.51100000000E-03 0. -1.
         11    1    4    4    0    0 -0.38519651878E-01 -0.64559211371E-01  0.55153344352E-01  0.93240591310E-01  0.51100000000E-03 0.  1.
</event>
<event>
 8    1  0.2039519E+004  0.1043930E+01  0.7957747E-01            NaN
         13   -1    0    0    0    0  0.00000000000E+00  0.00000000000E+00  0.74505805969E-08  0.10566000000E+00  0.10566000000E+00 0. -1.
     999900   -1    0    0    0    0 -0.00000000000E+00 -0.00000000000E+00 -0.74505805969E-08  0.93827000000E+00  0.93827000000E+00 0. -1.
     999902    2    1    2    0    0  0.12441836882E-02 -0.10455335139E-01  0.86648074844E-02  0.10302939846E+01  0.10302037439E+01 0.  0.
     999903    2    3    3    0    0 -0.99527560812E-02 -0.12908327365E+00  0.36354053070E-01  0.14183202509E+00  0.45090545340E-01 0.  0.
         14    1    1    2    0    0 -0.12441836882E-02  0.10455335139E-01 -0.86648074844E-02  0.13636015352E-01  0.00000000000E+00 0.  1.
     999901    1    3    3    0    0  0.11196939769E-01  0.11862793851E+00 -0.27689245585E-01  0.88846195955E+00  0.88000000000E+00 0.  1.
        -11    1    4    4    0    0 -0.89540682337E-02 -0.87860561745E-01  0.22940088185E-02  0.88346914182E-01  0.51100000000E-03 0. -1.
         11    1    4    4    0    0 -0.99868784744E-03 -0.41222711901E-01  0.34060044251E-01  0.53485110912E-01  0.51100000000E-03 0.  1.
</event>
<event>
 8    1  0.2039519E+004  0.1043930E+01  0.7957747E-01            NaN
         13   -1    0    0    0    0  0.00000000000E+00  0.00000000000E+00  0.74505805969E-08  0.10566000000E+00  0.10566000000E+00 0. -1.
     999900   -1    0    0    0    0 -0.00000000000E+00 -0.00000000000E+00 -0.74505805969E-08  0.93827000000E+00  0.93827000000E+00 0.  1.
     999902    2    1    2    0    0 -0.51257076700E-02  0.13042527808E-01  0.89539219309E-02  0.10273001134E+01  0.10271655027E+01 0.  0.
     999903    2    3    3    0    0  0.97712056586E-01  0.80938432947E-01  0.34153717339E-01  0.13835664534E+00  0.43329077680E-01 0.  0.
         14    1    1    2    0    0  0.51257076700E-02 -0.13042527808E-01 -0.89539219309E-02  0.16629886611E-01  0.00000000000E+00 0.  1.
     999901    1    3    3    0    0 -0.10283776426E+00 -0.67895905139E-01 -0.25199795408E-01  0.88894346805E+00  0.88000000000E+00 0. -1.
        -11    1    4    4    0    0  0.93967817089E-02  0.30162630640E-01  0.25726917058E-02  0.31701161765E-01  0.51100000000E-03 0. -1.
         11    1    4    4    0    0  0.88315274877E-01  0.50775802307E-01  0.31581025633E-01  0.10665548358E+00  0.51100000000E-03 0.  1.
</event>
<event>
 8    1  0.2039519E+004  0.1043930E+01  0.7957747E-01            NaN
         13   -1    0    0    0    0  0.00000000000E+00  0.00000000000E+00  0.74505805969E-08  0.10566000000E+00  0.10566000000E+00 0.  1.
     999900   -1    0    0    0    0 -0.00000000000E+00 -0.00000000000E+00 -0.74505805969E-08  0.93827000000E+00  0.93827000000E+00 0. -1.
     999902    2    1    2    0    0  0.65811902125E-03 -0.40740523646E-02  0.13320275144E-01  0.10299850815E+01  0.10298906773E+01 0.  0.
     999903    2    3    3    0    0  0.89207147012E-01 -0.33010651880E-01  0.94638177656E-01  0.14133956247E+00  0.44416990360E-01 0.  0.
         14    1    1    2    0    0 -0.65811902125E-03  0.40740523646E-02 -0.13320275144E-01  0.13944918545E-01  0.00000000000E+00 0. -1.
     999901    1    3    3    0    0 -0.88549027991E-01  0.28936599515E-01 -0.81317902512E-01  0.88864551899E+00  0.88000000000E+00 0. -1.
        -11    1    4    4    0    0  0.94226578929E-02  0.43552991204E-02  0.30893339072E-01  0.32594702518E-01  0.51100000000E-03 0.  1.
         11    1    4    4    0    0  0.79784489119E-01 -0.37365951000E-01  0.63744838584E-01  0.10874485995E+00  0.51100000000E-03 0. -1.
</event>
<event>
 8    1  0.2039519E+004  0.1043930E+01  0.7957747E-01            NaN
         13   -1    0    0    0    0  0.00000000000E+00  0.00000000000E+00  0.74505805969E-08  0.10566000000E+00  0.10566000000E+00 0.  1.
     999900   -1    0    0    0    0 -0.00000000000E+00 -0.00000000000E+00 -0.74505805969E-08  0.93827000000E+00  0.93827000000E+00 0.  1.
     999902    2    1    2    0    0  0.11329938554E-01 -0.20950520192E-02  0.70088226817E-02  0.10304436978E+01  0.10303554406E+01 0.  0.
     999903    2    3    3    0    0 -0.31582587483E-01  0.12152202204E+00 -0.40913769848E-01  0.13947835577E+00  0.44891129344E-01 0.  0.
         14    1    1    2    0    0 -0.11329938554E-01  0.20950520192E-02 -0.70088226817E-02  0.13486302162E-01  0.00000000000E+00 0.  1.
     999901    1    3    3    0    0  0.42912526037E-01 -0.12361707406E+00  0.47922592530E-01  0.89096534207E+00  0.88000000000E+00 0. -1.
        -11    1    4    4    0    0 -0.29629967277E-02  0.60594168778E-01  0.66801998387E-04  0.60668758212E-01  0.51100000000E-03 0. -1.
         11    1    4    4    0    0 -0.28619590755E-01  0.60927853258E-01 -0.40980571847E-01  0.78809597560E-01  0.51100000000E-03 0.  1.
</event>
<event>
 8    1  0.2039519E+004  0.1043930E+01  0.7957747E-01            NaN
         13   -1    0    0    0    0  0.00000000000E+00  0.00000000000E+00  0.74505805969E-08  0.10566000000E+00  0.10566000000E+00 0. -1.
     999900   -1    0    0    0    0 -0.00000000000E+00 -0.00000000000E+00 -0.74505805969E-08  0.93827000000E+00  0.93827000000E+00 0. -1.
     999902    2    1    2    0    0  0.43476229122E-02  0.11467511466E-01 -0.49154544816E-02  0.10307176067E+01  0.10306329208E+01 0.  0.
     999903    2    3    3    0    0 -0.33464534115E-02  0.66636098682E-01  0.11514378435E+00  0.14082042575E+00  0.46051415119E-01 0.  0.
         14    1    1    2    0    0 -0.43476229122E-02 -0.11467511466E-01  0.49154544816E-02  0.13212393309E-01  0.00000000000E+00 0. -1.
     999901    1    3    3    0    0  0.76940763237E-02 -0.55168587217E-01 -0.12005923883E+00  0.88989718095E+00  0.88000000000E+00 0. -1.
        -11    1    4    4    0    0 -0.21301036198E-01  0.27457560336E-01  0.32353353389E-01  0.47483179751E-01  0.51100000000E-03 0. -1.
         11    1    4    4    0    0  0.17954582787E-01  0.39178538346E-01  0.82790430961E-01  0.93337245994E-01  0.51100000000E-03 0.  1.
</event>
<event>
 8    1  0.2039519E+004  0.1043930E+01  0.7957747E-01            NaN
         13   -1    0    0    0    0  0.00000000000E+00  0.00000000000E+00  0.74505805969E-08  0.10566000000E+00  0.10566000000E+00 0.  1.
     999900   -1    0    0    0    0 -0.00000000000E+00 -0.00000000000E+00 -0.74505805969E-08  0.93827000000E+00  0.93827000000E+00 0.  1.
     999902    2    1    2    0    0 -0.53538648979E-02 -0.12861606442E-01 -0.20758214749E-02  0.10298447657E+01  0.10297484390E+01 0.  0.
     999903    2    3    3    0    0  0.86471635125E-01  0.62047839083E-01  0.76342761467E-01  0.13844540426E+00  0.44851250995E-01 0.  0.
         14    1    1    2    0    0  0.53538648979E-02  0.12861606442E-01  0.20758214749E-02  0.14085234269E-01  0.00000000000E+00 0. -1.
     999901    1    3    3    0    0 -0.91825500023E-01 -0.74909445524E-01 -0.78418582942E-01  0.89139936147E+00  0.88000000000E+00 0. -1.
        -11    1    4    4    0    0  0.33426275456E-01  0.17940092531E-02  0.33873071463E-01  0.47625418124E-01  0.51100000000E-03 0. -1.
         11    1    4    4    0    0  0.53045359669E-01  0.60253829830E-01  0.42469690004E-01  0.90819986135E-01  0.51100000000E-03 0.  1.
</event>
<event>
 8    1  0.2039519E+004  0.1043930E+01  0.7957747E-01            NaN
         13   -1    0    0    0    0  0.00000000000E+00  0.00000000000E+00  0.74505805969E-08  0.10566000000E+00  0.10566000000E+00 0.  1.
     999900   -1    0    0    0    0 -0.00000000000E+00 -0.00000000000E+00 -0.74505805969E-08  0.93827000000E+00  0.93827000000E+00 0. -1.
     999902    2    1    2    0    0  0.98440735276E-02 -0.83389955780E-02  0.70191235864E-02  0.10292428380E+01  0.10291380407E+01 0.  0.
     999903    2    3    3    0    0 -0.49308724584E-01 -0.60049043550E-01 -0.10552829866E+00  0.13860267228E+00  0.45135806112E-01 0.  0.
         14    1    1    2    0    0 -0.98440735276E-02  0.83389955780E-02 -0.70191235864E-02  0.14687161972E-01  0.00000000000E+00 0. -1.
     999901    1    3    3    0    0  0.59152798112E-01  0.51710047972E-01  0.11254742225E+00  0.89064016575E+00  0.88000000000E+00 0. -1.
        -11    1    4    4    0    0 -0.39828710105E-01 -0.31336255539E-01 -0.92910445821E-01  0.10583430032E+00  0.51100000000E-03 0. -1.
         11    1    4    4    0    0 -0.94800144787E-02 -0.28712788011E-01 -0.12617852843E-01  0.32768371965E-01  0.51100000000E-03 0.  1.
</event>
<event>
 8    1  0.2039519E+004  0.1043930E+01  0.7957747E-01            NaN
         13   -1    0    0    0    0  0.00000000000E+00  0.00000000000E+00  0.74505805969E-08  0.10566000000E+00  0.10566000000E+00 0. -1.
     999900   -1    0    0    0    0 -0.00000000000E+00 -0.00000000000E+00 -0.74505805969E-08  0.93827000000E+00  0.93827000000E+00 0.  1.
     999902    2    1    2    0    0  0.12315539538E-01  0.41726251334E-02 -0.31224050544E-02  0.10305571646E+01  0.10304703958E+01 0.  0.
     999903    2    3    3    0    0  0.95477407091E-01 -0.85355473152E-01 -0.44205472883E-01  0.14116467804E+00  0.39646568983E-01 0.  0.
         14    1    1    2    0    0 -0.12315539538E-01 -0.41726251334E-02  0.31224050544E-02  0.13372835449E-01  0.00000000000E+00 0.  1.
     999901    1    3    3    0    0 -0.83161867553E-01  0.89528098285E-01  0.41083067828E-01  0.88939248651E+00  0.88000000000E+00 0. -1.
        -11    1    4    4    0    0  0.73357479854E-01 -0.40673753101E-01 -0.22952009963E-01  0.86963957615E-01  0.51100000000E-03 0. -1.
         11    1    4    4    0    0  0.22119927237E-01 -0.44681720051E-01 -0.21253462919E-01  0.54200720427E-01  0.51100000000E-03 0.  1.
</event>
<event>
 8    1  0.2039519E+004  0.1043930E+01  0.7957747E-01            NaN
         13   -1    0    0    0    0  0.00000000000E+00  0.00000000000E+00  0.74505805969E-08  0.10566000000E+00  0.10566000000E+00 0.  1.
     999900   -1    0    0    0    0 -0.00000000000E+00 -0.00000000000E+00 -0.74505805969E-08  0.93827000000E+00  0.93827000000E+00 0.  1.
     999902    2    1    2    0    0  0.54116095277E-02  0.62823029642E-02  0.11015746624E-01  0.10301423417E+01  0.10300500690E+01 0.  0.
     999903    2    3    3    0    0 -0.49125641017E-01 -0.65787151368E-01  0.10497280261E+00  0.14053779678E+00  0.44612836095E-01 0.  0.
         14    1    1    2    0    0 -0.54116095277E-02 -0.62823029642E-02 -0.11015746624E-01  0.13787658318E-01  0.00000000000E+00 0.  1.
     999901    1    3    3    0    0  0.54537250545E-01  0.72069454332E-01 -0.93957055987E-01  0.88960454490E+00  0.88000000000E+00 0.  1.
        -11    1    4    4    0    0 -0.16985711774E-01 -0.28980903590E-01  0.12311089155E-01  0.35780318816E-01  0.51100000000E-03 0.  1.
         11    1    4    4    0    0 -0.32139929243E-01 -0.36806247778E-01  0.92661713456E-01  0.10475747796E+00  0.51100000000E-03 0. -1.
</event>
<event>
 8    1  0.2039519E+004  0.1043930E+01  0.7957747E-01            NaN
         13   -1    0    0    0    0  0.00000000000E+00  0.00000000000E+00  0.74505805969E-08  0.10566000000E+00  0.10566000000E+00 0.  1.
     999900   -1    0    0    0    0 -0.00000000000E+00 -0.00000000000E+00 -0.74505805969E-08  0.93827000000E+00  0.93827000000E+00 0. -1.
     999902    2    1    2    0    0  0.66506888558E-03  0.60949051474E-02  0.12290732034E-01  0.10301949252E+01  0.10301033597E+01 0.  0.
     999903    2    3    3    0    0 -0.11257030984E+00 -0.12622813743E-01 -0.67084198064E-01  0.13919942381E+00  0.45219242315E-01 0.  0.
         14    1    1    2    0    0 -0.66506888558E-03 -0.60949051474E-02 -0.12290732034E-01  0.13735074784E-01  0.00000000000E+00 0. -1.
     999901    1    3    3    0    0  0.11323537872E+00  0.18717718890E-01  0.79374930098E-01  0.89099550140E+00  0.88000000000E+00 0.  1.
        -11    1    4    4    0    0 -0.57589810481E-01  0.48174712456E-02 -0.55975525155E-01  0.80456912928E-01  0.51100000000E-03 0. -1.
         11    1    4    4    0    0 -0.54980499358E-01 -0.17440284989E-01 -0.11108672909E-01  0.58742510884E-01  0.51100000000E-03 0.  1.
</event>
<event>
 8    1  0.2039519E+004  0.1043930E+01  0.7957747E-01            NaN
         13   -1    0    0    0    0  0.00000000000E+00  0.00000000000E+00  0.74505805969E-08  0.10566000000E+00  0.10566000000E+00 0. -1.
     999900   -1    0    0    0    0 -0.00000000000E+00 -0.00000000000E+00 -0.74505805969E-08  0.93827000000E+00  0.93827000000E+00 0. -1.
     999902    2    1    2    0    0  0.12396927404E-02  0.90266381707E-02  0.10440211587E-01  0.10300730504E+01  0.10299798416E+01 0.  0.
     999903    2    3    3    0    0  0.11807163572E+00  0.33669359158E-01  0.52907390267E-01  0.14099463547E+00  0.44785693895E-01 0.  0.
         14    1    1    2    0    0 -0.12396927404E-02 -0.90266381707E-02 -0.10440211587E-01  0.13856949619E-01  0.00000000000E+00 0. -1.
     999901    1    3    3    0    0 -0.11683194298E+00 -0.24642720987E-01 -0.42467178680E-01  0.88907841491E+00  0.88000000000E+00 0. -1.
        -11    1    4    4    0    0  0.97285597379E-01  0.43090600600E-01  0.35098098497E-01  0.11204206780E+00  0.51100000000E-03 0. -1.
         11    1    4    4    0    0  0.20786038344E-01 -0.94212414421E-02  0.17809291770E-01  0.28952567670E-01  0.51100000000E-03 0.  1.
</event>
<event>
 8    1  0.2039519E+004  0.1043930E+01  0.7957747E-01            NaN
         13   -1    0    0    0    0  0.00000000000E+00  0.00000000000E+00  0.74505805969E-08  0.10566000000E+00  0.10566000000E+00 0.  1.
     999900   -1    0    0    0    0 -0.00000000000E+00 -0.00000000000E+00 -0.74505805969E-08  0.93827000000E+00  0.93827000000E+00 0. -1.
     999902    2    1    2    0    0  0.10973034548E-01  0.75510247404E-02 -0.35517446706E-02  0.10301444876E+01  0.10300522438E+01 0.  0.
     999903    2    3    3    0    0 -0.13020978516E+00  0.85697472910E-02 -0.17113113331E-01  0.13878735542E+00  0.44057265639E-01 0.  0.
         14    1    1    2    0    0 -0.10973034548E-01 -0.75510247404E-02  0.35517446706E-02  0.13785512396E-01  0.00000000000E+00 0.  1.
     999901    1    3    3    0    0  0.14118281971E+00 -0.10187225505E-02  0.13561368661E-01  0.89135713218E+00  0.88000000000E+00 0.  1.
        -11    1    4    4    0    0 -0.46283041413E-01  0.22882480998E-01  0.14236166283E-02  0.51652837912E-01  0.51100000000E-03 0.  1.
         11    1    4    4    0    0 -0.83926743749E-01 -0.14312733707E-01 -0.18536729960E-01  0.87134517507E-01  0.51100000000E-03 0. -1.
</event>
<event>
 8    1  0.2039519E+004  0.1043930E+01  0.7957747E-01            NaN
         13   -1    0    0    0    0  0.00000000000E+00  0.00000000000E+00  0.74505805969E-08  0.10566000000E+00  0.10566000000E+00 0.  1.
     999900   -1    0    0    0    0 -0.00000000000E+00 -0.00000000000E+00 -0.74505805969E-08  0.93827000000E+00  0.93827000000E+00 0. -1.
     999902    2    1    2    0    0  0.36687572726E-02  0.11122538752E-01 -0.69358493187E-02  0.10303183633E+01  0.10302284470E+01 0.  0.
     999903    2    3    3    0    0  0.12519859670E+00  0.46498667519E-01  0.10967955617E-01  0.14108188260E+00  0.44124673931E-01 0.  0.
         14    1    1    2    0    0 -0.36687572726E-02 -0.11122538752E-01  0.69358493187E-02  0.13611636712E-01  0.00000000000E+00 0.  1.
     999901    1    3    3    0    0 -0.12152983943E+00 -0.35376128767E-01 -0.17903804936E-01  0.88923648069E+00  0.88000000000E+00 0. -1.
        -11    1    4    4    0    0  0.72652237795E-01  0.48234394176E-01 -0.76585288537E-03  0.87210963129E-01  0.51100000000E-03 0.  1.
         11    1    4    4    0    0  0.52546358908E-01 -0.17357266569E-02  0.11733808503E-01  0.53870919469E-01  0.51100000000E-03 0. -1.
</event>
<event>
 8    1  0.2039519E+004  0.1043930E+01  0.7957747E-01            NaN
         13   -1    0    0    0    0  0.00000000000E+00  0.00000000000E+00  0.74505805969E-08  0.10566000000E+00  0.10566000000E+00 0. -1.
     999900   -1    0    0    0    0 -0.00000000000E+00 -0.00000000000E+00 -0.74505805969E-08  0.93827000000E+00  0.93827000000E+00 0.  1.
     999902    2    1    2    0    0 -0.11294281928E-02  0.13306837960E-01  0.45862024398E-02  0.10298097735E+01  0.10297129642E+01 0.  0.
     999903    2    3    3    0    0  0.12440917055E+00  0.25030893470E-01  0.38632782064E-01  0.14017132846E+00  0.45291523801E-01 0.  0.
         14    1    1    2    0    0  0.11294281928E-02 -0.13306837960E-01 -0.45862024398E-02  0.14120226534E-01  0.00000000000E+00 0.  1.
     999901    1    3    3    0    0 -0.12553859874E+00 -0.11724055510E-01 -0.34046579624E-01  0.88963844501E+00  0.88000000000E+00 0. -1.
        -11    1    4    4    0    0  0.11808362775E+00  0.29764795215E-01  0.45188620323E-01  0.12989210409E+00  0.51100000000E-03 0. -1.
         11    1    4    4    0    0  0.63255427962E-02 -0.47339017450E-02 -0.65558382591E-02  0.10279224371E-01  0.51100000000E-03 0.  1.
</event>
<event>
 8    1  0.2039519E+004  0.1043930E+01  0.7957747E-01            NaN
         13   -1    0    0    0    0  0.00000000000E+00  0.00000000000E+00  0.74505805969E-08  0.10566000000E+00  0.10566000000E+00 0. -1.
     999900   -1    0    0    0    0 -0.00000000000E+00 -0.00000000000E+00 -0.74505805969E-08  0.93827000000E+00  0.93827000000E+00 0. -1.
     999902    2    1    2    0    0  0.69073931188E-03 -0.35941187839E-02  0.10884145388E-01  0.10324469938E+01  0.10323831341E+01 0.  0.
     999903    2    3    3    0    0  0.12794753905E+00  0.40937936767E-01  0.12051035677E-01  0.14217806887E+00  0.44976531584E-01 0.  0.
         14    1    1    2    0    0 -0.69073931188E-03  0.35941187839E-02 -0.10884145388E-01  0.11483006203E-01  0.00000000000E+00 0.  1.
     999901    1    3    3    0    0 -0.12725679973E+00 -0.44532055551E-01 -0.11668902887E-02  0.89026892492E+00  0.88000000000E+00 0.  1.
        -11    1    4    4    0    0  0.33428448495E-01  0.32476789996E-01  0.71324743538E-02  0.47152267906E-01  0.51100000000E-03 0. -1.
         11    1    4    4    0    0  0.94519090551E-01  0.84611467703E-02  0.49185613230E-02  0.95025800968E-01  0.51100000000E-03 0.  1.
</event>
<event>
 8    1  0.2039519E+004  0.1043930E+01  0.7957747E-01            NaN
         13   -1    0    0    0    0  0.00000000000E+00  0.00000000000E+00  0.74505805969E-08  0.10566000000E+00  0.10566000000E+00 0. -1.
     999900   -1    0    0    0    0 -0.00000000000E+00 -0.00000000000E+00 -0.74505805969E-08  0.93827000000E+00  0.93827000000E+00 0.  1.
     999902    2    1    2    0    0 -0.36313262530E-02  0.33576912527E-02  0.11784883617E-01  0.10311493857E+01  0.10310701778E+01 0.  0.
     999903    2    3    3    0    0  0.32272536015E-01 -0.64432639625E-01  0.11376621270E+00  0.14194479291E+00  0.44860800845E-01 0.  0.
         14    1    1    2    0    0  0.36313262530E-02 -0.33576912527E-02 -0.11784883617E-01  0.12780614335E-01  0.00000000000E+00 0.  1.
     999901    1    3    3    0    0 -0.35903862268E-01  0.67790330878E-01 -0.10198132909E+00  0.88920459275E+00  0.88000000000E+00 0.  1.
        -11    1    4    4    0    0  0.39347420350E-01 -0.30222901597E-01  0.72846309484E-01  0.88139033326E-01  0.51100000000E-03 0.  1.
         11    1    4    4    0    0 -0.70748843355E-02 -0.34209738028E-01  0.40919903220E-01  0.53805759588E-01  0.51100000000E-03 0. -1.
</event>
<event>
 8    1  0.2039519E+004  0.1043930E+01  0.7957747E-01            NaN
         13   -1    0    0    0    0  0.00000000000E+00  0.00000000000E+00  0.74505805969E-08  0.10566000000E+00  0.10566000000E+00 0.  1.
     999900   -1    0    0    0    0 -0.00000000000E+00 -0.00000000000E+00 -0.74505805969E-08  0.93827000000E+00  0.93827000000E+00 0. -1.
     999902    2    1    2    0    0  0.92975601666E-02 -0.57695639275E-02 -0.83884872956E-02  0.10301423529E+01  0.10300500804E+01 0.  0.
     999903    2    3    3    0    0 -0.10524799093E+00 -0.73258030008E-01 -0.27142045071E-01  0.13995862342E+00  0.49069818666E-01 0.  0.
         14    1    1    2    0    0 -0.92975601666E-02  0.57695639275E-02  0.83884872956E-02  0.13787647083E-01  0.00000000000E+00 0. -1.
     999901    1    3    3    0    0  0.11454555110E+00  0.67488466080E-01  0.18753557775E-01  0.89018372950E+00  0.88000000000E+00 0. -1.
        -11    1    4    4    0    0 -0.76506035888E-01 -0.42094483484E-01  0.39025784193E-02  0.87410584636E-01  0.51100000000E-03 0. -1.
         11    1    4    4    0    0 -0.28741955043E-01 -0.31163546524E-01 -0.31044623490E-01  0.52548038786E-01  0.51100000000E-03 0.  1.
</event>
<event>
 8    1  0.2039519E+004  0.1043930E+01  0.7957747E-01            NaN
         13   -1    0    0    0    0  0.00000000000E+00  0.00000000000E+00  0.74505805969E-08  0.10566000000E+00  0.10566000000E+00 0.  1.
     999900   -1    0    0    0    0 -0.00000000000E+00 -0.00000000000E+00 -0.74505805969E-08  0.93827000000E+00  0.93827000000E+00 0.  1.
     999902    2    1    2    0    0 -0.71093520453E-02  0.52123634788E-02  0.11969963487E-01  0.10290642123E+01  0.10289568316E+01 0.  0.
     999903    2    3    3    0    0 -0.16129340987E-01  0.10566860413E-01 -0.12891788189E+00  0.13779578141E+00  0.44677096181E-01 0.  0.
         14    1    1    2    0    0  0.71093520453E-02 -0.52123634788E-02 -0.11969963487E-01  0.14865787750E-01  0.00000000000E+00 0. -1.
     999901    1    3    3    0    0  0.90199889414E-02 -0.53544969339E-02  0.14088784538E+00  0.89126843084E+00  0.88000000000E+00 0. -1.
        -11    1    4    4    0    0 -0.88325597161E-02 -0.14555069569E-02 -0.12160743209E+00  0.12193753020E+00  0.51100000000E-03 0. -1.
         11    1    4    4    0    0 -0.72967812706E-02  0.12022367370E-01 -0.73104498064E-02  0.15858251210E-01  0.51100000000E-03 0.  1.
</event>
<event>
 8    1  0.2039519E+004  0.1043930E+01  0.7957747E-01            NaN
         13   -1    0    0    0    0  0.00000000000E+00  0.00000000000E+00  0.74505805969E-08  0.10566000000E+00  0.10566000000E+00 0. -1.
     999900   -1    0    0    0    0 -0.00000000000E+00 -0.00000000000E+00 -0.74505805969E-08  0.93827000000E+00  0.93827000000E+00 0. -1.
     999902    2    1    2    0    0  0.49105831177E-02  0.12125522601E-01  0.33663214348E-02  0.10304216972E+01  0.10303331499E+01 0.  0.
     999903    2    3    3    0    0  0.34843951136E-01 -0.39584275972E-01 -0.12106431261E+00  0.13966196949E+00  0.45473971676E-01 0.  0.
         14    1    1    2    0    0 -0.49105831177E-02 -0.12125522601E-01 -0.33663214348E-02  0.13508302814E-01  0.00000000000E+00 0. -1.
     999901    1    3    3    0    0 -0.29933368018E-01  0.51709798574E-01  0.12443063405E+00  0.89075972769E+00  0.88000000000E+00 0.  1.
        -11    1    4    4    0    0 -0.52992308583E-02 -0.20769006949E-01 -0.20087920589E-01  0.29380591756E-01  0.51100000000E-03 0.  1.
         11    1    4    4    0    0  0.40143181994E-01 -0.18815269023E-01 -0.10097639202E+00  0.11028137774E+00  0.51100000000E-03 0. -1.
</event>
<event>
 8    1  0.2039519E+004  0.1043930E+01  0.7957747E-01            NaN
         13   -1    0    0    0    0  0.00000000000E+00  0.00000000000E+00  0.74505805969E-08  0.10566000000E+00  0.10566000000E+00 0. -1.
     999900   -1    0    0    0    0 -0.00000000000E+00 -0.00000000000E+00 -0.74505805969E-08  0.93827000000E+00  0.93827000000E+00 0. -1.
     999902    2    1    2    0    0  0.14291733167E-01 -0.12717834270E-02  0.36879274606E-02  0.10291154167E+01  0.10290087798E+01 0.  0.
     999903    2    3    3    0    0 -0.13212677492E-01 -0.13000265898E+00  0.12917332917E-01  0.13927649145E+00  0.46430780660E-01 0.  0.
         14    1    1    2    0    0 -0.14291733167E-01  0.12717834270E-02 -0.36879274606E-02  0.14814583320E-01  0.00000000000E+00 0. -1.
     999901    1    3    3    0    0  0.27504410659E-01  0.12873087555E+00 -0.92294054564E-02  0.88983892523E+00  0.88000000000E+00 0. -1.
        -11    1    4    4    0    0  0.53012230906E-02 -0.92030837439E-01  0.24661629944E-01  0.95426595447E-01  0.51100000000E-03 0. -1.
         11    1    4    4    0    0 -0.18513900583E-01 -0.37971821541E-01 -0.11744297027E-01  0.43849896005E-01  0.51100000000E-03 0.  1.
</event>
<event>
 8    1  0.2039519E+004  0.1043930E+01  0.7957747E-01            NaN
         13   -1    0    0    0    0  0.00000000000E+00  0.00000000000E+00  0.74505805969E-08  0.10566000000E+00  0.10566000000E+00 0. -1.
     999900   -1    0    0    0    0 -0.00000000000E+00 -0.00000000000E+00 -0.74505805969E-08  0.93827000000E+00  0.93827000000E+00 0. -1.
     999902    2    1    2    0    0  0.74940713438E-02 -0.93917956049E-02  0.74393991048E-02  0.10297980649E+01  0.10297010940E+01 0.  0.
     999903    2    3    3    0    0  0.65556573626E-01  0.10209174731E+00 -0.51152962265E-01  0.13893730177E+00  0.44345902412E-01 0.  0.
         14    1    1    2    0    0 -0.74940713438E-02  0.93917956049E-02 -0.74393991048E-02  0.14131935077E-01  0.00000000000E+00 0.  1.
     999901    1    3    3    0    0 -0.58062502282E-01 -0.11148354291E+00  0.58592361370E-01  0.89086076315E+00  0.88000000000E+00 0.  1.
        -11    1    4    4    0    0  0.12509685860E-01  0.17520156420E-01 -0.29933310121E-01  0.36874276902E-01  0.51100000000E-03 0. -1.
         11    1    4    4    0    0  0.53046887766E-01  0.84571590890E-01 -0.21219652145E-01  0.10206302487E+00  0.51100000000E-03 0.  1.
</event>
<event>
 8    1  0.2039519E+004  0.1043930E+01  0.7957747E-01            NaN
         13   -1    0    0    0    0  0.00000000000E+00  0.00000000000E+00  0.74505805969E-08  0.10566000000E+00  0.10566000000E+00 0.  1.
     999900   -1    0    0    0    0 -0.00000000000E+00 -0.00000000000E+00 -0.74505805969E-08  0.93827000000E+00  0.93827000000E+00 0.  1.
     999902    2    1    2    0    0 -0.55812790598E-02  0.86750326549E-02  0.10468479757E-01  0.10292331998E+01  0.10291282639E+01 0.  0.
     999903    2    3    3    0    0 -0.89731859842E-01 -0.88600108705E-01  0.38810574483E-01  0.13943150971E+00  0.45089902128E-01 0.  0.
         14    1    1    2    0    0  0.55812790598E-02 -0.86750326549E-02 -0.10468479757E-01  0.14696800193E-01  0.00000000000E+00 0. -1.
     999901    1    3    3    0    0  0.84150580782E-01  0.97275141360E-01 -0.28342094726E-01  0.88980169010E+00  0.88000000000E+00 0.  1.
        -11    1    4    4    0    0 -0.65731543928E-01 -0.39394472416E-01  0.91905053931E-02  0.77183462183E-01  0.51100000000E-03 0.  1.
         11    1    4    4    0    0 -0.24000315914E-01 -0.49205636289E-01  0.29620069090E-01  0.62248047523E-01  0.51100000000E-03 0. -1.
</event>
<event>
 8    1  0.2039519E+004  0.1043930E+01  0.7957747E-01            NaN
         13   -1    0    0    0    0  0.00000000000E+00  0.00000000000E+00  0.74505805969E-08  0.10566000000E+00  0.10566000000E+00 0.  1.
     999900   -1    0    0    0    0 -0.00000000000E+00 -0.00000000000E+00 -0.74505805969E-08  0.93827000000E+00  0.93827000000E+00 0. -1.
     999902    2    1    2    0    0 -0.51743825933E-02  0.19578572134E-02 -0.12326059873E-01  0.10304192934E+01  0.10303307144E+01 0.  0.
     999903    2    3    3    0    0 -0.52500712617E-01  0.14696609067E-01  0.11982627305E+00  0.13920310394E+00  0.45242162727E-01 0.  0.
         14    1    1    2    0    0  0.51743825933E-02 -0.19578572134E-02  0.12326059873E-01  0.13510706572E-01  0.00000000000E+00 0.  1.
     999901    1    3    3    0    0  0.47326330023E-01 -0.12738751853E-01 -0.13215233293E+00  0.89121618949E+00  0.88000000000E+00 0. -1.
        -11    1    4    4    0    0  0.38411571180E-02  0.77808303253E-02  0.41902283654E-01  0.42794372352E-01  0.51100000000E-03 0. -1.
         11    1    4    4    0    0 -0.56341869735E-01  0.69157787417E-02  0.77923989400E-01  0.96408731585E-01  0.51100000000E-03 0.  1.
</event>
<event>
 8    1  0.2039519E+004  0.1043930E+01  0.7957747E-01            NaN
         13   -1    0    0    0    0  0.00000000000E+00  0.00000000000E+00  0.74505805969E-08  0.10566000000E+00  0.10566000000E+00 0.  1.
     999900   -1    0    0    0    0 -0.00000000000E+00 -0.00000000000E+00 -0.74505805969E-08  0.93827000000E+00  0.93827000000E+00 0.  1.
     999902    2    1    2    0    0 -0.11924631278E-01  0.58894458833E-02 -0.46529879298E-02  0.10298398367E+01  0.10297434421E+01 0.  0.
     999903    2    3    3    0    0 -0.30785944481E-01 -0.10325782322E+00 -0.76297136193E-01  0.14000740338E+00  0.46592569952E-01 0.  0.
         14    1    1    2    0    0  0.11924631278E-01 -0.58894458833E-02  0.46529879298E-02  0.14090163257E-01  0.00000000000E+00 0.  1.
     999901    1    3    3    0    0  0.18861313202E-01  0.10914726911E+00  0.71644148263E-01  0.88983243337E+00  0.88000000000E+00 0. -1.
        -11    1    4    4    0    0 -0.17326797252E-01 -0.85893051331E-01 -0.78856099123E-01  0.11788290656E+00  0.51100000000E-03 0. -1.
         11    1    4    4    0    0 -0.13459147229E-01 -0.17364771892E-01  0.25589629294E-02  0.22124496814E-01  0.51100000000E-03 0.  1.
</event>
<event>
 8    1  0.2039519E+004  0.1043930E+01  0.7957747E-01            NaN
         13   -1    0    0    0    0  0.00000000000E+00  0.00000000000E+00  0.74505805969E-08  0.10566000000E+00  0.10566000000E+00 0.  1.
     999900   -1    0    0    0    0 -0.00000000000E+00 -0.00000000000E+00 -0.74505805969E-08  0.93827000000E+00  0.93827000000E+00 0. -1.
     999902    2    1    2    0    0 -0.19081893249E-02  0.18596558976E-02 -0.13035391024E-01  0.10306250789E+01  0.10305391949E+01 0.  0.
     999903    2    3    3    0    0 -0.37447703883E-01 -0.10185197269E+00 -0.78778893750E-01  0.14138868335E+00  0.44816189180E-01 0.  0.
         14    1    1    2    0    0  0.19081893249E-02 -0.18596558976E-02  0.13035391024E-01  0.13304921108E-01  0.00000000000E+00 0.  1.
     999901    1    3    3    0    0  0.35539514558E-01  0.10371162859E+00  0.65743502726E-01  0.88923639554E+00  0.88000000000E+00 0.  1.
        -11    1    4    4    0    0 -0.36660701361E-01 -0.88795259364E-01 -0.46853272615E-01  0.10688355994E+00  0.51100000000E-03 0.  1.
         11    1    4    4    0    0 -0.78700252250E-03 -0.13056713327E-01 -0.31925621135E-01  0.34505123412E-01  0.51100000000E-03 0. -1.
</event>
<event>
 8    1  0.2039519E+004  0.1043930E+01  0.7957747E-01            NaN
         13   -1    0    0    0    0  0.00000000000E+00  0.00000000000E+00  0.74505805969E-08  0.10566000000E+00  0.10566000000E+00 0. -1.
     999900   -1    0    0    0    0 -0.00000000000E+00 -0.00000000000E+00 -0.74505805969E-08  0.93827000000E+00  0.93827000000E+00 0. -1.
     999902    2    1    2    0    0  0.44632366809E-02  0.10747409761E-01  0.87660288444E-02  0.10293604921E+01  0.10292573790E+01 0.  0.
     999903    2    3    3    0    0 -0.49993651041E-01  0.10080856091E+00 -0.69049375720E-01  0.13967976244E+00  0.45616758446E-01 0.  0.
         14    1    1    2    0    0 -0.44632366809E-02 -0.10747409761E-01 -0.87660288444E-02  0.14569507882E-01  0.00000000000E+00 0. -1.
     999901    1    3    3    0    0  0.54456887722E-01 -0.90061151151E-01  0.77815404565E-01  0.88968072967E+00  0.88000000000E+00 0. -1.
        -11    1    4    4    0    0 -0.51125130505E-01  0.10167114309E+00 -0.56530425519E-01  0.12706986439E+00  0.51100000000E-03 0.  1.
         11    1    4    4    0    0  0.11314794643E-02 -0.86258217313E-03 -0.12518950201E-01  0.12609898054E-01  0.51100000000E-03 0. -1.
</event>
<event>
 8    1  0.2039519E+004  0.1043930E+01  0.7957747E-01            NaN
         13   -1    0    0    0    0  0.00000000000E+00  0.00000000000E+00  0.74505805969E-08  0.10566000000E+00  0.10566000000E+00 0. -1.
     999900   -1    0    0    0    0 -0.00000000000E+00 -0.00000000000E+00 -0.74505805969E-08  0.93827000000E+00  0.93827000000E+00 0. -1.
     999902    2    1    2    0    0 -0.10659970593E-01 -0.49475522812E-03  0.92817536839E-02  0.10297867788E+01  0.10296896518E+01 0.  0.
     999903    2    3    3    0    0  0.22628723033E-01 -0.83452144077E-01  0.10322390314E+00  0.14028400027E+00  0.39345992105E-01 0.  0.
         14    1    1    2    0    0  0.10659970593E-01  0.49475522812E-03 -0.92817536839E-02  0.14143221246E-01  0.00000000000E+00 0.  1.
     999901    1    3    3    0    0 -0.33288693626E-01  0.82957388849E-01 -0.93942149457E-01  0.88950277848E+00  0.88000000000E+00 0. -1.
        -11    1    4    4    0    0  0.33068622803E-01 -0.50382361856E-01  0.63378277414E-01  0.87458466538E-01  0.51100000000E-03 0.  1.
         11    1    4    4    0    0 -0.10439899770E-01 -0.33069782220E-01  0.39845625727E-01  0.52825533730E-01  0.51100000000E-03 0. -1.
</event>
<event>
 8    1  0.2039519E+004  0.1043930E+01  0.7957747E-01            NaN
         13   -1    0    0    0    0  0.00000000000E+00  0.00000000000E+00  0.74505805969E-08  0.10566000000E+00  0.10566000000E+00 0.  1.
     999900   -1    0    0    0    0 -0.00000000000E+00 -0.00000000000E+00 -0.74505805969E-08  0.93827000000E+00  0.93827000000E+00 0. -1.
     999902    2    1    2    0    0  0.12509554904E-01  0.21605524172E-01  0.13454157555E-01  0.10155697815E+01  0.10151737187E+01 0.  0.
     999903    2    3    3    0    0 -0.11079221329E+00 -0.37455311917E-01 -0.14634715959E-02  0.12488799540E+00  0.43784183562E-01 0.  0.
         14    1    1    2    0    0 -0.12509554904E-01 -0.21605524172E-01 -0.13454157555E-01  0.28360218514E-01  0.00000000000E+00 0.  1.
     999901    1    3    3    0    0  0.12330176819E+00  0.59060836088E-01  0.14917629151E-01  0.89068178608E+00  0.88000000000E+00 0. -1.
        -11    1    4    4    0    0 -0.44558568654E-01 -0.22886999621E-02  0.16843492968E-01  0.47693485555E-01  0.51100000000E-03 0.  1.
         11    1    4    4    0    0 -0.66233644637E-01 -0.35166611955E-01 -0.18306964564E-01  0.77194509849E-01  0.51100000000E-03 0. -1.
</event>
<event>
 8    1  0.2039519E+004  0.1043930E+01  0.7957747E-01            NaN
         13   -1    0    0    0    0  0.00000000000E+00  0.00000000000E+00  0.74505805969E-08  0.10566000000E+00  0.10566000000E+00 0.  1.
     999900   -1    0    0    0    0 -0.00000000000E+00 -0.00000000000E+00 -0.74505805969E-08  0.93827000000E+00  0.93827000000E+00 0.  1.
     999902    2    1    2    0    0 -0.96251732287E-02 -0.67443967333E-02 -0.74870097287E-02  0.10299949305E+01  0.10299006606E+01 0.  0.
     999903    2    3    3    0    0  0.10107838898E+00  0.71128807516E-01 -0.44409665902E-01  0.13888169575E+00  0.45163691305E-01 0.  0.
         14    1    1    2    0    0  0.96251732287E-02  0.67443967333E-02  0.74870097287E-02  0.13935069489E-01  0.00000000000E+00 0.  1.
     999901    1    3    3    0    0 -0.11070356221E+00 -0.77873204250E-01  0.36922656173E-01  0.89111323476E+00  0.88000000000E+00 0.  1.
        -11    1    4    4    0    0  0.89422958835E-03  0.12971863090E-01 -0.14002529953E-01  0.19115460881E-01  0.51100000000E-03 0. -1.
         11    1    4    4    0    0  0.10018415939E+00  0.58156944426E-01 -0.30407135949E-01  0.11976623487E+00  0.51100000000E-03 0.  1.
</event>
<event>
 8    1  0.2039519E+004  0.1043930E+01  0.7957747E-01            NaN
         13   -1    0    0    0    0  0.00000000000E+00  0.00000000000E+00  0.74505805969E-08  0.10566000000E+00  0.10566000000E+00 0.  1.
     999900   -1    0    0    0    0 -0.00000000000E+00 -0.00000000000E+00 -0.74505805969E-08  0.93827000000E+00  0.93827000000E+00 0.  1.
     999902    2    1    2    0    0 -0.33657411750E-02 -0.79247090859E-02 -0.11602072410E-01  0.10294822558E+01  0.10293808711E+01 0.  0.
     999903    2    3    3    0    0  0.46967110089E-01  0.65717641844E-01 -0.10476935226E+00  0.14007979697E+00  0.46054472830E-01 0.  0.
         14    1    1    2    0    0  0.33657411750E-02  0.79247090859E-02  0.11602072410E-01  0.14447744182E-01  0.00000000000E+00 0. -1.
     999901    1    3    3    0    0 -0.50332851264E-01 -0.73642350930E-01  0.93167279848E-01  0.88940245885E+00  0.88000000000E+00 0. -1.
        -11    1    4    4    0    0  0.37423832857E-01  0.42186193899E-01 -0.36342380181E-01  0.67091340273E-01  0.51100000000E-03 0. -1.
         11    1    4    4    0    0  0.95432772311E-02  0.23531447945E-01 -0.68426972077E-01  0.72988456699E-01  0.51100000000E-03 0.  1.
</event>
<event>
 8    1  0.2039519E+004  0.1043930E+01  0.7957747E-01            NaN
         13   -1    0    0    0    0  0.00000000000E+00  0.00000000000E+00  0.74505805969E-08  0.10566000000E+00  0.10566000000E+00 0.  1.
     999900   -1    0    0    0    0 -0.00000000000E+00 -0.00000000000E+00 -0.74505805969E-08  0.93827000000E+00  0.93827000000E+00 0.  1.
     999902    2    1    2    0    0 -0.53586194105E-02 -0.92391492215E-02  0.91256464181E-02  0.10298817224E+01  0.10297859040E+01 0.  0.
     999903    2    3    3    0    0 -0.36964891883E-01 -0.67614723888E-01 -0.10773851831E+00  0.13967730928E+00  0.44317133055E-01 0.  0.
         14    1    1    2    0    0  0.53586194105E-02  0.92391492215E-02 -0.91256464181E-02  0.14048277577E-01  0.00000000000E+00 0. -1.
     999901    1    3    3    0    0  0.31606272473E-01  0.58375574666E-01  0.11686416473E+00  0.89020441314E+00  0.88000000000E+00 0. -1.
        -11    1    4    4    0    0 -0.27722201878E-01 -0.58293283219E-01 -0.10878872095E+00  0.12649851490E+00  0.51100000000E-03 0. -1.
         11    1    4    4    0    0 -0.92426900050E-02 -0.93214406690E-02  0.10502026420E-02  0.13178794378E-01  0.51100000000E-03 0.  1.
</event>
<event>
 8    1  0.2142274E+004  0.1043930E+01  0.7957747E-01            NaN
         13   -1    0    0    0    0  0.00000000000E+00  0.00000000000E+00  0.74505805969E-08  0.10566000000E+00  0.10566000000E+00 0. -1.
     999900   -1    0    0    0    0 -0.00000000000E+00 -0.00000000000E+00 -0.74505805969E-08  0.93827000000E+00  0.93827000000E+00 0.  1.
     999902    2    1    2    0    0  0.87993901262E-02 -0.63253322004E-02 -0.83781826087E-02  0.10302320791E+01  0.10301410116E+01 0.  0.
     999903    2    3    3    0    0  0.61070771670E-01 -0.15134228698E-01  0.11645100213E+00  0.13984327672E+00  0.45128949849E-01 0.  0.
         14    1    1    2    0    0 -0.87993901262E-02  0.63253322004E-02  0.83781826087E-02  0.13697920932E-01  0.00000000000E+00 0. -1.
     999901    1    3    3    0    0 -0.52271381544E-01  0.88088964980E-02 -0.12482918474E+00  0.89038880235E+00  0.88000000000E+00 0.  1.
        -11    1    4    4    0    0  0.29786407577E-01 -0.15339277775E-01  0.97882827784E-01  0.10345932831E+00  0.51100000000E-03 0. -1.
         11    1    4    4    0    0  0.31284364093E-01  0.20504907639E-03  0.18568174350E-01  0.36383948405E-01  0.51100000000E-03 0.  1.
</event>
<event>
 8    1  0.2039519E+004  0.1043930E+01  0.7957747E-01            NaN
         13   -1    0    0    0    0  0.00000000000E+00  0.00000000000E+00  0.74505805969E-08  0.10566000000E+00  0.10566000000E+00 0. -1.
     999900   -1    0    0    0    0 -0.00000000000E+00 -0.00000000000E+00 -0.74505805969E-08  0.93827000000E+00  0.93827000000E+00 0. -1.
     999902    2    1    2    0    0  0.66956865685E-02 -0.98776129511E-02  0.79458469687E-02  0.10295934753E+01  0.10294936563E+01 0.  0.
     999903    2    3    3    0    0 -0.99261937287E-01 -0.84753078856E-01  0.52489349029E-02  0.14007640027E+00  0.50574994071E-01 0.  0.
         14    1    1    2    0    0 -0.66956865685E-02  0.98776129511E-02 -0.79458469687E-02  0.14336524693E-01  0.00000000000E+00 0.  1.
     999901    1    3    3    0    0  0.10595762386E+00  0.74875465905E-01  0.26969120658E-02  0.88951707504E+00  0.88000000000E+00 0.  1.
        -11    1    4    4    0    0 -0.76570910914E-02 -0.13205202578E-01  0.17463863217E-01  0.23200346088E-01  0.51100000000E-03 0. -1.
         11    1    4    4    0    0 -0.91604846196E-01 -0.71547876278E-01 -0.12214928314E-01  0.11687605418E+00  0.51100000000E-03 0.  1.
</event>
<event>
 8    1  0.2039519E+004  0.1043930E+01  0.7957747E-01            NaN
         13   -1    0    0    0    0  0.00000000000E+00  0.00000000000E+00  0.74505805969E-08  0.10566000000E+00  0.10566000000E+00 0. -1.
     999900   -1    0    0    0    0 -0.00000000000E+00 -0.00000000000E+00 -0.74505805969E-08  0.93827000000E+00  0.93827000000E+00 0.  1.
     999902    2    1    2    0    0  0.13303538550E-01 -0.26098543407E-02 -0.39485077674E-02  0.10298095825E+01  0.10297127706E+01 0.  0.
     999903    2    3    3    0    0 -0.28851704867E-01 -0.48488146607E-01  0.11862041055E+00  0.13913286110E+00  0.45865346435E-01 0.  0.
         14    1    1    2    0    0 -0.13303538550E-01  0.26098543407E-02  0.39485077674E-02  0.14120417530E-01  0.00000000000E+00 0. -1.
     999901    1    3    3    0    0  0.42155243417E-01  0.45878292266E-01 -0.12256891832E+00  0.89067672137E+00  0.88000000000E+00 0.  1.
        -11    1    4    4    0    0 -0.26433295042E-01 -0.20998879457E-01  0.26365341387E-01  0.42837651344E-01  0.51100000000E-03 0.  1.
         11    1    4    4    0    0 -0.24184098251E-02 -0.27489267151E-01  0.92255069166E-01  0.96295209758E-01  0.51100000000E-03 0. -1.
</event>
<event>
 8    1  0.2039519E+004  0.1043930E+01  0.7957747E-01            NaN
         13   -1    0    0    0    0  0.00000000000E+00  0.00000000000E+00  0.74505805969E-08  0.10566000000E+00  0.10566000000E+00 0.  1.
     999900   -1    0    0    0    0 -0.00000000000E+00 -0.00000000000E+00 -0.74505805969E-08  0.93827000000E+00  0.93827000000E+00 0. -1.
     999902    2    1    2    0    0  0.76061768748E-02  0.33535144855E-02 -0.10289378317E-01  0.10307023285E+01  0.10306174454E+01 0.  0.
     999903    2    3    3    0    0  0.10320591963E+00 -0.36853783690E-01 -0.78689873035E-01  0.14197595596E+00  0.44220049000E-01 0.  0.
         14    1    1    2    0    0 -0.76061768748E-02 -0.33535144855E-02  0.10289378317E-01  0.13227671458E-01  0.00000000000E+00 0.  1.
     999901    1    3    3    0    0 -0.95599742757E-01  0.40207298176E-01  0.68400494718E-01  0.88872637258E+00  0.88000000000E+00 0. -1.
        -11    1    4    4    0    0  0.63137733339E-01 -0.85394181669E-03 -0.32508733301E-01  0.71022401041E-01  0.51100000000E-03 0. -1.
         11    1    4    4    0    0  0.40068186293E-01 -0.35999841873E-01 -0.46181139734E-01  0.70953554920E-01  0.51100000000E-03 0.  1.
</event>
<event>
 8    1  0.2039519E+004  0.1043930E+01  0.7957747E-01            NaN
         13   -1    0    0    0    0  0.00000000000E+00  0.00000000000E+00  0.74505805969E-08  0.10566000000E+00  0.10566000000E+00 0.  1.
     999900   -1    0    0    0    0 -0.00000000000E+00 -0.00000000000E+00 -0.74505805969E-08  0.93827000000E+00  0.93827000000E+00 0. -1.
     999902    2    1    2    0    0 -0.44872897599E-02  0.10083326576E-01  0.92464571439E-02  0.10295318677E+01  0.10294311829E+01 0.  0.
     999903    2    3    3    0    0 -0.57324167497E-01  0.46591348746E-02  0.12037541446E+00  0.14095390113E+00  0.45497188060E-01 0.  0.
         14    1    1    2    0    0  0.44872897599E-02 -0.10083326576E-01 -0.92464571439E-02  0.14398132307E-01  0.00000000000E+00 0. -1.
     999901    1    3    3    0    0  0.52836877737E-01  0.54241917010E-02 -0.11112895731E+00  0.88857796656E+00  0.88000000000E+00 0. -1.
        -11    1    4    4    0    0 -0.43389570641E-01  0.77756275866E-02  0.40671826867E-01  0.59979778647E-01  0.51100000000E-03 0. -1.
         11    1    4    4    0    0 -0.13934596855E-01 -0.31164927120E-02  0.79703587591E-01  0.80974122485E-01  0.51100000000E-03 0.  1.
</event>
<event>
 8    1  0.2039519E+004  0.1043930E+01  0.7957747E-01            NaN
         13   -1    0    0    0    0  0.00000000000E+00  0.00000000000E+00  0.74505805969E-08  0.10566000000E+00  0.10566000000E+00 0.  1.
     999900   -1    0    0    0    0 -0.00000000000E+00 -0.00000000000E+00 -0.74505805969E-08  0.93827000000E+00  0.93827000000E+00 0. -1.
     999902    2    1    2    0    0 -0.13254010262E-01  0.93345583696E-04  0.12887394697E-02  0.10306131554E+01  0.10305271164E+01 0.  0.
     999903    2    3    3    0    0  0.95499499869E-01  0.66161936098E-01  0.62626712489E-01  0.13934735240E+00  0.44699253232E-01 0.  0.
         14    1    1    2    0    0  0.13254010262E-01 -0.93345583696E-04 -0.12887394697E-02  0.13316844628E-01  0.00000000000E+00 0. -1.
     999901    1    3    3    0    0 -0.10875351013E+00 -0.66068590514E-01 -0.61337973020E-01  0.89126580297E+00  0.88000000000E+00 0.  1.
        -11    1    4    4    0    0  0.98717729541E-01  0.55364836064E-01  0.56250423046E-01  0.12639155989E+00  0.51100000000E-03 0. -1.
         11    1    4    4    0    0 -0.32182296723E-02  0.10797100034E-01  0.63762894433E-02  0.12955792505E-01  0.51100000000E-03 0.  1.
</event>
<event>
 8    1  0.2039519E+004  0.1043930E+01  0.7957747E-01            NaN
         13   -1    0    0    0    0  0.00000000000E+00  0.00000000000E+00  0.74505805969E-08  0.10566000000E+00  0.10566000000E+00 0. -1.
     999900   -1    0    0    0    0 -0.00000000000E+00 -0.00000000000E+00 -0.74505805969E-08  0.93827000000E+00  0.93827000000E+00 0.  1.
     999902    2    1    2    0    0 -0.13602496343E-01  0.12929371856E-01  0.61015846115E-02  0.10241961231E+01  0.10240059925E+01 0.  0.
     999903    2    3    3    0    0 -0.83739041961E-01 -0.50144311858E-01 -0.81840909091E-01  0.13479671517E+00  0.44108285597E-01 0.  0.
         14    1    1    2    0    0  0.13602496343E-01 -0.12929371856E-01 -0.61015846115E-02  0.19733876916E-01  0.00000000000E+00 0.  1.
     999901    1    3    3    0    0  0.70136545617E-01  0.63073683714E-01  0.87942493702E-01  0.88939940792E+00  0.88000000000E+00 0.  1.
        -11    1    4    4    0    0 -0.30226465279E-01 -0.36251978026E-01 -0.57483087385E-01  0.74380182646E-01  0.51100000000E-03 0. -1.
         11    1    4    4    0    0 -0.53512576682E-01 -0.13892333832E-01 -0.24357821705E-01  0.60416532519E-01  0.51100000000E-03 0.  1.
</event>
<event>
 8    1  0.2039519E+004  0.1043930E+01  0.7957747E-01            NaN
         13   -1    0    0    0    0  0.00000000000E+00  0.00000000000E+00  0.74505805969E-08  0.10566000000E+00  0.10566000000E+00 0.  1.
     999900   -1    0    0    0    0 -0.00000000000E+00 -0.00000000000E+00 -0.74505805969E-08  0.93827000000E+00  0.93827000000E+00 0.  1.
     999902    2    1    2    0    0 -0.51043303844E-02 -0.76679302146E-02  0.93722706466E-02  0.10307888129E+01  0.10307050431E+01 0.  0.
     999903    2    3    3    0    0 -0.13010989453E+00  0.28375783584E-01 -0.11296110357E-01  0.14098393405E+00  0.44889840768E-01 0.  0.
         14    1    1    2    0    0  0.51043303844E-02  0.76679302146E-02 -0.93722706466E-02  0.13141187143E-01  0.00000000000E+00 0. -1.
     999901    1    3    3    0    0  0.12500556414E+00 -0.36043713799E-01  0.20668381003E-01  0.88980487880E+00  0.88000000000E+00 0. -1.
        -11    1    4    4    0    0 -0.69699252088E-01  0.36016804685E-01  0.26957629944E-02  0.78503020455E-01  0.51100000000E-03 0. -1.
         11    1    4    4    0    0 -0.60410642438E-01 -0.76410211007E-02 -0.13991873351E-01  0.62480913598E-01  0.51100000000E-03 0.  1.
</event>
<event>
 8    1  0.2039519E+004  0.1043930E+01  0.7957747E-01            NaN
         13   -1    0    0    0    0  0.00000000000E+00  0.00000000000E+00  0.74505805969E-08  0.10566000000E+00  0.10566000000E+00 0. -1.
     999900   -1    0    0    0    0 -0.00000000000E+00 -0.00000000000E+00 -0.74505805969E-08  0.93827000000E+00  0.93827000000E+00 0.  1.
     999902    2    1    2    0    0  0.79215325930E-02  0.28106275408E-03 -0.13445915747E-01  0.10283215944E+01  0.10282031313E+01 0.  0.
     999903    2    3    3    0    0 -0.11501638541E+00  0.31160566541E-01 -0.53966978995E-01  0.13831640790E+00  0.44935999525E-01 0.  0.
         14    1    1    2    0    0 -0.79215325930E-02 -0.28106275408E-03  0.13445915747E-01  0.15608405594E-01  0.00000000000E+00 0. -1.
     999901    1    3    3    0    0  0.12293791800E+00 -0.30879503787E-01  0.40521063247E-01  0.89000518650E+00  0.88000000000E+00 0. -1.
        -11    1    4    4    0    0 -0.59427899181E-01  0.39163253483E-01 -0.31258808052E-01  0.77735512003E-01  0.51100000000E-03 0. -1.
         11    1    4    4    0    0 -0.55588486228E-01 -0.80026869416E-02 -0.22708170942E-01  0.60580895900E-01  0.51100000000E-03 0.  1.
</event>
<event>
 7    1  0.2549797E+004  0.1043930E+01  0.7957747E-01            NaN
         13   -1    0    0    0    0  0.00000000000E+00  0.00000000000E+00  0.74505805969E-08  0.10566000000E+00  0.10566000000E+00 0. -1.
     999900   -1    0    0    0    0 -0.00000000000E+00 -0.00000000000E+00 -0.74505805969E-08  0.93827000000E+00  0.93827000000E+00 0.  1.
     999903    2    1    2    0    0 -0.62606216931E-01  0.55820001430E-01 -0.26953766139E-01  0.98848111539E-01  0.44822234300E-01 0.  0.
         14    1    1    2    0    0 -0.24133582688E-03 -0.61440134038E-01 -0.89679460161E-02  0.62091644924E-01  0.00000000000E+00 0. -1.
     999901    1    1    2    0    0  0.62847552758E-01  0.56201326076E-02  0.35921712155E-01  0.88299024354E+00  0.88000000000E+00 0. -1.
        -11    1    3    3    0    0 -0.77447364792E-02  0.12183871689E-01  0.11885195759E-01  0.18706861621E-01  0.51100000000E-03 0. -1.
         11    1    3    3    0    0 -0.54861480452E-01  0.43636129741E-01 -0.38838961897E-01  0.80141249918E-01  0.51100000000E-03 0.  1.
</event>
<event>
 8    1  0.2039519E+004  0.1043930E+01  0.7957747E-01            NaN
         13   -1    0    0    0    0  0.00000000000E+00  0.00000000000E+00  0.74505805969E-08  0.10566000000E+00  0.10566000000E+00 0.  1.
     999900   -1    0    0    0    0 -0.00000000000E+00 -0.00000000000E+00 -0.74505805969E-08  0.93827000000E+00  0.93827000000E+00 0. -1.
     999902    2    1    2    0    0 -0.37961687333E-02 -0.59976615730E-02  0.15823080803E-02  0.10366576867E+01  0.10366321782E+01 0.  0.
     999903    2    3    3    0    0  0.52212010993E-01 -0.43612495980E-01  0.12110405882E+00  0.14601901653E+00  0.45024618013E-01 0.  0.
         14    1    1    2    0    0  0.37961687333E-02  0.59976615730E-02 -0.15823080803E-02  0.72723132672E-02  0.00000000000E+00 0. -1.
     999901    1    3    3    0    0 -0.56008179726E-01  0.37614834407E-01 -0.11952175074E+00  0.89063867020E+00  0.88000000000E+00 0. -1.
        -11    1    4    4    0    0 -0.36130575503E-02  0.49350016025E-02  0.18729190342E-01  0.19709188658E-01  0.51100000000E-03 0. -1.
         11    1    4    4    0    0  0.55825068543E-01 -0.48547497583E-01  0.10237486848E+00  0.12630982787E+00  0.51100000000E-03 0.  1.
</event>
<event>
 8    1  0.2039519E+004  0.1043930E+01  0.7957747E-01            NaN
         13   -1    0    0    0    0  0.00000000000E+00  0.00000000000E+00  0.74505805969E-08  0.10566000000E+00  0.10566000000E+00 0. -1.
     999900   -1    0    0    0    0 -0.00000000000E+00 -0.00000000000E+00 -0.74505805969E-08  0.93827000000E+00  0.93827000000E+00 0.  1.
     999902    2    1    2    0    0  0.61090234375E-02 -0.10222612007E-01 -0.78710386497E-02  0.10296550144E+01  0.10295560565E+01 0.  0.
     999903    2    3    3    0    0 -0.90788950316E-01  0.83517235725E-01  0.42422397799E-01  0.13796795827E+00  0.44919210944E-01 0.  0.
         14    1    1    2    0    0 -0.61090234375E-02  0.10222612007E-01  0.78710386497E-02  0.14274985570E-01  0.00000000000E+00 0. -1.
     999901    1    3    3    0    0  0.96897973754E-01 -0.93739847732E-01 -0.50293436449E-01  0.89168705616E+00  0.88000000000E+00 0.  1.
        -11    1    4    4    0    0 -0.52323007700E-01  0.23481754147E-01  0.53466365551E-02  0.57601541265E-01  0.51100000000E-03 0. -1.
         11    1    4    4    0    0 -0.38465942616E-01  0.60035481578E-01  0.37075761244E-01  0.80366417007E-01  0.51100000000E-03 0.  1.
</event>
<event>
 8    1  0.2039519E+004  0.1043930E+01  0.7957747E-01            NaN
         13   -1    0    0    0    0  0.00000000000E+00  0.00000000000E+00  0.74505805969E-08  0.10566000000E+00  0.10566000000E+00 0.  1.
     999900   -1    0    0    0    0 -0.00000000000E+00 -0.00000000000E+00 -0.74505805969E-08  0.93827000000E+00  0.93827000000E+00 0. -1.
     999902    2    1    2    0    0 -0.71657698430E-02 -0.10987134855E-01 -0.52973127808E-02  0.10297833781E+01  0.10296862040E+01 0.  0.
     999903    2    3    3    0    0 -0.12647114785E+00 -0.41943002744E-01 -0.12320069557E-01  0.14116571106E+00  0.44964509875E-01 0.  0.
         14    1    1    2    0    0  0.71657698430E-02  0.10987134855E-01  0.52973127808E-02  0.14146621946E-01  0.00000000000E+00 0. -1.
     999901    1    3    3    0    0  0.11930537801E+00  0.30955867888E-01  0.70227567763E-02  0.88861766699E+00  0.88000000000E+00 0.  1.
        -11    1    4    4    0    0 -0.10438000296E+00 -0.39597750799E-01 -0.26582958615E-01  0.11476097636E+00  0.51100000000E-03 0. -1.
         11    1    4    4    0    0 -0.22091144893E-01 -0.23452519445E-02  0.14262889058E-01  0.26404734702E-01  0.51100000000E-03 0.  1.
</event>
<event>
 8    1  0.2039519E+004  0.1043930E+01  0.7957747E-01            NaN
         13   -1    0    0    0    0  0.00000000000E+00  0.00000000000E+00  0.74505805969E-08  0.10566000000E+00  0.10566000000E+00 0. -1.
     999900   -1    0    0    0    0 -0.00000000000E+00 -0.00000000000E+00 -0.74505805969E-08  0.93827000000E+00  0.93827000000E+00 0.  1.
     999902    2    1    2    0    0 -0.98551353021E-02  0.83568590771E-02  0.34239843933E-02  0.10305627095E+01  0.10304760132E+01 0.  0.
     999903    2    3    3    0    0 -0.10448278619E-01  0.93980347249E-01  0.95352756024E-01  0.14164053487E+00  0.45037993311E-01 0.  0.
         14    1    1    2    0    0  0.98551353021E-02 -0.83568590771E-02 -0.34239843933E-02  0.13367290473E-01  0.00000000000E+00 0.  1.
     999901    1    3    3    0    0  0.59314331654E-03 -0.85623488172E-01 -0.91928771631E-01  0.88892217466E+00  0.88000000000E+00 0.  1.
        -11    1    4    4    0    0  0.22841567893E-02  0.10403736229E-01 -0.38160425553E-02  0.11326005542E-01  0.51100000000E-03 0.  1.
         11    1    4    4    0    0 -0.12732435408E-01  0.83576611020E-01  0.99168798579E-01  0.13031452933E+00  0.51100000000E-03 0. -1.
</event>
<event>
 8    1  0.2039519E+004  0.1043930E+01  0.7957747E-01            NaN
         13   -1    0    0    0    0  0.00000000000E+00  0.00000000000E+00  0.74505805969E-08  0.10566000000E+00  0.10566000000E+00 0.  1.
     999900   -1    0    0    0    0 -0.00000000000E+00 -0.00000000000E+00 -0.74505805969E-08  0.93827000000E+00  0.93827000000E+00 0. -1.
     999902    2    1    2    0    0  0.35130130874E-02  0.11473543122E-01 -0.45925905069E-02  0.10310818351E+01  0.10310017824E+01 0.  0.
     999903    2    3    3    0    0 -0.23950309668E-01 -0.56593473373E-01 -0.11860509695E+00  0.14069641047E+00  0.44179999292E-01 0.  0.
         14    1    1    2    0    0 -0.35130130874E-02 -0.11473543122E-01  0.45925905069E-02  0.12848164860E-01  0.00000000000E+00 0. -1.
     999901    1    3    3    0    0  0.27463322755E-01  0.68067016495E-01  0.11401250644E+00  0.89038542466E+00  0.88000000000E+00 0.  1.
        -11    1    4    4    0    0  0.10586100465E-01 -0.23272214876E-01 -0.26433117047E-01  0.36778149846E-01  0.51100000000E-03 0. -1.
         11    1    4    4    0    0 -0.34536410132E-01 -0.33321258497E-01 -0.92171979898E-01  0.10391826063E+00  0.51100000000E-03 0.  1.
</event>
<event>
 8    1  0.2039519E+004  0.1043930E+01  0.7957747E-01            NaN
         13   -1    0    0    0    0  0.00000000000E+00  0.00000000000E+00  0.74505805969E-08  0.10566000000E+00  0.10566000000E+00 0.  1.
     999900   -1    0    0    0    0 -0.00000000000E+00 -0.00000000000E+00 -0.74505805969E-08  0.93827000000E+00  0.93827000000E+00 0.  1.
     999902    2    1    2    0    0  0.62423403061E-02 -0.37833331647E-02  0.12013789897E-01  0.10298725618E+01  0.10297766175E+01 0.  0.
     999903    2    3    3    0    0 -0.14877725646E-01  0.21891881162E-01  0.12882732969E+00  0.14153103008E+00  0.52287191724E-01 0.  0.
         14    1    1    2    0    0 -0.62423403061E-02  0.37833331647E-02 -0.12013789897E-01  0.14057438245E-01  0.00000000000E+00 0. -1.
     999901    1    3    3    0    0  0.21120065952E-01 -0.25675214326E-01 -0.11681353980E+00  0.88834153167E+00  0.88000000000E+00 0.  1.
        -11    1    4    4    0    0 -0.20973100371E-01  0.24804145107E-01  0.36134434898E-01  0.48590894827E-01  0.51100000000E-03 0.  1.
         11    1    4    4    0    0  0.60953747252E-02 -0.29122639455E-02  0.92692894797E-01  0.92940135254E-01  0.51100000000E-03 0. -1.
</event>
<event>
 8    1  0.2039519E+004  0.1043930E+01  0.7957747E-01            NaN
         13   -1    0    0    0    0  0.00000000000E+00  0.00000000000E+00  0.74505805969E-08  0.10566000000E+00  0.10566000000E+00 0.  1.
     999900   -1    0    0    0    0 -0.00000000000E+00 -0.00000000000E+00 -0.74505805969E-08  0.93827000000E+00  0.93827000000E+00 0.  1.
     999902    2    1    2    0    0 -0.96032472434E-02 -0.77962191253E-02 -0.68095235859E-02  0.10298100495E+01  0.10297132441E+01 0.  0.
     999903    2    3    3    0    0 -0.89159202292E-02  0.12626378637E+00  0.34358203609E-01  0.13870548817E+00  0.45129689887E-01 0.  0.
         14    1    1    2    0    0  0.96032472434E-02  0.77962191253E-02  0.68095235859E-02  0.14119950486E-01  0.00000000000E+00 0.  1.
     999901    1    3    3    0    0 -0.68732701423E-03 -0.13406000550E+00 -0.41167727195E-01  0.89110456135E+00  0.88000000000E+00 0.  1.
        -11    1    4    4    0    0 -0.13533253630E-01  0.19540260654E-01 -0.59856614620E-02  0.24516525129E-01  0.51100000000E-03 0.  1.
         11    1    4    4    0    0  0.46173334011E-02  0.10672352572E+00  0.40343865071E-01  0.11418896304E+00  0.51100000000E-03 0. -1.
</event>
<event>
 8    1  0.2039519E+004  0.1043930E+01  0.7957747E-01            NaN
         13   -1    0    0    0    0  0.00000000000E+00  0.00000000000E+00  0.74505805969E-08  0.10566000000E+00  0.10566000000E+00 0.  1.
     999900   -1    0    0    0    0 -0.00000000000E+00 -0.00000000000E+00 -0.74505805969E-08  0.93827000000E+00  0.93827000000E+00 0. -1.
     999902    2    1    2    0    0 -0.55488411093E-02 -0.37515590054E-02 -0.11831061260E-01  0.10303344918E+01  0.10302447899E+01 0.  0.
     999903    2    3    3    0    0  0.94322791980E-01  0.90040312833E-01  0.15857685240E-01  0.13930254793E+00  0.46364713485E-01 0.  0.
         14    1    1    2    0    0  0.55488411093E-02  0.37515590054E-02  0.11831061260E-01  0.13595508198E-01  0.00000000000E+00 0.  1.
     999901    1    3    3    0    0 -0.99871633089E-01 -0.93791871838E-01 -0.27688746500E-01  0.89103194387E+00  0.88000000000E+00 0.  1.
        -11    1    4    4    0    0  0.45160464590E-01  0.71887108724E-01  0.18259193248E-01  0.86838258974E-01  0.51100000000E-03 0. -1.
         11    1    4    4    0    0  0.49162327390E-01  0.18153204109E-01 -0.24015080082E-02  0.52464288955E-01  0.51100000000E-03 0.  1.
</event>
<event>
 7    1  0.2039519E+004  0.1043930E+01  0.7957747E-01            NaN
         13   -1    0    0    0    0  0.00000000000E+00  0.00000000000E+00  0.74505805969E-08  0.10566000000E+00  0.10566000000E+00 0.  1.
     999900   -1    0    0    0    0 -0.00000000000E+00 -0.00000000000E+00 -0.74505805969E-08  0.93827000000E+00  0.93827000000E+00 0. -1.
     999902    2    1    2    0    0 -0.21782669856E-02  0.99667243136E-02 -0.95296863245E-02  0.10299695071E+01  0.10298748906E+01 0.  0.
         14    1    1    2    0    0  0.21782669856E-02 -0.99667243136E-02  0.95296863245E-02  0.13960492901E-01  0.00000000000E+00 0.  1.
     999901    1    3    3    0    0 -0.39307105129E-01 -0.94662696590E-01  0.54948356294E-01  0.88765161888E+00  0.88000000000E+00 0. -1.
        -11    1    3    3    0    0  0.15190048521E-01  0.10527252705E-01 -0.37794323544E-01  0.42074132632E-01  0.51100000000E-03 0. -1.
         11    1    3    3    0    0  0.21938789622E-01  0.94102168198E-01 -0.26683719074E-01  0.10024375559E+00  0.51100000000E-03 0.  1.
</event>
<event>
 8    1  0.2039519E+004  0.1043930E+01  0.7957747E-01            NaN
         13   -1    0    0    0    0  0.00000000000E+00  0.00000000000E+00  0.74505805969E-08  0.10566000000E+00  0.10566000000E+00 0.  1.
     999900   -1    0    0    0    0 -0.00000000000E+00 -0.00000000000E+00 -0.74505805969E-08  0.93827000000E+00  0.93827000000E+00 0.  1.
     999902    2    1    2    0    0 -0.24199746387E-04 -0.17260829660E-01  0.15177335820E-01  0.10209454759E+01  0.10206867180E+01 0.  0.
     999903    2    3    3    0    0 -0.88635762480E-01 -0.59879411446E-02  0.88533954968E-01  0.13338686901E+00  0.45405305994E-01 0.  0.
         14    1    1    2    0    0  0.24199746387E-04  0.17260829660E-01 -0.15177335820E-01  0.22984524115E-01  0.00000000000E+00 0. -1.
     999901    1    3    3    0    0  0.88611562734E-01 -0.11272888515E-01 -0.73356619148E-01  0.88755860688E+00  0.88000000000E+00 0.  1.
        -11    1    4    4    0    0 -0.64036366783E-01  0.16557955018E-01  0.54296527199E-01  0.85575674884E-01  0.51100000000E-03 0.  1.
         11    1    4    4    0    0 -0.24599395697E-01 -0.22545896162E-01  0.34237427770E-01  0.47811194126E-01  0.51100000000E-03 0. -1.
</event>
<event>
 8    1  0.2039519E+004  0.1043930E+01  0.7957747E-01            NaN
         13   -1    0    0    0    0  0.00000000000E+00  0.00000000000E+00  0.74505805969E-08  0.10566000000E+00  0.10566000000E+00 0.  1.
     999900   -1    0    0    0    0 -0.00000000000E+00 -0.00000000000E+00 -0.74505805969E-08  0.93827000000E+00  0.93827000000E+00 0. -1.
     999902    2    1    2    0    0 -0.13441581749E-01  0.75095230446E-03 -0.31929989160E-02  0.10300939857E+01  0.10300010602E+01 0.  0.
     999903    2    3    3    0    0  0.40814661382E-01 -0.31891962298E-01  0.12133142075E+00  0.13907455221E+00  0.44016855478E-01 0.  0.
         14    1    1    2    0    0  0.13441581749E-01 -0.75095230446E-03  0.31929989160E-02  0.13836014287E-01  0.00000000000E+00 0. -1.
     999901    1    3    3    0    0 -0.54256243131E-01  0.32642914602E-01 -0.12452441967E+00  0.89101943351E+00  0.88000000000E+00 0.  1.
        -11    1    4    4    0    0  0.46036068284E-01 -0.14223462991E-01  0.99120752273E-01  0.11021257249E+00  0.51100000000E-03 0. -1.
         11    1    4    4    0    0 -0.52214069023E-02 -0.17668499307E-01  0.22210668482E-01  0.28861979717E-01  0.51100000000E-03 0.  1.
</event>
<event>
 8    1  0.2039519E+004  0.1043930E+01  0.7957747E-01            NaN
         13   -1    0    0    0    0  0.00000000000E+00  0.00000000000E+00  0.74505805969E-08  0.10566000000E+00  0.10566000000E+00 0.  1.
     999900   -1    0    0    0    0 -0.00000000000E+00 -0.00000000000E+00 -0.74505805969E-08  0.93827000000E+00  0.93827000000E+00 0. -1.
     999902    2    1    2    0    0 -0.11223886508E-01 -0.56363899669E-02  0.62994975819E-02  0.10298790858E+01  0.10297832312E+01 0.  0.
     999903    2    3    3    0    0  0.77514254888E-01  0.19944413204E-02  0.10664906491E+00  0.13970903295E+00  0.46175245893E-01 0.  0.
         14    1    1    2    0    0  0.11223886508E-01  0.56363899669E-02 -0.62994975819E-02  0.14050914205E-01  0.00000000000E+00 0.  1.
     999901    1    3    3    0    0 -0.88738141397E-01 -0.76308312873E-02 -0.10034956733E+00  0.89017005285E+00  0.88000000000E+00 0. -1.
        -11    1    4    4    0    0  0.30518362440E-01  0.19375022590E-01  0.65724004047E-01  0.75011117678E-01  0.51100000000E-03 0.  1.
         11    1    4    4    0    0  0.46995892448E-01 -0.17380581270E-01  0.40925060865E-01  0.64697915268E-01  0.51100000000E-03 0. -1.
</event>
<event>
 8    1  0.2039519E+004  0.1043930E+01  0.7957747E-01            NaN
         13   -1    0    0    0    0  0.00000000000E+00  0.00000000000E+00  0.74505805969E-08  0.10566000000E+00  0.10566000000E+00 0. -1.
     999900   -1    0    0    0    0 -0.00000000000E+00 -0.00000000000E+00 -0.74505805969E-08  0.93827000000E+00  0.93827000000E+00 0. -1.
     999902    2    1    2    0    0 -0.25841261907E-01 -0.62354389514E-02 -0.13814056713E-02  0.10173112134E+01  0.10169629026E+01 0.  0.
     999903    2    3    3    0    0 -0.10813675944E+00 -0.29398178853E-01 -0.55019732537E-01  0.13154254639E+00  0.41454298688E-01 0.  0.
         14    1    1    2    0    0  0.25841261907E-01  0.62354389514E-02  0.13814056713E-02  0.26618786552E-01  0.00000000000E+00 0. -1.
     999901    1    3    3    0    0  0.82295497535E-01  0.23162739902E-01  0.53638326866E-01  0.88576866706E+00  0.88000000000E+00 0. -1.
        -11    1    4    4    0    0 -0.20683985964E-01 -0.24248311516E-01 -0.14364153966E-01  0.34962807767E-01  0.51100000000E-03 0.  1.
         11    1    4    4    0    0 -0.87452773478E-01 -0.51498673366E-02 -0.40655578571E-01  0.96579738623E-01  0.51100000000E-03 0. -1.
</event>
<event>
 8    1  0.2039519E+004  0.1043930E+01  0.7957747E-01            NaN
         13   -1    0    0    0    0  0.00000000000E+00  0.00000000000E+00  0.74505805969E-08  0.10566000000E+00  0.10566000000E+00 0. -1.
     999900   -1    0    0    0    0 -0.00000000000E+00 -0.00000000000E+00 -0.74505805969E-08  0.93827000000E+00  0.93827000000E+00 0.  1.
     999902    2    1    2    0    0 -0.46709480864E-02 -0.12468264313E-01 -0.19059638311E-02  0.10304797930E+01  0.10303920107E+01 0.  0.
     999903    2    3    3    0    0 -0.11903925435E-01 -0.12529381885E+00 -0.45061786848E-01  0.14219811086E+00  0.48471575317E-01 0.  0.
         14    1    1    2    0    0  0.46709480864E-02  0.12468264313E-01  0.19059638311E-02  0.13450207029E-01  0.00000000000E+00 0.  1.
     999901    1    3    3    0    0  0.72329773483E-02  0.11282555454E+00  0.43155823017E-01  0.88828168211E+00  0.88000000000E+00 0. -1.
        -11    1    4    4    0    0 -0.27213524680E-01 -0.59367369397E-01 -0.10320426515E-01  0.66119836654E-01  0.51100000000E-03 0. -1.
         11    1    4    4    0    0  0.15309599245E-01 -0.65926449456E-01 -0.34741360334E-01  0.76078274203E-01  0.51100000000E-03 0.  1.
</event>
<event>
 8    1  0.2039519E+004  0.1043930E+01  0.7957747E-01            NaN
         13   -1    0    0    0    0  0.00000000000E+00  0.00000000000E+00  0.74505805969E-08  0.10566000000E+00  0.10566000000E+00 0. -1.
     999900   -1    0    0    0    0 -0.00000000000E+00 -0.00000000000E+00 -0.74505805969E-08  0.93827000000E+00  0.93827000000E+00 0. -1.
     999902    2    1    2    0    0  0.12241861321E-01  0.53345511466E-02 -0.61426239917E-02  0.10292312778E+01  0.10291263143E+01 0.  0.
     999903    2    3    3    0    0 -0.28418993544E-01  0.12911850830E+00  0.84307888599E-03  0.13961081199E+00  0.44846846740E-01 0.  0.
         14    1    1    2    0    0 -0.12241861321E-01 -0.53345511466E-02  0.61426239917E-02  0.14698722190E-01  0.00000000000E+00 0.  1.
     999901    1    3    3    0    0  0.40660854865E-01 -0.12378395715E+00 -0.69857028776E-02  0.88962046582E+00  0.88000000000E+00 0.  1.
        -11    1    4    4    0    0 -0.98370893643E-02  0.11684227729E+00  0.23820866248E-02  0.11728095134E+00  0.51100000000E-03 0. -1.
         11    1    4    4    0    0 -0.18581904180E-01  0.12276231008E-01 -0.15390077388E-02  0.22329860648E-01  0.51100000000E-03 0.  1.
</event>
<event>
 7    1  0.2039519E+004  0.1043930E+01  0.7957747E-01            NaN
         13   -1    0    0    0    0  0.00000000000E+00  0.00000000000E+00  0.74505805969E-08  0.10566000000E+00  0.10566000000E+00 0. -1.
     999900   -1    0    0    0    0 -0.00000000000E+00 -0.00000000000E+00 -0.74505805969E-08  0.93827000000E+00  0.93827000000E+00 0.  1.
     999903    2    1    2    0    0  0.10956939895E+00  0.26536794929E-01 -0.22645528702E-01  0.12301605828E+00  0.43708991694E-01 0.  0.
         14    1    1    2    0    0 -0.11099630485E-01 -0.10096126675E-01  0.31865354492E-01  0.35221220701E-01  0.00000000000E+00 0. -1.
     999901    1    1    2    0    0 -0.98469768461E-01 -0.16440668254E-01 -0.92198257901E-02  0.88569272102E+00  0.88000000000E+00 0.  1.
        -11    1    3    3    0    0  0.64369932681E-01  0.20247418994E-02 -0.30042192260E-01  0.71066041468E-01  0.51100000000E-03 0. -1.
         11    1    3    3    0    0  0.45199466264E-01  0.24512053030E-01  0.73966635576E-02  0.51950016815E-01  0.51100000000E-03 0.  1.
</event>
<event>
 8    1  0.2039519E+004  0.1043930E+01  0.7957747E-01            NaN
         13   -1    0    0    0    0  0.00000000000E+00  0.00000000000E+00  0.74505805969E-08  0.10566000000E+00  0.10566000000E+00 0. -1.
     999900   -1    0    0    0    0 -0.00000000000E+00 -0.00000000000E+00 -0.74505805969E-08  0.93827000000E+00  0.93827000000E+00 0.  1.
     999902    2    1    2    0    0 -0.42137221748E-02 -0.12741283558E-01  0.44025169320E-02  0.10298063349E+01  0.10297094782E+01 0.  0.
     999903    2    3    3    0    0  0.23478086310E-01 -0.13167679774E+00  0.11175558233E-01  0.14134791329E+00  0.44320874217E-01 0.  0.
         14    1    1    2    0    0  0.42137221748E-02  0.12741283558E-01 -0.44025169320E-02  0.14123665126E-01  0.00000000000E+00 0.  1.
     999901    1    3    3    0    0 -0.27691808484E-01  0.11893551418E+00 -0.67730413006E-02  0.88845842158E+00  0.88000000000E+00 0. -1.
        -11    1    4    4    0    0  0.13652867150E-01 -0.79604939510E-01  0.28414633576E-01  0.85621257279E-01  0.51100000000E-03 0.  1.
         11    1    4    4    0    0  0.98252191600E-02 -0.52071858227E-01 -0.17239075344E-01  0.55726656013E-01  0.51100000000E-03 0. -1.
</event>
<event>
 7    1  0.2039519E+004  0.1043930E+01  0.7957747E-01            NaN
         13   -1    0    0    0    0  0.00000000000E+00  0.00000000000E+00  0.74505805969E-08  0.10566000000E+00  0.10566000000E+00 0.  1.
     999900   -1    0    0    0    0 -0.00000000000E+00 -0.00000000000E+00 -0.74505805969E-08  0.93827000000E+00  0.93827000000E+00 0. -1.
     999903    2    1    2    0    0  0.29380521797E-01  0.11464847975E-01 -0.66812353292E-01  0.86361251480E-01  0.44718199926E-01 0.  0.
         14    1    1    2    0    0 -0.68041260412E-01  0.20611356878E-01  0.24222548032E-01  0.75107742503E-01  0.00000000000E+00 0.  1.
     999901    1    1    2    0    0  0.38660738614E-01 -0.32076204853E-01  0.42589805261E-01  0.88246100602E+00  0.88000000000E+00 0.  1.
        -11    1    3    3    0    0  0.12909326139E-01  0.15209514047E-01 -0.27947847256E-02  0.20150731043E-01  0.51100000000E-03 0. -1.
         11    1    3    3    0    0  0.16471195658E-01 -0.37446660713E-02 -0.64017568567E-01  0.66210520438E-01  0.51100000000E-03 0.  1.
</event>
<event>
 8    1  0.2039519E+004  0.1043930E+01  0.7957747E-01            NaN
         13   -1    0    0    0    0  0.00000000000E+00  0.00000000000E+00  0.74505805969E-08  0.10566000000E+00  0.10566000000E+00 0.  1.
     999900   -1    0    0    0    0 -0.00000000000E+00 -0.00000000000E+00 -0.74505805969E-08  0.93827000000E+00  0.93827000000E+00 0.  1.
     999902    2    1    2    0    0  0.93814916079E-02 -0.10287037542E-01 -0.89376048604E-03  0.10299788590E+01  0.10298843701E+01 0.  0.
     999903    2    3    3    0    0  0.10445073846E+00 -0.54838108050E-01 -0.64073859773E-01  0.14148874400E+00  0.44681431432E-01 0.  0.
         14    1    1    2    0    0 -0.93814916079E-02  0.10287037542E-01  0.89376048604E-03  0.13951140957E-01  0.00000000000E+00 0.  1.
     999901    1    3    3    0    0 -0.95069246848E-01  0.44551070507E-01  0.63180099287E-01  0.88849011504E+00  0.88000000000E+00 0.  1.
        -11    1    4    4    0    0  0.73992706101E-01 -0.29107692675E-01 -0.19873064185E-01  0.81959612799E-01  0.51100000000E-03 0. -1.
         11    1    4    4    0    0  0.30458032355E-01 -0.25730415375E-01 -0.44200795588E-01  0.59529131204E-01  0.51100000000E-03 0.  1.
</event>
<event>
 8    1  0.2039519E+004  0.1043930E+01  0.7957747E-01            NaN
         13   -1    0    0    0    0  0.00000000000E+00  0.00000000000E+00  0.74505805969E-08  0.10566000000E+00  0.10566000000E+00 0. -1.
     999900   -1    0    0    0    0 -0.00000000000E+00 -0.00000000000E+00 -0.74505805969E-08  0.93827000000E+00  0.93827000000E+00 0. -1.
     999902    2    1    2    0    0 -0.14043029489E-01  0.43140733969E-02 -0.14900269054E-02  0.10291638872E+01  0.10290579520E+01 0.  0.
     999903    2    3    3    0    0  0.52824628132E-01 -0.45456150274E-01  0.10988683649E+00  0.13823562720E+00  0.46661213639E-01 0.  0.
         14    1    1    2    0    0  0.14043029489E-01 -0.43140733969E-02  0.14900269054E-02  0.14766112782E-01  0.00000000000E+00 0.  1.
     999901    1    3    3    0    0 -0.66867657622E-01  0.49770223671E-01 -0.11137686340E+00  0.89092826002E+00  0.88000000000E+00 0. -1.
        -11    1    4    4    0    0  0.11192838278E-01 -0.39784650189E-01  0.62158748262E-01  0.74646293451E-01  0.51100000000E-03 0. -1.
         11    1    4    4    0    0  0.41631789854E-01 -0.56715000850E-02  0.47728088228E-01  0.63589333748E-01  0.51100000000E-03 0.  1.
</event>
<event>
 8    1  0.2039519E+004  0.1043930E+01  0.7957747E-01            NaN
         13   -1    0    0    0    0  0.00000000000E+00  0.00000000000E+00  0.74505805969E-08  0.10566000000E+00  0.10566000000E+00 0. -1.
     999900   -1    0    0    0    0 -0.00000000000E+00 -0.00000000000E+00 -0.74505805969E-08  0.93827000000E+00  0.93827000000E+00 0. -1.
     999902    2    1    2    0    0  0.44855839986E-02 -0.63982995425E-02 -0.10225504730E-01  0.10310606703E+01  0.10309803520E+01 0.  0.
     999903    2    3    3    0    0  0.12644811790E+00  0.28189965155E-01  0.30640976280E-01  0.14103748124E+00  0.46571461554E-01 0.  0.
         14    1    1    2    0    0 -0.44855839986E-02  0.63982995425E-02  0.10225504730E-01  0.12869329735E-01  0.00000000000E+00 0. -1.
     999901    1    3    3    0    0 -0.12196253390E+00 -0.34588264698E-01 -0.40866481011E-01  0.89002318902E+00  0.88000000000E+00 0. -1.
        -11    1    4    4    0    0  0.25363155322E-01  0.33997429078E-02 -0.12359484625E-01  0.28422981563E-01  0.51100000000E-03 0.  1.
         11    1    4    4    0    0  0.10108496258E+00  0.24790222247E-01  0.43000460906E-01  0.11261449968E+00  0.51100000000E-03 0. -1.
</event>
<event>
 8    1  0.2039519E+004  0.1043930E+01  0.7957747E-01            NaN
         13   -1    0    0    0    0  0.00000000000E+00  0.00000000000E+00  0.74505805969E-08  0.10566000000E+00  0.10566000000E+00 0.  1.
     999900   -1    0    0    0    0 -0.00000000000E+00 -0.00000000000E+00 -0.74505805969E-08  0.93827000000E+00  0.93827000000E+00 0.  1.
     999902    2    1    2    0    0 -0.14199280707E-01  0.23711949763E-02  0.71879005818E-02  0.10278393800E+01  0.10277134245E+01 0.  0.
     999903    2    3    3    0    0  0.92127881800E-01  0.15576358612E-01  0.87610563523E-01  0.13770026357E+00  0.50552766424E-01 0.  0.
         14    1    1    2    0    0  0.14199280707E-01 -0.23711949763E-02 -0.71879005818E-02  0.16090620031E-01  0.00000000000E+00 0. -1.
     999901    1    3    3    0    0 -0.10632716251E+00 -0.13205163636E-01 -0.80422662942E-01  0.89013911640E+00  0.88000000000E+00 0. -1.
        -11    1    4    4    0    0  0.14821818289E-01 -0.10174992942E-01  0.38671943060E-01  0.42649701989E-01  0.51100000000E-03 0.  1.
         11    1    4    4    0    0  0.77306063511E-01  0.25751351554E-01  0.48938620463E-01  0.95050561578E-01  0.51100000000E-03 0. -1.
</event>
<event>
 8    1  0.2039519E+004  0.1043930E+01  0.7957747E-01            NaN
         13   -1    0    0    0    0  0.00000000000E+00  0.00000000000E+00  0.74505805969E-08  0.10566000000E+00  0.10566000000E+00 0.  1.
     999900   -1    0    0    0    0 -0.00000000000E+00 -0.00000000000E+00 -0.74505805969E-08  0.93827000000E+00  0.93827000000E+00 0.  1.
     999902    2    1    2    0    0 -0.64210339768E-02  0.66614961612E-02 -0.98081503292E-02  0.10304464908E+01  0.10303582704E+01 0.  0.
     999903    2    3    3    0    0 -0.36956083380E-01  0.90353647669E-01 -0.92859930000E-01  0.14205785758E+00  0.45032594355E-01 0.  0.
         14    1    1    2    0    0  0.64210339768E-02 -0.66614961612E-02  0.98081503292E-02  0.13483509236E-01  0.00000000000E+00 0.  1.
     999901    1    3    3    0    0  0.30535049403E-01 -0.83692151508E-01  0.83051779671E-01  0.88838863319E+00  0.88000000000E+00 0. -1.
        -11    1    4    4    0    0  0.14311095725E-02  0.47443029002E-01 -0.27119933084E-01  0.54668464099E-01  0.51100000000E-03 0. -1.
         11    1    4    4    0    0 -0.38387192952E-01  0.42910618667E-01 -0.65739996917E-01  0.87389393480E-01  0.51100000000E-03 0.  1.
</event>
<event>
 8    1  0.2039519E+004  0.1043930E+01  0.7957747E-01            NaN
         13   -1    0    0    0    0  0.00000000000E+00  0.00000000000E+00  0.74505805969E-08  0.10566000000E+00  0.10566000000E+00 0. -1.
     999900   -1    0    0    0    0 -0.00000000000E+00 -0.00000000000E+00 -0.74505805969E-08  0.93827000000E+00  0.93827000000E+00 0.  1.
     999902    2    1    2    0    0  0.60838279042E-02 -0.38018904624E-02 -0.11173316105E-01  0.10306518101E+01  0.10305662732E+01 0.  0.
     999903    2    3    3    0    0 -0.56261361177E-01 -0.11901522456E+00  0.21026568551E-01  0.14037215322E+00  0.43957483741E-01 0.  0.
         14    1    1    2    0    0 -0.60838279042E-02  0.38018904624E-02  0.11173316105E-01  0.13278189856E-01  0.00000000000E+00 0. -1.
     999901    1    3    3    0    0  0.62345189081E-01  0.11521333410E+00 -0.32199884656E-01  0.89027965692E+00  0.88000000000E+00 0. -1.
        -11    1    4    4    0    0 -0.41902510012E-01 -0.11480234077E+00  0.11788571445E-01  0.12277878208E+00  0.51100000000E-03 0. -1.
         11    1    4    4    0    0 -0.14358851165E-01 -0.42128837896E-02  0.92379971057E-02  0.17593371142E-01  0.51100000000E-03 0.  1.
</event>
<event>
 8    1  0.2039519E+004  0.1043930E+01  0.7957747E-01            NaN
         13   -1    0    0    0    0  0.00000000000E+00  0.00000000000E+00  0.74505805969E-08  0.10566000000E+00  0.10566000000E+00 0.  1.
     999900   -1    0    0    0    0 -0.00000000000E+00 -0.00000000000E+00 -0.74505805969E-08  0.93827000000E+00  0.93827000000E+00 0.  1.
     999902    2    1    2    0    0 -0.80224873861E-02  0.10276182427E-01  0.26145958517E-02  0.10306335215E+01  0.10305477472E+01 0.  0.
     999903    2    3    3    0    0 -0.68375288178E-01  0.93612921186E-01  0.67200166190E-01  0.14228743551E+00  0.47867451591E-01 0.  0.
         14    1    1    2    0    0  0.80224873861E-02 -0.10276182427E-01 -0.26145958517E-02  0.13296478503E-01  0.00000000000E+00 0. -1.
     999901    1    3    3    0    0  0.60352800792E-01 -0.83336738760E-01 -0.64585570338E-01  0.88834608599E+00  0.88000000000E+00 0.  1.
        -11    1    4    4    0    0 -0.33713634594E-01  0.82319612609E-01  0.48101177297E-01  0.10112918548E+00  0.51100000000E-03 0. -1.
         11    1    4    4    0    0 -0.34661653584E-01  0.11293308577E-01  0.19098988893E-01  0.41158250029E-01  0.51100000000E-03 0.  1.
</event>
<event>
 8    1  0.2342335E+004  0.1043930E+01  0.7957747E-01            NaN
         13   -1    0    0    0    0  0.00000000000E+00  0.00000000000E+00  0.74505805969E-08  0.10566000000E+00  0.10566000000E+00 0. -1.
     999900   -1    0    0    0    0 -0.00000000000E+00 -0.00000000000E+00 -0.74505805969E-08  0.93827000000E+00  0.93827000000E+00 0.  1.
     999902    2    1    2    0    0 -0.46374402171E-02  0.72642230700E-02 -0.10275817533E-01  0.10305185417E+01  0.10304312677E+01 0.  0.
     999903    2    3    3    0    0  0.65037914545E-02 -0.12592707579E+00 -0.41902906428E-01  0.13986466845E+00  0.43661701666E-01 0.  0.
         14    1    1    2    0    0  0.46374402171E-02 -0.72642230700E-02  0.10275817533E-01  0.13411458331E-01  0.00000000000E+00 0. -1.
     999901    1    3    3    0    0 -0.11141231672E-01  0.13319129886E+00  0.31627088895E-01  0.89065387322E+00  0.88000000000E+00 0. -1.
        -11    1    4    4    0    0  0.22590934231E-01 -0.40610694597E-01 -0.11519481189E-01  0.47880459406E-01  0.51100000000E-03 0.  1.
         11    1    4    4    0    0 -0.16087142777E-01 -0.85316381192E-01 -0.30383425240E-01  0.91984209040E-01  0.51100000000E-03 0. -1.
</event>
<event>
 8    1  0.2039519E+004  0.1043930E+01  0.7957747E-01            NaN
         13   -1    0    0    0    0  0.00000000000E+00  0.00000000000E+00  0.74505805969E-08  0.10566000000E+00  0.10566000000E+00 0.  1.
     999900   -1    0    0    0    0 -0.00000000000E+00 -0.00000000000E+00 -0.74505805969E-08  0.93827000000E+00  0.93827000000E+00 0. -1.
     999902    2    1    2    0    0 -0.68721723321E-02  0.76374904574E-02 -0.86556548674E-02  0.10304957760E+01  0.10304082036E+01 0.  0.
     999903    2    3    3    0    0  0.64984252482E-01 -0.82495654422E-01 -0.80957567720E-01  0.14003808684E+00  0.45033897525E-01 0.  0.
         14    1    1    2    0    0  0.68721723321E-02 -0.76374904574E-02  0.86556548674E-02  0.13434223991E-01  0.00000000000E+00 0.  1.
     999901    1    3    3    0    0 -0.71856424815E-01  0.90133144879E-01  0.72301912853E-01  0.89045768917E+00  0.88000000000E+00 0.  1.
        -11    1    4    4    0    0  0.26386379355E-01 -0.31313150532E-01 -0.59721571382E-02  0.41384564678E-01  0.51100000000E-03 0.  1.
         11    1    4    4    0    0  0.38597873127E-01 -0.51182503890E-01 -0.74985410582E-01  0.98653522165E-01  0.51100000000E-03 0. -1.
</event>
<event>
 8    1  0.2039519E+004  0.1043930E+01  0.7957747E-01            NaN
         13   -1    0    0    0    0  0.00000000000E+00  0.00000000000E+00  0.74505805969E-08  0.10566000000E+00  0.10566000000E+00 0. -1.
     999900   -1    0    0    0    0 -0.00000000000E+00 -0.00000000000E+00 -0.74505805969E-08  0.93827000000E+00  0.93827000000E+00 0.  1.
     999902    2    1    2    0    0  0.26850049321E-02 -0.13098139088E-01  0.69205178830E-04  0.10305593123E+01  0.10304725717E+01 0.  0.
     999903    2    3    3    0    0  0.83346882881E-01 -0.92196280863E-01  0.53616995944E-01  0.14172287043E+00  0.41996817220E-01 0.  0.
         14    1    1    2    0    0 -0.26850049321E-02  0.13098139088E-01 -0.69205178830E-04  0.13370687656E-01  0.00000000000E+00 0. -1.
     999901    1    3    3    0    0 -0.80661877949E-01  0.79098141775E-01 -0.53547790765E-01  0.88883644192E+00  0.88000000000E+00 0.  1.
        -11    1    4    4    0    0  0.67894125732E-01 -0.90744748403E-01  0.37585625481E-01  0.11940335856E+00  0.51100000000E-03 0. -1.
         11    1    4    4    0    0  0.15452757149E-01 -0.14515324601E-02  0.16031370463E-01  0.22319511865E-01  0.51100000000E-03 0.  1.
</event>
<event>
 8    1  0.2039519E+004  0.1043930E+01  0.7957747E-01            NaN
         13   -1    0    0    0    0  0.00000000000E+00  0.00000000000E+00  0.74505805969E-08  0.10566000000E+00  0.10566000000E+00 0. -1.
     999900   -1    0    0    0    0 -0.00000000000E+00 -0.00000000000E+00 -0.74505805969E-08  0.93827000000E+00  0.93827000000E+00 0.  1.
     999902    2    1    2    0    0  0.70385030297E-02  0.30799853524E-02 -0.12026747805E-01  0.10296587177E+01  0.10295598115E+01 0.  0.
     999903    2    3    3    0    0  0.44718852242E-01  0.12511832461E+00 -0.98579710898E-04  0.14035818015E+00  0.45233152853E-01 0.  0.
         14    1    1    2    0    0 -0.70385030297E-02 -0.30799853524E-02  0.12026747805E-01  0.14271282263E-01  0.00000000000E+00 0. -1.
     999901    1    3    3    0    0 -0.37680349213E-01 -0.12203833926E+00 -0.11928168094E-01  0.88930053759E+00  0.88000000000E+00 0. -1.
        -11    1    4    4    0    0 -0.50911288543E-02  0.49749729905E-01  0.45579146076E-03  0.50014238827E-01  0.51100000000E-03 0. -1.
         11    1    4    4    0    0  0.49809981097E-01  0.75368594704E-01 -0.55437117166E-03  0.90343941318E-01  0.51100000000E-03 0.  1.
</event>
<event>
 8    1  0.2039519E+004  0.1043930E+01  0.7957747E-01            NaN
         13   -1    0    0    0    0  0.00000000000E+00  0.00000000000E+00  0.74505805969E-08  0.10566000000E+00  0.10566000000E+00 0.  1.
     999900   -1    0    0    0    0 -0.00000000000E+00 -0.00000000000E+00 -0.74505805969E-08  0.93827000000E+00  0.93827000000E+00 0. -1.
     999902    2    1    2    0    0 -0.49058892633E-02  0.12082083672E-01 -0.53914626263E-02  0.10298192819E+01  0.10297226039E+01 0.  0.
     999903    2    3    3    0    0  0.27510486473E-01 -0.11369056336E+00  0.57752834114E-01  0.13804757214E+00  0.45159398395E-01 0.  0.
         14    1    1    2    0    0  0.49058892633E-02 -0.12082083672E-01  0.53914626263E-02  0.14110718074E-01  0.00000000000E+00 0.  1.
     999901    1    3    3    0    0 -0.32416375737E-01  0.12577264703E+00 -0.63144296740E-01  0.89177170978E+00  0.88000000000E+00 0. -1.
        -11    1    4    4    0    0  0.45685871729E-02 -0.53287692075E-01  0.49556616982E-01  0.72914810039E-01  0.51100000000E-03 0. -1.
         11    1    4    4    0    0  0.22941899301E-01 -0.60402871285E-01  0.81962171323E-02  0.65132762104E-01  0.51100000000E-03 0.  1.
</event>
<event>
 8    1  0.2039519E+004  0.1043930E+01  0.7957747E-01            NaN
         13   -1    0    0    0    0  0.00000000000E+00  0.00000000000E+00  0.74505805969E-08  0.10566000000E+00  0.10566000000E+00 0.  1.
     999900   -1    0    0    0    0 -0.00000000000E+00 -0.00000000000E+00 -0.74505805969E-08  0.93827000000E+00  0.93827000000E+00 0. -1.
     999902    2    1    2    0    0 -0.11671687028E-01 -0.69954912052E-02 -0.21708457067E-02  0.10301503866E+01  0.10300582222E+01 0.  0.
     999903    2    3    3    0    0  0.31259081392E-01  0.80475232696E-01  0.99781965335E-01  0.13892170991E+00  0.43467316817E-01 0.  0.
         14    1    1    2    0    0  0.11671687028E-01  0.69954912052E-02  0.21708457067E-02  0.13779613433E-01  0.00000000000E+00 0. -1.
     999901    1    3    3    0    0 -0.42930768420E-01 -0.87470723901E-01 -0.10195281104E+00  0.89122867666E+00  0.88000000000E+00 0.  1.
        -11    1    4    4    0    0  0.27468185089E-01  0.51624966562E-01  0.35635323431E-01  0.68481937484E-01  0.51100000000E-03 0.  1.
         11    1    4    4    0    0  0.37908963026E-02  0.28850266134E-01  0.64146641904E-01  0.70439772426E-01  0.51100000000E-03 0. -1.
</event>
<event>
 8    1  0.2039519E+004  0.1043930E+01  0.7957747E-01            NaN
         13   -1    0    0    0    0  0.00000000000E+00  0.00000000000E+00  0.74505805969E-08  0.10566000000E+00  0.10566000000E+00 0.  1.
     999900   -1    0    0    0    0 -0.00000000000E+00 -0.00000000000E+00 -0.74505805969E-08  0.93827000000E+00  0.93827000000E+00 0.  1.
     999902    2    1    2    0    0  0.14594405035E-01 -0.12589962300E-02  0.56919968884E-02  0.10282143849E+01  0.10280942762E+01 0.  0.
     999903    2    3    3    0    0  0.10373429004E+00  0.76599221907E-01  0.30161708212E-01  0.13995395686E+00  0.45267401854E-01 0.  0.
         14    1    1    2    0    0 -0.14594405035E-01  0.12589962300E-02 -0.56919968884E-02  0.15715615114E-01  0.00000000000E+00 0.  1.
     999901    1    3    3    0    0 -0.89139885007E-01 -0.77858218137E-01 -0.24469711323E-01  0.88826042803E+00  0.88000000000E+00 0.  1.
        -11    1    4    4    0    0  0.22183093736E-01  0.42449730819E-01  0.58281472833E-02  0.48252437411E-01  0.51100000000E-03 0. -1.
         11    1    4    4    0    0  0.81551196305E-01  0.34149491088E-01  0.24333560928E-01  0.91701519447E-01  0.51100000000E-03 0.  1.
</event>
<event>
 8    1  0.2039519E+004  0.1043930E+01  0.7957747E-01            NaN
         13   -1    0    0    0    0  0.00000000000E+00  0.00000000000E+00  0.74505805969E-08  0.10566000000E+00  0.10566000000E+00 0.  1.
     999900   -1    0    0    0    0 -0.00000000000E+00 -0.00000000000E+00 -0.74505805969E-08  0.93827000000E+00  0.93827000000E+00 0.  1.
     999902    2    1    2    0    0 -0.69080668337E-02  0.11277874630E-02 -0.11799716589E-01  0.10302104299E+01  0.10301190724E+01 0.  0.
     999903    2    3    3    0    0  0.39555604311E-01  0.56648841170E-01  0.11162826381E+00  0.13865228459E+00  0.44607731420E-01 0.  0.
         14    1    1    2    0    0  0.69080668337E-02 -0.11277874630E-02  0.11799716589E-01  0.13719570092E-01  0.00000000000E+00 0.  1.
     999901    1    3    3    0    0 -0.46463671145E-01 -0.55521053707E-01 -0.12342798040E+00  0.89155814532E+00  0.88000000000E+00 0.  1.
        -11    1    4    4    0    0  0.75549490642E-02  0.31089850817E-01  0.82227798327E-01  0.88234505823E-01  0.51100000000E-03 0. -1.
         11    1    4    4    0    0  0.32000655247E-01  0.25558990353E-01  0.29400465482E-01  0.50417778765E-01  0.51100000000E-03 0.  1.
</event>
<event>
 8    1  0.2039519E+004  0.1043930E+01  0.7957747E-01            NaN
         13   -1    0    0    0    0  0.00000000000E+00  0.00000000000E+00  0.74505805969E-08  0.10566000000E+00  0.10566000000E+00 0. -1.
     999900   -1    0    0    0    0 -0.00000000000E+00 -0.00000000000E+00 -0.74505805969E-08  0.93827000000E+00  0.93827000000E+00 0. -1.
     999902    2    1    2    0    0  0.15258770911E-02  0.12266937658E-01 -0.69266585938E-02  0.10297601496E+01  0.10296626540E+01 0.  0.
     999903    2    3    3    0    0 -0.21797756535E-01  0.10727254754E-01 -0.13119018884E+00  0.14072258717E+00  0.44741085217E-01 0.  0.
         14    1    1    2    0    0 -0.15258770911E-02 -0.12266937658E-01  0.69266585938E-02  0.14169850376E-01  0.00000000000E+00 0. -1.
     999901    1    3    3    0    0  0.23323633626E-01  0.15396829041E-02  0.12426353025E+00  0.88903756246E+00  0.88000000000E+00 0.  1.
        -11    1    4    4    0    0 -0.11664539196E-02  0.73051515919E-02  0.45153386135E-03  0.74290550109E-02  0.51100000000E-03 0. -1.
         11    1    4    4    0    0 -0.20631302616E-01  0.34221031625E-02 -0.13164172270E+00  0.13329353216E+00  0.51100000000E-03 0.  1.
</event>
<event>
 8    1  0.2039519E+004  0.1043930E+01  0.7957747E-01            NaN
         13   -1    0    0    0    0  0.00000000000E+00  0.00000000000E+00  0.74505805969E-08  0.10566000000E+00  0.10566000000E+00 0.  1.
     999900   -1    0    0    0    0 -0.00000000000E+00 -0.00000000000E+00 -0.74505805969E-08  0.93827000000E+00  0.93827000000E+00 0. -1.
     999902    2    1    2    0    0  0.53793710704E-02  0.32870465484E-02 -0.23250365895E-01  0.10198401303E+01  0.10195555745E+01 0.  0.
     999903    2    3    3    0    0 -0.74142575601E-01 -0.97164227838E-01  0.62928087891E-02  0.13007218431E+00  0.44058654101E-01 0.  0.
         14    1    1    2    0    0 -0.53793710704E-02 -0.32870465484E-02  0.23250365895E-01  0.24089869704E-01  0.00000000000E+00 0.  1.
     999901    1    3    3    0    0  0.79521946672E-01  0.10045127439E+00 -0.29543174684E-01  0.88976794598E+00  0.88000000000E+00 0. -1.
        -11    1    4    4    0    0  0.37075990361E-02 -0.19674610041E-01  0.22644749685E-02  0.20155037553E-01  0.51100000000E-03 0.  1.
         11    1    4    4    0    0 -0.77850174637E-01 -0.77489617797E-01  0.40283338206E-02  0.10991714676E+00  0.51100000000E-03 0. -1.
</event>
<event>
 8    1  0.2039519E+004  0.1043930E+01  0.7957747E-01            NaN
         13   -1    0    0    0    0  0.00000000000E+00  0.00000000000E+00  0.74505805969E-08  0.10566000000E+00  0.10566000000E+00 0.  1.
     999900   -1    0    0    0    0 -0.00000000000E+00 -0.00000000000E+00 -0.74505805969E-08  0.93827000000E+00  0.93827000000E+00 0.  1.
     999902    2    1    2    0    0  0.26824932080E-02  0.23908795893E-02  0.13355643610E-01  0.10300994074E+01  0.10300065553E+01 0.  0.
     999903    2    3    3    0    0  0.12663367431E+00 -0.59208741396E-02 -0.39002600256E-01  0.13983294941E+00  0.44282126117E-01 0.  0.
         14    1    1    2    0    0 -0.26824932080E-02 -0.23908795893E-02 -0.13355643610E-01  0.13830592585E-01  0.00000000000E+00 0. -1.
     999901    1    3    3    0    0 -0.12395118110E+00  0.83117537288E-02  0.52358243866E-01  0.89026645800E+00  0.88000000000E+00 0. -1.
        -11    1    4    4    0    0  0.10796184097E+00 -0.52444183582E-02 -0.14565581817E-01  0.10906732014E+00  0.51100000000E-03 0. -1.
         11    1    4    4    0    0  0.18671833346E-01 -0.67645578139E-03 -0.24437018439E-01  0.30765629266E-01  0.51100000000E-03 0.  1.
</event>
<event>
 8    1  0.2039519E+004  0.1043930E+01  0.7957747E-01            NaN
         13   -1    0    0    0    0  0.00000000000E+00  0.00000000000E+00  0.74505805969E-08  0.10566000000E+00  0.10566000000E+00 0. -1.
     999900   -1    0    0    0    0 -0.00000000000E+00 -0.00000000000E+00 -0.74505805969E-08  0.93827000000E+00  0.93827000000E+00 0. -1.
     999902    2    1    2    0    0  0.34217364657E-02 -0.38966614274E-02 -0.11867786457E-01  0.10309786832E+01  0.10308973318E+01 0.  0.
     999903    2    3    3    0    0  0.11437695048E+00  0.62008377790E-01 -0.32424301375E-01  0.14132869362E+00  0.44669213137E-01 0.  0.
         14    1    1    2    0    0 -0.34217364657E-02  0.38966614274E-02  0.11867786457E-01  0.12951316771E-01  0.00000000000E+00 0. -1.
     999901    1    3    3    0    0 -0.11095521401E+00 -0.65905039218E-01  0.20556514918E-01  0.88964998961E+00  0.88000000000E+00 0.  1.
        -11    1    4    4    0    0  0.24462401824E-02 -0.48025725428E-02  0.30751753109E-02  0.62262844660E-02  0.51100000000E-03 0.  1.
         11    1    4    4    0    0  0.11193071030E+00  0.66810950333E-01 -0.35499476686E-01  0.13510240915E+00  0.51100000000E-03 0. -1.
</event>
<event>
 8    1  0.2039519E+004  0.1043930E+01  0.7957747E-01            NaN
         13   -1    0    0    0    0  0.00000000000E+00  0.00000000000E+00  0.74505805969E-08  0.10566000000E+00  0.10566000000E+00 0.  1.
     999900   -1    0    0    0    0 -0.00000000000E+00 -0.00000000000E+00 -0.74505805969E-08  0.93827000000E+00  0.93827000000E+00 0.  1.
     999902    2    1    2    0    0 -0.40007715974E-02 -0.13279550898E-01 -0.75341245207E-03  0.10300404256E+01  0.10299467744E+01 0.  0.
     999903    2    3    3    0    0  0.87653613946E-01 -0.10017677843E+00  0.82550649959E-02  0.14097754418E+00  0.45694407640E-01 0.  0.
         14    1    1    2    0    0  0.40007715974E-02  0.13279550898E-01  0.75341245207E-03  0.13889574355E-01  0.00000000000E+00 0.  1.
     999901    1    3    3    0    0 -0.91654385543E-01  0.86897227530E-01 -0.90084774480E-02  0.88906288147E+00  0.88000000000E+00 0.  1.
        -11    1    4    4    0    0  0.76105146477E-01 -0.61214859009E-01  0.17681619356E-01  0.99258012612E-01  0.51100000000E-03 0. -1.
         11    1    4    4    0    0  0.11548467469E-01 -0.38961919420E-01 -0.94265543598E-02  0.41719531563E-01  0.51100000000E-03 0.  1.
</event>
<event>
 8    1  0.2039519E+004  0.1043930E+01  0.7957747E-01            NaN
         13   -1    0    0    0    0  0.00000000000E+00  0.00000000000E+00  0.74505805969E-08  0.10566000000E+00  0.10566000000E+00 0. -1.
     999900   -1    0    0    0    0 -0.00000000000E+00 -0.00000000000E+00 -0.74505805969E-08  0.93827000000E+00  0.93827000000E+00 0. -1.
     999902    2    1    2    0    0 -0.82705400694E-02  0.41560136446E-02 -0.10298491737E-01  0.10300832237E+01  0.10299901526E+01 0.  0.
     999903    2    3    3    0    0 -0.39825844992E-01  0.13895633930E-01  0.12467319805E+00  0.13918033643E+00  0.45261166187E-01 0.  0.
         14    1    1    2    0    0  0.82705400694E-02 -0.41560136446E-02  0.10298491737E-01  0.13846776322E-01  0.00000000000E+00 0.  1.
     999901    1    3    3    0    0  0.31555304923E-01 -0.97396202857E-02 -0.13497168978E+00  0.89090288725E+00  0.88000000000E+00 0. -1.
        -11    1    4    4    0    0 -0.24425639379E-01 -0.93366766161E-02  0.94706216382E-01  0.98251279542E-01  0.51100000000E-03 0. -1.
         11    1    4    4    0    0 -0.15400205613E-01  0.23232310546E-01  0.29966981665E-01  0.40929056884E-01  0.51100000000E-03 0.  1.
</event>
<event>
 8    1  0.2039519E+004  0.1043930E+01  0.7957747E-01            NaN
         13   -1    0    0    0    0  0.00000000000E+00  0.00000000000E+00  0.74505805969E-08  0.10566000000E+00  0.10566000000E+00 0. -1.
     999900   -1    0    0    0    0 -0.00000000000E+00 -0.00000000000E+00 -0.74505805969E-08  0.93827000000E+00  0.93827000000E+00 0.  1.
     999902    2    1    2    0    0  0.59111498000E-02 -0.33912717460E-02 -0.11233016668E-01  0.10307913897E+01  0.10307076531E+01 0.  0.
     999903    2    3    3    0    0  0.11360073494E-01  0.52542964797E-01 -0.12279546301E+00  0.14196941149E+00  0.46762951608E-01 0.  0.
         14    1    1    2    0    0 -0.59111498000E-02  0.33912717460E-02  0.11233016668E-01  0.13138610257E-01  0.00000000000E+00 0. -1.
     999901    1    3    3    0    0 -0.54489236936E-02 -0.55934236543E-01  0.11156244635E+00  0.88882197825E+00  0.88000000000E+00 0. -1.
        -11    1    4    4    0    0 -0.12272889288E-01  0.21008706510E-01 -0.18785425770E-01  0.30743176529E-01  0.51100000000E-03 0.  1.
         11    1    4    4    0    0  0.23632962782E-01  0.31534258286E-01 -0.10401003724E+00  0.11122623496E+00  0.51100000000E-03 0. -1.
</event>
<event>
 8    1  0.2039519E+004  0.1043930E+01  0.7957747E-01            NaN
         13   -1    0    0    0    0  0.00000000000E+00  0.00000000000E+00  0.74505805969E-08  0.10566000000E+00  0.10566000000E+00 0.  1.
     999900   -1    0    0    0    0 -0.00000000000E+00 -0.00000000000E+00 -0.74505805969E-08  0.93827000000E+00  0.93827000000E+00 0. -1.
     999902    2    1    2    0    0 -0.11443394470E-01  0.86059407437E-02 -0.53562206076E-02  0.10286426656E+01  0.10285290618E+01 0.  0.
     999903    2    3    3    0    0  0.10741214633E+00 -0.35441233748E-01  0.62761928048E-01  0.13695500992E+00  0.44990720156E-01 0.  0.
         14    1    1    2    0    0  0.11443394470E-01 -0.86059407437E-02  0.53562206076E-02  0.15287334374E-01  0.00000000000E+00 0. -1.
     999901    1    3    3    0    0 -0.11885554080E+00  0.44047174491E-01 -0.68118148656E-01  0.89168765571E+00  0.88000000000E+00 0.  1.
        -11    1    4    4    0    0  0.36913169904E-01  0.39532774544E-02  0.45589522131E-02  0.37406626168E-01  0.51100000000E-03 0.  1.
         11    1    4    4    0    0  0.70498976431E-01 -0.39394511202E-01  0.58202975835E-01  0.99548383753E-01  0.51100000000E-03 0. -1.
</event>
<event>
 8    1  0.2039519E+004  0.1043930E+01  0.7957747E-01            NaN
         13   -1    0    0    0    0  0.00000000000E+00  0.00000000000E+00  0.74505805969E-08  0.10566000000E+00  0.10566000000E+00 0.  1.
     999900   -1    0    0    0    0 -0.00000000000E+00 -0.00000000000E+00 -0.74505805969E-08  0.93827000000E+00  0.93827000000E+00 0. -1.
     999902    2    1    2    0    0 -0.85720449216E-02  0.10659668620E-01  0.16303940686E-02  0.10301544175E+01  0.10300623074E+01 0.  0.
     999903    2    3    3    0    0 -0.12380812629E+00 -0.48913086512E-01 -0.40761889789E-02  0.14062598471E+00  0.45145432655E-01 0.  0.
         14    1    1    2    0    0  0.85720449216E-02 -0.10659668620E-01 -0.16303940686E-02  0.13775582530E-01  0.00000000000E+00 0.  1.
     999901    1    3    3    0    0  0.11523608137E+00  0.59572755132E-01  0.57065830475E-02  0.88952843276E+00  0.88000000000E+00 0.  1.
        -11    1    4    4    0    0 -0.52038995455E-01  0.45081977739E-03  0.81024697363E-02  0.52670403675E-01  0.51100000000E-03 0.  1.
         11    1    4    4    0    0 -0.71769130839E-01 -0.49363906290E-01 -0.12178658715E-01  0.87955581032E-01  0.51100000000E-03 0. -1.
</event>
<event>
 8    1  0.2039519E+004  0.1043930E+01  0.7957747E-01            NaN
         13   -1    0    0    0    0  0.00000000000E+00  0.00000000000E+00  0.74505805969E-08  0.10566000000E+00  0.10566000000E+00 0.  1.
     999900   -1    0    0    0    0 -0.00000000000E+00 -0.00000000000E+00 -0.74505805969E-08  0.93827000000E+00  0.93827000000E+00 0. -1.
     999902    2    1    2    0    0 -0.10920116173E-01  0.79534490653E-02  0.57007427730E-02  0.10292669595E+01  0.10291625086E+01 0.  0.
     999903    2    3    3    0    0 -0.11994381600E+00  0.27294772779E-01  0.50945166799E-01  0.14117500938E+00  0.46940916411E-01 0.  0.
         14    1    1    2    0    0  0.10920116173E-01 -0.79534490653E-02 -0.57007427730E-02  0.14663040524E-01  0.00000000000E+00 0. -1.
     999901    1    3    3    0    0  0.10902369983E+00 -0.19341323714E-01 -0.45244424026E-01  0.88809195010E+00  0.88000000000E+00 0.  1.
        -11    1    4    4    0    0 -0.74669379760E-01  0.38985342250E-01  0.25895773292E-01  0.88126190089E-01  0.51100000000E-03 0.  1.
         11    1    4    4    0    0 -0.45274436243E-01 -0.11690569471E-01  0.25049393507E-01  0.53048819287E-01  0.51100000000E-03 0. -1.
</event>
<event>
 8    1  0.2039519E+004  0.1043930E+01  0.7957747E-01            NaN
         13   -1    0    0    0    0  0.00000000000E+00  0.00000000000E+00  0.74505805969E-08  0.10566000000E+00  0.10566000000E+00 0. -1.
     999900   -1    0    0    0    0 -0.00000000000E+00 -0.00000000000E+00 -0.74505805969E-08  0.93827000000E+00  0.93827000000E+00 0. -1.
     999902    2    1    2    0    0  0.99036027803E-02  0.66454557054E-02  0.59597143757E-02  0.10305972724E+01  0.10305110268E+01 0.  0.
     999903    2    3    3    0    0 -0.12143046328E+00 -0.47615724526E-01 -0.15762757426E-01  0.13893322224E+00  0.45181424115E-01 0.  0.
         14    1    1    2    0    0 -0.99036027803E-02 -0.66454557054E-02 -0.59597143757E-02  0.13332727591E-01  0.00000000000E+00 0.  1.
     999901    1    3    3    0    0  0.13133406606E+00  0.54261180231E-01  0.21722471802E-01  0.89166405017E+00  0.88000000000E+00 0. -1.
        -11    1    4    4    0    0 -0.90575499023E-01 -0.44486860860E-01  0.59245343897E-02  0.10108591910E+00  0.51100000000E-03 0. -1.
         11    1    4    4    0    0 -0.30854964257E-01 -0.31288636665E-02 -0.21687291816E-01  0.37847303133E-01  0.51100000000E-03 0.  1.
</event>
<event>
 8    1  0.2039519E+004  0.1043930E+01  0.7957747E-01            NaN
         13   -1    0    0    0    0  0.00000000000E+00  0.00000000000E+00  0.74505805969E-08  0.10566000000E+00  0.10566000000E+00 0. -1.
     999900   -1    0    0    0    0 -0.00000000000E+00 -0.00000000000E+00 -0.74505805969E-08  0.93827000000E+00  0.93827000000E+00 0. -1.
     999902    2    1    2    0    0 -0.11317976565E-01  0.24212190386E-02  0.76097664088E-02  0.10300783777E+01  0.10299852411E+01 0.  0.
     999903    2    3    3    0    0  0.93542843610E-01  0.91608639634E-01 -0.13805715140E-01  0.13911888904E+00  0.44956212834E-01 0.  0.
         14    1    1    2    0    0  0.11317976565E-01 -0.24212190386E-02 -0.76097664088E-02  0.13851622286E-01  0.00000000000E+00 0.  1.
     999901    1    3    3    0    0 -0.10486082017E+00 -0.89187420595E-01  0.21415481549E-01  0.89095948867E+00  0.88000000000E+00 0. -1.
        -11    1    4    4    0    0  0.53122460494E-01  0.22649790516E-01  0.13191424796E-02  0.57766859679E-01  0.51100000000E-03 0. -1.
         11    1    4    4    0    0  0.40420383117E-01  0.68958849118E-01 -0.15124857619E-01  0.81352029366E-01  0.51100000000E-03 0.  1.
</event>
<event>
 8    1  0.2039519E+004  0.1043930E+01  0.7957747E-01            NaN
         13   -1    0    0    0    0  0.00000000000E+00  0.00000000000E+00  0.74505805969E-08  0.10566000000E+00  0.10566000000E+00 0.  1.
     999900   -1    0    0    0    0 -0.00000000000E+00 -0.00000000000E+00 -0.74505805969E-08  0.93827000000E+00  0.93827000000E+00 0.  1.
     999902    2    1    2    0    0 -0.94758656107E-02  0.97886530530E-02  0.10573513324E-02  0.10302651638E+01  0.10301745386E+01 0.  0.
     999903    2    3    3    0    0 -0.40063792410E-01  0.10583680057E+00 -0.72227042860E-01  0.14148427381E+00  0.44660029086E-01 0.  0.
         14    1    1    2    0    0  0.94758656107E-02 -0.97886530530E-02 -0.10573513324E-02  0.13664836241E-01  0.00000000000E+00 0. -1.
     999901    1    3    3    0    0  0.30587926799E-01 -0.96048147517E-01  0.73284394192E-01  0.88878088995E+00  0.88000000000E+00 0. -1.
        -11    1    4    4    0    0 -0.48096315528E-01  0.10129783623E+00 -0.64018723035E-01  0.12912461118E+00  0.51100000000E-03 0. -1.
         11    1    4    4    0    0  0.80325231183E-02  0.45389643355E-02 -0.82083198251E-02  0.12359662626E-01  0.51100000000E-03 0.  1.
</event>
<event>
 8    1  0.2039519E+004  0.1043930E+01  0.7957747E-01            NaN
         13   -1    0    0    0    0  0.00000000000E+00  0.00000000000E+00  0.74505805969E-08  0.10566000000E+00  0.10566000000E+00 0.  1.
     999900   -1    0    0    0    0 -0.00000000000E+00 -0.00000000000E+00 -0.74505805969E-08  0.93827000000E+00  0.93827000000E+00 0. -1.
     999902    2    1    2    0    0  0.55594565645E-02  0.17178049233E-01  0.34013531393E-02  0.10255571359E+01  0.10253925477E+01 0.  0.
     999903    2    3    3    0    0 -0.53613892848E-01 -0.70613723068E-01  0.90803803803E-01  0.13491238687E+00  0.45774162507E-01 0.  0.
         14    1    1    2    0    0 -0.55594565645E-02 -0.17178049233E-01 -0.34013531393E-02  0.18372864119E-01  0.00000000000E+00 0. -1.
     999901    1    3    3    0    0  0.59173349412E-01  0.87791772301E-01 -0.87402450664E-01  0.89064474901E+00  0.88000000000E+00 0. -1.
        -11    1    4    4    0    0 -0.48324916679E-01 -0.60251335287E-01  0.48890813913E-01  0.91411672022E-01  0.51100000000E-03 0. -1.
         11    1    4    4    0    0 -0.52889761687E-02 -0.10362387781E-01  0.41912989890E-01  0.43500714844E-01  0.51100000000E-03 0.  1.
</event>
<event>
 8    1  0.2039519E+004  0.1043930E+01  0.7957747E-01            NaN
         13   -1    0    0    0    0  0.00000000000E+00  0.00000000000E+00  0.74505805969E-08  0.10566000000E+00  0.10566000000E+00 0.  1.
     999900   -1    0    0    0    0 -0.00000000000E+00 -0.00000000000E+00 -0.74505805969E-08  0.93827000000E+00  0.93827000000E+00 0. -1.
     999902    2    1    2    0    0 -0.69369930939E-02  0.70867223635E-02 -0.87559274005E-02  0.10307008741E+01  0.10306159722E+01 0.  0.
     999903    2    3    3    0    0  0.24799777083E-02 -0.16972471348E-02 -0.13268427708E+00  0.14192414551E+00  0.50282350336E-01 0.  0.
         14    1    1    2    0    0  0.69369930939E-02 -0.70867223635E-02  0.87559274005E-02  0.13229125885E-01  0.00000000000E+00 0.  1.
     999901    1    3    3    0    0 -0.94169708021E-02  0.87839694983E-02  0.12392834968E+00  0.88877672861E+00  0.88000000000E+00 0.  1.
        -11    1    4    4    0    0 -0.19432343438E-01 -0.10735222027E-01 -0.93710048565E-01  0.96305219415E-01  0.51100000000E-03 0. -1.
         11    1    4    4    0    0  0.21912321146E-01  0.90379748924E-02 -0.38974228519E-01  0.45618926093E-01  0.51100000000E-03 0.  1.
</event>
<event>
 8    1  0.2039519E+004  0.1043930E+01  0.7957747E-01            NaN
         13   -1    0    0    0    0  0.00000000000E+00  0.00000000000E+00  0.74505805969E-08  0.10566000000E+00  0.10566000000E+00 0. -1.
     999900   -1    0    0    0    0 -0.00000000000E+00 -0.00000000000E+00 -0.74505805969E-08  0.93827000000E+00  0.93827000000E+00 0. -1.
     999902    2    1    2    0    0  0.31764747737E-02 -0.21106354949E-02  0.13441726713E-01  0.10299577135E+01  0.10298629359E+01 0.  0.
     999903    2    3    3    0    0 -0.17360986879E-01  0.13093835047E+00  0.60522069551E-02  0.13968897594E+00  0.45056911810E-01 0.  0.
         14    1    1    2    0    0 -0.31764747737E-02  0.21106354949E-02 -0.13441726713E-01  0.13972286542E-01  0.00000000000E+00 0.  1.
     999901    1    3    3    0    0  0.20537461653E-01 -0.13304898596E+00  0.73895197582E-02  0.89026873752E+00  0.88000000000E+00 0.  1.
        -11    1    4    4    0    0  0.13742144287E-01  0.67605982483E-01  0.22530879362E-02  0.69027189740E-01  0.51100000000E-03 0.  1.
         11    1    4    4    0    0 -0.31103131166E-01  0.63332367985E-01  0.37991190189E-02  0.70661786202E-01  0.51100000000E-03 0. -1.
</event>
<event>
 8    1  0.2039519E+004  0.1043930E+01  0.7957747E-01            NaN
         13   -1    0    0    0    0  0.00000000000E+00  0.00000000000E+00  0.74505805969E-08  0.10566000000E+00  0.10566000000E+00 0. -1.
     999900   -1    0    0    0    0 -0.00000000000E+00 -0.00000000000E+00 -0.74505805969E-08  0.93827000000E+00  0.93827000000E+00 0.  1.
     999902    2    1    2    0    0  0.13647208262E-01  0.12476701945E-02 -0.18909878007E-02  0.10300960270E+01  0.10300031291E+01 0.  0.
     999903    2    3    3    0    0 -0.62070994086E-01  0.11249169544E+00 -0.29019805543E-01  0.13945330846E+00  0.45802688555E-01 0.  0.
         14    1    1    2    0    0 -0.13647208262E-01 -0.12476701945E-02  0.18909878007E-02  0.13833973006E-01  0.00000000000E+00 0. -1.
     999901    1    3    3    0    0  0.75718202348E-01 -0.11124402524E+00  0.27128817742E-01  0.89064271853E+00  0.88000000000E+00 0. -1.
        -11    1    4    4    0    0 -0.60201352344E-01  0.10233523389E+00 -0.39109856989E-01  0.12500617966E+00  0.51100000000E-03 0.  1.
         11    1    4    4    0    0 -0.18696417420E-02  0.10156461549E-01  0.10090051447E-01  0.14447128803E-01  0.51100000000E-03 0. -1.
</event>
<event>
 8    1  0.2039519E+004  0.1043930E+01  0.7957747E-01            NaN
         13   -1    0    0    0    0  0.00000000000E+00  0.00000000000E+00  0.74505805969E-08  0.10566000000E+00  0.10566000000E+00 0. -1.
     999900   -1    0    0    0    0 -0.00000000000E+00 -0.00000000000E+00 -0.74505805969E-08  0.93827000000E+00  0.93827000000E+00 0. -1.
     999902    2    1    2    0    0  0.55327637946E-02  0.81069334050E-02  0.99452221731E-02  0.10299571231E+01  0.10298623375E+01 0.  0.
     999903    2    3    3    0    0 -0.10619322993E-01 -0.39217380570E-01 -0.12454513894E+00  0.13833605010E+00  0.44436450868E-01 0.  0.
         14    1    1    2    0    0 -0.55327637946E-02 -0.81069334050E-02 -0.99452221731E-02  0.13972876888E-01  0.00000000000E+00 0.  1.
     999901    1    3    3    0    0  0.16152086787E-01  0.47324313975E-01  0.13449036111E+00  0.89162107301E+00  0.88000000000E+00 0.  1.
        -11    1    4    4    0    0 -0.14082656377E-01 -0.33168548605E-01 -0.41360071503E-01  0.54857911580E-01  0.51100000000E-03 0. -1.
         11    1    4    4    0    0  0.34633333842E-02 -0.60488319650E-02 -0.83185067435E-01  0.83478138524E-01  0.51100000000E-03 0.  1.
</event>
<event>
 8    1  0.2039519E+004  0.1043930E+01  0.7957747E-01            NaN
         13   -1    0    0    0    0  0.00000000000E+00  0.00000000000E+00  0.74505805969E-08  0.10566000000E+00  0.10566000000E+00 0.  1.
     999900   -1    0    0    0    0 -0.00000000000E+00 -0.00000000000E+00 -0.74505805969E-08  0.93827000000E+00  0.93827000000E+00 0. -1.
     999902    2    1    2    0    0 -0.66492172336E-02  0.10345166839E-01  0.67161670119E-02  0.10299178101E+01  0.10298224867E+01 0.  0.
     999903    2    3    3    0    0 -0.37077259362E-01 -0.12214529760E+00  0.33085296945E-01  0.13908958875E+00  0.44238896208E-01 0.  0.
         14    1    1    2    0    0  0.66492172336E-02 -0.10345166839E-01 -0.67161670119E-02  0.14012189910E-01  0.00000000000E+00 0. -1.
     999901    1    3    3    0    0  0.30428042128E-01  0.13249046444E+00 -0.26369129933E-01  0.89082822134E+00  0.88000000000E+00 0.  1.
        -11    1    4    4    0    0 -0.98685482644E-02 -0.32559395187E-01 -0.10783556723E-01  0.35693818462E-01  0.51100000000E-03 0.  1.
         11    1    4    4    0    0 -0.27208711098E-01 -0.89585902415E-01  0.43868853668E-01  0.10339577029E+00  0.51100000000E-03 0. -1.
</event>
<event>
 8    1  0.2039519E+004  0.1043930E+01  0.7957747E-01            NaN
         13   -1    0    0    0    0  0.00000000000E+00  0.00000000000E+00  0.74505805969E-08  0.10566000000E+00  0.10566000000E+00 0. -1.
     999900   -1    0    0    0    0 -0.00000000000E+00 -0.00000000000E+00 -0.74505805969E-08  0.93827000000E+00  0.93827000000E+00 0.  1.
     999902    2    1    2    0    0 -0.40397783743E-02  0.97461244779E-02 -0.77192224978E-02  0.10308573894E+01  0.10307744972E+01 0.  0.
     999903    2    3    3    0    0 -0.51584861586E-01  0.11875734050E+00 -0.38628502183E-01  0.14231962222E+00  0.44703577250E-01 0.  0.
         14    1    1    2    0    0  0.40397783743E-02 -0.97461244779E-02  0.77192224978E-02  0.13072610589E-01  0.00000000000E+00 0.  1.
     999901    1    3    3    0    0  0.47545083211E-01 -0.10901121603E+00  0.30909279685E-01  0.88853776719E+00  0.88000000000E+00 0. -1.
        -11    1    4    4    0    0 -0.25427982258E-01  0.34248387414E-01  0.62615952451E-02  0.43116157275E-01  0.51100000000E-03 0. -1.
         11    1    4    4    0    0 -0.26156879328E-01  0.84508953090E-01 -0.44890097428E-01  0.99203464943E-01  0.51100000000E-03 0.  1.
</event>
<event>
 8    1  0.2039519E+004  0.1043930E+01  0.7957747E-01            NaN
         13   -1    0    0    0    0  0.00000000000E+00  0.00000000000E+00  0.74505805969E-08  0.10566000000E+00  0.10566000000E+00 0. -1.
     999900   -1    0    0    0    0 -0.00000000000E+00 -0.00000000000E+00 -0.74505805969E-08  0.93827000000E+00  0.93827000000E+00 0. -1.
     999902    2    1    2    0    0  0.10635877145E-01 -0.57193916827E-02  0.74481604594E-02  0.10297416802E+01  0.10296439285E+01 0.  0.
     999903    2    3    3    0    0  0.74534661184E-01  0.95972392603E-01 -0.53747476799E-01  0.13947813519E+00  0.42417485480E-01 0.  0.
         14    1    1    2    0    0 -0.10635877145E-01  0.57193916827E-02 -0.74481604594E-02  0.14188319777E-01  0.00000000000E+00 0.  1.
     999901    1    3    3    0    0 -0.63898784039E-01 -0.10169178429E+00  0.61195637258E-01  0.89026354503E+00  0.88000000000E+00 0.  1.
        -11    1    4    4    0    0  0.22978476877E-01  0.37729131456E-01 -0.41727219512E-01  0.60769397967E-01  0.51100000000E-03 0. -1.
         11    1    4    4    0    0  0.51556184306E-01  0.58243261147E-01 -0.12020257288E-01  0.78708737225E-01  0.51100000000E-03 0.  1.
</event>
<event>
 8    1  0.2039519E+004  0.1043930E+01  0.7957747E-01            NaN
         13   -1    0    0    0    0  0.00000000000E+00  0.00000000000E+00  0.74505805969E-08  0.10566000000E+00  0.10566000000E+00 0. -1.
     999900   -1    0    0    0    0 -0.00000000000E+00 -0.00000000000E+00 -0.74505805969E-08  0.93827000000E+00  0.93827000000E+00 0.  1.
     999902    2    1    2    0    0 -0.98421296125E-02  0.36449786479E-02 -0.10495028621E-02  0.10333822590E+01  0.10333284271E+01 0.  0.
     999903    2    3    3    0    0  0.99756231796E-01 -0.34091613747E-02  0.90703827218E-01  0.14182169720E+00  0.43855231861E-01 0.  0.
         14    1    1    2    0    0  0.98421296125E-02 -0.36449786479E-02  0.10495028621E-02  0.10547741033E-01  0.00000000000E+00 0. -1.
     999901    1    3    3    0    0 -0.10959836141E+00  0.70541400226E-02 -0.91753330080E-01  0.89156056177E+00  0.88000000000E+00 0.  1.
        -11    1    4    4    0    0  0.23178490525E-01 -0.15082392956E-01  0.42098951083E-01  0.50371656749E-01  0.51100000000E-03 0. -1.
         11    1    4    4    0    0  0.76577741271E-01  0.11673231581E-01  0.48604876134E-01  0.91450040452E-01  0.51100000000E-03 0.  1.
</event>
<event>
 8    1  0.2039519E+004  0.1043930E+01  0.7957747E-01            NaN
         13   -1    0    0    0    0  0.00000000000E+00  0.00000000000E+00  0.74505805969E-08  0.10566000000E+00  0.10566000000E+00 0.  1.
     999900   -1    0    0    0    0 -0.00000000000E+00 -0.00000000000E+00 -0.74505805969E-08  0.93827000000E+00  0.93827000000E+00 0.  1.
     999902    2    1    2    0    0 -0.12099223358E-01  0.26644854150E-02  0.10458377167E-01  0.10277167850E+01  0.10275888875E+01 0.  0.
     999903    2    3    3    0    0 -0.10659673095E+00 -0.45998186397E-01  0.63379120350E-01  0.13974243871E+00  0.45081482667E-01 0.  0.
         14    1    1    2    0    0  0.12099223358E-01 -0.26644854150E-02 -0.10458377167E-01  0.16213215022E-01  0.00000000000E+00 0. -1.
     999901    1    3    3    0    0  0.94497507593E-01  0.48662671812E-01 -0.52920743183E-01  0.88797434627E+00  0.88000000000E+00 0. -1.
        -11    1    4    4    0    0  0.29860002960E-03  0.28715502536E-02  0.10420073558E-01  0.10824694767E-01  0.51100000000E-03 0. -1.
         11    1    4    4    0    0 -0.10689533098E+00 -0.48869736651E-01  0.52959046792E-01  0.12891774394E+00  0.51100000000E-03 0.  1.
</event>
<event>
 8    1  0.2039519E+004  0.1043930E+01  0.7957747E-01            NaN
         13   -1    0    0    0    0  0.00000000000E+00  0.00000000000E+00  0.74505805969E-08  0.10566000000E+00  0.10566000000E+00 0.  1.
     999900   -1    0    0    0    0 -0.00000000000E+00 -0.00000000000E+00 -0.74505805969E-08  0.93827000000E+00  0.93827000000E+00 0. -1.
     999902    2    1    2    0    0 -0.57009541933E-02  0.10407036174E-01 -0.70895412319E-02  0.10301072334E+01  0.10300144870E+01 0.  0.
     999903    2    3    3    0    0 -0.12452523777E+00 -0.17196048152E-01 -0.44021684366E-01  0.14092495526E+00  0.46040149918E-01 0.  0.
         14    1    1    2    0    0  0.57009541933E-02 -0.10407036174E-01  0.70895412319E-02  0.13822766565E-01  0.00000000000E+00 0.  1.
     999901    1    3    3    0    0  0.11882428358E+00  0.27603084326E-01  0.36932143134E-01  0.88918227818E+00  0.88000000000E+00 0. -1.
        -11    1    4    4    0    0 -0.74291493445E-01  0.10631956380E-01 -0.34930561562E-01  0.82780853745E-01  0.51100000000E-03 0. -1.
         11    1    4    4    0    0 -0.50233744329E-01 -0.27828004532E-01 -0.90911228045E-02  0.58144101510E-01  0.51100000000E-03 0.  1.
</event>
<event>
 8    1  0.2039519E+004  0.1043930E+01  0.7957747E-01            NaN
         13   -1    0    0    0    0  0.00000000000E+00  0.00000000000E+00  0.74505805969E-08  0.10566000000E+00  0.10566000000E+00 0. -1.
     999900   -1    0    0    0    0 -0.00000000000E+00 -0.00000000000E+00 -0.74505805969E-08  0.93827000000E+00  0.93827000000E+00 0.  1.
     999902    2    1    2    0    0 -0.14072125987E-01 -0.10997768739E-03 -0.51251019209E-03  0.10298481148E+01  0.10297518342E+01 0.  0.
     999903    2    3    3    0    0  0.93771281295E-01  0.91748676791E-01  0.19331191233E-02  0.13851529590E+00  0.44405825740E-01 0.  0.
         14    1    1    2    0    0  0.14072125987E-01  0.10997768739E-03  0.51251019209E-03  0.14081885229E-01  0.00000000000E+00 0. -1.
     999901    1    3    3    0    0 -0.10784340728E+00 -0.91858654478E-01 -0.24456293154E-02  0.89133281887E+00  0.88000000000E+00 0.  1.
        -11    1    4    4    0    0  0.43554872174E-01  0.60868713239E-01 -0.16696828676E-01  0.76688150000E-01  0.51100000000E-03 0.  1.
         11    1    4    4    0    0  0.50216409121E-01  0.30879963552E-01  0.18629947800E-01  0.61827145899E-01  0.51100000000E-03 0. -1.
</event>
<event>
 8    1  0.2039519E+004  0.1043930E+01  0.7957747E-01            NaN
         13   -1    0    0    0    0  0.00000000000E+00  0.00000000000E+00  0.74505805969E-08  0.10566000000E+00  0.10566000000E+00 0. -1.
     999900   -1    0    0    0    0 -0.00000000000E+00 -0.00000000000E+00 -0.74505805969E-08  0.93827000000E+00  0.93827000000E+00 0. -1.
     999902    2    1    2    0    0  0.10471544984E-01 -0.47967331309E-02  0.63168286498E-02  0.10307936296E+01  0.10307099217E+01 0.  0.
     999903    2    3    3    0    0  0.84538360779E-01 -0.97767070794E-01  0.37986994495E-01  0.14223728570E+00  0.45643171634E-01 0.  0.
         14    1    1    2    0    0 -0.10471544984E-01  0.47967331309E-02 -0.63168286498E-02  0.13136370400E-01  0.00000000000E+00 0. -1.
     999901    1    3    3    0    0 -0.74066815795E-01  0.92970337663E-01 -0.31670165845E-01  0.88855634390E+00  0.88000000000E+00 0.  1.
        -11    1    4    4    0    0  0.18343024939E-01  0.72612898083E-03  0.40085299658E-02  0.18796894975E-01  0.51100000000E-03 0. -1.
         11    1    4    4    0    0  0.66195335840E-01 -0.98493199775E-01  0.33978464529E-01  0.12344039072E+00  0.51100000000E-03 0.  1.
</event>
<event>
 8    1  0.2039519E+004  0.1043930E+01  0.7957747E-01            NaN
         13   -1    0    0    0    0  0.00000000000E+00  0.00000000000E+00  0.74505805969E-08  0.10566000000E+00  0.10566000000E+00 0.  1.
     999900   -1    0    0    0    0 -0.00000000000E+00 -0.00000000000E+00 -0.74505805969E-08  0.93827000000E+00  0.93827000000E+00 0.  1.
     999902    2    1    2    0    0  0.26073908044E-02 -0.12281146744E-01  0.89619538324E-02  0.10285046420E+01  0.10283889619E+01 0.  0.
     999903    2    3    3    0    0  0.27068208901E-01  0.12662589438E+00  0.53309702404E-02  0.13726579540E+00  0.45240184371E-01 0.  0.
         14    1    1    2    0    0 -0.26073908044E-02  0.12281146744E-01 -0.89619538324E-02  0.15425357975E-01  0.00000000000E+00 0.  1.
     999901    1    3    3    0    0 -0.24460818097E-01 -0.13890704112E+00  0.36309835920E-02  0.89123884663E+00  0.88000000000E+00 0.  1.
        -11    1    4    4    0    0  0.34821287464E-02  0.49167651504E-01 -0.18828703113E-01  0.52767076449E-01  0.51100000000E-03 0.  1.
         11    1    4    4    0    0  0.23586080155E-01  0.77458242876E-01  0.24159673354E-01  0.84498718950E-01  0.51100000000E-03 0. -1.
</event>
<event>
 8    1  0.2039519E+004  0.1043930E+01  0.7957747E-01            NaN
         13   -1    0    0    0    0  0.00000000000E+00  0.00000000000E+00  0.74505805969E-08  0.10566000000E+00  0.10566000000E+00 0. -1.
     999900   -1    0    0    0    0 -0.00000000000E+00 -0.00000000000E+00 -0.74505805969E-08  0.93827000000E+00  0.93827000000E+00 0. -1.
     999902    2    1    2    0    0  0.31238453730E-02 -0.12228576864E-01 -0.53151509256E-02  0.10302352079E+01  0.10301441822E+01 0.  0.
     999903    2    3    3    0    0 -0.11538974985E+00 -0.23745202298E-01 -0.61892419307E-01  0.14041551141E+00  0.44801956146E-01 0.  0.
         14    1    1    2    0    0 -0.31238453730E-02  0.12228576864E-01  0.53151509256E-02  0.13694792127E-01  0.00000000000E+00 0.  1.
     999901    1    3    3    0    0  0.11851359522E+00  0.11516625434E-01  0.56577268381E-01  0.88981969646E+00  0.88000000000E+00 0.  1.
        -11    1    4    4    0    0 -0.25230928908E-01 -0.18341685369E-01 -0.33405109471E-01  0.45707544843E-01  0.51100000000E-03 0. -1.
         11    1    4    4    0    0 -0.90158820942E-01 -0.54035169289E-02 -0.28487309835E-01  0.94707966568E-01  0.51100000000E-03 0.  1.
</event>
<event>
 8    1  0.2039519E+004  0.1043930E+01  0.7957747E-01            NaN
         13   -1    0    0    0    0  0.00000000000E+00  0.00000000000E+00  0.74505805969E-08  0.10566000000E+00  0.10566000000E+00 0.  1.
     999900   -1    0    0    0    0 -0.00000000000E+00 -0.00000000000E+00 -0.74505805969E-08  0.93827000000E+00  0.93827000000E+00 0. -1.
     999902    2    1    2    0    0 -0.45175926003E-02  0.84456829076E-02  0.91879099304E-02  0.10306576268E+01  0.10305721652E+01 0.  0.
     999903    2    3    3    0    0 -0.68036079033E-01  0.91044423490E-01  0.68605256539E-01  0.14252049143E+00  0.51840275402E-01 0.  0.
         14    1    1    2    0    0  0.45175926003E-02 -0.84456829076E-02 -0.91879099304E-02  0.13272373246E-01  0.00000000000E+00 0. -1.
     999901    1    3    3    0    0  0.63518486433E-01 -0.82598740583E-01 -0.59417346608E-01  0.88813713532E+00  0.88000000000E+00 0. -1.
        -11    1    4    4    0    0 -0.26267460130E-01  0.13289414916E-01 -0.19713175631E-02  0.29508222997E-01  0.51100000000E-03 0.  1.
         11    1    4    4    0    0 -0.41768618903E-01  0.77755008574E-01  0.70576574102E-01  0.11301226843E+00  0.51100000000E-03 0. -1.
</event>
<event>
 8    1  0.2039519E+004  0.1043930E+01  0.7957747E-01            NaN
         13   -1    0    0    0    0  0.00000000000E+00  0.00000000000E+00  0.74505805969E-08  0.10566000000E+00  0.10566000000E+00 0. -1.
     999900   -1    0    0    0    0 -0.00000000000E+00 -0.00000000000E+00 -0.74505805969E-08  0.93827000000E+00  0.93827000000E+00 0.  1.
     999902    2    1    2    0    0 -0.96614703221E-02 -0.82677129575E-02 -0.65921065179E-02  0.10296067687E+01  0.10295071361E+01 0.  0.
     999903    2    3    3    0    0  0.48715311405E-01  0.12150260254E+00  0.22466168037E-02  0.13813253663E+00  0.44039600350E-01 0.  0.
         14    1    1    2    0    0  0.96614703221E-02  0.82677129575E-02  0.65921065179E-02  0.14323231293E-01  0.00000000000E+00 0. -1.
     999901    1    3    3    0    0 -0.58376781727E-01 -0.12977031550E+00 -0.88387233216E-02  0.89147423208E+00  0.88000000000E+00 0.  1.
        -11    1    4    4    0    0  0.24542072449E-01  0.41636444192E-01 -0.19146489266E-01  0.51988036867E-01  0.51100000000E-03 0. -1.
         11    1    4    4    0    0  0.24173238956E-01  0.79866158348E-01  0.21393106069E-01  0.86144499762E-01  0.51100000000E-03 0.  1.
</event>
<event>
 8    1  0.2039519E+004  0.1043930E+01  0.7957747E-01            NaN
         13   -1    0    0    0    0  0.00000000000E+00  0.00000000000E+00  0.74505805969E-08  0.10566000000E+00  0.10566000000E+00 0.  1.
     999900   -1    0    0    0    0 -0.00000000000E+00 -0.00000000000E+00 -0.74505805969E-08  0.93827000000E+00  0.93827000000E+00 0.  1.
     999902    2    1    2    0    0 -0.96551997018E-02  0.38354223912E-02  0.96143313921E-02  0.10297748344E+01  0.10296775421E+01 0.  0.
     999903    2    3    3    0    0 -0.32219826026E-01 -0.62668481217E-01  0.11304948011E+00  0.14093808807E+00  0.46020690874E-01 0.  0.
         14    1    1    2    0    0  0.96551997018E-02 -0.38354223912E-02 -0.96143313921E-02  0.14155165641E-01  0.00000000000E+00 0. -1.
     999901    1    3    3    0    0  0.22564626324E-01  0.66503903608E-01 -0.10343514872E+00  0.88883674629E+00  0.88000000000E+00 0.  1.
        -11    1    4    4    0    0 -0.22558242086E-02 -0.42269522468E-01  0.35176778702E-01  0.55040604587E-01  0.51100000000E-03 0. -1.
         11    1    4    4    0    0 -0.29964001818E-01 -0.20398958749E-01  0.77872701413E-01  0.85897483486E-01  0.51100000000E-03 0.  1.
</event>
<event>
 8    1  0.2039519E+004  0.1043930E+01  0.7957747E-01            NaN
         13   -1    0    0    0    0  0.00000000000E+00  0.00000000000E+00  0.74505805969E-08  0.10566000000E+00  0.10566000000E+00 0.  1.
     999900   -1    0    0    0    0 -0.00000000000E+00 -0.00000000000E+00 -0.74505805969E-08  0.93827000000E+00  0.93827000000E+00 0. -1.
     999902    2    1    2    0    0 -0.71738687687E-02  0.22117559133E-02 -0.10083655153E-01  0.10313587487E+01  0.10312821303E+01 0.  0.
     999903    2    3    3    0    0 -0.38360727817E-01  0.12733958682E+00  0.17614694364E-01  0.14152910615E+00  0.45092068240E-01 0.  0.
         14    1    1    2    0    0  0.71738687687E-02 -0.22117559133E-02  0.10083655153E-01  0.12571251273E-01  0.00000000000E+00 0. -1.
     999901    1    3    3    0    0  0.31186859048E-01 -0.12512783091E+00 -0.27698349517E-01  0.88982964258E+00  0.88000000000E+00 0. -1.
        -11    1    4    4    0    0  0.86790565315E-02  0.25839256604E-01 -0.40999763605E-02  0.27569260623E-01  0.51100000000E-03 0.  1.
         11    1    4    4    0    0 -0.47039784348E-01  0.10150033022E+00  0.21714670725E-01  0.11395984553E+00  0.51100000000E-03 0. -1.
</event>
<event>
 8    1  0.2039519E+004  0.1043930E+01  0.7957747E-01            NaN
         13   -1    0    0    0    0  0.00000000000E+00  0.00000000000E+00  0.74505805969E-08  0.10566000000E+00  0.10566000000E+00 0.  1.
     999900   -1    0    0    0    0 -0.00000000000E+00 -0.00000000000E+00 -0.74505805969E-08  0.93827000000E+00  0.93827000000E+00 0.  1.
     999902    2    1    2    0    0 -0.39965341951E-02 -0.89807228773E-02  0.88371947969E-02  0.10307117671E+01  0.10306270058E+01 0.  0.
     999903    2    3    3    0    0 -0.70634662255E-01  0.10092662133E+00 -0.47640104893E-01  0.13958329724E+00  0.45149516834E-01 0.  0.
         14    1    1    2    0    0  0.39965341951E-02  0.89807228773E-02 -0.88371947969E-02  0.13218232894E-01  0.00000000000E+00 0.  1.
     999901    1    3    3    0    0  0.66638128060E-01 -0.10990734420E+00  0.56477299690E-01  0.89112846986E+00  0.88000000000E+00 0.  1.
        -11    1    4    4    0    0 -0.15565961363E-01  0.30213995454E-01 -0.35478837623E-01  0.49134445296E-01  0.51100000000E-03 0. -1.
         11    1    4    4    0    0 -0.55068700892E-01  0.70712625872E-01 -0.12161267270E-01  0.90448851946E-01  0.51100000000E-03 0.  1.
</event>
<event>
 8    1  0.2039519E+004  0.1043930E+01  0.7957747E-01            NaN
         13   -1    0    0    0    0  0.00000000000E+00  0.00000000000E+00  0.74505805969E-08  0.10566000000E+00  0.10566000000E+00 0.  1.
     999900   -1    0    0    0    0 -0.00000000000E+00 -0.00000000000E+00 -0.74505805969E-08  0.93827000000E+00  0.93827000000E+00 0. -1.
     999902    2    1    2    0    0  0.10345642834E-01 -0.67678371002E-02 -0.30463033696E-02  0.10311975254E+01  0.10311189168E+01 0.  0.
     999903    2    3    3    0    0  0.27541429537E-01 -0.74784543717E-01  0.11088770512E+00  0.14108352949E+00  0.35457309927E-01 0.  0.
         14    1    1    2    0    0 -0.10345642834E-01  0.67678371002E-02  0.30463033696E-02  0.12732474578E-01  0.00000000000E+00 0.  1.
     999901    1    3    3    0    0 -0.17195786703E-01  0.68016706617E-01 -0.11393400849E+00  0.89011399593E+00  0.88000000000E+00 0. -1.
        -11    1    4    4    0    0  0.36101440465E-01 -0.62276074747E-01  0.93757381684E-01  0.11820461595E+00  0.51100000000E-03 0.  1.
         11    1    4    4    0    0 -0.85600109281E-02 -0.12508468970E-01  0.17130323436E-01  0.22878913547E-01  0.51100000000E-03 0. -1.
</event>
<event>
 8    1  0.2039519E+004  0.1043930E+01  0.7957747E-01            NaN
         13   -1    0    0    0    0  0.00000000000E+00  0.00000000000E+00  0.74505805969E-08  0.10566000000E+00  0.10566000000E+00 0. -1.
     999900   -1    0    0    0    0 -0.00000000000E+00 -0.00000000000E+00 -0.74505805969E-08  0.93827000000E+00  0.93827000000E+00 0.  1.
     999902    2    1    2    0    0  0.22203308789E-02 -0.13218250218E-01  0.14791592871E-04  0.10305265591E+01  0.10304393902E+01 0.  0.
     999903    2    3    3    0    0  0.62439967040E-02 -0.11011000524E+00 -0.76558628185E-01  0.14189407566E+00  0.45929341505E-01 0.  0.
         14    1    1    2    0    0 -0.22203308789E-02  0.13218250218E-01 -0.14791592871E-04  0.13403440858E-01  0.00000000000E+00 0.  1.
     999901    1    3    3    0    0 -0.40236658251E-02  0.96891755017E-01  0.76573419778E-01  0.88863248348E+00  0.88000000000E+00 0. -1.
        -11    1    4    4    0    0  0.13144368715E-01 -0.28462444681E-01 -0.43301849866E-01  0.53462103484E-01  0.51100000000E-03 0.  1.
         11    1    4    4    0    0 -0.69003720108E-02 -0.81647560554E-01 -0.33256778319E-01  0.88431972179E-01  0.51100000000E-03 0. -1.
</event>
<event>
 8    1  0.2039519E+004  0.1043930E+01  0.7957747E-01            NaN
         13   -1    0    0    0    0  0.00000000000E+00  0.00000000000E+00  0.74505805969E-08  0.10566000000E+00  0.10566000000E+00 0.  1.
     999900   -1    0    0    0    0 -0.00000000000E+00 -0.00000000000E+00 -0.74505805969E-08  0.93827000000E+00  0.93827000000E+00 0. -1.
     999902    2    1    2    0    0  0.11366059530E-01 -0.24342288739E-02 -0.49976111048E-02  0.10312773759E+01  0.10311997562E+01 0.  0.
     999903    2    3    3    0    0  0.12371426237E+00 -0.48970130576E-01  0.22094370199E-01  0.14250199131E+00  0.45993085699E-01 0.  0.
         14    1    1    2    0    0 -0.11366059530E-01  0.24342288739E-02  0.49976111048E-02  0.12652624084E-01  0.00000000000E+00 0. -1.
     999901    1    3    3    0    0 -0.11234820283E+00  0.46535901702E-01 -0.27091981304E-01  0.88877538460E+00  0.88000000000E+00 0. -1.
        -11    1    4    4    0    0  0.72039183627E-01 -0.49540259211E-01  0.32446383058E-02  0.87490971300E-01  0.51100000000E-03 0. -1.
         11    1    4    4    0    0  0.51675078738E-01  0.57012863483E-03  0.18849731893E-01  0.55011020011E-01  0.51100000000E-03 0.  1.
</event>
<event>
 8    1  0.2039519E+004  0.1043930E+01  0.7957747E-01            NaN
         13   -1    0    0    0    0  0.00000000000E+00  0.00000000000E+00  0.74505805969E-08  0.10566000000E+00  0.10566000000E+00 0.  1.
     999900   -1    0    0    0    0 -0.00000000000E+00 -0.00000000000E+00 -0.74505805969E-08  0.93827000000E+00  0.93827000000E+00 0. -1.
     999902    2    1    2    0    0  0.10342236325E-01 -0.76776060082E-05 -0.14656968441E-01  0.10259915320E+01  0.10258347016E+01 0.  0.
     999903    2    3    3    0    0 -0.13959788565E-01 -0.40906791872E-01  0.11951627636E+00  0.13455124481E+00  0.44177549123E-01 0.  0.
         14    1    1    2    0    0 -0.10342236325E-01  0.76776060083E-05  0.14656968441E-01  0.17938468024E-01  0.00000000000E+00 0.  1.
     999901    1    3    3    0    0  0.24302024890E-01  0.40899114266E-01 -0.13417324480E+00  0.89144028717E+00  0.88000000000E+00 0. -1.
        -11    1    4    4    0    0 -0.17741395872E-01 -0.49401132255E-01  0.10132685911E+00  0.11411670558E+00  0.51100000000E-03 0.  1.
         11    1    4    4    0    0  0.37816073065E-02  0.84943403831E-02  0.18189417256E-01  0.20434539228E-01  0.51100000000E-03 0. -1.
</event>
<event>
 8    1  0.2039519E+004  0.1043930E+01  0.7957747E-01            NaN
         13   -1    0    0    0    0  0.00000000000E+00  0.00000000000E+00  0.74505805969E-08  0.10566000000E+00  0.10566000000E+00 0.  1.
     999900   -1    0    0    0    0 -0.00000000000E+00 -0.00000000000E+00 -0.74505805969E-08  0.93827000000E+00  0.93827000000E+00 0. -1.
     999902    2    1    2    0    0 -0.41650605824E-02  0.59981710833E-02 -0.88518510580E-02  0.10324547635E+01  0.10323909907E+01 0.  0.
     999903    2    3    3    0    0 -0.69128371634E-01  0.97272457000E-01  0.63345553604E-01  0.14241898201E+00  0.45053796966E-01 0.  0.
         14    1    1    2    0    0  0.41650605824E-02 -0.59981710833E-02  0.88518510580E-02  0.11475236518E-01  0.00000000000E+00 0.  1.
     999901    1    3    3    0    0  0.64963311052E-01 -0.91274285917E-01 -0.72197404661E-01  0.89003578147E+00  0.88000000000E+00 0. -1.
        -11    1    4    4    0    0 -0.19568525995E-01  0.66007842671E-01  0.37122309316E-01  0.78219495483E-01  0.51100000000E-03 0. -1.
         11    1    4    4    0    0 -0.49559845639E-01  0.31264614329E-01  0.26223244288E-01  0.64199486531E-01  0.51100000000E-03 0.  1.
</event>
<event>
 8    1  0.2039519E+004  0.1043930E+01  0.7957747E-01            NaN
         13   -1    0    0    0    0  0.00000000000E+00  0.00000000000E+00  0.74505805969E-08  0.10566000000E+00  0.10566000000E+00 0.  1.
     999900   -1    0    0    0    0 -0.00000000000E+00 -0.00000000000E+00 -0.74505805969E-08  0.93827000000E+00  0.93827000000E+00 0.  1.
     999902    2    1    2    0    0 -0.67115236959E-02 -0.10561804299E-01  0.22021769839E-02  0.10312238659E+01  0.10311455842E+01 0.  0.
     999903    2    3    3    0    0 -0.80560197013E-01  0.92720584917E-01  0.51284065594E-01  0.14075774624E+00  0.45778111927E-01 0.  0.
         14    1    1    2    0    0  0.67115236959E-02  0.10561804299E-01 -0.22021769839E-02  0.12706134103E-01  0.00000000000E+00 0.  1.
     999901    1    3    3    0    0  0.73848673318E-01 -0.10328238922E+00 -0.49081888610E-01  0.89046611966E+00  0.88000000000E+00 0.  1.
        -11    1    4    4    0    0 -0.44289848128E-01  0.17598224627E-01  0.18490461684E-01  0.51121878404E-01  0.51100000000E-03 0.  1.
         11    1    4    4    0    0 -0.36270348886E-01  0.75122360290E-01  0.32793603910E-01  0.89635867833E-01  0.51100000000E-03 0. -1.
</event>
<event>
 8    1  0.2039519E+004  0.1043930E+01  0.7957747E-01            NaN
         13   -1    0    0    0    0  0.00000000000E+00  0.00000000000E+00  0.74505805969E-08  0.10566000000E+00  0.10566000000E+00 0. -1.
     999900   -1    0    0    0    0 -0.00000000000E+00 -0.00000000000E+00 -0.74505805969E-08  0.93827000000E+00  0.93827000000E+00 0.  1.
     999902    2    1    2    0    0 -0.10994810979E-01 -0.59116566821E-02  0.56899031653E-02  0.10302110878E+01  0.10301197391E+01 0.  0.
     999903    2    3    3    0    0 -0.95091690445E-01 -0.35842600102E-01 -0.86579214638E-01  0.14089576883E+00  0.45039268331E-01 0.  0.
         14    1    1    2    0    0  0.10994810979E-01  0.59116566821E-02 -0.56899031653E-02  0.13718912173E-01  0.00000000000E+00 0. -1.
     999901    1    3    3    0    0  0.84096879466E-01  0.29930943420E-01  0.92269117803E-01  0.88931531900E+00  0.88000000000E+00 0. -1.
        -11    1    4    4    0    0 -0.64139286199E-01 -0.82731156228E-03 -0.54917277611E-01  0.84443478017E-01  0.51100000000E-03 0.  1.
         11    1    4    4    0    0 -0.30952404246E-01 -0.35015288540E-01 -0.31661937027E-01  0.56452290808E-01  0.51100000000E-03 0. -1.
</event>
<event>
 8    1  0.2039519E+004  0.1043930E+01  0.7957747E-01            NaN
         13   -1    0    0    0    0  0.00000000000E+00  0.00000000000E+00  0.74505805969E-08  0.10566000000E+00  0.10566000000E+00 0. -1.
     999900   -1    0    0    0    0 -0.00000000000E+00 -0.00000000000E+00 -0.74505805969E-08  0.93827000000E+00  0.93827000000E+00 0. -1.
     999902    2    1    2    0    0  0.39762316893E-02  0.20391026835E-03  0.13736296364E-01  0.10296283275E+01  0.10295289967E+01 0.  0.
     999903    2    3    3    0    0 -0.10391842471E-01  0.13124613775E+00 -0.87712841395E-02  0.13952434589E+00  0.45349405817E-01 0.  0.
         14    1    1    2    0    0 -0.39762316893E-02 -0.20391026835E-03 -0.13736296364E-01  0.14301672477E-01  0.00000000000E+00 0.  1.
     999901    1    3    3    0    0  0.14368074160E-01 -0.13104222748E+00  0.22507580503E-01  0.89010398163E+00  0.88000000000E+00 0. -1.
        -11    1    4    4    0    0  0.11200571867E-01  0.60713112862E-01 -0.20022686015E-01  0.64905346158E-01  0.51100000000E-03 0. -1.
         11    1    4    4    0    0 -0.21592414338E-01  0.70533024883E-01  0.11251401875E-01  0.74618999733E-01  0.51100000000E-03 0.  1.
</event>
<event>
 8    1  0.2039519E+004  0.1043930E+01  0.7957747E-01            NaN
         13   -1    0    0    0    0  0.00000000000E+00  0.00000000000E+00  0.74505805969E-08  0.10566000000E+00  0.10566000000E+00 0.  1.
     999900   -1    0    0    0    0 -0.00000000000E+00 -0.00000000000E+00 -0.74505805969E-08  0.93827000000E+00  0.93827000000E+00 0.  1.
     999902    2    1    2    0    0  0.23490823931E-02 -0.11212009614E-01  0.64065539621E-02  0.10308047845E+01  0.10307212196E+01 0.  0.
     999903    2    3    3    0    0 -0.10199880228E-01  0.10992557210E+00 -0.72736058460E-01  0.13889932806E+00  0.42600706311E-01 0.  0.
         14    1    1    2    0    0 -0.23490823931E-02  0.11212009614E-01 -0.64065539621E-02  0.13125215478E-01  0.00000000000E+00 0.  1.
     999901    1    3    3    0    0  0.12548962621E-01 -0.12113758171E+00  0.79142612422E-01  0.89190545646E+00  0.88000000000E+00 0. -1.
        -11    1    4    4    0    0  0.70807649908E-02  0.94830544115E-01 -0.54666788855E-01  0.10968905257E+00  0.51100000000E-03 0. -1.
         11    1    4    4    0    0 -0.17280645219E-01  0.15095027981E-01 -0.18069269605E-01  0.29210275486E-01  0.51100000000E-03 0.  1.
</event>
<event>
 8    1  0.2039519E+004  0.1043930E+01  0.7957747E-01            NaN
         13   -1    0    0    0    0  0.00000000000E+00  0.00000000000E+00  0.74505805969E-08  0.10566000000E+00  0.10566000000E+00 0. -1.
     999900   -1    0    0    0    0 -0.00000000000E+00 -0.00000000000E+00 -0.74505805969E-08  0.93827000000E+00  0.93827000000E+00 0.  1.
     999902    2    1    2    0    0  0.49403295234E-02 -0.84301106764E-02 -0.12223245004E-01  0.10282813151E+01  0.10281622350E+01 0.  0.
     999903    2    3    3    0    0  0.71374463636E-02 -0.13067494222E+00 -0.21366382965E-01  0.13978133018E+00  0.44220066510E-01 0.  0.
         14    1    1    2    0    0 -0.49403295234E-02  0.84301106764E-02  0.12223245004E-01  0.15648684936E-01  0.00000000000E+00 0. -1.
     999901    1    3    3    0    0 -0.21971168401E-02  0.12224483154E+00  0.91431379615E-02  0.88849998488E+00  0.88000000000E+00 0. -1.
        -11    1    4    4    0    0  0.16305448448E-01 -0.79636433783E-01  0.53117748195E-02  0.81463521330E-01  0.51100000000E-03 0. -1.
         11    1    4    4    0    0 -0.91680020842E-02 -0.51038508436E-01 -0.26678157785E-01  0.58317808853E-01  0.51100000000E-03 0.  1.
</event>
<event>
 8    1  0.2039519E+004  0.1043930E+01  0.7957747E-01            NaN
         13   -1    0    0    0    0  0.00000000000E+00  0.00000000000E+00  0.74505805969E-08  0.10566000000E+00  0.10566000000E+00 0.  1.
     999900   -1    0    0    0    0 -0.00000000000E+00 -0.00000000000E+00 -0.74505805969E-08  0.93827000000E+00  0.93827000000E+00 0.  1.
     999902    2    1    2    0    0  0.20401740722E-02 -0.10682957576E-01  0.61127667716E-02  0.10314538704E+01  0.10313784140E+01 0.  0.
     999903    2    3    3    0    0  0.63817810475E-01  0.28811340458E-02 -0.11713507795E+00  0.14061690877E+00  0.44401291387E-01 0.  0.
         14    1    1    2    0    0 -0.20401740722E-02  0.10682957576E-01 -0.61127667716E-02  0.12476129625E-01  0.00000000000E+00 0. -1.
     999901    1    3    3    0    0 -0.61777636403E-01 -0.13564091621E-01  0.12324784472E+00  0.89083696161E+00  0.88000000000E+00 0. -1.
        -11    1    4    4    0    0  0.45014593749E-01 -0.12665157426E-02 -0.11195049872E+00  0.12066935401E+00  0.51100000000E-03 0. -1.
         11    1    4    4    0    0  0.18803216726E-01  0.41476497883E-02 -0.51845792351E-02  0.19947554759E-01  0.51100000000E-03 0.  1.
</event>
<event>
 8    1  0.2039519E+004  0.1043930E+01  0.7957747E-01            NaN
         13   -1    0    0    0    0  0.00000000000E+00  0.00000000000E+00  0.74505805969E-08  0.10566000000E+00  0.10566000000E+00 0.  1.
     999900   -1    0    0    0    0 -0.00000000000E+00 -0.00000000000E+00 -0.74505805969E-08  0.93827000000E+00  0.93827000000E+00 0.  1.
     999902    2    1    2    0    0  0.97076933675E-03  0.14046335183E-01 -0.20703200349E-02  0.10296987615E+01  0.10296004134E+01 0.  0.
     999903    2    3    3    0    0  0.80775780357E-01 -0.82916120483E-01 -0.62396100268E-01  0.13873874140E+00  0.44219399685E-01 0.  0.
         14    1    1    2    0    0 -0.97076933675E-03 -0.14046335183E-01  0.20703200349E-02  0.14231238535E-01  0.00000000000E+00 0.  1.
     999901    1    3    3    0    0 -0.79805011021E-01  0.96962455666E-01  0.60325780233E-01  0.89096002006E+00  0.88000000000E+00 0. -1.
        -11    1    4    4    0    0  0.26505176700E-01 -0.40660815968E-01 -0.48399497079E-01  0.68546325835E-01  0.51100000000E-03 0. -1.
         11    1    4    4    0    0  0.54270603658E-01 -0.42255304515E-01 -0.13996603189E-01  0.70192415565E-01  0.51100000000E-03 0.  1.
</event>
<event>
 8    1  0.2039519E+004  0.1043930E+01  0.7957747E-01            NaN
         13   -1    0    0    0    0  0.00000000000E+00  0.00000000000E+00  0.74505805969E-08  0.10566000000E+00  0.10566000000E+00 0. -1.
     999900   -1    0    0    0    0 -0.00000000000E+00 -0.00000000000E+00 -0.74505805969E-08  0.93827000000E+00  0.93827000000E+00 0.  1.
     999902    2    1    2    0    0  0.13491223010E-01 -0.22647177524E-02 -0.52879666990E-02  0.10292635541E+01  0.10291590543E+01 0.  0.
     999903    2    3    3    0    0 -0.10181172947E+00 -0.24649699926E-01  0.77043188296E-01  0.13765025371E+00  0.45152004584E-01 0.  0.
         14    1    1    2    0    0 -0.13491223010E-01  0.22647177524E-02  0.52879666990E-02  0.14666445943E-01  0.00000000000E+00 0. -1.
     999901    1    3    3    0    0  0.11530295248E+00  0.22384982174E-01 -0.82331154995E-01  0.89161330035E+00  0.88000000000E+00 0. -1.
        -11    1    4    4    0    0 -0.74206396640E-01  0.31547935502E-02  0.43542424714E-01  0.86097304811E-01  0.51100000000E-03 0.  1.
         11    1    4    4    0    0 -0.27605332833E-01 -0.27804493476E-01  0.33500763582E-01  0.51552948896E-01  0.51100000000E-03 0. -1.
</event>
<event>
 8    1  0.2039519E+004  0.1043930E+01  0.7957747E-01            NaN
         13   -1    0    0    0    0  0.00000000000E+00  0.00000000000E+00  0.74505805969E-08  0.10566000000E+00  0.10566000000E+00 0.  1.
     999900   -1    0    0    0    0 -0.00000000000E+00 -0.00000000000E+00 -0.74505805969E-08  0.93827000000E+00  0.93827000000E+00 0.  1.
     999902    2    1    2    0    0  0.13983412029E-01 -0.44169513650E-03 -0.10640442817E-02  0.10298992090E+01  0.10298036306E+01 0.  0.
     999903    2    3    3    0    0 -0.85715068632E-01  0.89444751203E-01 -0.43663884877E-01  0.13870107910E+00  0.44542316863E-01 0.  0.
         14    1    1    2    0    0 -0.13983412029E-01  0.44169513650E-03  0.10640442817E-02  0.14030791025E-01  0.00000000000E+00 0. -1.
     999901    1    3    3    0    0  0.99698480660E-01 -0.89886446339E-01  0.42599840595E-01  0.89119812988E+00  0.88000000000E+00 0. -1.
        -11    1    4    4    0    0 -0.39272099932E-01  0.52852227370E-01 -0.11197002216E-02  0.65857198700E-01  0.51100000000E-03 0. -1.
         11    1    4    4    0    0 -0.46442968700E-01  0.36592523833E-01 -0.42544184655E-01  0.72843880395E-01  0.51100000000E-03 0.  1.
</event>
<event>
 8    1  0.2039519E+004  0.1043930E+01  0.7957747E-01            NaN
         13   -1    0    0    0    0  0.00000000000E+00  0.00000000000E+00  0.74505805969E-08  0.10566000000E+00  0.10566000000E+00 0. -1.
     999900   -1    0    0    0    0 -0.00000000000E+00 -0.00000000000E+00 -0.74505805969E-08  0.93827000000E+00  0.93827000000E+00 0. -1.
     999902    2    1    2    0    0  0.79722381968E-03  0.13228350758E-01 -0.55721265237E-02  0.10295538592E+01  0.10294534840E+01 0.  0.
     999903    2    3    3    0    0  0.51647206708E-01  0.36100493005E-01  0.11587973719E+00  0.13946430707E+00  0.45293486289E-01 0.  0.
         14    1    1    2    0    0 -0.79722381968E-03 -0.13228350758E-01  0.55721265237E-02  0.14376140775E-01  0.00000000000E+00 0.  1.
     999901    1    3    3    0    0 -0.50849982888E-01 -0.22872142247E-01 -0.12145186371E+00  0.89008955215E+00  0.88000000000E+00 0.  1.
        -11    1    4    4    0    0  0.94985144014E-02  0.22704694553E-01  0.76083353901E-01  0.79966635495E-01  0.51100000000E-03 0.  1.
         11    1    4    4    0    0  0.42148692307E-01  0.13395798452E-01  0.39796383289E-01  0.59497671578E-01  0.51100000000E-03 0. -1.
</event>
<event>
 8    1  0.2039519E+004  0.1043930E+01  0.7957747E-01            NaN
         13   -1    0    0    0    0  0.00000000000E+00  0.00000000000E+00  0.74505805969E-08  0.10566000000E+00  0.10566000000E+00 0. -1.
     999900   -1    0    0    0    0 -0.00000000000E+00 -0.00000000000E+00 -0.74505805969E-08  0.93827000000E+00  0.93827000000E+00 0.  1.
     999902    2    1    2    0    0 -0.25042738777E-02  0.12875295432E-01  0.40059963826E-02  0.10302153135E+01  0.10301240214E+01 0.  0.
     999903    2    3    3    0    0  0.22242587512E-01  0.12044725385E+00  0.52830702023E-01  0.14197661509E+00  0.48621008811E-01 0.  0.
         14    1    1    2    0    0  0.25042738777E-02 -0.12875295432E-01 -0.40059963826E-02  0.13714686548E-01  0.00000000000E+00 0.  1.
     999901    1    3    3    0    0 -0.24746861390E-01 -0.10757195841E+00 -0.48824705641E-01  0.88823869836E+00  0.88000000000E+00 0.  1.
        -11    1    4    4    0    0  0.49027571745E-03  0.81257926745E-01  0.13563560958E-01  0.82385207022E-01  0.51100000000E-03 0.  1.
         11    1    4    4    0    0  0.21752311795E-01  0.39189327101E-01  0.39267141066E-01  0.59591408068E-01  0.51100000000E-03 0. -1.
</event>
<event>
 8    1  0.2039519E+004  0.1043930E+01  0.7957747E-01            NaN
         13   -1    0    0    0    0  0.00000000000E+00  0.00000000000E+00  0.74505805969E-08  0.10566000000E+00  0.10566000000E+00 0.  1.
     999900   -1    0    0    0    0 -0.00000000000E+00 -0.00000000000E+00 -0.74505805969E-08  0.93827000000E+00  0.93827000000E+00 0.  1.
     999902    2    1    2    0    0  0.95639065894E-02  0.58487970228E-02 -0.51983777730E-02  0.10315728212E+01  0.10314988054E+01 0.  0.
     999903    2    3    3    0    0  0.11417483545E+00 -0.68594775646E-01  0.10826744178E-01  0.14211113206E+00  0.48344794660E-01 0.  0.
         14    1    1    2    0    0 -0.95639065894E-02 -0.58487970228E-02  0.51983777730E-02  0.12357178777E-01  0.00000000000E+00 0.  1.
     999901    1    3    3    0    0 -0.10461092886E+00  0.74443572669E-01 -0.16025121951E-01  0.88946168916E+00  0.88000000000E+00 0.  1.
        -11    1    4    4    0    0  0.11008537261E+00 -0.56777033734E-01 -0.24169880271E-02  0.12388915923E+00  0.51100000000E-03 0.  1.
         11    1    4    4    0    0  0.40894628396E-02 -0.11817741912E-01  0.13243732205E-01  0.18221972834E-01  0.51100000000E-03 0. -1.
</event>
<event>
 8    1  0.2039519E+004  0.1043930E+01  0.7957747E-01            NaN
         13   -1    0    0    0    0  0.00000000000E+00  0.00000000000E+00  0.74505805969E-08  0.10566000000E+00  0.10566000000E+00 0. -1.
     999900   -1    0    0    0    0 -0.00000000000E+00 -0.00000000000E+00 -0.74505805969E-08  0.93827000000E+00  0.93827000000E+00 0. -1.
     999902    2    1    2    0    0 -0.88422073440E-02  0.87972597953E-02 -0.84652803142E-02  0.10288556051E+01  0.10287451671E+01 0.  0.
     999903    2    3    3    0    0 -0.65006186927E-01  0.11404974241E+00  0.24331370492E-01  0.14020038625E+00  0.42790006201E-01 0.  0.
         14    1    1    2    0    0  0.88422073440E-02 -0.87972597953E-02  0.84652803142E-02  0.15074394894E-01  0.00000000000E+00 0.  1.
     999901    1    3    3    0    0  0.56163979583E-01 -0.10525248262E+00 -0.32796650807E-01  0.88865521886E+00  0.88000000000E+00 0. -1.
        -11    1    4    4    0    0 -0.31877276153E-01  0.74132055690E-01  0.33759208392E-01  0.87473811441E-01  0.51100000000E-03 0. -1.
         11    1    4    4    0    0 -0.33128910774E-01  0.39917686724E-01 -0.94278378995E-02  0.52726574807E-01  0.51100000000E-03 0.  1.
</event>
<event>
 8    1  0.2039519E+004  0.1043930E+01  0.7957747E-01            NaN
         13   -1    0    0    0    0  0.00000000000E+00  0.00000000000E+00  0.74505805969E-08  0.10566000000E+00  0.10566000000E+00 0. -1.
     999900   -1    0    0    0    0 -0.00000000000E+00 -0.00000000000E+00 -0.74505805969E-08  0.93827000000E+00  0.93827000000E+00 0.  1.
     999902    2    1    2    0    0  0.13097092546E-01  0.53599243419E-02  0.10292434745E-02  0.10297412029E+01  0.10296434446E+01 0.  0.
     999903    2    3    3    0    0 -0.39485370526E-01  0.91332621093E-01  0.87234077873E-01  0.13980441101E+00  0.45108168168E-01 0.  0.
         14    1    1    2    0    0 -0.13097092546E-01 -0.53599243419E-02 -0.10292434745E-02  0.14188797138E-01  0.00000000000E+00 0. -1.
     999901    1    3    3    0    0  0.52582463071E-01 -0.85972696752E-01 -0.86204834398E-01  0.88993679185E+00  0.88000000000E+00 0. -1.
        -11    1    4    4    0    0 -0.28831506159E-01  0.60702068512E-01  0.83456645858E-01  0.10715068702E+00  0.51100000000E-03 0.  1.
         11    1    4    4    0    0 -0.10653864366E-01  0.30630552582E-01  0.37774320149E-02  0.32653723999E-01  0.51100000000E-03 0. -1.
</event>
<event>
 8    1  0.2039519E+004  0.1043930E+01  0.7957747E-01            NaN
         13   -1    0    0    0    0  0.00000000000E+00  0.00000000000E+00  0.74505805969E-08  0.10566000000E+00  0.10566000000E+00 0. -1.
     999900   -1    0    0    0    0 -0.00000000000E+00 -0.00000000000E+00 -0.74505805969E-08  0.93827000000E+00  0.93827000000E+00 0. -1.
     999902    2    1    2    0    0 -0.40817642915E-03 -0.10895404064E-02  0.15173356655E-01  0.10287121007E+01  0.10285995342E+01 0.  0.
     999903    2    3    3    0    0  0.25295946550E-01  0.53386969813E-01 -0.11507542088E+00  0.13708822478E+00  0.45395764370E-01 0.  0.
         14    1    1    2    0    0  0.40817642915E-03  0.10895404064E-02 -0.15173356655E-01  0.15217899280E-01  0.00000000000E+00 0.  1.
     999901    1    3    3    0    0 -0.25704122979E-01 -0.54476510220E-01  0.13024877754E+00  0.89162387594E+00  0.88000000000E+00 0.  1.
        -11    1    4    4    0    0  0.37047988173E-01  0.36223009613E-01 -0.66969033980E-01  0.84674509070E-01  0.51100000000E-03 0. -1.
         11    1    4    4    0    0 -0.11752041623E-01  0.17163960200E-01 -0.48106386905E-01  0.52413715706E-01  0.51100000000E-03 0.  1.
</event>
<event>
 8    1  0.2039519E+004  0.1043930E+01  0.7957747E-01            NaN
         13   -1    0    0    0    0  0.00000000000E+00  0.00000000000E+00  0.74505805969E-08  0.10566000000E+00  0.10566000000E+00 0.  1.
     999900   -1    0    0    0    0 -0.00000000000E+00 -0.00000000000E+00 -0.74505805969E-08  0.93827000000E+00  0.93827000000E+00 0. -1.
     999902    2    1    2    0    0 -0.11598263584E-01  0.59896696184E-02 -0.51377312190E-02  0.10299017377E+01  0.10298061940E+01 0.  0.
     999903    2    3    3    0    0  0.38659456021E-01  0.34638925966E-02 -0.12692314308E+00  0.14009057547E+00  0.44825584170E-01 0.  0.
         14    1    1    2    0    0  0.11598263584E-01 -0.59896696184E-02  0.51377312190E-02  0.14028262272E-01  0.00000000000E+00 0.  1.
     999901    1    3    3    0    0 -0.50257719605E-01  0.25257770218E-02  0.12178541186E+00  0.88981116225E+00  0.88000000000E+00 0.  1.
        -11    1    4    4    0    0  0.22642641529E-01  0.87651689476E-02 -0.18944207543E-01  0.30800349389E-01  0.51100000000E-03 0. -1.
         11    1    4    4    0    0  0.16016814492E-01 -0.53012763511E-02 -0.10797893553E+00  0.10929022608E+00  0.51100000000E-03 0.  1.
</event>
<event>
 8    1  0.2039519E+004  0.1043930E+01  0.7957747E-01            NaN
         13   -1    0    0    0    0  0.00000000000E+00  0.00000000000E+00  0.74505805969E-08  0.10566000000E+00  0.10566000000E+00 0.  1.
     999900   -1    0    0    0    0 -0.00000000000E+00 -0.00000000000E+00 -0.74505805969E-08  0.93827000000E+00  0.93827000000E+00 0.  1.
     999902    2    1    2    0    0  0.14805349585E-02 -0.11725470779E-01 -0.70261699785E-02  0.10301806104E+01  0.10300888527E+01 0.  0.
     999903    2    3    3    0    0 -0.59831039766E-01 -0.11976393626E+00 -0.76893513869E-02  0.14145576043E+00  0.45027239364E-01 0.  0.
         14    1    1    2    0    0 -0.14805349585E-02  0.11725470779E-01  0.70261699785E-02  0.13749389561E-01  0.00000000000E+00 0.  1.
     999901    1    3    3    0    0  0.61311574725E-01  0.10803846548E+00  0.66318140838E-03  0.88872485001E+00  0.88000000000E+00 0.  1.
        -11    1    4    4    0    0  0.72442250926E-02 -0.15058176608E-01 -0.32290065149E-02  0.17026892964E-01  0.51100000000E-03 0. -1.
         11    1    4    4    0    0 -0.67075264859E-01 -0.10470575965E+00 -0.44603448720E-02  0.12442886746E+00  0.51100000000E-03 0.  1.
</event>
<event>
 8    1  0.2039519E+004  0.1043930E+01  0.7957747E-01            NaN
         13   -1    0    0    0    0  0.00000000000E+00  0.00000000000E+00  0.74505805969E-08  0.10566000000E+00  0.10566000000E+00 0. -1.
     999900   -1    0    0    0    0 -0.00000000000E+00 -0.00000000000E+00 -0.74505805969E-08  0.93827000000E+00  0.93827000000E+00 0.  1.
     999902    2    1    2    0    0  0.38081869505E-02 -0.11423745558E-01  0.76985028632E-02  0.10296376525E+01  0.10295384521E+01 0.  0.
     999903    2    3    3    0    0  0.27372085326E-02 -0.12288839524E-01 -0.13021775242E+00  0.13889482270E+00  0.46654054911E-01 0.  0.
         14    1    1    2    0    0 -0.38081869505E-02  0.11423745558E-01 -0.76985028632E-02  0.14292347489E-01  0.00000000000E+00 0.  1.
     999901    1    3    3    0    0  0.10709784180E-02  0.86509396592E-03  0.13791625529E+00  0.89074282981E+00  0.88000000000E+00 0. -1.
        -11    1    4    4    0    0 -0.19073244715E-01 -0.12525719574E-01 -0.39781724823E-01  0.45864246049E-01  0.51100000000E-03 0. -1.
         11    1    4    4    0    0  0.21810453247E-01  0.23688005031E-03 -0.90436027602E-01  0.93030576653E-01  0.51100000000E-03 0.  1.
</event>
<event>
 8    1  0.2039519E+004  0.1043930E+01  0.7957747E-01            NaN
         13   -1    0    0    0    0  0.00000000000E+00  0.00000000000E+00  0.74505805969E-08  0.10566000000E+00  0.10566000000E+00 0. -1.
     999900   -1    0    0    0    0 -0.00000000000E+00 -0.00000000000E+00 -0.74505805969E-08  0.93827000000E+00  0.93827000000E+00 0. -1.
     999902    2    1    2    0    0 -0.10182717206E-01  0.68015406660E-02  0.54462476761E-02  0.10305281233E+01  0.10304409748E+01 0.  0.
     999903    2    3    3    0    0  0.24031331799E-01 -0.12841757589E+00  0.19942220427E-01  0.13942490602E+00  0.44418842384E-01 0.  0.
         14    1    1    2    0    0  0.10182717206E-01 -0.68015406660E-02 -0.54462476761E-02  0.13401876692E-01  0.00000000000E+00 0. -1.
     999901    1    3    3    0    0 -0.34214049005E-01  0.13521911655E+00 -0.14495972751E-01  0.89110321729E+00  0.88000000000E+00 0. -1.
        -11    1    4    4    0    0 -0.89280033305E-04 -0.81456611606E-01  0.27749168333E-01  0.86055011530E-01  0.51100000000E-03 0. -1.
         11    1    4    4    0    0  0.24120611832E-01 -0.46960964282E-01 -0.78069479067E-02  0.53369894492E-01  0.51100000000E-03 0.  1.
</event>
<event>
 8    1  0.2039519E+004  0.1043930E+01  0.7957747E-01            NaN
         13   -1    0    0    0    0  0.00000000000E+00  0.00000000000E+00  0.74505805969E-08  0.10566000000E+00  0.10566000000E+00 0.  1.
     999900   -1    0    0    0    0 -0.00000000000E+00 -0.00000000000E+00 -0.74505805969E-08  0.93827000000E+00  0.93827000000E+00 0.  1.
     999902    2    1    2    0    0 -0.34316020802E-02  0.57925300530E-02  0.12694160552E-01  0.10295609009E+01  0.10294606246E+01 0.  0.
     999903    2    3    3    0    0 -0.12218085201E+00 -0.26341005267E-01  0.45292049692E-01  0.14040592518E+00  0.45171284068E-01 0.  0.
         14    1    1    2    0    0  0.34316020802E-02 -0.57925300530E-02 -0.12694160552E-01  0.14369099115E-01  0.00000000000E+00 0. -1.
     999901    1    3    3    0    0  0.11874924992E+00  0.32133535320E-01 -0.32597889139E-01  0.88915497571E+00  0.88000000000E+00 0. -1.
        -11    1    4    4    0    0 -0.66945207289E-01 -0.34466942993E-01  0.14625886969E-01  0.76705988221E-01  0.51100000000E-03 0. -1.
         11    1    4    4    0    0 -0.55235644716E-01  0.81259377261E-02  0.30666162722E-01  0.63699936956E-01  0.51100000000E-03 0.  1.
</event>
<event>
 8    1  0.2039519E+004  0.1043930E+01  0.7957747E-01            NaN
         13   -1    0    0    0    0  0.00000000000E+00  0.00000000000E+00  0.74505805969E-08  0.10566000000E+00  0.10566000000E+00 0.  1.
     999900   -1    0    0    0    0 -0.00000000000E+00 -0.00000000000E+00 -0.74505805969E-08  0.93827000000E+00  0.93827000000E+00 0.  1.
     999902    2    1    2    0    0  0.53777999137E-02 -0.10521526838E-01 -0.72661496531E-02  0.10300584395E+01  0.10299650327E+01 0.  0.
     999903    2    3    3    0    0  0.12819489532E+00  0.34613175258E-01 -0.35664130780E-02  0.14037598590E+00  0.45394878880E-01 0.  0.
         14    1    1    2    0    0 -0.53777999137E-02  0.10521526838E-01  0.72661496531E-02  0.13871560463E-01  0.00000000000E+00 0. -1.
     999901    1    3    3    0    0 -0.12281709540E+00 -0.45134702096E-01 -0.36997365751E-02  0.88968245364E+00  0.88000000000E+00 0. -1.
        -11    1    4    4    0    0  0.61165903548E-01  0.22257655198E-01  0.20259283096E-01  0.68171626387E-01  0.51100000000E-03 0. -1.
         11    1    4    4    0    0  0.67028991769E-01  0.12355520060E-01 -0.23825696174E-01  0.72204359514E-01  0.51100000000E-03 0.  1.
</event>
<event>
 8    1  0.2219311E+004  0.1043930E+01  0.7957747E-01            NaN
         13   -1    0    0    0    0  0.00000000000E+00  0.00000000000E+00  0.74505805969E-08  0.10566000000E+00  0.10566000000E+00 0. -1.
     999900   -1    0    0    0    0 -0.00000000000E+00 -0.00000000000E+00 -0.74505805969E-08  0.93827000000E+00  0.93827000000E+00 0. -1.
     999902    2    1    2    0    0 -0.67813800078E-03 -0.10007469349E-02  0.20107956368E-01  0.10237857384E+01  0.10235875375E+01 0.  0.
     999903    2    3    3    0    0  0.83963669784E-01 -0.96936801989E-01  0.24286552343E-01  0.13452457152E+00  0.32563511696E-01 0.  0.
         14    1    1    2    0    0  0.67813800078E-03  0.10007469349E-02 -0.20107956368E-01  0.20144261587E-01  0.00000000000E+00 0.  1.
     999901    1    3    3    0    0 -0.84641807785E-01  0.95936055054E-01 -0.41785959748E-02  0.88926116690E+00  0.88000000000E+00 0. -1.
        -11    1    4    4    0    0  0.50155974669E-01 -0.33288243356E-01  0.93539589544E-02  0.60921971487E-01  0.51100000000E-03 0. -1.
         11    1    4    4    0    0  0.33807695115E-01 -0.63648558633E-01  0.14932593388E-01  0.73602600031E-01  0.51100000000E-03 0.  1.
</event>
<event>
 8    1  0.2039519E+004  0.1043930E+01  0.7957747E-01            NaN
         13   -1    0    0    0    0  0.00000000000E+00  0.00000000000E+00  0.74505805969E-08  0.10566000000E+00  0.10566000000E+00 0. -1.
     999900   -1    0    0    0    0 -0.00000000000E+00 -0.00000000000E+00 -0.74505805969E-08  0.93827000000E+00  0.93827000000E+00 0. -1.
     999902    2    1    2    0    0 -0.13172248221E-01  0.17073933083E-02 -0.63262372875E-02  0.10292179439E+01  0.10291127885E+01 0.  0.
     999903    2    3    3    0    0  0.70602710056E-01 -0.10566648790E+00  0.29509533954E-01  0.13802122240E+00  0.45043267050E-01 0.  0.
         14    1    1    2    0    0  0.13172248221E-01 -0.17073933083E-02  0.63262372875E-02  0.14712056054E-01  0.00000000000E+00 0.  1.
     999901    1    3    3    0    0 -0.83774958277E-01  0.10737388120E+00 -0.35835771241E-01  0.89119672155E+00  0.88000000000E+00 0. -1.
        -11    1    4    4    0    0  0.74313424781E-01 -0.96480740999E-01  0.34960070244E-01  0.12670235246E+00  0.51100000000E-03 0.  1.
         11    1    4    4    0    0 -0.37107147251E-02 -0.91857468967E-02 -0.54505362900E-02  0.11318869938E-01  0.51100000000E-03 0. -1.
</event>
<event>
 8    1  0.2039519E+004  0.1043930E+01  0.7957747E-01            NaN
         13   -1    0    0    0    0  0.00000000000E+00  0.00000000000E+00  0.74505805969E-08  0.10566000000E+00  0.10566000000E+00 0.  1.
     999900   -1    0    0    0    0 -0.00000000000E+00 -0.00000000000E+00 -0.74505805969E-08  0.93827000000E+00  0.93827000000E+00 0. -1.
     999902    2    1    2    0    0 -0.29803684983E-02 -0.47895271942E-02 -0.13807436043E-01  0.10290146570E+01  0.10289065540E+01 0.  0.
     999903    2    3    3    0    0 -0.57022531199E-01  0.71456205003E-01  0.92961937870E-01  0.13764847733E+00  0.44131883273E-01 0.  0.
         14    1    1    2    0    0  0.29803684983E-02  0.47895271942E-02  0.13807436043E-01  0.14915343014E-01  0.00000000000E+00 0.  1.
     999901    1    3    3    0    0  0.54042162700E-01 -0.76245732197E-01 -0.10676937391E+00  0.89136617966E+00  0.88000000000E+00 0. -1.
        -11    1    4    4    0    0 -0.14842179855E-01  0.51925697428E-01  0.59602661089E-01  0.80432000386E-01  0.51100000000E-03 0.  1.
         11    1    4    4    0    0 -0.42180351343E-01  0.19530507575E-01  0.33359276781E-01  0.57216476944E-01  0.51100000000E-03 0. -1.
</event>
<event>
 8    1  0.2039519E+004  0.1043930E+01  0.7957747E-01            NaN
         13   -1    0    0    0    0  0.00000000000E+00  0.00000000000E+00  0.74505805969E-08  0.10566000000E+00  0.10566000000E+00 0. -1.
     999900   -1    0    0    0    0 -0.00000000000E+00 -0.00000000000E+00 -0.74505805969E-08  0.93827000000E+00  0.93827000000E+00 0.  1.
     999902    2    1    2    0    0  0.21521232663E-02 -0.64884370525E-02 -0.12087699159E-01  0.10300431746E+01  0.10299495607E+01 0.  0.
     999903    2    3    3    0    0 -0.95884869414E-01  0.34763689406E-01  0.82062473215E-01  0.13865255040E+00  0.45693084154E-01 0.  0.
         14    1    1    2    0    0 -0.21521232663E-02  0.64884370525E-02  0.12087699159E-01  0.13886825443E-01  0.00000000000E+00 0.  1.
     999901    1    3    3    0    0  0.98036992680E-01 -0.41252126458E-01 -0.94150172374E-01  0.89139062415E+00  0.88000000000E+00 0.  1.
        -11    1    4    4    0    0 -0.15378003088E-01 -0.42753551813E-02  0.32877091350E-01  0.36550320075E-01  0.51100000000E-03 0.  1.
         11    1    4    4    0    0 -0.80506866326E-01  0.39039044587E-01  0.49185381865E-01  0.10210223033E+00  0.51100000000E-03 0. -1.
</event>
<event>
 8    1  0.2039519E+004  0.1043930E+01  0.7957747E-01            NaN
         13   -1    0    0    0    0  0.00000000000E+00  0.00000000000E+00  0.74505805969E-08  0.10566000000E+00  0.10566000000E+00 0. -1.
     999900   -1    0    0    0    0 -0.00000000000E+00 -0.00000000000E+00 -0.74505805969E-08  0.93827000000E+00  0.93827000000E+00 0.  1.
     999902    2    1    2    0    0  0.62032151639E-02  0.13051148572E-01  0.15198498536E-01  0.10229584308E+01  0.10227434402E+01 0.  0.
     999903    2    3    3    0    0 -0.51028856817E-01 -0.11112440335E+00  0.22649855133E-01  0.13236840139E+00  0.45340936242E-01 0.  0.
         14    1    1    2    0    0 -0.62032151639E-02 -0.13051148572E-01 -0.15198498536E-01  0.20971569210E-01  0.00000000000E+00 0.  1.
     999901    1    3    3    0    0  0.57232071981E-01  0.12417555192E+00 -0.74513565973E-02  0.89059002940E+00  0.88000000000E+00 0.  1.
        -11    1    4    4    0    0 -0.28886108924E-01 -0.99092770398E-01  0.87610968947E-02  0.10358958622E+00  0.51100000000E-03 0. -1.
         11    1    4    4    0    0 -0.22142747893E-01 -0.12031632954E-01  0.13888758238E-01  0.28778815163E-01  0.51100000000E-03 0.  1.
</event>
<event>
 8    1  0.2039519E+004  0.1043930E+01  0.7957747E-01            NaN
         13   -1    0    0    0    0  0.00000000000E+00  0.00000000000E+00  0.74505805969E-08  0.10566000000E+00  0.10566000000E+00 0. -1.
     999900   -1    0    0    0    0 -0.00000000000E+00 -0.00000000000E+00 -0.74505805969E-08  0.93827000000E+00  0.93827000000E+00 0. -1.
     999902    2    1    2    0    0 -0.28275027022E-02  0.61287630156E-02  0.10045935580E-01  0.10318272181E+01  0.10317562361E+01 0.  0.
     999903    2    3    3    0    0  0.10736148130E+00  0.45698028115E-01  0.66962878712E-01  0.14225042135E+00  0.46220750821E-01 0.  0.
         14    1    1    2    0    0  0.28275027022E-02 -0.61287630156E-02 -0.10045935580E-01  0.12102781883E-01  0.00000000000E+00 0.  1.
     999901    1    3    3    0    0 -0.11018898401E+00 -0.39569265099E-01 -0.56916943131E-01  0.88957679677E+00  0.88000000000E+00 0.  1.
        -11    1    4    4    0    0  0.60494271730E-01  0.71180126246E-02  0.51092449482E-01  0.79504229641E-01  0.51100000000E-03 0.  1.
         11    1    4    4    0    0  0.46867209574E-01  0.38580015490E-01  0.15870429230E-01  0.62746191705E-01  0.51100000000E-03 0. -1.
</event>
<event>
 8    1  0.2039519E+004  0.1043930E+01  0.7957747E-01            NaN
         13   -1    0    0    0    0  0.00000000000E+00  0.00000000000E+00  0.74505805969E-08  0.10566000000E+00  0.10566000000E+00 0. -1.
     999900   -1    0    0    0    0 -0.00000000000E+00 -0.00000000000E+00 -0.74505805969E-08  0.93827000000E+00  0.93827000000E+00 0. -1.
     999902    2    1    2    0    0  0.77150659345E-02 -0.61846082401E-02  0.94252672697E-02  0.10302695723E+01  0.10301790060E+01 0.  0.
     999903    2    3    3    0    0 -0.84090926607E-01  0.10080015700E+00 -0.81909966743E-02  0.13887492738E+00  0.44577992760E-01 0.  0.
         14    1    1    2    0    0 -0.77150659345E-02  0.61846082401E-02 -0.94252672697E-02  0.13660427686E-01  0.00000000000E+00 0.  1.
     999901    1    3    3    0    0  0.91805992542E-01 -0.10698476524E+00  0.17616263944E-01  0.89139464493E+00  0.88000000000E+00 0. -1.
        -11    1    4    4    0    0 -0.50818905723E-01  0.60638326838E-01 -0.26744517316E-01  0.83517053277E-01  0.51100000000E-03 0.  1.
         11    1    4    4    0    0 -0.33272020884E-01  0.40161830166E-01  0.18553520642E-01  0.55357874103E-01  0.51100000000E-03 0. -1.
</event>
<event>
 8    1  0.2039519E+004  0.1043930E+01  0.7957747E-01            NaN
         13   -1    0    0    0    0  0.00000000000E+00  0.00000000000E+00  0.74505805969E-08  0.10566000000E+00  0.10566000000E+00 0.  1.
     999900   -1    0    0    0    0 -0.00000000000E+00 -0.00000000000E+00 -0.74505805969E-08  0.93827000000E+00  0.93827000000E+00 0.  1.
     999902    2    1    2    0    0  0.12106834873E-01 -0.13312017888E-03 -0.65011724172E-02  0.10301874233E+01  0.10300957571E+01 0.  0.
     999903    2    3    3    0    0  0.28588375883E-01  0.12773435817E+00 -0.24192669553E-01  0.14061745849E+00  0.45327948114E-01 0.  0.
         14    1    1    2    0    0 -0.12106834873E-01  0.13312017888E-03  0.65011724172E-02  0.13742576703E-01  0.00000000000E+00 0.  1.
     999901    1    3    3    0    0 -0.16481541010E-01 -0.12786747835E+00  0.17691497136E-01  0.88956996481E+00  0.88000000000E+00 0.  1.
        -11    1    4    4    0    0  0.10247826065E-03  0.94452357762E-01 -0.12534116378E-01  0.95281811396E-01  0.51100000000E-03 0. -1.
         11    1    4    4    0    0  0.28485897623E-01  0.33282000407E-01 -0.11658553175E-01  0.45335647096E-01  0.51100000000E-03 0.  1.
</event>
<event>
 8    1  0.2039519E+004  0.1043930E+01  0.7957747E-01            NaN
         13   -1    0    0    0    0  0.00000000000E+00  0.00000000000E+00  0.74505805969E-08  0.10566000000E+00  0.10566000000E+00 0. -1.
     999900   -1    0    0    0    0 -0.00000000000E+00 -0.00000000000E+00 -0.74505805969E-08  0.93827000000E+00  0.93827000000E+00 0.  1.
     999902    2    1    2    0    0  0.18964483320E-01  0.29473937785E-02 -0.59921571893E-02  0.10238241624E+01  0.10236267244E+01 0.  0.
     999903    2    3    3    0    0  0.78919108840E-01  0.10152690293E+00 -0.22324401393E-02  0.13628452260E+00  0.45083805885E-01 0.  0.
         14    1    1    2    0    0 -0.18964483320E-01 -0.29473937785E-02  0.59921571893E-02  0.20105837597E-01  0.00000000000E+00 0.  1.
     999901    1    3    3    0    0 -0.59954625520E-01 -0.98579509153E-01 -0.37597170500E-02  0.88753963980E+00  0.88000000000E+00 0.  1.
        -11    1    4    4    0    0  0.63432865026E-01  0.47306867372E-01  0.57065176403E-02  0.79337844251E-01  0.51100000000E-03 0. -1.
         11    1    4    4    0    0  0.15486243814E-01  0.54220035560E-01 -0.79389577796E-02  0.56946678351E-01  0.51100000000E-03 0.  1.
</event>
<event>
 8    1  0.2039519E+004  0.1043930E+01  0.7957747E-01            NaN
         13   -1    0    0    0    0  0.00000000000E+00  0.00000000000E+00  0.74505805969E-08  0.10566000000E+00  0.10566000000E+00 0. -1.
     999900   -1    0    0    0    0 -0.00000000000E+00 -0.00000000000E+00 -0.74505805969E-08  0.93827000000E+00  0.93827000000E+00 0. -1.
     999902    2    1    2    0    0 -0.17940188621E-02  0.18326711978E-02 -0.14295694138E-01  0.10294060867E+01  0.10293036225E+01 0.  0.
     999903    2    3    3    0    0  0.53070781300E-01 -0.11936989788E+00  0.15005006811E-01  0.13892377909E+00  0.44821711458E-01 0.  0.
         14    1    1    2    0    0  0.17940188621E-02 -0.18326711978E-02  0.14295694138E-01  0.14523913325E-01  0.00000000000E+00 0. -1.
     999901    1    3    3    0    0 -0.54864800162E-01  0.12120256908E+00 -0.29300700949E-01  0.89048230759E+00  0.88000000000E+00 0. -1.
        -11    1    4    4    0    0 -0.16702196876E-02 -0.48608836911E-01  0.59018902895E-02  0.48996960004E-01  0.51100000000E-03 0. -1.
         11    1    4    4    0    0  0.54741000987E-01 -0.70761060973E-01  0.91031165219E-02  0.89926819084E-01  0.51100000000E-03 0.  1.
</event>
<event>
 8    1  0.2039519E+004  0.1043930E+01  0.7957747E-01            NaN
         13   -1    0    0    0    0  0.00000000000E+00  0.00000000000E+00  0.74505805969E-08  0.10566000000E+00  0.10566000000E+00 0. -1.
     999900   -1    0    0    0    0 -0.00000000000E+00 -0.00000000000E+00 -0.74505805969E-08  0.93827000000E+00  0.93827000000E+00 0.  1.
     999902    2    1    2    0    0 -0.11475399844E-01  0.16021519905E-02 -0.79914744686E-02  0.10298546543E+01  0.10297584637E+01 0.  0.
     999903    2    3    3    0    0 -0.40960453987E-01 -0.85039654129E-01 -0.94509200788E-01  0.14088812627E+00  0.44810417580E-01 0.  0.
         14    1    1    2    0    0  0.11475399844E-01 -0.16021519905E-02  0.79914744686E-02  0.14075345707E-01  0.00000000000E+00 0. -1.
     999901    1    3    3    0    0  0.29485054144E-01  0.86641806120E-01  0.86517726320E-01  0.88896652803E+00  0.88000000000E+00 0. -1.
        -11    1    4    4    0    0 -0.33231052195E-03 -0.46353015478E-01 -0.56678919148E-01  0.73222083219E-01  0.51100000000E-03 0. -1.
         11    1    4    4    0    0 -0.40628143466E-01 -0.38686638652E-01 -0.37830281641E-01  0.67666043047E-01  0.51100000000E-03 0.  1.
</event>
<event>
 8    1  0.2039519E+004  0.1043930E+01  0.7957747E-01            NaN
         13   -1    0    0    0    0  0.00000000000E+00  0.00000000000E+00  0.74505805969E-08  0.10566000000E+00  0.10566000000E+00 0. -1.
     999900   -1    0    0    0    0 -0.00000000000E+00 -0.00000000000E+00 -0.74505805969E-08  0.93827000000E+00  0.93827000000E+00 0. -1.
     999902    2    1    2    0    0  0.13078606199E-01 -0.13565822522E-01  0.49127505688E-02  0.10244565155E+01  0.10242714169E+01 0.  0.
     999903    2    3    3    0    0 -0.78690900744E-01 -0.60397678198E-01  0.80247951434E-01  0.13524885830E+00  0.44859587284E-01 0.  0.
         14    1    1    2    0    0 -0.13078606199E-01  0.13565822522E-01 -0.49127505688E-02  0.19473484510E-01  0.00000000000E+00 0. -1.
     999901    1    3    3    0    0  0.91769506943E-01  0.46831855676E-01 -0.75335200865E-01  0.88920765719E+00  0.88000000000E+00 0. -1.
        -11    1    4    4    0    0 -0.44911382786E-01 -0.35296514750E-01  0.17595725793E-01  0.59772459749E-01  0.51100000000E-03 0. -1.
         11    1    4    4    0    0 -0.33779517957E-01 -0.25101163449E-01  0.62652225641E-01  0.75476398554E-01  0.51100000000E-03 0.  1.
</event>
<event>
 8    1  0.2039519E+004  0.1043930E+01  0.7957747E-01            NaN
         13   -1    0    0    0    0  0.00000000000E+00  0.00000000000E+00  0.74505805969E-08  0.10566000000E+00  0.10566000000E+00 0.  1.
     999900   -1    0    0    0    0 -0.00000000000E+00 -0.00000000000E+00 -0.74505805969E-08  0.93827000000E+00  0.93827000000E+00 0. -1.
     999902    2    1    2    0    0 -0.91412709699E-02 -0.10444672207E-01 -0.10640958547E-02  0.10300092848E+01  0.10299152103E+01 0.  0.
     999903    2    3    3    0    0  0.12907933935E+00  0.21683850117E-01 -0.81369050686E-02  0.13861307450E+00  0.44896659051E-01 0.  0.
         14    1    1    2    0    0  0.91412709699E-02  0.10444672207E-01  0.10640958547E-02  0.13920715227E-01  0.00000000000E+00 0. -1.
     999901    1    3    3    0    0 -0.13822061032E+00 -0.32128522324E-01  0.70728092139E-02  0.89139621028E+00  0.88000000000E+00 0.  1.
        -11    1    4    4    0    0  0.60167591700E-01  0.30799855286E-01  0.53382851017E-02  0.67805077873E-01  0.51100000000E-03 0. -1.
         11    1    4    4    0    0  0.68911747652E-01 -0.91160051690E-02 -0.13475190170E-01  0.70807996623E-01  0.51100000000E-03 0.  1.
</event>
<event>
 8    1  0.2039519E+004  0.1043930E+01  0.7957747E-01            NaN
         13   -1    0    0    0    0  0.00000000000E+00  0.00000000000E+00  0.74505805969E-08  0.10566000000E+00  0.10566000000E+00 0. -1.
     999900   -1    0    0    0    0 -0.00000000000E+00 -0.00000000000E+00 -0.74505805969E-08  0.93827000000E+00  0.93827000000E+00 0. -1.
     999902    2    1    2    0    0 -0.50757653299E-02 -0.10035599170E-01  0.78138628639E-02  0.10302357276E+01  0.10301447089E+01 0.  0.
     999903    2    3    3    0    0 -0.12350597939E+00  0.42855751106E-01  0.24413211282E-01  0.14057357321E+00  0.45547582295E-01 0.  0.
         14    1    1    2    0    0  0.50757653299E-02  0.10035599170E-01 -0.78138628639E-02  0.13694272425E-01  0.00000000000E+00 0.  1.
     999901    1    3    3    0    0  0.11843021406E+00 -0.52891350276E-01 -0.16599348418E-01  0.88966215436E+00  0.88000000000E+00 0.  1.
        -11    1    4    4    0    0 -0.81690211080E-01  0.42205220774E-01  0.33339389318E-01  0.97807705463E-01  0.51100000000E-03 0. -1.
         11    1    4    4    0    0 -0.41815768310E-01  0.65053033160E-03 -0.89261780364E-02  0.42765867750E-01  0.51100000000E-03 0.  1.
</event>
<event>
 8    1  0.2039519E+004  0.1043930E+01  0.7957747E-01            NaN
         13   -1    0    0    0    0  0.00000000000E+00  0.00000000000E+00  0.74505805969E-08  0.10566000000E+00  0.10566000000E+00 0.  1.
     999900   -1    0    0    0    0 -0.00000000000E+00 -0.00000000000E+00 -0.74505805969E-08  0.93827000000E+00  0.93827000000E+00 0. -1.
     999902    2    1    2    0    0  0.17224667440E-01  0.52449023550E-03 -0.56671327045E-02  0.10257894198E+01  0.10256290036E+01 0.  0.
     999903    2    3    3    0    0  0.24447000096E-01 -0.11967916849E+00  0.34845276758E-01  0.13666494198E+00  0.50421759889E-01 0.  0.
         14    1    1    2    0    0 -0.17224667440E-01 -0.52449023550E-03  0.56671327045E-02  0.18140580242E-01  0.00000000000E+00 0.  1.
     999901    1    3    3    0    0 -0.72223326557E-02  0.12020365873E+00 -0.40512409463E-01  0.88912447778E+00  0.88000000000E+00 0. -1.
        -11    1    4    4    0    0 -0.99438039681E-02 -0.30526153147E-01  0.24818898588E-01  0.40582805613E-01  0.51100000000E-03 0. -1.
         11    1    4    4    0    0  0.34390804064E-01 -0.89153015343E-01  0.10026378170E-01  0.96082136368E-01  0.51100000000E-03 0.  1.
</event>
<event>
 8    1  0.2039519E+004  0.1043930E+01  0.7957747E-01            NaN
         13   -1    0    0    0    0  0.00000000000E+00  0.00000000000E+00  0.74505805969E-08  0.10566000000E+00  0.10566000000E+00 0. -1.
     999900   -1    0    0    0    0 -0.00000000000E+00 -0.00000000000E+00 -0.74505805969E-08  0.93827000000E+00  0.93827000000E+00 0.  1.
     999902    2    1    2    0    0 -0.82184449285E-02 -0.44535783049E-02 -0.10161005407E-01  0.10301233629E+01  0.10300308343E+01 0.  0.
     999903    2    3    3    0    0 -0.79655395484E-01  0.92351345422E-01  0.51657926032E-01  0.13978858799E+00  0.44705200792E-01 0.  0.
         14    1    1    2    0    0  0.82184449285E-02  0.44535783049E-02  0.10161005407E-01  0.13806637086E-01  0.00000000000E+00 0. -1.
     999901    1    3    3    0    0  0.71436950556E-01 -0.96804923727E-01 -0.61818931439E-01  0.89033477493E+00  0.88000000000E+00 0. -1.
        -11    1    4    4    0    0 -0.25741462246E-01  0.38574375721E-01  0.42827899878E-01  0.63127612578E-01  0.51100000000E-03 0.  1.
         11    1    4    4    0    0 -0.53913933238E-01  0.53776969701E-01  0.88300261541E-02  0.76660975407E-01  0.51100000000E-03 0. -1.
</event>
<event>
 8    1  0.2039519E+004  0.1043930E+01  0.7957747E-01            NaN
         13   -1    0    0    0    0  0.00000000000E+00  0.00000000000E+00  0.74505805969E-08  0.10566000000E+00  0.10566000000E+00 0. -1.
     999900   -1    0    0    0    0 -0.00000000000E+00 -0.00000000000E+00 -0.74505805969E-08  0.93827000000E+00  0.93827000000E+00 0.  1.
     999902    2    1    2    0    0  0.67888415100E-02  0.93597320235E-02  0.69870898882E-02  0.10304202858E+01  0.10303317199E+01 0.  0.
     999903    2    3    3    0    0  0.50684725218E-01  0.16339852319E-01 -0.12103758344E+00  0.14004627020E+00  0.46118640998E-01 0.  0.
         14    1    1    2    0    0 -0.67888415100E-02 -0.93597320235E-02 -0.69870898882E-02  0.13509714198E-01  0.00000000000E+00 0.  1.
     999901    1    3    3    0    0 -0.43895883708E-01 -0.69801202952E-02  0.12802467333E+00  0.89037401561E+00  0.88000000000E+00 0. -1.
        -11    1    4    4    0    0  0.26086844125E-02  0.81550968148E-02 -0.65811347119E-01  0.66367954384E-01  0.51100000000E-03 0. -1.
         11    1    4    4    0    0  0.48076040806E-01  0.81847555039E-02 -0.55226236317E-01  0.73678315813E-01  0.51100000000E-03 0.  1.
</event>
<event>
 8    1  0.2039519E+004  0.1043930E+01  0.7957747E-01            NaN
         13   -1    0    0    0    0  0.00000000000E+00  0.00000000000E+00  0.74505805969E-08  0.10566000000E+00  0.10566000000E+00 0. -1.
     999900   -1    0    0    0    0 -0.00000000000E+00 -0.00000000000E+00 -0.74505805969E-08  0.93827000000E+00  0.93827000000E+00 0. -1.
     999902    2    1    2    0    0 -0.17764598719E-02 -0.13557103224E-01  0.30999325560E-03  0.10302534890E+01  0.10301627078E+01 0.  0.
     999903    2    3    3    0    0 -0.13159442845E+00 -0.45460740789E-02  0.19752237464E-01  0.14047154690E+00  0.44769903006E-01 0.  0.
         14    1    1    2    0    0  0.17764598719E-02  0.13557103224E-01 -0.30999325560E-03  0.13676511007E-01  0.00000000000E+00 0. -1.
     999901    1    3    3    0    0  0.12981796858E+00 -0.90110291456E-02 -0.19442244208E-01  0.88978194209E+00  0.88000000000E+00 0. -1.
        -11    1    4    4    0    0 -0.10159257828E+00 -0.21917022424E-01  0.97576832117E-02  0.10438812833E+00  0.51100000000E-03 0.  1.
         11    1    4    4    0    0 -0.30001850169E-01  0.17370948345E-01  0.99945542524E-02  0.36083418570E-01  0.51100000000E-03 0. -1.
</event>
<event>
 8    1  0.2039519E+004  0.1043930E+01  0.7957747E-01            NaN
         13   -1    0    0    0    0  0.00000000000E+00  0.00000000000E+00  0.74505805969E-08  0.10566000000E+00  0.10566000000E+00 0.  1.
     999900   -1    0    0    0    0 -0.00000000000E+00 -0.00000000000E+00 -0.74505805969E-08  0.93827000000E+00  0.93827000000E+00 0.  1.
     999902    2    1    2    0    0  0.59452808379E-02  0.66181068502E-02 -0.89550462539E-02  0.10313070623E+01  0.10312298086E+01 0.  0.
     999903    2    3    3    0    0 -0.56976714123E-02  0.89043789204E-01 -0.10190616620E+00  0.14250479963E+00  0.44288727150E-01 0.  0.
         14    1    1    2    0    0 -0.59452808379E-02 -0.66181068502E-02  0.89550462539E-02  0.12622937690E-01  0.00000000000E+00 0.  1.
     999901    1    3    3    0    0  0.11642952250E-01 -0.82425682354E-01  0.92951119944E-01  0.88880226268E+00  0.88000000000E+00 0. -1.
        -11    1    4    4    0    0 -0.26327252098E-02  0.27146320676E-01 -0.64708571279E-01  0.70223317255E-01  0.51100000000E-03 0.  1.
         11    1    4    4    0    0 -0.30649462025E-02  0.61897468528E-01 -0.37197594919E-01  0.72281482374E-01  0.51100000000E-03 0. -1.
</event>
<event>
 8    1  0.2039519E+004  0.1043930E+01  0.7957747E-01            NaN
         13   -1    0    0    0    0  0.00000000000E+00  0.00000000000E+00  0.74505805969E-08  0.10566000000E+00  0.10566000000E+00 0. -1.
     999900   -1    0    0    0    0 -0.00000000000E+00 -0.00000000000E+00 -0.74505805969E-08  0.93827000000E+00  0.93827000000E+00 0.  1.
     999902    2    1    2    0    0 -0.90846482954E-02  0.58008400259E-02 -0.78502134770E-02  0.10305955922E+01  0.10305093247E+01 0.  0.
     999903    2    3    3    0    0 -0.92878064554E-01  0.16936492277E-01 -0.96608881028E-01  0.14210054977E+00  0.44114744768E-01 0.  0.
         14    1    1    2    0    0  0.90846482954E-02 -0.58008400259E-02  0.78502134770E-02  0.13334407797E-01  0.00000000000E+00 0. -1.
     999901    1    3    3    0    0  0.83793416259E-01 -0.11135652251E-01  0.88758667551E-01  0.88849504243E+00  0.88000000000E+00 0. -1.
        -11    1    4    4    0    0  0.32786325406E-02  0.50341882659E-02 -0.12155906025E-01  0.13569069796E-01  0.51100000000E-03 0.  1.
         11    1    4    4    0    0 -0.96156697095E-01  0.11902304011E-01 -0.84452975003E-01  0.12853147998E+00  0.51100000000E-03 0. -1.
</event>
<event>
 8    1  0.2039519E+004  0.1043930E+01  0.7957747E-01            NaN
         13   -1    0    0    0    0  0.00000000000E+00  0.00000000000E+00  0.74505805969E-08  0.10566000000E+00  0.10566000000E+00 0.  1.
     999900   -1    0    0    0    0 -0.00000000000E+00 -0.00000000000E+00 -0.74505805969E-08  0.93827000000E+00  0.93827000000E+00 0.  1.
     999902    2    1    2    0    0  0.34766564033E-02 -0.13392171942E-01 -0.84328939219E-03  0.10300682344E+01  0.10299749603E+01 0.  0.
     999903    2    3    3    0    0  0.10006158274E+00  0.22506395097E-02 -0.87218411122E-01  0.14044246632E+00  0.45821931310E-01 0.  0.
         14    1    1    2    0    0 -0.34766564033E-02  0.13392171942E-01  0.84328939219E-03  0.13861765619E-01  0.00000000000E+00 0.  1.
     999901    1    3    3    0    0 -0.96584926336E-01 -0.15642811452E-01  0.86375121729E-01  0.88962576806E+00  0.88000000000E+00 0. -1.
        -11    1    4    4    0    0  0.23094741353E-01 -0.15315947681E-01 -0.39299460581E-01  0.48090061910E-01  0.51100000000E-03 0.  1.
         11    1    4    4    0    0  0.76966841386E-01  0.17566587191E-01 -0.47918950541E-01  0.92352404410E-01  0.51100000000E-03 0. -1.
</event>
<event>
 8    1  0.2039519E+004  0.1043930E+01  0.7957747E-01            NaN
         13   -1    0    0    0    0  0.00000000000E+00  0.00000000000E+00  0.74505805969E-08  0.10566000000E+00  0.10566000000E+00 0.  1.
     999900   -1    0    0    0    0 -0.00000000000E+00 -0.00000000000E+00 -0.74505805969E-08  0.93827000000E+00  0.93827000000E+00 0.  1.
     999902    2    1    2    0    0 -0.95422926374E-02  0.10130746032E-01 -0.25383202770E-02  0.10297832536E+01  0.10296860779E+01 0.  0.
     999903    2    3    3    0    0  0.72665865479E-01 -0.81251636324E-01 -0.72483953032E-01  0.13849131904E+00  0.45208025738E-01 0.  0.
         14    1    1    2    0    0  0.95422926374E-02 -0.10130746032E-01  0.25383202770E-02  0.14146746402E-01  0.00000000000E+00 0.  1.
     999901    1    3    3    0    0 -0.82208158117E-01  0.91382382356E-01  0.69945632755E-01  0.89129193456E+00  0.88000000000E+00 0. -1.
        -11    1    4    4    0    0  0.24139191541E-01 -0.47381759004E-01 -0.55628211065E-01  0.76957719833E-01  0.51100000000E-03 0. -1.
         11    1    4    4    0    0  0.48526673938E-01 -0.33869877320E-01 -0.16855741968E-01  0.61533599208E-01  0.51100000000E-03 0.  1.
</event>
<event>
 8    1  0.2039519E+004  0.1043930E+01  0.7957747E-01            NaN
         13   -1    0    0    0    0  0.00000000000E+00  0.00000000000E+00  0.74505805969E-08  0.10566000000E+00  0.10566000000E+00 0. -1.
     999900   -1    0    0    0    0 -0.00000000000E+00 -0.00000000000E+00 -0.74505805969E-08  0.93827000000E+00  0.93827000000E+00 0.  1.
     999902    2    1    2    0    0  0.12361157456E-01 -0.44876712468E-03  0.75643411962E-02  0.10294310737E+01  0.10293289643E+01 0.  0.
     999903    2    3    3    0    0 -0.71651921242E-02 -0.11879162352E+00 -0.56073517451E-01  0.13901763770E+00  0.44931886626E-01 0.  0.
         14    1    1    2    0    0 -0.12361157456E-01  0.44876712468E-03 -0.75643411962E-02  0.14498926282E-01  0.00000000000E+00 0.  1.
     999901    1    3    3    0    0  0.19526349581E-01  0.11834285640E+00  0.63637858647E-01  0.89041343602E+00  0.88000000000E+00 0. -1.
        -11    1    4    4    0    0  0.16687708523E-01 -0.23299093488E-01 -0.15155467677E-01  0.32423397333E-01  0.51100000000E-03 0.  1.
         11    1    4    4    0    0 -0.23852900647E-01 -0.95492530032E-01 -0.40918049774E-01  0.10659424037E+00  0.51100000000E-03 0. -1.
</event>
<event>
 8    1  0.2039519E+004  0.1043930E+01  0.7957747E-01            NaN
         13   -1    0    0    0    0  0.00000000000E+00  0.00000000000E+00  0.74505805969E-08  0.10566000000E+00  0.10566000000E+00 0.  1.
     999900   -1    0    0    0    0 -0.00000000000E+00 -0.00000000000E+00 -0.74505805969E-08  0.93827000000E+00  0.93827000000E+00 0. -1.
     999902    2    1    2    0    0  0.85011088458E-02  0.50512149776E-02 -0.96617556236E-02  0.10301049088E+01  0.10300121310E+01 0.  0.
     999903    2    3    3    0    0 -0.58030379904E-01 -0.83837309623E-01  0.82108193832E-01  0.13839344628E+00  0.44886200583E-01 0.  0.
         14    1    1    2    0    0 -0.85011088458E-02 -0.50512149776E-02  0.96617556236E-02  0.13825091178E-01  0.00000000000E+00 0. -1.
     999901    1    3    3    0    0  0.66531488750E-01  0.88888524601E-01 -0.91769949456E-01  0.89171146254E+00  0.88000000000E+00 0. -1.
        -11    1    4    4    0    0 -0.58709720740E-01 -0.53239438917E-01  0.48422295476E-01  0.92877602175E-01  0.51100000000E-03 0.  1.
         11    1    4    4    0    0  0.67934083593E-03 -0.30597870707E-01  0.33685898356E-01  0.45515844108E-01  0.51100000000E-03 0. -1.
</event>
<event>
 8    1  0.2039519E+004  0.1043930E+01  0.7957747E-01            NaN
         13   -1    0    0    0    0  0.00000000000E+00  0.00000000000E+00  0.74505805969E-08  0.10566000000E+00  0.10566000000E+00 0. -1.
     999900   -1    0    0    0    0 -0.00000000000E+00 -0.00000000000E+00 -0.74505805969E-08  0.93827000000E+00  0.93827000000E+00 0.  1.
     999902    2    1    2    0    0 -0.12414624232E-01  0.97473584116E-03  0.49382710454E-02  0.10305337496E+01  0.10304466747E+01 0.  0.
     999903    2    3    3    0    0  0.10787587631E+00 -0.21334568786E-01  0.73087858925E-01  0.13946030931E+00  0.44888464403E-01 0.  0.
         14    1    1    2    0    0  0.12414624232E-01 -0.97473584116E-03 -0.49382710454E-02  0.13396250434E-01  0.00000000000E+00 0. -1.
     999901    1    3    3    0    0 -0.12029050054E+00  0.22309304627E-01 -0.68149587880E-01  0.89107344025E+00  0.88000000000E+00 0.  1.
        -11    1    4    4    0    0  0.70769308908E-01 -0.35122802485E-01  0.45052650887E-01  0.90950034694E-01  0.51100000000E-03 0.  1.
         11    1    4    4    0    0  0.37106567403E-01  0.13788233700E-01  0.28035208038E-01  0.48510274620E-01  0.51100000000E-03 0. -1.
</event>
<event>
 8    1  0.2039519E+004  0.1043930E+01  0.7957747E-01            NaN
         13   -1    0    0    0    0  0.00000000000E+00  0.00000000000E+00  0.74505805969E-08  0.10566000000E+00  0.10566000000E+00 0. -1.
     999900   -1    0    0    0    0 -0.00000000000E+00 -0.00000000000E+00 -0.74505805969E-08  0.93827000000E+00  0.93827000000E+00 0. -1.
     999902    2    1    2    0    0 -0.35568643250E-02  0.88012943196E-02  0.68375210286E-02  0.10322310360E+01  0.10321647378E+01 0.  0.
     999903    2    3    3    0    0  0.24168948206E-02  0.13515798932E+00  0.16946800126E-01  0.14312817483E+00  0.43874331183E-01 0.  0.
         14    1    1    2    0    0  0.35568643250E-02 -0.88012943196E-02 -0.68375210286E-02  0.11698964029E-01  0.00000000000E+00 0.  1.
     999901    1    3    3    0    0 -0.59737591456E-02 -0.12635669500E+00 -0.10109279098E-01  0.88910286114E+00  0.88000000000E+00 0.  1.
        -11    1    4    4    0    0 -0.18351134524E-01  0.95030728902E-01  0.85076651505E-02  0.97160923530E-01  0.51100000000E-03 0.  1.
         11    1    4    4    0    0  0.20768029345E-01  0.40127260420E-01  0.84391349758E-02  0.45967251297E-01  0.51100000000E-03 0. -1.
</event>
<event>
 8    1  0.2039519E+004  0.1043930E+01  0.7957747E-01            NaN
         13   -1    0    0    0    0  0.00000000000E+00  0.00000000000E+00  0.74505805969E-08  0.10566000000E+00  0.10566000000E+00 0. -1.
     999900   -1    0    0    0    0 -0.00000000000E+00 -0.00000000000E+00 -0.74505805969E-08  0.93827000000E+00  0.93827000000E+00 0. -1.
     999902    2    1    2    0    0 -0.13140883339E-01  0.23168151052E-03  0.47363241052E-02  0.10299597009E+01  0.10298649505E+01 0.  0.
     999903    2    3    3    0    0 -0.75663937731E-01 -0.72374551278E-01 -0.82290536251E-01  0.14049105513E+00  0.44753738034E-01 0.  0.
         14    1    1    2    0    0  0.13140883339E-01 -0.23168151052E-03 -0.47363241052E-02  0.13970299113E-01  0.00000000000E+00 0.  1.
     999901    1    3    3    0    0  0.62523054392E-01  0.72606232788E-01  0.87026860357E-01  0.88946864576E+00  0.88000000000E+00 0.  1.
        -11    1    4    4    0    0 -0.36662061627E-01 -0.64314951104E-01 -0.54239735636E-01  0.91775431032E-01  0.51100000000E-03 0.  1.
         11    1    4    4    0    0 -0.39001876104E-01 -0.80596001736E-02 -0.28050800615E-01  0.48715624093E-01  0.51100000000E-03 0. -1.
</event>
<event>
 8    1  0.2039519E+004  0.1043930E+01  0.7957747E-01            NaN
         13   -1    0    0    0    0  0.00000000000E+00  0.00000000000E+00  0.74505805969E-08  0.10566000000E+00  0.10566000000E+00 0. -1.
     999900   -1    0    0    0    0 -0.00000000000E+00 -0.00000000000E+00 -0.74505805969E-08  0.93827000000E+00  0.93827000000E+00 0. -1.
     999902    2    1    2    0    0  0.12469865536E-01 -0.88227582132E-02  0.11830078804E-03  0.10286541169E+01  0.10285406845E+01 0.  0.
     999903    2    3    3    0    0 -0.61015821312E-01  0.32362453434E-01  0.11119696387E+00  0.13768002233E+00  0.42670422228E-01 0.  0.
         14    1    1    2    0    0 -0.12469865536E-01  0.88227582132E-02 -0.11830078804E-03  0.15275883086E-01  0.00000000000E+00 0. -1.
     999901    1    3    3    0    0  0.73485686848E-01 -0.41185211647E-01 -0.11107866308E+00  0.89097409458E+00  0.88000000000E+00 0. -1.
        -11    1    4    4    0    0 -0.16872635212E-01 -0.44188933043E-02  0.72237710713E-02  0.18885349521E-01  0.51100000000E-03 0. -1.
         11    1    4    4    0    0 -0.44143186100E-01  0.36781346738E-01  0.10397319279E+00  0.11879467281E+00  0.51100000000E-03 0.  1.
</event>
<event>
 8    1  0.2039519E+004  0.1043930E+01  0.7957747E-01            NaN
         13   -1    0    0    0    0  0.00000000000E+00  0.00000000000E+00  0.74505805969E-08  0.10566000000E+00  0.10566000000E+00 0. -1.
     999900   -1    0    0    0    0 -0.00000000000E+00 -0.00000000000E+00 -0.74505805969E-08  0.93827000000E+00  0.93827000000E+00 0.  1.
     999902    2    1    2    0    0 -0.74312326817E-02  0.21722969650E-02 -0.12495118732E-01  0.10292306774E+01  0.10291257052E+01 0.  0.
     999903    2    3    3    0    0 -0.83092457120E-01 -0.94272524510E-01 -0.42927709494E-01  0.14021303580E+00  0.45002687220E-01 0.  0.
         14    1    1    2    0    0  0.74312326817E-02 -0.21722969650E-02  0.12495118732E-01  0.14699322617E-01  0.00000000000E+00 0. -1.
     999901    1    3    3    0    0  0.75661224438E-01  0.96444821475E-01  0.30432590761E-01  0.88901764159E+00  0.88000000000E+00 0. -1.
        -11    1    4    4    0    0 -0.37889538132E-01 -0.26586495455E-01  0.36519483708E-02  0.46433357496E-01  0.51100000000E-03 0. -1.
         11    1    4    4    0    0 -0.45202918987E-01 -0.67686029054E-01 -0.46579657864E-01  0.93779678299E-01  0.51100000000E-03 0.  1.
</event>
<event>
 8    1  0.2039519E+004  0.1043930E+01  0.7957747E-01            NaN
         13   -1    0    0    0    0  0.00000000000E+00  0.00000000000E+00  0.74505805969E-08  0.10566000000E+00  0.10566000000E+00 0.  1.
     999900   -1    0    0    0    0 -0.00000000000E+00 -0.00000000000E+00 -0.74505805969E-08  0.93827000000E+00  0.93827000000E+00 0.  1.
     999902    2    1    2    0    0 -0.11204873782E-01  0.75196249558E-02 -0.27170991047E-02  0.10301649507E+01  0.10300729824E+01 0.  0.
     999903    2    3    3    0    0  0.51519199444E-01 -0.95858395983E-01  0.73479222387E-01  0.13863413011E+00  0.44465333872E-01 0.  0.
         14    1    1    2    0    0  0.11204873782E-01 -0.75196249558E-02  0.27170991047E-02  0.13765049346E-01  0.00000000000E+00 0. -1.
     999901    1    3    3    0    0 -0.62724073226E-01  0.10337802094E+00 -0.76196321492E-01  0.89153082055E+00  0.88000000000E+00 0. -1.
        -11    1    4    4    0    0  0.28285467529E-01 -0.50257321964E-01  0.12480229022E-01  0.59007485302E-01  0.51100000000E-03 0. -1.
         11    1    4    4    0    0  0.23233731915E-01 -0.45601074019E-01  0.60998993365E-01  0.79626644805E-01  0.51100000000E-03 0.  1.
</event>
<event>
 8    1  0.2039519E+004  0.1043930E+01  0.7957747E-01            NaN
         13   -1    0    0    0    0  0.00000000000E+00  0.00000000000E+00  0.74505805969E-08  0.10566000000E+00  0.10566000000E+00 0. -1.
     999900   -1    0    0    0    0 -0.00000000000E+00 -0.00000000000E+00 -0.74505805969E-08  0.93827000000E+00  0.93827000000E+00 0. -1.
     999902    2    1    2    0    0  0.22299538283E-02  0.11551584581E-01  0.64821608943E-02  0.10304975687E+01  0.10304100198E+01 0.  0.
     999903    2    3    3    0    0 -0.87225998089E-01  0.76080730312E-02 -0.99215153431E-01  0.13966097266E+00  0.44668591824E-01 0.  0.
         14    1    1    2    0    0 -0.22299538283E-02 -0.11551584581E-01 -0.64821608943E-02  0.13432431287E-01  0.00000000000E+00 0.  1.
     999901    1    3    3    0    0  0.89455951917E-01  0.39435115500E-02  0.10569731433E+00  0.89083659606E+00  0.88000000000E+00 0.  1.
        -11    1    4    4    0    0 -0.70038668258E-01 -0.11065151381E-01 -0.59695619195E-01  0.92691319435E-01  0.51100000000E-03 0.  1.
         11    1    4    4    0    0 -0.17187329830E-01  0.18673224412E-01 -0.39519534236E-01  0.46969653222E-01  0.51100000000E-03 0. -1.
</event>
<event>
 8    1  0.2039519E+004  0.1043930E+01  0.7957747E-01            NaN
         13   -1    0    0    0    0  0.00000000000E+00  0.00000000000E+00  0.74505805969E-08  0.10566000000E+00  0.10566000000E+00 0. -1.
     999900   -1    0    0    0    0 -0.00000000000E+00 -0.00000000000E+00 -0.74505805969E-08  0.93827000000E+00  0.93827000000E+00 0. -1.
     999902    2    1    2    0    0 -0.39287533742E-02 -0.12631053292E-01 -0.93610157753E-02  0.10277248395E+01  0.10275970701E+01 0.  0.
     999903    2    3    3    0    0  0.63328200969E-01  0.55059203242E-01  0.98503520672E-01  0.13601848259E+00  0.41905931821E-01 0.  0.
         14    1    1    2    0    0  0.39287533742E-02  0.12631053292E-01  0.93610157753E-02  0.16205160495E-01  0.00000000000E+00 0.  1.
     999901    1    3    3    0    0 -0.67256954344E-01 -0.67690256534E-01 -0.10786453645E+00  0.89170635691E+00  0.88000000000E+00 0.  1.
        -11    1    4    4    0    0  0.32825615744E-01  0.24803164375E-02  0.37425665141E-01  0.49845908066E-01  0.51100000000E-03 0.  1.
         11    1    4    4    0    0  0.30502585225E-01  0.52578886805E-01  0.61077855531E-01  0.86172574525E-01  0.51100000000E-03 0. -1.
</event>
<event>
 8    1  0.2039519E+004  0.1043930E+01  0.7957747E-01            NaN
         13   -1    0    0    0    0  0.00000000000E+00  0.00000000000E+00  0.74505805969E-08  0.10566000000E+00  0.10566000000E+00 0.  1.
     999900   -1    0    0    0    0 -0.00000000000E+00 -0.00000000000E+00 -0.74505805969E-08  0.93827000000E+00  0.93827000000E+00 0.  1.
     999902    2    1    2    0    0 -0.21363635169E-02  0.92616407178E-02 -0.10051601531E-01  0.10300961021E+01  0.10300032052E+01 0.  0.
     999903    2    3    3    0    0  0.41675609444E-01 -0.63879261952E-01 -0.10949138311E+00  0.14040101344E+00  0.43665376092E-01 0.  0.
         14    1    1    2    0    0  0.21363635169E-02 -0.92616407178E-02  0.10051601531E-01  0.13833897903E-01  0.00000000000E+00 0.  1.
     999901    1    3    3    0    0 -0.43811972960E-01  0.73140902669E-01  0.99439781582E-01  0.88969508866E+00  0.88000000000E+00 0. -1.
        -11    1    4    4    0    0  0.20084357061E-02 -0.71375879398E-03 -0.34711609300E-01  0.34780744770E-01  0.51100000000E-03 0. -1.
         11    1    4    4    0    0  0.39667173737E-01 -0.63165503158E-01 -0.74779773813E-01  0.10562026867E+00  0.51100000000E-03 0.  1.
</event>
<event>
 8    1  0.2039519E+004  0.1043930E+01  0.7957747E-01            NaN
         13   -1    0    0    0    0  0.00000000000E+00  0.00000000000E+00  0.74505805969E-08  0.10566000000E+00  0.10566000000E+00 0.  1.
     999900   -1    0    0    0    0 -0.00000000000E+00 -0.00000000000E+00 -0.74505805969E-08  0.93827000000E+00  0.93827000000E+00 0.  1.
     999902    2    1    2    0    0  0.10349930869E-01 -0.25440925008E-02 -0.85366433149E-02  0.10302746804E+01  0.10301841822E+01 0.  0.
     999903    2    3    3    0    0 -0.92768880712E-01  0.65636978198E-01 -0.67589805637E-01  0.13967408318E+00  0.45013215283E-01 0.  0.
         14    1    1    2    0    0 -0.10349930869E-01  0.25440925008E-02  0.85366433149E-02  0.13655319650E-01  0.00000000000E+00 0.  1.
     999901    1    3    3    0    0  0.10311881158E+00 -0.68181070699E-01  0.59053162322E-01  0.89060059717E+00  0.88000000000E+00 0. -1.
        -11    1    4    4    0    0 -0.58756250072E-01  0.65792445577E-01 -0.48321936534E-01  0.10057938899E+00  0.51100000000E-03 0.  1.
         11    1    4    4    0    0 -0.34012630640E-01 -0.15546737925E-03 -0.19267869103E-01  0.39094694191E-01  0.51100000000E-03 0. -1.
</event>
<event>
 8    1  0.2039519E+004  0.1043930E+01  0.7957747E-01            NaN
         13   -1    0    0    0    0  0.00000000000E+00  0.00000000000E+00  0.74505805969E-08  0.10566000000E+00  0.10566000000E+00 0. -1.
     999900   -1    0    0    0    0 -0.00000000000E+00 -0.00000000000E+00 -0.74505805969E-08  0.93827000000E+00  0.93827000000E+00 0.  1.
     999902    2    1    2    0    0  0.12177418581E-01 -0.14686097978E-02  0.48845273060E-02  0.10307275402E+01  0.10306429824E+01 0.  0.
     999903    2    3    3    0    0 -0.43905478976E-01 -0.11951697172E+00 -0.37336384278E-01  0.14007423361E+00  0.44886386768E-01 0.  0.
         14    1    1    2    0    0 -0.12177418581E-01  0.14686097978E-02 -0.48845273060E-02  0.13202459811E-01  0.00000000000E+00 0.  1.
     999901    1    3    3    0    0  0.56082897557E-01  0.11804836192E+00  0.42220911584E-01  0.89065330658E+00  0.88000000000E+00 0. -1.
        -11    1    4    4    0    0 -0.14689601811E-01 -0.91347884449E-01 -0.14951039070E-01  0.93723076587E-01  0.51100000000E-03 0. -1.
         11    1    4    4    0    0 -0.29215877165E-01 -0.28169087269E-01 -0.22385345207E-01  0.46351157021E-01  0.51100000000E-03 0.  1.
</event>
<event>
 8    1  0.2039519E+004  0.1043930E+01  0.7957747E-01            NaN
         13   -1    0    0    0    0  0.00000000000E+00  0.00000000000E+00  0.74505805969E-08  0.10566000000E+00  0.10566000000E+00 0. -1.
     999900   -1    0    0    0    0 -0.00000000000E+00 -0.00000000000E+00 -0.74505805969E-08  0.93827000000E+00  0.93827000000E+00 0.  1.
     999902    2    1    2    0    0 -0.12996370662E-01 -0.12947598150E-02  0.44761513955E-02  0.10301235528E+01  0.10300310267E+01 0.  0.
     999903    2    3    3    0    0  0.62671151541E-02  0.12680721964E+00 -0.36252436322E-01  0.13970791002E+00  0.45658660693E-01 0.  0.
         14    1    1    2    0    0  0.12996370662E-01  0.12947598150E-02 -0.44761513955E-02  0.13806447214E-01  0.00000000000E+00 0. -1.
     999901    1    3    3    0    0 -0.19263485816E-01 -0.12810197946E+00  0.40728587718E-01  0.89041564277E+00  0.88000000000E+00 0.  1.
        -11    1    4    4    0    0 -0.32888570617E-02  0.56759257982E-01  0.62783997389E-02  0.57202354599E-01  0.51100000000E-03 0.  1.
         11    1    4    4    0    0  0.95559722159E-02  0.70047961663E-01 -0.42530836061E-01  0.82505555420E-01  0.51100000000E-03 0. -1.
</event>
<event>
 8    1  0.2039519E+004  0.1043930E+01  0.7957747E-01            NaN
         13   -1    0    0    0    0  0.00000000000E+00  0.00000000000E+00  0.74505805969E-08  0.10566000000E+00  0.10566000000E+00 0. -1.
     999900   -1    0    0    0    0 -0.00000000000E+00 -0.00000000000E+00 -0.74505805969E-08  0.93827000000E+00  0.93827000000E+00 0.  1.
     999902    2    1    2    0    0  0.88508919402E-02 -0.10463375998E-01 -0.18741646033E-02  0.10300976821E+01  0.10300048066E+01 0.  0.
     999903    2    3    3    0    0  0.69218593691E-01  0.10224448883E+00 -0.47120411777E-01  0.13970757373E+00  0.45306994403E-01 0.  0.
         14    1    1    2    0    0 -0.88508919402E-02  0.10463375998E-01  0.18741646033E-02  0.13832317896E-01  0.00000000000E+00 0.  1.
     999901    1    3    3    0    0 -0.60367701751E-01 -0.11270786483E+00  0.45246247174E-01  0.89039010838E+00  0.88000000000E+00 0. -1.
        -11    1    4    4    0    0  0.64077045030E-02  0.22127758297E-01 -0.27761975591E-01  0.36078868801E-01  0.51100000000E-03 0. -1.
         11    1    4    4    0    0  0.62810889188E-01  0.80116730536E-01 -0.19358436186E-01  0.10362870493E+00  0.51100000000E-03 0.  1.
</event>
<event>
 8    1  0.2039519E+004  0.1043930E+01  0.7957747E-01            NaN
         13   -1    0    0    0    0  0.00000000000E+00  0.00000000000E+00  0.74505805969E-08  0.10566000000E+00  0.10566000000E+00 0. -1.
     999900   -1    0    0    0    0 -0.00000000000E+00 -0.00000000000E+00 -0.74505805969E-08  0.93827000000E+00  0.93827000000E+00 0. -1.
     999902    2    1    2    0    0  0.36345561301E-02  0.11737102734E-01 -0.16727045283E-02  0.10315296968E+01  0.10314551604E+01 0.  0.
     999903    2    3    3    0    0  0.46045946554E-01 -0.99893363819E-01  0.74486717323E-01  0.14020464687E+00  0.44834792498E-01 0.  0.
         14    1    1    2    0    0 -0.36345561301E-02 -0.11737102734E-01  0.16727045283E-02  0.12400303194E-01  0.00000000000E+00 0. -1.
     999901    1    3    3    0    0 -0.42411390424E-01  0.11163046655E+00 -0.76159421852E-01  0.89132504993E+00  0.88000000000E+00 0. -1.
        -11    1    4    4    0    0  0.38609601555E-01 -0.87375649111E-01  0.41516400425E-01  0.10415890752E+00  0.51100000000E-03 0.  1.
         11    1    4    4    0    0  0.74363449983E-02 -0.12517714708E-01  0.32970316898E-01  0.36045739357E-01  0.51100000000E-03 0. -1.
</event>
<event>
 8    1  0.2039519E+004  0.1043930E+01  0.7957747E-01            NaN
         13   -1    0    0    0    0  0.00000000000E+00  0.00000000000E+00  0.74505805969E-08  0.10566000000E+00  0.10566000000E+00 0. -1.
     999900   -1    0    0    0    0 -0.00000000000E+00 -0.00000000000E+00 -0.74505805969E-08  0.93827000000E+00  0.93827000000E+00 0. -1.
     999902    2    1    2    0    0  0.14077196358E-02  0.57139011870E-02 -0.11953648535E-01  0.10306063348E+01  0.10305202071E+01 0.  0.
     999903    2    3    3    0    0 -0.19976712120E-01 -0.92395645344E-01 -0.94266875316E-01  0.14107935693E+00  0.45619259783E-01 0.  0.
         14    1    1    2    0    0 -0.14077196358E-02 -0.57139011870E-02  0.11953648535E-01  0.13323665211E-01  0.00000000000E+00 0. -1.
     999901    1    3    3    0    0  0.21384431756E-01  0.98109546531E-01  0.82313226781E-01  0.88952697786E+00  0.88000000000E+00 0.  1.
        -11    1    4    4    0    0 -0.24927164590E-01 -0.24809520294E-01 -0.19684909814E-01  0.40306731784E-01  0.51100000000E-03 0.  1.
         11    1    4    4    0    0  0.49504524692E-02 -0.67586125050E-01 -0.74581965502E-01  0.10077262514E+00  0.51100000000E-03 0. -1.
</event>
<event>
 8    1  0.2039519E+004  0.1043930E+01  0.7957747E-01            NaN
         13   -1    0    0    0    0  0.00000000000E+00  0.00000000000E+00  0.74505805969E-08  0.10566000000E+00  0.10566000000E+00 0.  1.
     999900   -1    0    0    0    0 -0.00000000000E+00 -0.00000000000E+00 -0.74505805969E-08  0.93827000000E+00  0.93827000000E+00 0.  1.
     999902    2    1    2    0    0  0.57059474457E-03  0.82765711315E-02  0.12266080920E-01  0.10291217608E+01  0.10290152159E+01 0.  0.
     999903    2    3    3    0    0 -0.20012617394E-01 -0.97438753691E-01 -0.83516869830E-01  0.13739659449E+00  0.44810055281E-01 0.  0.
         14    1    1    2    0    0 -0.57059474457E-03 -0.82765711315E-02 -0.12266080920E-01  0.14808239233E-01  0.00000000000E+00 0. -1.
     999901    1    3    3    0    0  0.20583212138E-01  0.10571532482E+00  0.95782950750E-01  0.89172516628E+00  0.88000000000E+00 0. -1.
        -11    1    4    4    0    0  0.46444683869E-02 -0.58843298952E-01 -0.27733817016E-01  0.65219097245E-01  0.51100000000E-03 0. -1.
         11    1    4    4    0    0 -0.24657085781E-01 -0.38595454739E-01 -0.55783052814E-01  0.72177497241E-01  0.51100000000E-03 0.  1.
</event>
<event>
 8    1  0.2039519E+004  0.1043930E+01  0.7957747E-01            NaN
         13   -1    0    0    0    0  0.00000000000E+00  0.00000000000E+00  0.74505805969E-08  0.10566000000E+00  0.10566000000E+00 0.  1.
     999900   -1    0    0    0    0 -0.00000000000E+00 -0.00000000000E+00 -0.74505805969E-08  0.93827000000E+00  0.93827000000E+00 0. -1.
     999902    2    1    2    0    0  0.69693317293E-02 -0.11135272414E-01 -0.18865160938E-02  0.10306587974E+01  0.10305733510E+01 0.  0.
     999903    2    3    3    0    0  0.11936531535E-01 -0.12789014889E+00  0.40392320222E-01  0.14192718756E+00  0.44871105052E-01 0.  0.
         14    1    1    2    0    0 -0.69693317293E-02  0.11135272414E-01  0.18865160938E-02  0.13271202638E-01  0.00000000000E+00 0.  1.
     999901    1    3    3    0    0 -0.49671998052E-02  0.11675487648E+00 -0.42278836316E-01  0.88873160980E+00  0.88000000000E+00 0.  1.
        -11    1    4    4    0    0  0.22129536368E-01 -0.52439637370E-01  0.32078490848E-01  0.65336992917E-01  0.51100000000E-03 0.  1.
         11    1    4    4    0    0 -0.10193004834E-01 -0.75450511519E-01  0.83138293743E-02  0.76590194646E-01  0.51100000000E-03 0. -1.
</event>
<event>
 8    1  0.2039519E+004  0.1043930E+01  0.7957747E-01            NaN
         13   -1    0    0    0    0  0.00000000000E+00  0.00000000000E+00  0.74505805969E-08  0.10566000000E+00  0.10566000000E+00 0.  1.
     999900   -1    0    0    0    0 -0.00000000000E+00 -0.00000000000E+00 -0.74505805969E-08  0.93827000000E+00  0.93827000000E+00 0.  1.
     999902    2    1    2    0    0 -0.13329703019E-01  0.20510328223E-02 -0.12529009210E-02  0.10303853524E+01  0.10302963248E+01 0.  0.
     999903    2    3    3    0    0 -0.53181786181E-01  0.95800689013E-01  0.76350928952E-01  0.14111624746E+00  0.45587899148E-01 0.  0.
         14    1    1    2    0    0  0.13329703019E-01 -0.20510328223E-02  0.12529009210E-02  0.13544647612E-01  0.00000000000E+00 0.  1.
     999901    1    3    3    0    0  0.39852083162E-01 -0.93749656190E-01 -0.77603829873E-01  0.88926910493E+00  0.88000000000E+00 0.  1.
        -11    1    4    4    0    0  0.71506589664E-02  0.22838730648E-01  0.13585192459E-01  0.27523773658E-01  0.51100000000E-03 0.  1.
         11    1    4    4    0    0 -0.60332445147E-01  0.72961958365E-01  0.62765736493E-01  0.11359247380E+00  0.51100000000E-03 0. -1.
</event>
<event>
 8    1  0.2039519E+004  0.1043930E+01  0.7957747E-01            NaN
         13   -1    0    0    0    0  0.00000000000E+00  0.00000000000E+00  0.74505805969E-08  0.10566000000E+00  0.10566000000E+00 0.  1.
     999900   -1    0    0    0    0 -0.00000000000E+00 -0.00000000000E+00 -0.74505805969E-08  0.93827000000E+00  0.93827000000E+00 0. -1.
     999902    2    1    2    0    0 -0.42264236259E-02  0.28137437033E-02 -0.12951189818E-01  0.10300191004E+01  0.10299251594E+01 0.  0.
     999903    2    3    3    0    0 -0.10304572118E+00  0.35817950921E-01  0.74634299897E-01  0.13955531714E+00  0.44766746157E-01 0.  0.
         14    1    1    2    0    0  0.42264236259E-02 -0.28137437033E-02  0.12951189818E-01  0.13910899611E-01  0.00000000000E+00 0.  1.
     999901    1    3    3    0    0  0.98819297550E-01 -0.33004207217E-01 -0.87585489714E-01  0.89046378324E+00  0.88000000000E+00 0. -1.
        -11    1    4    4    0    0 -0.77354186660E-01  0.54543634912E-02  0.55844693619E-01  0.95563126787E-01  0.51100000000E-03 0.  1.
         11    1    4    4    0    0 -0.25691534515E-01  0.30363587429E-01  0.18789606277E-01  0.43992190357E-01  0.51100000000E-03 0. -1.
</event>
<event>
 8    1  0.2039519E+004  0.1043930E+01  0.7957747E-01            NaN
         13   -1    0    0    0    0  0.00000000000E+00  0.00000000000E+00  0.74505805969E-08  0.10566000000E+00  0.10566000000E+00 0.  1.
     999900   -1    0    0    0    0 -0.00000000000E+00 -0.00000000000E+00 -0.74505805969E-08  0.93827000000E+00  0.93827000000E+00 0. -1.
     999902    2    1    2    0    0 -0.73604280145E-02 -0.41065071426E-02 -0.11892454881E-01  0.10293536567E+01  0.10292504461E+01 0.  0.
     999903    2    3    3    0    0  0.12094069216E+00 -0.38202578671E-01  0.34263418440E-01  0.13820042397E+00  0.42886912985E-01 0.  0.
         14    1    1    2    0    0  0.73604280145E-02  0.41065071426E-02  0.11892454881E-01  0.14576343320E-01  0.00000000000E+00 0.  1.
     999901    1    3    3    0    0 -0.12830112017E+00  0.34096071528E-01 -0.46155873322E-01  0.89115323271E+00  0.88000000000E+00 0.  1.
        -11    1    4    4    0    0  0.69497090679E-01  0.38792127743E-03  0.20097133952E-01  0.72347439552E-01  0.51100000000E-03 0.  1.
         11    1    4    4    0    0  0.51443601478E-01 -0.38590499948E-01  0.14166284488E-01  0.65852984416E-01  0.51100000000E-03 0. -1.
</event>
<event>
 8    1  0.2039519E+004  0.1043930E+01  0.7957747E-01            NaN
         13   -1    0    0    0    0  0.00000000000E+00  0.00000000000E+00  0.74505805969E-08  0.10566000000E+00  0.10566000000E+00 0.  1.
     999900   -1    0    0    0    0 -0.00000000000E+00 -0.00000000000E+00 -0.74505805969E-08  0.93827000000E+00  0.93827000000E+00 0.  1.
     999902    2    1    2    0    0  0.29929367452E-02  0.13381997646E-01  0.30800559369E-02  0.10298757382E+01  0.10297798375E+01 0.  0.
     999903    2    3    3    0    0  0.13708777004E-01  0.34619348377E-01  0.12821969201E+00  0.14070433578E+00  0.44395842578E-01 0.  0.
         14    1    1    2    0    0 -0.29929367452E-02 -0.13381997646E-01 -0.30800559369E-02  0.14054261842E-01  0.00000000000E+00 0. -1.
     999901    1    3    3    0    0 -0.10715840259E-01 -0.21237350731E-01 -0.12513963607E+00  0.88917140238E+00  0.88000000000E+00 0.  1.
        -11    1    4    4    0    0  0.92708272434E-02  0.42675488196E-01  0.75802565185E-01  0.87483915894E-01  0.51100000000E-03 0.  1.
         11    1    4    4    0    0  0.44379497605E-02 -0.80561398195E-02  0.52417126824E-01  0.53220419881E-01  0.51100000000E-03 0. -1.
</event>
<event>
 8    1  0.2039519E+004  0.1043930E+01  0.7957747E-01            NaN
         13   -1    0    0    0    0  0.00000000000E+00  0.00000000000E+00  0.74505805969E-08  0.10566000000E+00  0.10566000000E+00 0.  1.
     999900   -1    0    0    0    0 -0.00000000000E+00 -0.00000000000E+00 -0.74505805969E-08  0.93827000000E+00  0.93827000000E+00 0. -1.
     999902    2    1    2    0    0  0.13525639363E-01 -0.29276026499E-02  0.19638055354E-02  0.10299525070E+01  0.10298576583E+01 0.  0.
     999903    2    3    3    0    0  0.60353488855E-01  0.11128426519E+00  0.27975312662E-01  0.14095655837E+00  0.55311860689E-01 0.  0.
         14    1    1    2    0    0 -0.13525639363E-01  0.29276026499E-02 -0.19638055354E-02  0.13977492967E-01  0.00000000000E+00 0. -1.
     999901    1    3    3    0    0 -0.46827849492E-01 -0.11421186784E+00 -0.26011507126E-01  0.88899594867E+00  0.88000000000E+00 0. -1.
        -11    1    4    4    0    0  0.52136019310E-01  0.65194295424E-01 -0.50968185825E-02  0.83634319187E-01  0.51100000000E-03 0. -1.
         11    1    4    4    0    0  0.82174695453E-02  0.46089969763E-01  0.33072131244E-01  0.57322239179E-01  0.51100000000E-03 0.  1.
</event>
<event>
 8    1  0.2039519E+004  0.1043930E+01  0.7957747E-01            NaN
         13   -1    0    0    0    0  0.00000000000E+00  0.00000000000E+00  0.74505805969E-08  0.10566000000E+00  0.10566000000E+00 0. -1.
     999900   -1    0    0    0    0 -0.00000000000E+00 -0.00000000000E+00 -0.74505805969E-08  0.93827000000E+00  0.93827000000E+00 0. -1.
     999902    2    1    2    0    0 -0.16565485988E-02 -0.10161058611E-01 -0.77854033479E-02  0.10310224917E+01  0.10309416931E+01 0.  0.
     999903    2    3    3    0    0 -0.32867022120E-01  0.11526652142E+00  0.55487919824E-01  0.13933326056E+00  0.44364807557E-01 0.  0.
         14    1    1    2    0    0  0.16565485988E-02  0.10161058611E-01  0.77854033479E-02  0.12907508305E-01  0.00000000000E+00 0. -1.
     999901    1    3    3    0    0  0.31210473521E-01 -0.12542758003E+00 -0.63273323172E-01  0.89168923113E+00  0.88000000000E+00 0. -1.
        -11    1    4    4    0    0 -0.18122095436E-01  0.38944433960E-01 -0.14410659292E-02  0.42981589913E-01  0.51100000000E-03 0. -1.
         11    1    4    4    0    0 -0.14744926684E-01  0.76322087460E-01  0.56928985754E-01  0.96351670650E-01  0.51100000000E-03 0.  1.
</event>
<event>
 8    1  0.2039519E+004  0.1043930E+01  0.7957747E-01            NaN
         13   -1    0    0    0    0  0.00000000000E+00  0.00000000000E+00  0.74505805969E-08  0.10566000000E+00  0.10566000000E+00 0.  1.
     999900   -1    0    0    0    0 -0.00000000000E+00 -0.00000000000E+00 -0.74505805969E-08  0.93827000000E+00  0.93827000000E+00 0. -1.
     999902    2    1    2    0    0  0.65739624583E-02 -0.11523212584E-01  0.49902170190E-02  0.10297559506E+01  0.10296583968E+01 0.  0.
     999903    2    3    3    0    0  0.11127611311E+00 -0.49891895419E-01 -0.54796644370E-01  0.14070636538E+00  0.43863817069E-01 0.  0.
         14    1    1    2    0    0 -0.65739624583E-02  0.11523212584E-01 -0.49902170190E-02  0.14174049406E-01  0.00000000000E+00 0. -1.
     999901    1    3    3    0    0 -0.10470215065E+00  0.38368682835E-01  0.59786861389E-01  0.88904958521E+00  0.88000000000E+00 0.  1.
        -11    1    4    4    0    0  0.14418033821E-01 -0.30702395147E-02 -0.25078439624E-01  0.29094592710E-01  0.51100000000E-03 0.  1.
         11    1    4    4    0    0  0.96858079286E-01 -0.46821655904E-01 -0.29718204745E-01  0.11161177267E+00  0.51100000000E-03 0. -1.
</event>
<event>
 8    1  0.2674615E+004  0.1043930E+01  0.7957747E-01            NaN
         13   -1    0    0    0    0  0.00000000000E+00  0.00000000000E+00  0.74505805969E-08  0.10566000000E+00  0.10566000000E+00 0. -1.
     999900   -1    0    0    0    0 -0.00000000000E+00 -0.00000000000E+00 -0.74505805969E-08  0.93827000000E+00  0.93827000000E+00 0. -1.
     999902    2    1    2    0    0 -0.91933805601E-02 -0.90561149955E-02  0.40238685575E-02  0.10304124935E+01  0.10303238247E+01 0.  0.
     999903    2    3    3    0    0 -0.55136592499E-02  0.13109192524E+00 -0.13424330535E-01  0.13914404165E+00  0.44332362622E-01 0.  0.
         14    1    1    2    0    0  0.91933805601E-02  0.90561149955E-02 -0.40238685575E-02  0.13517506542E-01  0.00000000000E+00 0. -1.
     999901    1    3    3    0    0 -0.36797213102E-02 -0.14014804024E+00  0.17448199093E-01  0.89126845180E+00  0.88000000000E+00 0. -1.
        -11    1    4    4    0    0  0.41650559566E-02  0.67171658242E-01  0.14290558206E-01  0.68803056159E-01  0.51100000000E-03 0.  1.
         11    1    4    4    0    0 -0.96787152065E-02  0.63920266999E-01 -0.27714888741E-01  0.70340985494E-01  0.51100000000E-03 0. -1.
</event>
<event>
 8    1  0.2039519E+004  0.1043930E+01  0.7957747E-01            NaN
         13   -1    0    0    0    0  0.00000000000E+00  0.00000000000E+00  0.74505805969E-08  0.10566000000E+00  0.10566000000E+00 0. -1.
     999900   -1    0    0    0    0 -0.00000000000E+00 -0.00000000000E+00 -0.74505805969E-08  0.93827000000E+00  0.93827000000E+00 0.  1.
     999902    2    1    2    0    0  0.78809655211E-02 -0.17264894939E-02  0.10143219975E-01  0.10309694717E+01  0.10308880037E+01 0.  0.
     999903    2    3    3    0    0 -0.10563427264E+00 -0.20572463479E-01 -0.76208270002E-01  0.13928709555E+00  0.44848286041E-01 0.  0.
         14    1    1    2    0    0 -0.78809655211E-02  0.17264894939E-02 -0.10143219975E-01  0.12960528345E-01  0.00000000000E+00 0.  1.
     999901    1    3    3    0    0  0.11351523816E+00  0.18845973986E-01  0.86351489978E-01  0.89168237610E+00  0.88000000000E+00 0. -1.
        -11    1    4    4    0    0 -0.75133671921E-01 -0.87865598258E-02 -0.27239019805E-01  0.80402099543E-01  0.51100000000E-03 0.  1.
         11    1    4    4    0    0 -0.30500600719E-01 -0.11785903654E-01 -0.48969250198E-01  0.58884996010E-01  0.51100000000E-03 0. -1.
</event>
<event>
 7    1  0.2039519E+004  0.1043930E+01  0.7957747E-01            NaN
         13   -1    0    0    0    0  0.00000000000E+00  0.00000000000E+00  0.74505805969E-08  0.10566000000E+00  0.10566000000E+00 0. -1.
     999900   -1    0    0    0    0 -0.00000000000E+00 -0.00000000000E+00 -0.74505805969E-08  0.93827000000E+00  0.93827000000E+00 0.  1.
     999902    2    1    2    0    0  0.54053831070E-02 -0.31313681133E-02  0.12542226979E-01  0.10299181803E+01  0.10298228620E+01 0.  0.
         14    1    1    2    0    0 -0.54053831070E-02  0.31313681133E-02 -0.12542226979E-01  0.14011819667E-01  0.00000000000E+00 0. -1.
     999901    1    3    3    0    0  0.13695172431E+00 -0.31535632980E-01 -0.44615279381E-02  0.89116226142E+00  0.88000000000E+00 0. -1.
        -11    1    3    3    0    0 -0.12620568089E-01  0.12113405601E-01 -0.13423938383E-03  0.17501213539E-01  0.51100000000E-03 0.  1.
         11    1    3    3    0    0 -0.11892577312E+00  0.16290859265E-01  0.17137994301E-01  0.12125470538E+00  0.51100000000E-03 0. -1.
</event>
<event>
 8    1  0.2039519E+004  0.1043930E+01  0.7957747E-01            NaN
         13   -1    0    0    0    0  0.00000000000E+00  0.00000000000E+00  0.74505805969E-08  0.10566000000E+00  0.10566000000E+00 0. -1.
     999900   -1    0    0    0    0 -0.00000000000E+00 -0.00000000000E+00 -0.74505805969E-08  0.93827000000E+00  0.93827000000E+00 0. -1.
     999902    2    1    2    0    0 -0.51430777248E-02 -0.99954337637E-02 -0.75335886103E-02  0.10303980045E+01  0.10303091443E+01 0.  0.
     999903    2    3    3    0    0 -0.80405187122E-01  0.24925955994E-01 -0.10413859233E+00  0.14123186969E+00  0.44892061694E-01 0.  0.
         14    1    1    2    0    0  0.51430777248E-02  0.99954337637E-02  0.75335886103E-02  0.13531995491E-01  0.00000000000E+00 0. -1.
     999901    1    3    3    0    0  0.75262109397E-01 -0.34921389758E-01  0.96605003724E-01  0.88916613482E+00  0.88000000000E+00 0. -1.
        -11    1    4    4    0    0 -0.34050878772E-01  0.12867024829E-01 -0.13710177397E-01  0.38900549590E-01  0.51100000000E-03 0.  1.
         11    1    4    4    0    0 -0.46354308349E-01  0.12058931165E-01 -0.90428414938E-01  0.10233132010E+00  0.51100000000E-03 0. -1.
</event>
<event>
 8    1  0.2039519E+004  0.1043930E+01  0.7957747E-01            NaN
         13   -1    0    0    0    0  0.00000000000E+00  0.00000000000E+00  0.74505805969E-08  0.10566000000E+00  0.10566000000E+00 0. -1.
     999900   -1    0    0    0    0 -0.00000000000E+00 -0.00000000000E+00 -0.74505805969E-08  0.93827000000E+00  0.93827000000E+00 0. -1.
     999902    2    1    2    0    0 -0.17975052356E-02  0.18275132137E-01  0.35343590822E-02  0.10252296478E+01  0.10250590849E+01 0.  0.
     999903    2    3    3    0    0  0.93353635319E-01  0.93660614282E-03  0.87973376100E-01  0.13591288101E+00  0.44913448580E-01 0.  0.
         14    1    1    2    0    0  0.17975052356E-02 -0.18275132137E-01 -0.35343590822E-02  0.18700352238E-01  0.00000000000E+00 0. -1.
     999901    1    3    3    0    0 -0.95151140555E-01  0.17338525994E-01 -0.84439017018E-01  0.88931676675E+00  0.88000000000E+00 0. -1.
        -11    1    4    4    0    0  0.70456978002E-01  0.13853414672E-01  0.42661542949E-01  0.83524674288E-01  0.51100000000E-03 0.  1.
         11    1    4    4    0    0  0.22896657318E-01 -0.12916808529E-01  0.45311833151E-01  0.52388206721E-01  0.51100000000E-03 0. -1.
</event>
<event>
 8    1  0.2039519E+004  0.1043930E+01  0.7957747E-01            NaN
         13   -1    0    0    0    0  0.00000000000E+00  0.00000000000E+00  0.74505805969E-08  0.10566000000E+00  0.10566000000E+00 0.  1.
     999900   -1    0    0    0    0 -0.00000000000E+00 -0.00000000000E+00 -0.74505805969E-08  0.93827000000E+00  0.93827000000E+00 0.  1.
     999902    2    1    2    0    0  0.20008744570E-01  0.57977130018E-02 -0.18430673181E-01  0.10161153807E+01  0.10157346178E+01 0.  0.
     999903    2    3    3    0    0  0.94880532497E-01 -0.66598410416E-01 -0.83457445792E-04  0.12978383793E+00  0.58362435733E-01 0.  0.
         14    1    1    2    0    0 -0.20008744570E-01 -0.57977130018E-02  0.18430673181E-01  0.27814619344E-01  0.00000000000E+00 0.  1.
     999901    1    3    3    0    0 -0.74871787927E-01  0.72396123418E-01 -0.18347215736E-01  0.88633154273E+00  0.88000000000E+00 0. -1.
        -11    1    4    4    0    0  0.38057999444E-01 -0.57126354996E-01 -0.15023028029E-01  0.70269369209E-01  0.51100000000E-03 0. -1.
         11    1    4    4    0    0  0.56822533054E-01 -0.94720554199E-02  0.14939570583E-01  0.59514468717E-01  0.51100000000E-03 0.  1.
</event>
<event>
 8    1  0.2039519E+004  0.1043930E+01  0.7957747E-01            NaN
         13   -1    0    0    0    0  0.00000000000E+00  0.00000000000E+00  0.74505805969E-08  0.10566000000E+00  0.10566000000E+00 0.  1.
     999900   -1    0    0    0    0 -0.00000000000E+00 -0.00000000000E+00 -0.74505805969E-08  0.93827000000E+00  0.93827000000E+00 0. -1.
     999902    2    1    2    0    0 -0.13460450340E-01 -0.69171884375E-02  0.10359297421E-01  0.10255902546E+01  0.10254262645E+01 0.  0.
     999903    2    3    3    0    0 -0.51573940098E-01 -0.64826170289E-01 -0.97227777100E-01  0.13633153694E+00  0.47652320759E-01 0.  0.
         14    1    1    2    0    0  0.13460450340E-01  0.69171884375E-02 -0.10359297421E-01  0.18339745426E-01  0.00000000000E+00 0.  1.
     999901    1    3    3    0    0  0.38113489758E-01  0.57908981851E-01  0.10758707452E+00  0.88925871763E+00  0.88000000000E+00 0.  1.
        -11    1    4    4    0    0 -0.38858709900E-01 -0.43525197608E-01 -0.32010433686E-01  0.66553520926E-01  0.51100000000E-03 0.  1.
         11    1    4    4    0    0 -0.12715230198E-01 -0.21300972681E-01 -0.65217343414E-01  0.69778016016E-01  0.51100000000E-03 0. -1.
</event>
<event>
 8    1  0.2039519E+004  0.1043930E+01  0.7957747E-01            NaN
         13   -1    0    0    0    0  0.00000000000E+00  0.00000000000E+00  0.74505805969E-08  0.10566000000E+00  0.10566000000E+00 0.  1.
     999900   -1    0    0    0    0 -0.00000000000E+00 -0.00000000000E+00 -0.74505805969E-08  0.93827000000E+00  0.93827000000E+00 0. -1.
     999902    2    1    2    0    0 -0.11876581439E-01 -0.21266688236E-02 -0.85821804959E-02  0.10291235916E+01  0.10290170733E+01 0.  0.
     999903    2    3    3    0    0 -0.98504077891E-02 -0.13058915792E+00 -0.19726949485E-01  0.13972439983E+00  0.44533096359E-01 0.  0.
         14    1    1    2    0    0  0.11876581439E-01  0.21266688236E-02  0.85821804959E-02  0.14806408377E-01  0.00000000000E+00 0.  1.
     999901    1    3    3    0    0 -0.20261736501E-02  0.12846248910E+00  0.11144768989E-01  0.88939919179E+00  0.88000000000E+00 0. -1.
        -11    1    4    4    0    0  0.85124109828E-02 -0.47300325363E-01  0.10572040550E-01  0.49211899806E-01  0.51100000000E-03 0.  1.
         11    1    4    4    0    0 -0.18362818772E-01 -0.83288832560E-01 -0.30298990035E-01  0.90512500024E-01  0.51100000000E-03 0. -1.
</event>
<event>
 8    1  0.2039519E+004  0.1043930E+01  0.7957747E-01            NaN
         13   -1    0    0    0    0  0.00000000000E+00  0.00000000000E+00  0.74505805969E-08  0.10566000000E+00  0.10566000000E+00 0.  1.
     999900   -1    0    0    0    0 -0.00000000000E+00 -0.00000000000E+00 -0.74505805969E-08  0.93827000000E+00  0.93827000000E+00 0. -1.
     999902    2    1    2    0    0 -0.40657740804E-02  0.10291950605E-01  0.89495986606E-02  0.10296979909E+01  0.10295996321E+01 0.  0.
     999903    2    3    3    0    0 -0.91529987147E-02  0.69501033468E-01  0.11439900142E+00  0.14141246707E+00  0.44678666936E-01 0.  0.
         14    1    1    2    0    0  0.40657740804E-02 -0.10291950605E-01 -0.89495986606E-02  0.14232009075E-01  0.00000000000E+00 0. -1.
     999901    1    3    3    0    0  0.50872246343E-02 -0.59209082863E-01 -0.10544940276E+00  0.88828552385E+00  0.88000000000E+00 0. -1.
        -11    1    4    4    0    0 -0.23768158713E-02  0.45362914207E-01  0.10539506296E+00  0.11476856563E+00  0.51100000000E-03 0.  1.
         11    1    4    4    0    0 -0.67761828433E-02  0.24138119261E-01  0.90039384588E-02  0.26643901444E-01  0.51100000000E-03 0. -1.
</event>
<event>
 8    1  0.2039519E+004  0.1043930E+01  0.7957747E-01            NaN
         13   -1    0    0    0    0  0.00000000000E+00  0.00000000000E+00  0.74505805969E-08  0.10566000000E+00  0.10566000000E+00 0.  1.
     999900   -1    0    0    0    0 -0.00000000000E+00 -0.00000000000E+00 -0.74505805969E-08  0.93827000000E+00  0.93827000000E+00 0. -1.
     999902    2    1    2    0    0  0.25511252088E-02  0.60177387770E-02  0.15053915992E-01  0.10275183637E+01  0.10273872911E+01 0.  0.
     999903    2    3    3    0    0  0.10911841605E+00 -0.49855840742E-01 -0.48895157331E-01  0.13703089699E+00  0.44657549649E-01 0.  0.
         14    1    1    2    0    0 -0.25511252088E-02 -0.60177387770E-02 -0.15053915992E-01  0.16411636315E-01  0.00000000000E+00 0. -1.
     999901    1    3    3    0    0 -0.10656729085E+00  0.55873579519E-01  0.63949073323E-01  0.89048746670E+00  0.88000000000E+00 0.  1.
        -11    1    4    4    0    0  0.93841395816E-01 -0.22675140845E-01 -0.32985159359E-01  0.10202279863E+00  0.51100000000E-03 0.  1.
         11    1    4    4    0    0  0.15277020238E-01 -0.27180699897E-01 -0.15909997972E-01  0.35008098359E-01  0.51100000000E-03 0. -1.
</event>
<event>
 8    1  0.2039519E+004  0.1043930E+01  0.7957747E-01            NaN
         13   -1    0    0    0    0  0.00000000000E+00  0.00000000000E+00  0.74505805969E-08  0.10566000000E+00  0.10566000000E+00 0.  1.
     999900   -1    0    0    0    0 -0.00000000000E+00 -0.00000000000E+00 -0.74505805969E-08  0.93827000000E+00  0.93827000000E+00 0. -1.
     999902    2    1    2    0    0 -0.15844069292E-02  0.77263639554E-02  0.10164036561E-01  0.10310647490E+01  0.10309844819E+01 0.  0.
     999903    2    3    3    0    0  0.77685666747E-01  0.10160215620E+00 -0.39931624736E-01  0.14111756837E+00  0.44289643082E-01 0.  0.
         14    1    1    2    0    0  0.15844069292E-02 -0.77263639554E-02 -0.10164036561E-01  0.12865251047E-01  0.00000000000E+00 0. -1.
     999901    1    3    3    0    0 -0.79270073677E-01 -0.93875792249E-01  0.50095661298E-01  0.88994718059E+00  0.88000000000E+00 0. -1.
        -11    1    4    4    0    0  0.22314727106E-01  0.43980034038E-02 -0.13805072589E-02  0.22791586190E-01  0.51100000000E-03 0. -1.
         11    1    4    4    0    0  0.55370939642E-01  0.97204152801E-01 -0.38551117478E-01  0.11832598218E+00  0.51100000000E-03 0.  1.
</event>
<event>
 8    1  0.2039519E+004  0.1043930E+01  0.7957747E-01            NaN
         13   -1    0    0    0    0  0.00000000000E+00  0.00000000000E+00  0.74505805969E-08  0.10566000000E+00  0.10566000000E+00 0.  1.
     999900   -1    0    0    0    0 -0.00000000000E+00 -0.00000000000E+00 -0.74505805969E-08  0.93827000000E+00  0.93827000000E+00 0. -1.
     999902    2    1    2    0    0 -0.47790807730E-02  0.12483909366E-01 -0.30047491688E-02  0.10302290466E+01  0.10301379385E+01 0.  0.
     999903    2    3    3    0    0 -0.32842811702E-01 -0.86919608849E-01 -0.93831280611E-01  0.13954498858E+00  0.45109044919E-01 0.  0.
         14    1    1    2    0    0  0.47790807730E-02 -0.12483909366E-01  0.30047491688E-02  0.13700953385E-01  0.00000000000E+00 0.  1.
     999901    1    3    3    0    0  0.28063730929E-01  0.99403518214E-01  0.90826531442E-01  0.89068405804E+00  0.88000000000E+00 0.  1.
        -11    1    4    4    0    0 -0.83641688177E-02  0.35195068081E-02 -0.12626028685E-01  0.15557119577E-01  0.51100000000E-03 0. -1.
         11    1    4    4    0    0 -0.24478642884E-01 -0.90439115657E-01 -0.81205251926E-01  0.12398786900E+00  0.51100000000E-03 0.  1.
</event>
<event>
 8    1  0.2039519E+004  0.1043930E+01  0.7957747E-01            NaN
         13   -1    0    0    0    0  0.00000000000E+00  0.00000000000E+00  0.74505805969E-08  0.10566000000E+00  0.10566000000E+00 0. -1.
     999900   -1    0    0    0    0 -0.00000000000E+00 -0.00000000000E+00 -0.74505805969E-08  0.93827000000E+00  0.93827000000E+00 0.  1.
     999902    2    1    2    0    0  0.97130023780E-02 -0.11956008452E-01 -0.60056108909E-02  0.10273965214E+01  0.10272634795E+01 0.  0.
     999903    2    3    3    0    0 -0.76146519299E-01 -0.18107077654E-01 -0.10402148619E+00  0.13778042163E+00  0.45131101602E-01 0.  0.
         14    1    1    2    0    0 -0.97130023780E-02  0.11956008452E-01  0.60056108909E-02  0.16533478626E-01  0.00000000000E+00 0. -1.
     999901    1    3    3    0    0  0.85859521677E-01  0.61510692013E-02  0.98015875302E-01  0.88961609975E+00  0.88000000000E+00 0. -1.
        -11    1    4    4    0    0 -0.68885504265E-01  0.57146606835E-04 -0.68052144325E-01  0.96832698154E-01  0.51100000000E-03 0.  1.
         11    1    4    4    0    0 -0.72610150339E-02 -0.18164224261E-01 -0.35969341868E-01  0.40947723475E-01  0.51100000000E-03 0. -1.
</event>
<event>
 8    1  0.2039519E+004  0.1043930E+01  0.7957747E-01            NaN
         13   -1    0    0    0    0  0.00000000000E+00  0.00000000000E+00  0.74505805969E-08  0.10566000000E+00  0.10566000000E+00 0. -1.
     999900   -1    0    0    0    0 -0.00000000000E+00 -0.00000000000E+00 -0.74505805969E-08  0.93827000000E+00  0.93827000000E+00 0.  1.
     999902    2    1    2    0    0 -0.66093828777E-02  0.63444262703E-02  0.84676869987E-02  0.10314545277E+01  0.10313790793E+01 0.  0.
     999903    2    3    3    0    0  0.95499100193E-01 -0.89684309625E-01  0.11332380945E-01  0.14035640350E+00  0.49072839887E-01 0.  0.
         14    1    1    2    0    0  0.66093828777E-02 -0.63444262703E-02 -0.84676869987E-02  0.12475472329E-01  0.00000000000E+00 0.  1.
     999901    1    3    3    0    0 -0.10210848307E+00  0.96028735895E-01 -0.28646939467E-02  0.89109812417E+00  0.88000000000E+00 0.  1.
        -11    1    4    4    0    0  0.22792446676E-01 -0.50509008125E-01  0.15862874574E-01  0.57641542641E-01  0.51100000000E-03 0.  1.
         11    1    4    4    0    0  0.72706653517E-01 -0.39175301500E-01 -0.45304936282E-02  0.82714860858E-01  0.51100000000E-03 0. -1.
</event>
<event>
 8    1  0.2039519E+004  0.1043930E+01  0.7957747E-01            NaN
         13   -1    0    0    0    0  0.00000000000E+00  0.00000000000E+00  0.74505805969E-08  0.10566000000E+00  0.10566000000E+00 0.  1.
     999900   -1    0    0    0    0 -0.00000000000E+00 -0.00000000000E+00 -0.74505805969E-08  0.93827000000E+00  0.93827000000E+00 0.  1.
     999902    2    1    2    0    0 -0.11091306327E-01  0.86667827348E-02  0.69921846625E-03  0.10298367709E+01  0.10297403341E+01 0.  0.
     999903    2    3    3    0    0  0.49465890701E-01 -0.80884397106E-02  0.12111802296E+00  0.13941630842E+00  0.47487202149E-01 0.  0.
         14    1    1    2    0    0  0.11091306327E-01 -0.86667827348E-02 -0.69921846625E-03  0.14093229065E-01  0.00000000000E+00 0. -1.
     999901    1    3    3    0    0 -0.60557197029E-01  0.16755222445E-01 -0.12041880449E+00  0.89042046252E+00  0.88000000000E+00 0.  1.
        -11    1    4    4    0    0  0.12596526105E-01 -0.30290473610E-03  0.41751774465E-04  0.12610594173E-01  0.51100000000E-03 0. -1.
         11    1    4    4    0    0  0.36869364597E-01 -0.77855349745E-02  0.12107627118E+00  0.12680571425E+00  0.51100000000E-03 0.  1.
</event>
<event>
 8    1  0.2039519E+004  0.1043930E+01  0.7957747E-01            NaN
         13   -1    0    0    0    0  0.00000000000E+00  0.00000000000E+00  0.74505805969E-08  0.10566000000E+00  0.10566000000E+00 0.  1.
     999900   -1    0    0    0    0 -0.00000000000E+00 -0.00000000000E+00 -0.74505805969E-08  0.93827000000E+00  0.93827000000E+00 0. -1.
     999902    2    1    2    0    0  0.11201302332E-01  0.77414877241E-02  0.51626748939E-02  0.10293679597E+01  0.10292649530E+01 0.  0.
     999903    2    3    3    0    0  0.22620141682E-01  0.22777315282E-01  0.12922214029E+00  0.14046570580E+00  0.44741212155E-01 0.  0.
         14    1    1    2    0    0 -0.11201302332E-01 -0.77414877241E-02 -0.51626748939E-02  0.14562040317E-01  0.00000000000E+00 0.  1.
     999901    1    3    3    0    0 -0.11418839350E-01 -0.15035827558E-01 -0.12405946539E+00  0.88890225388E+00  0.88000000000E+00 0. -1.
        -11    1    4    4    0    0  0.35280845520E-01  0.11658389696E-01  0.75307465800E-01  0.83976970873E-01  0.51100000000E-03 0.  1.
         11    1    4    4    0    0 -0.12660703837E-01  0.11118925587E-01  0.53914674487E-01  0.56488734929E-01  0.51100000000E-03 0. -1.
</event>
<event>
 8    1  0.2039519E+004  0.1043930E+01  0.7957747E-01            NaN
         13   -1    0    0    0    0  0.00000000000E+00  0.00000000000E+00  0.74505805969E-08  0.10566000000E+00  0.10566000000E+00 0.  1.
     999900   -1    0    0    0    0 -0.00000000000E+00 -0.00000000000E+00 -0.74505805969E-08  0.93827000000E+00  0.93827000000E+00 0.  1.
     999902    2    1    2    0    0 -0.55949610100E-03  0.12589653048E-01  0.44589649996E-02  0.10305623237E+01  0.10304756224E+01 0.  0.
     999903    2    3    3    0    0 -0.12017105116E+00 -0.32944167467E-01  0.49019640200E-01  0.14018829745E+00  0.41514261534E-01 0.  0.
         14    1    1    2    0    0  0.55949610100E-03 -0.12589653048E-01 -0.44589649996E-02  0.13367676262E-01  0.00000000000E+00 0.  1.
     999901    1    3    3    0    0  0.11961155506E+00  0.45533820516E-01 -0.44560675201E-01  0.89037402629E+00  0.88000000000E+00 0.  1.
        -11    1    4    4    0    0 -0.82106716256E-01 -0.11040091903E-01  0.49030378381E-01  0.96268559814E-01  0.51100000000E-03 0.  1.
         11    1    4    4    0    0 -0.38064334900E-01 -0.21904075565E-01 -0.10738180647E-04  0.43919737636E-01  0.51100000000E-03 0. -1.
</event>
<event>
 8    1  0.2039519E+004  0.1043930E+01  0.7957747E-01            NaN
         13   -1    0    0    0    0  0.00000000000E+00  0.00000000000E+00  0.74505805969E-08  0.10566000000E+00  0.10566000000E+00 0. -1.
     999900   -1    0    0    0    0 -0.00000000000E+00 -0.00000000000E+00 -0.74505805969E-08  0.93827000000E+00  0.93827000000E+00 0. -1.
     999902    2    1    2    0    0  0.34511537570E-02  0.13734881739E-01  0.34557623378E-02  0.10293526295E+01  0.10292494042E+01 0.  0.
     999903    2    3    3    0    0 -0.11406877119E+00  0.64497312361E-01  0.19536028107E-01  0.13994477472E+00  0.45069898103E-01 0.  0.
         14    1    1    2    0    0 -0.34511537570E-02 -0.13734881739E-01 -0.34557623378E-02  0.14577370544E-01  0.00000000000E+00 0.  1.
     999901    1    3    3    0    0  0.11751992494E+00 -0.50762430622E-01 -0.16080265769E-01  0.88940785474E+00  0.88000000000E+00 0. -1.
        -11    1    4    4    0    0 -0.56623618139E-01  0.35357433585E-01  0.32482607760E-01  0.74241249779E-01  0.51100000000E-03 0.  1.
         11    1    4    4    0    0 -0.57445153047E-01  0.29139878776E-01 -0.12946579653E-01  0.65703524939E-01  0.51100000000E-03 0. -1.
</event>
<event>
 8    1  0.2039519E+004  0.1043930E+01  0.7957747E-01            NaN
         13   -1    0    0    0    0  0.00000000000E+00  0.00000000000E+00  0.74505805969E-08  0.10566000000E+00  0.10566000000E+00 0. -1.
     999900   -1    0    0    0    0 -0.00000000000E+00 -0.00000000000E+00 -0.74505805969E-08  0.93827000000E+00  0.93827000000E+00 0. -1.
     999902    2    1    2    0    0 -0.45120668634E-02 -0.84619481199E-02 -0.99847638912E-02  0.10300859102E+01  0.10299928755E+01 0.  0.
     999903    2    3    3    0    0 -0.65346756861E-01 -0.55171215873E-01 -0.10372152910E+00  0.14179024072E+00  0.45080539845E-01 0.  0.
         14    1    1    2    0    0  0.45120668634E-02  0.84619481199E-02  0.99847638912E-02  0.13844089834E-01  0.00000000000E+00 0.  1.
     999901    1    3    3    0    0  0.60834689997E-01  0.46709267753E-01  0.93736765206E-01  0.88829566944E+00  0.88000000000E+00 0.  1.
        -11    1    4    4    0    0 -0.54389362353E-01 -0.47093494300E-01 -0.53239687278E-01  0.89502655631E-01  0.51100000000E-03 0. -1.
         11    1    4    4    0    0 -0.10957394507E-01 -0.80777215727E-02 -0.50481841819E-01  0.52287585091E-01  0.51100000000E-03 0.  1.
</event>
<event>
 8    1  0.2039519E+004  0.1043930E+01  0.7957747E-01            NaN
         13   -1    0    0    0    0  0.00000000000E+00  0.00000000000E+00  0.74505805969E-08  0.10566000000E+00  0.10566000000E+00 0.  1.
     999900   -1    0    0    0    0 -0.00000000000E+00 -0.00000000000E+00 -0.74505805969E-08  0.93827000000E+00  0.93827000000E+00 0. -1.
     999902    2    1    2    0    0 -0.75277473025E-02 -0.85780931532E-02  0.98948215654E-02  0.10288250950E+01  0.10287142061E+01 0.  0.
     999903    2    3    3    0    0  0.11688530181E+00  0.52457650522E-01  0.23760200714E-01  0.13787267340E+00  0.45059383659E-01 0.  0.
         14    1    1    2    0    0  0.75277473025E-02  0.85780931532E-02 -0.98948215654E-02  0.15104905012E-01  0.00000000000E+00 0. -1.
     999901    1    3    3    0    0 -0.12441304911E+00 -0.61035743675E-01 -0.13865379149E-01  0.89095242159E+00  0.88000000000E+00 0. -1.
        -11    1    4    4    0    0  0.62074468625E-01  0.47212792803E-01  0.27463023531E-01  0.82684740078E-01  0.51100000000E-03 0.  1.
         11    1    4    4    0    0  0.54810833182E-01  0.52448577196E-02 -0.37028228166E-02  0.55187933322E-01  0.51100000000E-03 0. -1.
</event>
<event>
 8    1  0.2039519E+004  0.1043930E+01  0.7957747E-01            NaN
         13   -1    0    0    0    0  0.00000000000E+00  0.00000000000E+00  0.74505805969E-08  0.10566000000E+00  0.10566000000E+00 0.  1.
     999900   -1    0    0    0    0 -0.00000000000E+00 -0.00000000000E+00 -0.74505805969E-08  0.93827000000E+00  0.93827000000E+00 0. -1.
     999902    2    1    2    0    0  0.78006319300E-02 -0.53819353397E-02 -0.46121822583E-02  0.10333902034E+01  0.10333364531E+01 0.  0.
     999903    2    3    3    0    0 -0.37680773578E-01  0.44931762991E-01 -0.12247960068E+00  0.14294494694E+00  0.44646402438E-01 0.  0.
         14    1    1    2    0    0 -0.78006319300E-02  0.53819353397E-02  0.46121822583E-02  0.10539796568E-01  0.00000000000E+00 0.  1.
     999901    1    3    3    0    0  0.45481405508E-01 -0.50313698330E-01  0.11786741842E+00  0.89044525649E+00  0.88000000000E+00 0.  1.
        -11    1    4    4    0    0  0.17945157357E-02  0.98012805448E-02 -0.47691418136E-03  0.99886913647E-02  0.51100000000E-03 0.  1.
         11    1    4    4    0    0 -0.39475289313E-01  0.35130482446E-01 -0.12200268650E+00  0.13295625557E+00  0.51100000000E-03 0. -1.
</event>
<event>
 8    1  0.2039519E+004  0.1043930E+01  0.7957747E-01            NaN
         13   -1    0    0    0    0  0.00000000000E+00  0.00000000000E+00  0.74505805969E-08  0.10566000000E+00  0.10566000000E+00 0. -1.
     999900   -1    0    0    0    0 -0.00000000000E+00 -0.00000000000E+00 -0.74505805969E-08  0.93827000000E+00  0.93827000000E+00 0. -1.
     999902    2    1    2    0    0 -0.10752979159E-01 -0.88444264296E-03  0.83575390545E-02  0.10302823900E+01  0.10301919947E+01 0.  0.
     999903    2    3    3    0    0  0.89458196162E-01 -0.23515195839E-02 -0.95363670778E-01  0.13854110390E+00  0.45728648134E-01 0.  0.
         14    1    1    2    0    0  0.10752979159E-01  0.88444264296E-03 -0.83575390545E-02  0.13647609997E-01  0.00000000000E+00 0.  1.
     999901    1    3    3    0    0 -0.10021117532E+00  0.14670769409E-02  0.10372120983E+00  0.89174128610E+00  0.88000000000E+00 0.  1.
        -11    1    4    4    0    0  0.34735192622E-01  0.20989975384E-01 -0.44906565247E-01  0.60530764049E-01  0.51100000000E-03 0.  1.
         11    1    4    4    0    0  0.54723003540E-01 -0.23341494968E-01 -0.50457105531E-01  0.78010339849E-01  0.51100000000E-03 0. -1.
</event>
<event>
 8    1  0.2039519E+004  0.1043930E+01  0.7957747E-01            NaN
         13   -1    0    0    0    0  0.00000000000E+00  0.00000000000E+00  0.74505805969E-08  0.10566000000E+00  0.10566000000E+00 0. -1.
     999900   -1    0    0    0    0 -0.00000000000E+00 -0.00000000000E+00 -0.74505805969E-08  0.93827000000E+00  0.93827000000E+00 0. -1.
     999902    2    1    2    0    0  0.27805916021E-02 -0.37903773158E-02  0.14234243670E-01  0.10289395916E+01  0.10288303898E+01 0.  0.
     999903    2    3    3    0    0 -0.10141182508E+00 -0.84284282686E-01  0.64919834202E-02  0.13911080413E+00  0.43834591388E-01 0.  0.
         14    1    1    2    0    0 -0.27805916021E-02  0.37903773158E-02 -0.14234243670E-01  0.14990408357E-01  0.00000000000E+00 0.  1.
     999901    1    3    3    0    0  0.10419241668E+00  0.80493905370E-01  0.77422602496E-02  0.88982878751E+00  0.88000000000E+00 0. -1.
        -11    1    4    4    0    0 -0.94374690383E-01 -0.66838657728E-01 -0.71498779281E-02  0.11586789990E+00  0.51100000000E-03 0. -1.
         11    1    4    4    0    0 -0.70371346992E-02 -0.17445624959E-01  0.13641861348E-01  0.23242904229E-01  0.51100000000E-03 0.  1.
</event>
<event>
 8    1  0.2039519E+004  0.1043930E+01  0.7957747E-01            NaN
         13   -1    0    0    0    0  0.00000000000E+00  0.00000000000E+00  0.74505805969E-08  0.10566000000E+00  0.10566000000E+00 0. -1.
     999900   -1    0    0    0    0 -0.00000000000E+00 -0.00000000000E+00 -0.74505805969E-08  0.93827000000E+00  0.93827000000E+00 0. -1.
     999902    2    1    2    0    0 -0.12203483059E-01 -0.38789355938E-02 -0.63677510530E-03  0.10311090553E+01  0.10310293436E+01 0.  0.
     999903    2    3    3    0    0  0.22565633592E-01 -0.82379828005E-01  0.10238489727E+00  0.14094909971E+00  0.45698332986E-01 0.  0.
         14    1    1    2    0    0  0.12203483059E-01  0.38789355938E-02  0.63677510530E-03  0.12820944687E-01  0.00000000000E+00 0. -1.
     999901    1    3    3    0    0 -0.34769116651E-01  0.78500892411E-01 -0.10302167238E+00  0.89015995560E+00  0.88000000000E+00 0.  1.
        -11    1    4    4    0    0 -0.80831926190E-02 -0.38875865058E-01  0.64049450081E-01  0.75360892137E-01  0.51100000000E-03 0. -1.
         11    1    4    4    0    0  0.30648826211E-01 -0.43503962947E-01  0.38335447191E-01  0.65588207572E-01  0.51100000000E-03 0.  1.
</event>
<event>
 8    1  0.2039519E+004  0.1043930E+01  0.7957747E-01            NaN
         13   -1    0    0    0    0  0.00000000000E+00  0.00000000000E+00  0.74505805969E-08  0.10566000000E+00  0.10566000000E+00 0.  1.
     999900   -1    0    0    0    0 -0.00000000000E+00 -0.00000000000E+00 -0.74505805969E-08  0.93827000000E+00  0.93827000000E+00 0. -1.
     999902    2    1    2    0    0 -0.11903093739E-01 -0.61516277701E-02 -0.33575386965E-02  0.10301169905E+01  0.10300243759E+01 0.  0.
     999903    2    3    3    0    0  0.33321557890E-01 -0.11349832534E+00  0.52333586592E-01  0.14069578320E+00  0.55356147351E-01 0.  0.
         14    1    1    2    0    0  0.11903093739E-01  0.61516277701E-02  0.33575386965E-02  0.13813009480E-01  0.00000000000E+00 0. -1.
     999901    1    3    3    0    0 -0.45224651629E-01  0.10734669757E+00 -0.55691125289E-01  0.88942120732E+00  0.88000000000E+00 0. -1.
        -11    1    4    4    0    0 -0.59559380479E-02 -0.61529697369E-01  0.90377754442E-02  0.62476550500E-01  0.51100000000E-03 0.  1.
         11    1    4    4    0    0  0.39277495937E-01 -0.51968627971E-01  0.43295811148E-01  0.78219232701E-01  0.51100000000E-03 0. -1.
</event>
<event>
 8    1  0.2039519E+004  0.1043930E+01  0.7957747E-01            NaN
         13   -1    0    0    0    0  0.00000000000E+00  0.00000000000E+00  0.74505805969E-08  0.10566000000E+00  0.10566000000E+00 0.  1.
     999900   -1    0    0    0    0 -0.00000000000E+00 -0.00000000000E+00 -0.74505805969E-08  0.93827000000E+00  0.93827000000E+00 0. -1.
     999902    2    1    2    0    0  0.27505918486E-02  0.43925481789E-02 -0.11578952594E-01  0.10312440874E+01  0.10311660562E+01 0.  0.
     999903    2    3    3    0    0 -0.46375338185E-01  0.77719498011E-01 -0.10033964929E+00  0.14238602234E+00  0.44885875004E-01 0.  0.
         14    1    1    2    0    0 -0.27505918486E-02 -0.43925481789E-02  0.11578952594E-01  0.12685912588E-01  0.00000000000E+00 0. -1.
     999901    1    3    3    0    0  0.49125930034E-01 -0.73326949832E-01  0.88760696692E-01  0.88885806508E+00  0.88000000000E+00 0.  1.
        -11    1    4    4    0    0 -0.65769321846E-03  0.43848760726E-01 -0.48838149142E-01  0.65639715952E-01  0.51100000000E-03 0. -1.
         11    1    4    4    0    0 -0.45717644967E-01  0.33870737285E-01 -0.51501500144E-01  0.76746306384E-01  0.51100000000E-03 0.  1.
</event>
<event>
 8    1  0.2039519E+004  0.1043930E+01  0.7957747E-01            NaN
         13   -1    0    0    0    0  0.00000000000E+00  0.00000000000E+00  0.74505805969E-08  0.10566000000E+00  0.10566000000E+00 0.  1.
     999900   -1    0    0    0    0 -0.00000000000E+00 -0.00000000000E+00 -0.74505805969E-08  0.93827000000E+00  0.93827000000E+00 0.  1.
     999902    2    1    2    0    0  0.91514205007E-02 -0.91255849672E-02 -0.47106220963E-02  0.10301744644E+01  0.10300826241E+01 0.  0.
     999903    2    3    3    0    0 -0.66510848466E-01 -0.11218703161E+00  0.26457409716E-01  0.14038916059E+00  0.44715756238E-01 0.  0.
         14    1    1    2    0    0 -0.91514205007E-02  0.91255849672E-02  0.47106220963E-02  0.13755535566E-01  0.00000000000E+00 0.  1.
     999901    1    3    3    0    0  0.75662268967E-01  0.10306144665E+00 -0.31168031812E-01  0.88978530384E+00  0.88000000000E+00 0.  1.
        -11    1    4    4    0    0 -0.59132553467E-01 -0.81386231461E-01  0.24294183387E-02  0.10063071472E+00  0.51100000000E-03 0.  1.
         11    1    4    4    0    0 -0.73782949999E-02 -0.30800800154E-01  0.24027991377E-01  0.39758445868E-01  0.51100000000E-03 0. -1.
</event>
<event>
 8    1  0.2039519E+004  0.1043930E+01  0.7957747E-01            NaN
         13   -1    0    0    0    0  0.00000000000E+00  0.00000000000E+00  0.74505805969E-08  0.10566000000E+00  0.10566000000E+00 0.  1.
     999900   -1    0    0    0    0 -0.00000000000E+00 -0.00000000000E+00 -0.74505805969E-08  0.93827000000E+00  0.93827000000E+00 0. -1.
     999902    2    1    2    0    0  0.94881050895E-02  0.37902654245E-02  0.94376577400E-02  0.10300210233E+01  0.10299271085E+01 0.  0.
     999903    2    3    3    0    0 -0.24522232540E-01 -0.12931680586E+00 -0.19024615485E-02  0.13928941734E+00  0.45538404175E-01 0.  0.
         14    1    1    2    0    0 -0.94881050895E-02 -0.37902654245E-02 -0.94376577400E-02  0.13908976734E-01  0.00000000000E+00 0. -1.
     999901    1    3    3    0    0  0.34010337630E-01  0.13310707129E+00  0.11340119288E-01  0.89073160593E+00  0.88000000000E+00 0.  1.
        -11    1    4    4    0    0 -0.30538302287E-02 -0.36495441157E-01 -0.20857537050E-01  0.42149034118E-01  0.51100000000E-03 0.  1.
         11    1    4    4    0    0 -0.21468402312E-01 -0.92821364708E-01  0.18955075501E-01  0.97140383221E-01  0.51100000000E-03 0. -1.
</event>
<event>
 8    1  0.2039519E+004  0.1043930E+01  0.7957747E-01            NaN
         13   -1    0    0    0    0  0.00000000000E+00  0.00000000000E+00  0.74505805969E-08  0.10566000000E+00  0.10566000000E+00 0.  1.
     999900   -1    0    0    0    0 -0.00000000000E+00 -0.00000000000E+00 -0.74505805969E-08  0.93827000000E+00  0.93827000000E+00 0.  1.
     999902    2    1    2    0    0 -0.16601279411E-02  0.11485517876E-01  0.81058163438E-02  0.10297745274E+01  0.10296772309E+01 0.  0.
     999903    2    3    3    0    0 -0.89565021179E-01 -0.38777409276E-01  0.89854900545E-01  0.14020353819E+00  0.45360208101E-01 0.  0.
         14    1    1    2    0    0  0.16601279411E-02 -0.11485517876E-01 -0.81058163438E-02  0.14155472590E-01  0.00000000000E+00 0. -1.
     999901    1    3    3    0    0  0.87904893238E-01  0.50262927152E-01 -0.81749084201E-01  0.88957098922E+00  0.88000000000E+00 0.  1.
        -11    1    4    4    0    0 -0.33752379068E-01 -0.35048715262E-01  0.58438981840E-01  0.76046112680E-01  0.51100000000E-03 0. -1.
         11    1    4    4    0    0 -0.55812642112E-01 -0.37286940143E-02  0.31415918705E-01  0.64157425506E-01  0.51100000000E-03 0.  1.
</event>
<event>
 8    1  0.2039519E+004  0.1043930E+01  0.7957747E-01            NaN
         13   -1    0    0    0    0  0.00000000000E+00  0.00000000000E+00  0.74505805969E-08  0.10566000000E+00  0.10566000000E+00 0. -1.
     999900   -1    0    0    0    0 -0.00000000000E+00 -0.00000000000E+00 -0.74505805969E-08  0.93827000000E+00  0.93827000000E+00 0. -1.
     999902    2    1    2    0    0 -0.33080379166E-02 -0.83431300695E-02  0.12383943584E-01  0.10286357856E+01  0.10285220788E+01 0.  0.
     999903    2    3    3    0    0  0.54916670911E-02 -0.12021651288E+00 -0.55964231985E-01  0.13888044753E+00  0.40909840727E-01 0.  0.
         14    1    1    2    0    0  0.33080379166E-02  0.83431300695E-02 -0.12383943584E-01  0.15294214361E-01  0.00000000000E+00 0.  1.
     999901    1    3    3    0    0 -0.87997050078E-02  0.11187338281E+00  0.68348175569E-01  0.88975533811E+00  0.88000000000E+00 0.  1.
        -11    1    4    4    0    0 -0.63954506292E-04  0.13318146738E-02 -0.79437849095E-02  0.80711003086E-02  0.51100000000E-03 0.  1.
         11    1    4    4    0    0  0.55556215974E-02 -0.12154832755E+00 -0.48020447075E-01  0.13080934722E+00  0.51100000000E-03 0. -1.
</event>
<event>
 8    1  0.2039519E+004  0.1043930E+01  0.7957747E-01            NaN
         13   -1    0    0    0    0  0.00000000000E+00  0.00000000000E+00  0.74505805969E-08  0.10566000000E+00  0.10566000000E+00 0. -1.
     999900   -1    0    0    0    0 -0.00000000000E+00 -0.00000000000E+00 -0.74505805969E-08  0.93827000000E+00  0.93827000000E+00 0.  1.
     999902    2    1    2    0    0  0.49952210110E-02  0.12631505074E-01 -0.78886144412E-02  0.10282221233E+01  0.10281021337E+01 0.  0.
     999903    2    3    3    0    0  0.45324420475E-01  0.13363049997E-02 -0.12414901920E+00  0.13958805484E+00  0.44897185675E-01 0.  0.
         14    1    1    2    0    0 -0.49952210110E-02 -0.12631505074E-01  0.78886144412E-02  0.15707876725E-01  0.00000000000E+00 0.  1.
     999901    1    3    3    0    0 -0.40329199464E-01  0.11295200075E-01  0.11626040476E+00  0.88863406844E+00  0.88000000000E+00 0. -1.
        -11    1    4    4    0    0  0.59062159204E-02 -0.37571811303E-02 -0.79499164841E-01  0.79808383820E-01  0.51100000000E-03 0.  1.
         11    1    4    4    0    0  0.39418204555E-01  0.50934861299E-02 -0.44649854362E-01  0.59779671016E-01  0.51100000000E-03 0. -1.
</event>
<event>
 8    1  0.2039519E+004  0.1043930E+01  0.7957747E-01            NaN
         13   -1    0    0    0    0  0.00000000000E+00  0.00000000000E+00  0.74505805969E-08  0.10566000000E+00  0.10566000000E+00 0.  1.
     999900   -1    0    0    0    0 -0.00000000000E+00 -0.00000000000E+00 -0.74505805969E-08  0.93827000000E+00  0.93827000000E+00 0. -1.
     999902    2    1    2    0    0  0.93757947122E-02 -0.43614273817E-02 -0.98761731954E-02  0.10296308262E+01  0.10295315303E+01 0.  0.
     999903    2    3    3    0    0  0.81826472750E-01 -0.86077972584E-01  0.59336468317E-01  0.14018319744E+00  0.45005814788E-01 0.  0.
         14    1    1    2    0    0 -0.93757947122E-02  0.43614273817E-02  0.98761731954E-02  0.14299173832E-01  0.00000000000E+00 0.  1.
     999901    1    3    3    0    0 -0.72450678038E-01  0.81716545203E-01 -0.69212641513E-01  0.88944762873E+00  0.88000000000E+00 0. -1.
        -11    1    4    4    0    0  0.24816950547E-01 -0.19984579956E-01 -0.43100355152E-02  0.32157456330E-01  0.51100000000E-03 0. -1.
         11    1    4    4    0    0  0.57009522203E-01 -0.66093392629E-01  0.63646503833E-01  0.10802574111E+00  0.51100000000E-03 0.  1.
</event>
<event>
 8    1  0.2039519E+004  0.1043930E+01  0.7957747E-01            NaN
         13   -1    0    0    0    0  0.00000000000E+00  0.00000000000E+00  0.74505805969E-08  0.10566000000E+00  0.10566000000E+00 0.  1.
     999900   -1    0    0    0    0 -0.00000000000E+00 -0.00000000000E+00 -0.74505805969E-08  0.93827000000E+00  0.93827000000E+00 0.  1.
     999902    2    1    2    0    0  0.73556537945E-02 -0.12643405450E-01 -0.42322917627E-02  0.10287026024E+01  0.10285898942E+01 0.  0.
     999903    2    3    3    0    0 -0.59052406018E-01 -0.10782374378E+00 -0.50072068068E-01  0.13989969269E+00  0.44176528120E-01 0.  0.
         14    1    1    2    0    0 -0.73556537945E-02  0.12643405450E-01  0.42322917627E-02  0.15227397600E-01  0.00000000000E+00 0. -1.
     999901    1    3    3    0    0  0.66408059812E-01  0.95180338325E-01  0.45839776305E-01  0.88880290971E+00  0.88000000000E+00 0.  1.
        -11    1    4    4    0    0 -0.39583767142E-01 -0.10278140487E+00 -0.38412750887E-01  0.11664772763E+00  0.51100000000E-03 0. -1.
         11    1    4    4    0    0 -0.19468638876E-01 -0.50423389022E-02 -0.11659317181E-01  0.23251965066E-01  0.51100000000E-03 0.  1.
</event>
<event>
 8    1  0.2039519E+004  0.1043930E+01  0.7957747E-01            NaN
         13   -1    0    0    0    0  0.00000000000E+00  0.00000000000E+00  0.74505805969E-08  0.10566000000E+00  0.10566000000E+00 0.  1.
     999900   -1    0    0    0    0 -0.00000000000E+00 -0.00000000000E+00 -0.74505805969E-08  0.93827000000E+00  0.93827000000E+00 0. -1.
     999902    2    1    2    0    0  0.72389120829E-02  0.11551426855E-01  0.24657186223E-02  0.10300765860E+01  0.10299834251E+01 0.  0.
     999903    2    3    3    0    0  0.21011894022E-01 -0.10647862690E+00 -0.73771574954E-01  0.13882302303E+00  0.45281218782E-01 0.  0.
         14    1    1    2    0    0 -0.72389120829E-02 -0.11551426855E-01 -0.24657186223E-02  0.13853413978E-01  0.00000000000E+00 0. -1.
     999901    1    3    3    0    0 -0.13772981939E-01  0.11803005375E+00  0.76237293577E-01  0.89125356300E+00  0.88000000000E+00 0.  1.
        -11    1    4    4    0    0  0.34696553332E-01 -0.68469356406E-01 -0.53938913396E-01  0.93816688702E-01  0.51100000000E-03 0.  1.
         11    1    4    4    0    0 -0.13684659310E-01 -0.38009270492E-01 -0.19832661558E-01  0.45006334324E-01  0.51100000000E-03 0. -1.
</event>
<event>
 8    1  0.2039519E+004  0.1043930E+01  0.7957747E-01            NaN
         13   -1    0    0    0    0  0.00000000000E+00  0.00000000000E+00  0.74505805969E-08  0.10566000000E+00  0.10566000000E+00 0. -1.
     999900   -1    0    0    0    0 -0.00000000000E+00 -0.00000000000E+00 -0.74505805969E-08  0.93827000000E+00  0.93827000000E+00 0. -1.
     999902    2    1    2    0    0  0.60752894281E-02 -0.42483336987E-02  0.11589653656E-01  0.10301721821E+01  0.10300803111E+01 0.  0.
     999903    2    3    3    0    0  0.76233489490E-01  0.55820875127E-02 -0.10732926037E+00  0.13935204409E+00  0.45351046711E-01 0.  0.
         14    1    1    2    0    0 -0.60752894281E-02  0.42483336987E-02 -0.11589653656E-01  0.13757817877E-01  0.00000000000E+00 0.  1.
     999901    1    3    3    0    0 -0.70158200062E-01 -0.98304212114E-02  0.11891891403E+00  0.89082013804E+00  0.88000000000E+00 0.  1.
        -11    1    4    4    0    0  0.40410452403E-01 -0.10045880953E-01 -0.25935311245E-01  0.49059411716E-01  0.51100000000E-03 0.  1.
         11    1    4    4    0    0  0.35823037087E-01  0.15627968466E-01 -0.81393949130E-01  0.90292632371E-01  0.51100000000E-03 0. -1.
</event>
<event>
 8    1  0.2039519E+004  0.1043930E+01  0.7957747E-01            NaN
         13   -1    0    0    0    0  0.00000000000E+00  0.00000000000E+00  0.74505805969E-08  0.10566000000E+00  0.10566000000E+00 0.  1.
     999900   -1    0    0    0    0 -0.00000000000E+00 -0.00000000000E+00 -0.74505805969E-08  0.93827000000E+00  0.93827000000E+00 0. -1.
     999902    2    1    2    0    0  0.95586466576E-02  0.89760536553E-02  0.21537086022E-02  0.10306418201E+01  0.10305561535E+01 0.  0.
     999903    2    3    3    0    0 -0.91236421780E-01 -0.22547155477E-01 -0.92358268031E-01  0.13930245021E+00  0.45195841415E-01 0.  0.
         14    1    1    2    0    0 -0.95586466576E-02 -0.89760536553E-02 -0.21537086022E-02  0.13288179931E-01  0.00000000000E+00 0. -1.
     999901    1    3    3    0    0  0.10079506844E+00  0.31523209132E-01  0.94511976633E-01  0.89133936986E+00  0.88000000000E+00 0.  1.
        -11    1    4    4    0    0 -0.72854889825E-01 -0.13236346629E-01 -0.42563640857E-01  0.85410540845E-01  0.51100000000E-03 0. -1.
         11    1    4    4    0    0 -0.18381531955E-01 -0.93108088483E-02 -0.49794627174E-01  0.53891909363E-01  0.51100000000E-03 0.  1.
</event>
<event>
 8    1  0.2039519E+004  0.1043930E+01  0.7957747E-01            NaN
         13   -1    0    0    0    0  0.00000000000E+00  0.00000000000E+00  0.74505805969E-08  0.10566000000E+00  0.10566000000E+00 0. -1.
     999900   -1    0    0    0    0 -0.00000000000E+00 -0.00000000000E+00 -0.74505805969E-08  0.93827000000E+00  0.93827000000E+00 0.  1.
     999902    2    1    2    0    0  0.64584575565E-02 -0.27254276775E-02 -0.94982418239E-02  0.10321250761E+01  0.10320575645E+01 0.  0.
     999903    2    3    3    0    0  0.87510507929E-01  0.99013845541E-01  0.26438530268E-01  0.14183761346E+00  0.44238920673E-01 0.  0.
         14    1    1    2    0    0 -0.64584575565E-02  0.27254276775E-02  0.94982418239E-02  0.11804923879E-01  0.00000000000E+00 0. -1.
     999901    1    3    3    0    0 -0.81052050373E-01 -0.10173927322E+00 -0.35936772092E-01  0.89028746266E+00  0.88000000000E+00 0.  1.
        -11    1    4    4    0    0  0.50877837766E-01  0.35006553304E-01  0.28588547103E-01  0.68055707302E-01  0.51100000000E-03 0.  1.
         11    1    4    4    0    0  0.36632670164E-01  0.64007292237E-01 -0.21500168352E-02  0.73781906157E-01  0.51100000000E-03 0. -1.
</event>
<event>
 8    1  0.2039519E+004  0.1043930E+01  0.7957747E-01            NaN
         13   -1    0    0    0    0  0.00000000000E+00  0.00000000000E+00  0.74505805969E-08  0.10566000000E+00  0.10566000000E+00 0. -1.
     999900   -1    0    0    0    0 -0.00000000000E+00 -0.00000000000E+00 -0.74505805969E-08  0.93827000000E+00  0.93827000000E+00 0. -1.
     999902    2    1    2    0    0  0.49642948871E-02 -0.69372590747E-02 -0.10895935233E-02  0.10353301743E+01  0.10352944571E+01 0.  0.
     999903    2    3    3    0    0 -0.94789049307E-02  0.45553445093E-01 -0.12911042615E+00  0.14440188676E+00  0.44915885390E-01 0.  0.
         14    1    1    2    0    0 -0.49642948871E-02  0.69372590747E-02  0.10895935233E-02  0.85998256518E-02  0.00000000000E+00 0.  1.
     999901    1    3    3    0    0  0.14443199818E-01 -0.52490704168E-01  0.12802083262E+00  0.89092828759E+00  0.88000000000E+00 0.  1.
        -11    1    4    4    0    0  0.17589425523E-02  0.40168002325E-01 -0.49279722089E-01  0.63602786258E-01  0.51100000000E-03 0.  1.
         11    1    4    4    0    0 -0.11237847483E-01  0.53854427684E-02 -0.79830704059E-01  0.80799100499E-01  0.51100000000E-03 0. -1.
</event>
<event>
 8    1  0.2039519E+004  0.1043930E+01  0.7957747E-01            NaN
         13   -1    0    0    0    0  0.00000000000E+00  0.00000000000E+00  0.74505805969E-08  0.10566000000E+00  0.10566000000E+00 0.  1.
     999900   -1    0    0    0    0 -0.00000000000E+00 -0.00000000000E+00 -0.74505805969E-08  0.93827000000E+00  0.93827000000E+00 0. -1.
     999902    2    1    2    0    0  0.68029497024E-02  0.56936302314E-02  0.10695988671E-01  0.10300338954E+01  0.10299401555E+01 0.  0.
     999903    2    3    3    0    0  0.12254390583E+00 -0.47681626214E-01 -0.19837728870E-01  0.14032765463E+00  0.44808133556E-01 0.  0.
         14    1    1    2    0    0 -0.68029497024E-02 -0.56936302314E-02 -0.10695988671E-01  0.13896104617E-01  0.00000000000E+00 0. -1.
     999901    1    3    3    0    0 -0.11574095613E+00  0.53375256446E-01  0.30533717542E-01  0.88970624075E+00  0.88000000000E+00 0. -1.
        -11    1    4    4    0    0  0.93966928952E-01 -0.48898289515E-01 -0.74165205664E-03  0.10593223128E+00  0.51100000000E-03 0.  1.
         11    1    4    4    0    0  0.28576976879E-01  0.12166633012E-02 -0.19096076814E-01  0.34395423356E-01  0.51100000000E-03 0. -1.
</event>
<event>
 8    1  0.2039519E+004  0.1043930E+01  0.7957747E-01            NaN
         13   -1    0    0    0    0  0.00000000000E+00  0.00000000000E+00  0.74505805969E-08  0.10566000000E+00  0.10566000000E+00 0.  1.
     999900   -1    0    0    0    0 -0.00000000000E+00 -0.00000000000E+00 -0.74505805969E-08  0.93827000000E+00  0.93827000000E+00 0.  1.
     999902    2    1    2    0    0 -0.26332036630E-02  0.94953676888E-02 -0.97572905475E-02  0.10300627549E+01  0.10299694066E+01 0.  0.
     999903    2    3    3    0    0  0.39399061460E-01  0.86868469214E-01  0.92139202073E-01  0.13981773052E+00  0.44282595008E-01 0.  0.
         14    1    1    2    0    0  0.26332036630E-02 -0.94953676888E-02  0.97572905475E-02  0.13867245145E-01  0.00000000000E+00 0.  1.
     999901    1    3    3    0    0 -0.42032265123E-01 -0.77373101526E-01 -0.10189649262E+00  0.89024502434E+00  0.88000000000E+00 0.  1.
        -11    1    4    4    0    0  0.27042522241E-01  0.64126951885E-01  0.36810613438E-01  0.78732752714E-01  0.51100000000E-03 0.  1.
         11    1    4    4    0    0  0.12356539220E-01  0.22741517330E-01  0.55328588634E-01  0.61084977803E-01  0.51100000000E-03 0. -1.
</event>
<event>
 8    1  0.2039519E+004  0.1043930E+01  0.7957747E-01            NaN
         13   -1    0    0    0    0  0.00000000000E+00  0.00000000000E+00  0.74505805969E-08  0.10566000000E+00  0.10566000000E+00 0. -1.
     999900   -1    0    0    0    0 -0.00000000000E+00 -0.00000000000E+00 -0.74505805969E-08  0.93827000000E+00  0.93827000000E+00 0.  1.
     999902    2    1    2    0    0  0.16569131069E-02  0.12526811062E-01 -0.41950262914E-02  0.10306159247E+01  0.10305299217E+01 0.  0.
     999903    2    3    3    0    0  0.87909626308E-01 -0.57126982881E-01  0.80642304503E-01  0.13961168548E+00  0.44683854769E-01 0.  0.
         14    1    1    2    0    0 -0.16569131069E-02 -0.12526811062E-01  0.41950262914E-02  0.13314075335E-01  0.00000000000E+00 0. -1.
     999901    1    3    3    0    0 -0.86252713202E-01  0.69653793943E-01 -0.84837330794E-01  0.89100423918E+00  0.88000000000E+00 0.  1.
        -11    1    4    4    0    0  0.68355687391E-01 -0.38438976489E-01  0.33543705233E-01  0.85296519237E-01  0.51100000000E-03 0. -1.
         11    1    4    4    0    0  0.19553938917E-01 -0.18688006392E-01  0.47098599270E-01  0.54315166246E-01  0.51100000000E-03 0.  1.
</event>
<event>
 8    1  0.2039519E+004  0.1043930E+01  0.7957747E-01            NaN
         13   -1    0    0    0    0  0.00000000000E+00  0.00000000000E+00  0.74505805969E-08  0.10566000000E+00  0.10566000000E+00 0.  1.
     999900   -1    0    0    0    0 -0.00000000000E+00 -0.00000000000E+00 -0.74505805969E-08  0.93827000000E+00  0.93827000000E+00 0. -1.
     999902    2    1    2    0    0 -0.13094438984E-01 -0.56098385153E-02 -0.31736791005E-03  0.10296809529E+01  0.10295823568E+01 0.  0.
     999903    2    3    3    0    0  0.97104795822E-01 -0.62965781561E-01  0.61787459032E-01  0.13878781393E+00  0.45280638061E-01 0.  0.
         14    1    1    2    0    0  0.13094438984E-01  0.56098385153E-02  0.31736791005E-03  0.14249047086E-01  0.00000000000E+00 0. -1.
     999901    1    3    3    0    0 -0.11019923481E+00  0.57355943046E-01 -0.62104826943E-01  0.89089313898E+00  0.88000000000E+00 0. -1.
        -11    1    4    4    0    0  0.50003182116E-01 -0.58354210433E-01  0.40883921477E-01  0.87047620607E-01  0.51100000000E-03 0. -1.
         11    1    4    4    0    0  0.47101613707E-01 -0.46115711280E-02  0.20903537556E-01  0.51740193326E-01  0.51100000000E-03 0.  1.
</event>
<event>
 8    1  0.2039519E+004  0.1043930E+01  0.7957747E-01            NaN
         13   -1    0    0    0    0  0.00000000000E+00  0.00000000000E+00  0.74505805969E-08  0.10566000000E+00  0.10566000000E+00 0.  1.
     999900   -1    0    0    0    0 -0.00000000000E+00 -0.00000000000E+00 -0.74505805969E-08  0.93827000000E+00  0.93827000000E+00 0.  1.
     999902    2    1    2    0    0  0.12679118341E-01  0.49929635692E-02 -0.44745973250E-02  0.10295873451E+01  0.10294874402E+01 0.  0.
     999903    2    3    3    0    0 -0.36562637271E-01  0.41403919773E-01 -0.12085512311E+00  0.13981493884E+00  0.43487300727E-01 0.  0.
         14    1    1    2    0    0 -0.12679118341E-01 -0.49929635692E-02  0.44745973250E-02  0.14342654856E-01  0.00000000000E+00 0.  1.
     999901    1    3    3    0    0  0.49241755612E-01 -0.36410956204E-01  0.11638052579E+00  0.88977240630E+00  0.88000000000E+00 0. -1.
        -11    1    4    4    0    0 -0.14928572253E-01 -0.48287936204E-02 -0.50556505152E-01  0.52937707275E-01  0.51100000000E-03 0. -1.
         11    1    4    4    0    0 -0.21634065018E-01  0.46232713393E-01 -0.70298617962E-01  0.86877231570E-01  0.51100000000E-03 0.  1.
</event>
<event>
 8    1  0.2039519E+004  0.1043930E+01  0.7957747E-01            NaN
         13   -1    0    0    0    0  0.00000000000E+00  0.00000000000E+00  0.74505805969E-08  0.10566000000E+00  0.10566000000E+00 0.  1.
     999900   -1    0    0    0    0 -0.00000000000E+00 -0.00000000000E+00 -0.74505805969E-08  0.93827000000E+00  0.93827000000E+00 0.  1.
     999902    2    1    2    0    0  0.14454825795E-02 -0.12799501728E-01 -0.53719853441E-02  0.10299738225E+01  0.10298792648E+01 0.  0.
     999903    2    3    3    0    0 -0.95504605463E-01 -0.78557907089E-01 -0.51403274511E-01  0.14101804910E+00  0.44173737793E-01 0.  0.
         14    1    1    2    0    0 -0.14454825795E-02  0.12799501728E-01  0.53719853441E-02  0.13956177518E-01  0.00000000000E+00 0.  1.
     999901    1    3    3    0    0  0.96950088042E-01  0.65758405361E-01  0.46031289167E-01  0.88895577338E+00  0.88000000000E+00 0. -1.
        -11    1    4    4    0    0 -0.59288914497E-01 -0.39721991706E-01 -0.68420488731E-02  0.71694398394E-01  0.51100000000E-03 0. -1.
         11    1    4    4    0    0 -0.36215690966E-01 -0.38835915383E-01 -0.44561225638E-01  0.69323650706E-01  0.51100000000E-03 0.  1.
</event>
<event>
 7    1  0.2039519E+004  0.1043930E+01  0.7957747E-01            NaN
         13   -1    0    0    0    0  0.00000000000E+00  0.00000000000E+00  0.74505805969E-08  0.10566000000E+00  0.10566000000E+00 0. -1.
     999900   -1    0    0    0    0 -0.00000000000E+00 -0.00000000000E+00 -0.74505805969E-08  0.93827000000E+00  0.93827000000E+00 0. -1.
     999902    2    1    2    0    0 -0.96203820835E-02 -0.86339312835E-02 -0.47350743360E-03  0.10309947485E+01  0.10309136001E+01 0.  0.
         14    1    1    2    0    0  0.96203820835E-02  0.86339312835E-02  0.47350743360E-03  0.12935251452E-01  0.00000000000E+00 0. -1.
     999901    1    3    3    0    0 -0.12854764023E+00 -0.71374494989E-01  0.29382651725E-01  0.89268256092E+00  0.88000000000E+00 0. -1.
        -11    1    3    3    0    0  0.10277890897E+00  0.56529113909E-01 -0.29702246414E-01  0.12100218763E+00  0.51100000000E-03 0. -1.
         11    1    3    3    0    0  0.16148349182E-01  0.62114497972E-02 -0.15391274454E-03  0.17310000000E-01  0.51100000000E-03 0.  1.
</event>
<event>
 8    1  0.2039519E+004  0.1043930E+01  0.7957747E-01            NaN
         13   -1    0    0    0    0  0.00000000000E+00  0.00000000000E+00  0.74505805969E-08  0.10566000000E+00  0.10566000000E+00 0. -1.
     999900   -1    0    0    0    0 -0.00000000000E+00 -0.00000000000E+00 -0.74505805969E-08  0.93827000000E+00  0.93827000000E+00 0.  1.
     999902    2    1    2    0    0  0.60075644104E-02 -0.13679636970E-01  0.16927800917E-02  0.10288937504E+01  0.10287838747E+01 0.  0.
     999903    2    3    3    0    0 -0.43680045962E-01  0.40783726073E-01  0.11651968344E+00  0.13837685877E+00  0.44722026848E-01 0.  0.
         14    1    1    2    0    0 -0.60075644104E-02  0.13679636970E-01 -0.16927800917E-02  0.15036249606E-01  0.00000000000E+00 0.  1.
     999901    1    3    3    0    0  0.49687610373E-01 -0.54463363044E-01 -0.11482690335E+00  0.89051689163E+00  0.88000000000E+00 0.  1.
        -11    1    4    4    0    0 -0.23287599837E-01  0.47486980820E-01  0.88095627557E-01  0.10275420366E+00  0.51100000000E-03 0. -1.
         11    1    4    4    0    0 -0.20392446125E-01 -0.67032547471E-02  0.28424055884E-01  0.35622655110E-01  0.51100000000E-03 0.  1.
</event>
<event>
 8    1  0.2039519E+004  0.1043930E+01  0.7957747E-01            NaN
         13   -1    0    0    0    0  0.00000000000E+00  0.00000000000E+00  0.74505805969E-08  0.10566000000E+00  0.10566000000E+00 0.  1.
     999900   -1    0    0    0    0 -0.00000000000E+00 -0.00000000000E+00 -0.74505805969E-08  0.93827000000E+00  0.93827000000E+00 0. -1.
     999902    2    1    2    0    0  0.48325757160E-02  0.10871962821E-01  0.86320013642E-02  0.10292308568E+01  0.10291258872E+01 0.  0.
     999903    2    3    3    0    0  0.55120259196E-01 -0.11843087864E+00 -0.15537681487E-02  0.13830334805E+00  0.45401386515E-01 0.  0.
         14    1    1    2    0    0 -0.48325757160E-02 -0.10871962821E-01 -0.86320013642E-02  0.14699143213E-01  0.00000000000E+00 0. -1.
     999901    1    3    3    0    0 -0.50287683480E-01  0.12930284146E+00  0.10185769513E-01  0.89092750873E+00  0.88000000000E+00 0. -1.
        -11    1    4    4    0    0 -0.59621722729E-02 -0.23090707972E-01 -0.72471868093E-02  0.24930124960E-01  0.51100000000E-03 0.  1.
         11    1    4    4    0    0  0.61082431469E-01 -0.95340170669E-01  0.56934186606E-02  0.11337322309E+00  0.51100000000E-03 0. -1.
</event>
<event>
 8    1  0.2039519E+004  0.1043930E+01  0.7957747E-01            NaN
         13   -1    0    0    0    0  0.00000000000E+00  0.00000000000E+00  0.74505805969E-08  0.10566000000E+00  0.10566000000E+00 0.  1.
     999900   -1    0    0    0    0 -0.00000000000E+00 -0.00000000000E+00 -0.74505805969E-08  0.93827000000E+00  0.93827000000E+00 0.  1.
     999902    2    1    2    0    0  0.13337976707E-01  0.39748919468E-02  0.92705253411E-02  0.10272074395E+01  0.10270713119E+01 0.  0.
     999903    2    3    3    0    0 -0.74237913327E-01 -0.52597385865E-01 -0.89626660693E-01  0.13555133287E+00  0.45425463800E-01 0.  0.
         14    1    1    2    0    0 -0.13337976707E-01 -0.39748919468E-02 -0.92705253411E-02  0.16722560472E-01  0.00000000000E+00 0.  1.
     999901    1    3    3    0    0  0.87575890034E-01  0.56572277811E-01  0.98897186034E-01  0.89165610666E+00  0.88000000000E+00 0. -1.
        -11    1    4    4    0    0 -0.40864062872E-01 -0.38356589875E-01 -0.80573831467E-01  0.98150410389E-01  0.51100000000E-03 0. -1.
         11    1    4    4    0    0 -0.33373850454E-01 -0.14240795989E-01 -0.90528292259E-02  0.37400922483E-01  0.51100000000E-03 0.  1.
</event>
<event>
 8    1  0.2039519E+004  0.1043930E+01  0.7957747E-01            NaN
         13   -1    0    0    0    0  0.00000000000E+00  0.00000000000E+00  0.74505805969E-08  0.10566000000E+00  0.10566000000E+00 0. -1.
     999900   -1    0    0    0    0 -0.00000000000E+00 -0.00000000000E+00 -0.74505805969E-08  0.93827000000E+00  0.93827000000E+00 0.  1.
     999902    2    1    2    0    0  0.10485897498E-02 -0.37058124398E-02  0.13619690260E-01  0.10297762532E+01  0.10296789806E+01 0.  0.
     999903    2    3    3    0    0  0.46684235274E-01 -0.12106324809E+00  0.30432849382E-01  0.14065417935E+00  0.44963451665E-01 0.  0.
         14    1    1    2    0    0 -0.10485897498E-02  0.37058124398E-02 -0.13619690260E-01  0.14153746821E-01  0.00000000000E+00 0.  1.
     999901    1    3    3    0    0 -0.45635645524E-01  0.11735743565E+00 -0.16813159122E-01  0.88912207383E+00  0.88000000000E+00 0. -1.
        -11    1    4    4    0    0  0.59405981053E-02 -0.20381177506E-01  0.23713091064E-01  0.31831665228E-01  0.51100000000E-03 0.  1.
         11    1    4    4    0    0  0.40743637169E-01 -0.10068207059E+00  0.67197583186E-02  0.10882251412E+00  0.51100000000E-03 0. -1.
</event>
<event>
 8    1  0.2039519E+004  0.1043930E+01  0.7957747E-01            NaN
         13   -1    0    0    0    0  0.00000000000E+00  0.00000000000E+00  0.74505805969E-08  0.10566000000E+00  0.10566000000E+00 0.  1.
     999900   -1    0    0    0    0 -0.00000000000E+00 -0.00000000000E+00 -0.74505805969E-08  0.93827000000E+00  0.93827000000E+00 0. -1.
     999902    2    1    2    0    0 -0.27652708153E-03 -0.10709886174E-01 -0.95393299378E-02  0.10295850725E+01  0.10294851357E+01 0.  0.
     999903    2    3    3    0    0 -0.79879064906E-01  0.90954679865E-01 -0.51640273159E-01  0.13916677899E+00  0.45246610504E-01 0.  0.
         14    1    1    2    0    0  0.27652708153E-03  0.10709886174E-01  0.95393299378E-02  0.14344927492E-01  0.00000000000E+00 0.  1.
     999901    1    3    3    0    0  0.79602537825E-01 -0.10166456604E+00  0.42100943221E-01  0.89041829352E+00  0.88000000000E+00 0.  1.
        -11    1    4    4    0    0 -0.34568172292E-01  0.57188357986E-01 -0.70788998316E-02  0.67199990838E-01  0.51100000000E-03 0.  1.
         11    1    4    4    0    0 -0.45310892615E-01  0.33766321878E-01 -0.44561373327E-01  0.71966788149E-01  0.51100000000E-03 0. -1.
</event>
<event>
 8    1  0.2039519E+004  0.1043930E+01  0.7957747E-01            NaN
         13   -1    0    0    0    0  0.00000000000E+00  0.00000000000E+00  0.74505805969E-08  0.10566000000E+00  0.10566000000E+00 0. -1.
     999900   -1    0    0    0    0 -0.00000000000E+00 -0.00000000000E+00 -0.74505805969E-08  0.93827000000E+00  0.93827000000E+00 0. -1.
     999902    2    1    2    0    0 -0.22639957742E-02  0.12309091027E-01  0.12166367301E-01  0.10264754908E+01  0.10263270791E+01 0.  0.
     999903    2    3    3    0    0  0.30825562927E-01 -0.92797080887E-01 -0.77680364269E-01  0.13506387910E+00  0.51444133710E-01 0.  0.
         14    1    1    2    0    0  0.22639957742E-02 -0.12309091027E-01 -0.12166367301E-01  0.17454509219E-01  0.00000000000E+00 0.  1.
     999901    1    3    3    0    0 -0.33089558701E-01  0.10510617191E+00  0.89846731570E-01  0.89141161168E+00  0.88000000000E+00 0.  1.
        -11    1    4    4    0    0  0.39654244433E-01 -0.43301819360E-01 -0.30734288855E-01  0.66274914514E-01  0.51100000000E-03 0.  1.
         11    1    4    4    0    0 -0.88286815061E-02 -0.49495261527E-01 -0.46946075414E-01  0.68788964584E-01  0.51100000000E-03 0. -1.
</event>
<event>
 8    1  0.2039519E+004  0.1043930E+01  0.7957747E-01            NaN
         13   -1    0    0    0    0  0.00000000000E+00  0.00000000000E+00  0.74505805969E-08  0.10566000000E+00  0.10566000000E+00 0. -1.
     999900   -1    0    0    0    0 -0.00000000000E+00 -0.00000000000E+00 -0.74505805969E-08  0.93827000000E+00  0.93827000000E+00 0. -1.
     999902    2    1    2    0    0 -0.13183665653E-01  0.69252299892E-02 -0.50254323896E-03  0.10290296510E+01  0.10289217668E+01 0.  0.
     999903    2    3    3    0    0  0.43929873461E-02  0.12297029881E+00 -0.48963362124E-01  0.13991557076E+00  0.45143807795E-01 0.  0.
         14    1    1    2    0    0  0.13183665653E-01 -0.69252299892E-02  0.50254323896E-03  0.14900348995E-01  0.00000000000E+00 0.  1.
     999901    1    3    3    0    0 -0.17576652999E-01 -0.11604506882E+00  0.48460818885E-01  0.88911408025E+00  0.88000000000E+00 0.  1.
        -11    1    4    4    0    0  0.39835757347E-02  0.11496205725E+00 -0.57148335168E-01  0.12844585169E+00  0.51100000000E-03 0. -1.
         11    1    4    4    0    0  0.40941161138E-03  0.80082415620E-02  0.81849730435E-02  0.11469719068E-01  0.51100000000E-03 0.  1.
</event>
<event>
 8    1  0.2039519E+004  0.1043930E+01  0.7957747E-01            NaN
         13   -1    0    0    0    0  0.00000000000E+00  0.00000000000E+00  0.74505805969E-08  0.10566000000E+00  0.10566000000E+00 0.  1.
     999900   -1    0    0    0    0 -0.00000000000E+00 -0.00000000000E+00 -0.74505805969E-08  0.93827000000E+00  0.93827000000E+00 0.  1.
     999902    2    1    2    0    0 -0.53131452543E-02 -0.10897591760E-01  0.55485826064E-02  0.10305968163E+01  0.10305105647E+01 0.  0.
     999903    2    3    3    0    0  0.98473738269E-01 -0.63043996321E-01  0.65047761537E-01  0.14097267263E+00  0.44389869873E-01 0.  0.
         14    1    1    2    0    0  0.53131452543E-02  0.10897591760E-01 -0.55485826064E-02  0.13333183701E-01  0.00000000000E+00 0. -1.
     999901    1    3    3    0    0 -0.10378688352E+00  0.52146404561E-01 -0.59499178931E-01  0.88962414367E+00  0.88000000000E+00 0.  1.
        -11    1    4    4    0    0  0.63596860134E-01 -0.29198412117E-01  0.15722644215E-01  0.71725661734E-01  0.51100000000E-03 0.  1.
         11    1    4    4    0    0  0.34876878135E-01 -0.33845584205E-01  0.49325117322E-01  0.69247010899E-01  0.51100000000E-03 0. -1.
</event>
<event>
 8    1  0.2039519E+004  0.1043930E+01  0.7957747E-01            NaN
         13   -1    0    0    0    0  0.00000000000E+00  0.00000000000E+00  0.74505805969E-08  0.10566000000E+00  0.10566000000E+00 0.  1.
     999900   -1    0    0    0    0 -0.00000000000E+00 -0.00000000000E+00 -0.74505805969E-08  0.93827000000E+00  0.93827000000E+00 0.  1.
     999902    2    1    2    0    0 -0.87322353469E-02 -0.36508469125E-02 -0.11042033427E-01  0.10293867157E+01  0.10292839760E+01 0.  0.
     999903    2    3    3    0    0  0.37640774150E-01 -0.76977762308E-01 -0.10185012780E+00  0.14046973273E+00  0.44898702790E-01 0.  0.
         14    1    1    2    0    0  0.87322353469E-02  0.36508469125E-02  0.11042033427E-01  0.14543284345E-01  0.00000000000E+00 0.  1.
     999901    1    3    3    0    0 -0.46373009497E-01  0.73326915396E-01  0.90808094370E-01  0.88891698293E+00  0.88000000000E+00 0. -1.
        -11    1    4    4    0    0  0.30440369217E-01 -0.14629843149E-01 -0.39965862953E-01  0.52327619009E-01  0.51100000000E-03 0. -1.
         11    1    4    4    0    0  0.72004049325E-02 -0.62347919159E-01 -0.61884264844E-01  0.88142113720E-01  0.51100000000E-03 0.  1.
</event>
<event>
 7    1  0.3349759E+004  0.1043930E+01  0.7957747E-01            NaN
         13   -1    0    0    0    0  0.00000000000E+00  0.00000000000E+00  0.74505805969E-08  0.10566000000E+00  0.10566000000E+00 0.  1.
     999900   -1    0    0    0    0 -0.00000000000E+00 -0.00000000000E+00 -0.74505805969E-08  0.93827000000E+00  0.93827000000E+00 0. -1.
     999903    2    1    2    0    0 -0.48772128723E-01  0.79071782179E-01 -0.41838986480E-02  0.10326276545E+00  0.44884590265E-01 0.  0.
         14    1    1    2    0    0 -0.19076370367E-01  0.19161838896E-02  0.49608428667E-01  0.53184357305E-01  0.00000000000E+00 0.  1.
     999901    1    1    2    0    0  0.67848499090E-01 -0.80987966068E-01 -0.45424530019E-01  0.88748287725E+00  0.88000000000E+00 0. -1.
        -11    1    3    3    0    0 -0.41067764147E-01  0.25726836834E-01  0.44804409970E-02  0.48669979023E-01  0.51100000000E-03 0. -1.
         11    1    3    3    0    0 -0.77043645756E-02  0.53344945345E-01 -0.86643396450E-02  0.54592786427E-01  0.51100000000E-03 0.  1.
</event>
<event>
 8    1  0.2039519E+004  0.1043930E+01  0.7957747E-01            NaN
         13   -1    0    0    0    0  0.00000000000E+00  0.00000000000E+00  0.74505805969E-08  0.10566000000E+00  0.10566000000E+00 0.  1.
     999900   -1    0    0    0    0 -0.00000000000E+00 -0.00000000000E+00 -0.74505805969E-08  0.93827000000E+00  0.93827000000E+00 0. -1.
     999902    2    1    2    0    0 -0.57967209453E-02  0.36234812896E-02  0.12706129466E-01  0.10295016489E+01  0.10294005380E+01 0.  0.
     999903    2    3    3    0    0 -0.82649449360E-01 -0.15023097002E-01  0.10495631839E+00  0.14115254288E+00  0.43030067041E-01 0.  0.
         14    1    1    2    0    0  0.57967209453E-02 -0.36234812896E-02 -0.12706129466E-01  0.14428351132E-01  0.00000000000E+00 0. -1.
     999901    1    3    3    0    0  0.76852728414E-01  0.18646578292E-01 -0.92250188924E-01  0.88834910598E+00  0.88000000000E+00 0. -1.
        -11    1    4    4    0    0 -0.14005791238E-01 -0.19055485877E-01  0.15335031085E-01  0.28190388958E-01  0.51100000000E-03 0.  1.
         11    1    4    4    0    0 -0.68643658122E-01  0.40323888750E-02  0.89621287305E-01  0.11296215393E+00  0.51100000000E-03 0. -1.
</event>
<event>
 8    1  0.2039519E+004  0.1043930E+01  0.7957747E-01            NaN
         13   -1    0    0    0    0  0.00000000000E+00  0.00000000000E+00  0.74505805969E-08  0.10566000000E+00  0.10566000000E+00 0. -1.
     999900   -1    0    0    0    0 -0.00000000000E+00 -0.00000000000E+00 -0.74505805969E-08  0.93827000000E+00  0.93827000000E+00 0.  1.
     999902    2    1    2    0    0 -0.40462248421E-02  0.12421549341E-01  0.43138708876E-02  0.10301722275E+01  0.10300803570E+01 0.  0.
     999903    2    3    3    0    0 -0.10225017178E+00  0.56566244901E-01 -0.64625934598E-01  0.14093352714E+00  0.45065618372E-01 0.  0.
         14    1    1    2    0    0  0.40462248421E-02 -0.12421549341E-01 -0.43138708876E-02  0.13757772550E-01  0.00000000000E+00 0.  1.
     999901    1    3    3    0    0  0.98203946940E-01 -0.44144695560E-01  0.68939805486E-01  0.88923870031E+00  0.88000000000E+00 0. -1.
        -11    1    4    4    0    0 -0.35186690426E-02  0.14389875076E-01  0.14056517661E-02  0.14889140822E-01  0.51100000000E-03 0.  1.
         11    1    4    4    0    0 -0.98731502739E-01  0.42176369825E-01 -0.66031586364E-01  0.12604438632E+00  0.51100000000E-03 0. -1.
</event>
<event>
 8    1  0.2039519E+004  0.1043930E+01  0.7957747E-01            NaN
         13   -1    0    0    0    0  0.00000000000E+00  0.00000000000E+00  0.74505805969E-08  0.10566000000E+00  0.10566000000E+00 0.  1.
     999900   -1    0    0    0    0 -0.00000000000E+00 -0.00000000000E+00 -0.74505805969E-08  0.93827000000E+00  0.93827000000E+00 0. -1.
     999902    2    1    2    0    0 -0.13211016500E-02  0.10684384294E-01  0.90792027346E-03  0.10331260333E+01  0.10330695402E+01 0.  0.
     999903    2    3    3    0    0  0.64284902238E-01  0.11829827008E+00 -0.23060641277E-01  0.14382327939E+00  0.45014588277E-01 0.  0.
         14    1    1    2    0    0  0.13211016500E-02 -0.10684384294E-01 -0.90792027346E-03  0.10803966704E-01  0.00000000000E+00 0. -1.
     999901    1    3    3    0    0 -0.65606003888E-01 -0.10761388579E+00  0.23968561551E-01  0.88930275391E+00  0.88000000000E+00 0.  1.
        -11    1    4    4    0    0  0.10765598994E-01  0.51393441951E-01 -0.24919992561E-01  0.58124445352E-01  0.51100000000E-03 0. -1.
         11    1    4    4    0    0  0.53519303244E-01  0.66904828134E-01  0.18593512839E-02  0.85698834038E-01  0.51100000000E-03 0.  1.
</event>
<event>
 8    1  0.2039519E+004  0.1043930E+01  0.7957747E-01            NaN
         13   -1    0    0    0    0  0.00000000000E+00  0.00000000000E+00  0.74505805969E-08  0.10566000000E+00  0.10566000000E+00 0.  1.
     999900   -1    0    0    0    0 -0.00000000000E+00 -0.00000000000E+00 -0.74505805969E-08  0.93827000000E+00  0.93827000000E+00 0.  1.
     999902    2    1    2    0    0 -0.40190762195E-02  0.13448931191E-01  0.28621053544E-03  0.10298904615E+01  0.10297947631E+01 0.  0.
     999903    2    3    3    0    0 -0.95804012773E-01  0.67968847952E-01  0.63769296748E-01  0.14116834628E+00  0.45429127547E-01 0.  0.
         14    1    1    2    0    0  0.40190762195E-02 -0.13448931191E-01 -0.28621053544E-03  0.14039538465E-01  0.00000000000E+00 0.  1.
     999901    1    3    3    0    0  0.91784936553E-01 -0.54519916761E-01 -0.63483086212E-01  0.88872211525E+00  0.88000000000E+00 0. -1.
        -11    1    4    4    0    0 -0.70943585440E-01  0.70646203848E-01  0.44344692683E-01  0.10950155854E+00  0.51100000000E-03 0.  1.
         11    1    4    4    0    0 -0.24860427332E-01 -0.26773558962E-02  0.19424604065E-01  0.31666787741E-01  0.51100000000E-03 0. -1.
</event>
<event>
 8    1  0.2039519E+004  0.1043930E+01  0.7957747E-01            NaN
         13   -1    0    0    0    0  0.00000000000E+00  0.00000000000E+00  0.74505805969E-08  0.10566000000E+00  0.10566000000E+00 0.  1.
     999900   -1    0    0    0    0 -0.00000000000E+00 -0.00000000000E+00 -0.74505805969E-08  0.93827000000E+00  0.93827000000E+00 0. -1.
     999902    2    1    2    0    0  0.13817748029E-02 -0.11134383140E-01  0.62093283870E-02  0.10311066015E+01  0.10310268591E+01 0.  0.
     999903    2    3    3    0    0 -0.16942574256E-01 -0.78002155719E-01 -0.10686342927E+00  0.14116698037E+00  0.46227012790E-01 0.  0.
         14    1    1    2    0    0 -0.13817748029E-02  0.11134383140E-01 -0.62093283870E-02  0.12823398478E-01  0.00000000000E+00 0. -1.
     999901    1    3    3    0    0  0.18324349059E-01  0.66867772579E-01  0.11307275766E+00  0.88993962116E+00  0.88000000000E+00 0. -1.
        -11    1    4    4    0    0 -0.16809572562E-01 -0.75320327654E-01 -0.69968210181E-01  0.10417065347E+00  0.51100000000E-03 0. -1.
         11    1    4    4    0    0 -0.13300169390E-03 -0.26818280646E-02 -0.36895219087E-01  0.36996326895E-01  0.51100000000E-03 0.  1.
</event>
<event>
 8    1  0.2039519E+004  0.1043930E+01  0.7957747E-01            NaN
         13   -1    0    0    0    0  0.00000000000E+00  0.00000000000E+00  0.74505805969E-08  0.10566000000E+00  0.10566000000E+00 0.  1.
     999900   -1    0    0    0    0 -0.00000000000E+00 -0.00000000000E+00 -0.74505805969E-08  0.93827000000E+00  0.93827000000E+00 0.  1.
     999902    2    1    2    0    0  0.35056440920E-02 -0.12727357370E-01 -0.10063528109E-02  0.10306903659E+01  0.10306053281E+01 0.  0.
     999903    2    3    3    0    0 -0.40681542527E-01  0.99468536126E-01 -0.76524447626E-01  0.13926262980E+00  0.44599455073E-01 0.  0.
         14    1    1    2    0    0 -0.35056440920E-02  0.12727357370E-01  0.10063528109E-02  0.13239634137E-01  0.00000000000E+00 0. -1.
     999901    1    3    3    0    0  0.44187186619E-01 -0.11219589350E+00  0.75518094815E-01  0.89142773606E+00  0.88000000000E+00 0. -1.
        -11    1    4    4    0    0 -0.30002694315E-01  0.22048353050E-01 -0.33282275129E-01  0.49942592015E-01  0.51100000000E-03 0.  1.
         11    1    4    4    0    0 -0.10678848212E-01  0.77420183076E-01 -0.43242172496E-01  0.89320037784E-01  0.51100000000E-03 0. -1.
</event>
<event>
 8    1  0.2039519E+004  0.1043930E+01  0.7957747E-01            NaN
         13   -1    0    0    0    0  0.00000000000E+00  0.00000000000E+00  0.74505805969E-08  0.10566000000E+00  0.10566000000E+00 0.  1.
     999900   -1    0    0    0    0 -0.00000000000E+00 -0.00000000000E+00 -0.74505805969E-08  0.93827000000E+00  0.93827000000E+00 0.  1.
     999902    2    1    2    0    0  0.50383289871E-02  0.84413468971E-02 -0.11126716907E-01  0.10290826122E+01  0.10289754991E+01 0.  0.
     999903    2    3    3    0    0  0.50741947572E-01 -0.11670804175E+00 -0.32679645994E-01  0.13879292954E+00  0.44721424124E-01 0.  0.
         14    1    1    2    0    0 -0.50383289871E-02 -0.84413468971E-02  0.11126716907E-01  0.14847387836E-01  0.00000000000E+00 0.  1.
     999901    1    3    3    0    0 -0.45703618585E-01  0.12514938865E+00  0.21552929087E-01  0.89028968262E+00  0.88000000000E+00 0. -1.
        -11    1    4    4    0    0  0.10955883191E-01 -0.78138583298E-01 -0.12889708577E-01  0.79950455187E-01  0.51100000000E-03 0. -1.
         11    1    4    4    0    0  0.39786064381E-01 -0.38569458453E-01 -0.19789937417E-01  0.58842474355E-01  0.51100000000E-03 0.  1.
</event>
<event>
 8    1  0.2039519E+004  0.1043930E+01  0.7957747E-01            NaN
         13   -1    0    0    0    0  0.00000000000E+00  0.00000000000E+00  0.74505805969E-08  0.10566000000E+00  0.10566000000E+00 0.  1.
     999900   -1    0    0    0    0 -0.00000000000E+00 -0.00000000000E+00 -0.74505805969E-08  0.93827000000E+00  0.93827000000E+00 0.  1.
     999902    2    1    2    0    0 -0.46629500528E-02  0.33632840593E-02 -0.11816518125E-01  0.10307890380E+01  0.10307052711E+01 0.  0.
     999903    2    3    3    0    0  0.86720302819E-01  0.20953192304E-01 -0.99707375675E-01  0.14152804892E+00  0.46143045831E-01 0.  0.
         14    1    1    2    0    0  0.46629500528E-02 -0.33632840593E-02  0.11816518125E-01  0.13140962044E-01  0.00000000000E+00 0.  1.
     999901    1    3    3    0    0 -0.91383252872E-01 -0.17589908245E-01  0.87890857551E-01  0.88926098903E+00  0.88000000000E+00 0. -1.
        -11    1    4    4    0    0  0.74169746882E-01  0.74124739504E-03 -0.87736299962E-01  0.11488960028E+00  0.51100000000E-03 0. -1.
         11    1    4    4    0    0  0.12550555938E-01  0.20211944909E-01 -0.11971075714E-01  0.26638448643E-01  0.51100000000E-03 0.  1.
</event>
<event>
 8    1  0.2039519E+004  0.1043930E+01  0.7957747E-01            NaN
         13   -1    0    0    0    0  0.00000000000E+00  0.00000000000E+00  0.74505805969E-08  0.10566000000E+00  0.10566000000E+00 0. -1.
     999900   -1    0    0    0    0 -0.00000000000E+00 -0.00000000000E+00 -0.74505805969E-08  0.93827000000E+00  0.93827000000E+00 0.  1.
     999902    2    1    2    0    0 -0.17311876346E-02  0.11381642051E-01  0.74019468074E-02  0.10302432326E+01  0.10301523143E+01 0.  0.
     999903    2    3    3    0    0  0.60494961989E-01  0.96983158341E-01 -0.67055108076E-01  0.14078071716E+00  0.47512623335E-01 0.  0.
         14    1    1    2    0    0  0.17311876346E-02 -0.11381642051E-01 -0.74019468074E-02  0.13686767439E-01  0.00000000000E+00 0.  1.
     999901    1    3    3    0    0 -0.62226149623E-01 -0.85601516290E-01  0.74457054883E-01  0.88946251540E+00  0.88000000000E+00 0.  1.
        -11    1    4    4    0    0  0.39142868572E-01  0.70937703885E-01 -0.20957983060E-01  0.83688829407E-01  0.51100000000E-03 0.  1.
         11    1    4    4    0    0  0.21352093417E-01  0.26045454455E-01 -0.46097125015E-01  0.57091887749E-01  0.51100000000E-03 0. -1.
</event>
<event>
 8    1  0.2039519E+004  0.1043930E+01  0.7957747E-01            NaN
         13   -1    0    0    0    0  0.00000000000E+00  0.00000000000E+00  0.74505805969E-08  0.10566000000E+00  0.10566000000E+00 0.  1.
     999900   -1    0    0    0    0 -0.00000000000E+00 -0.00000000000E+00 -0.74505805969E-08  0.93827000000E+00  0.93827000000E+00 0. -1.
     999902    2    1    2    0    0 -0.11173773682E-01 -0.86197501308E-02  0.60904906574E-03  0.10298046946E+01  0.10297078153E+01 0.  0.
     999903    2    3    3    0    0  0.69365577847E-01 -0.84113146751E-01 -0.74600950425E-01  0.13972470717E+00  0.45509198447E-01 0.  0.
         14    1    1    2    0    0  0.11173773682E-01  0.86197501308E-02 -0.60904906574E-03  0.14125305355E-01  0.00000000000E+00 0.  1.
     999901    1    3    3    0    0 -0.80539351529E-01  0.75493396621E-01  0.75209999491E-01  0.89007998747E+00  0.88000000000E+00 0.  1.
        -11    1    4    4    0    0  0.58184323263E-01 -0.85925845403E-01 -0.75527023493E-01  0.12834819352E+00  0.51100000000E-03 0. -1.
         11    1    4    4    0    0  0.11181254584E-01  0.18126986517E-02  0.92607306765E-03  0.11376513649E-01  0.51100000000E-03 0.  1.
</event>
<event>
 8    1  0.2039519E+004  0.1043930E+01  0.7957747E-01            NaN
         13   -1    0    0    0    0  0.00000000000E+00  0.00000000000E+00  0.74505805969E-08  0.10566000000E+00  0.10566000000E+00 0.  1.
     999900   -1    0    0    0    0 -0.00000000000E+00 -0.00000000000E+00 -0.74505805969E-08  0.93827000000E+00  0.93827000000E+00 0. -1.
     999902    2    1    2    0    0  0.38677279859E-02  0.11675277189E-01  0.54521150439E-02  0.10304764884E+01  0.10303886626E+01 0.  0.
     999903    2    3    3    0    0 -0.11939208344E+00 -0.24934596470E-01  0.52081528228E-01  0.13991061985E+00  0.44567839038E-01 0.  0.
         14    1    1    2    0    0 -0.38677279859E-02 -0.11675277189E-01 -0.54521150439E-02  0.13453511648E-01  0.00000000000E+00 0. -1.
     999901    1    3    3    0    0  0.12325981142E+00  0.36609873659E-01 -0.46629413184E-01  0.89056586850E+00  0.88000000000E+00 0. -1.
        -11    1    4    4    0    0 -0.48485382760E-01  0.11506545950E-01  0.24659180333E-01  0.55601881594E-01  0.51100000000E-03 0. -1.
         11    1    4    4    0    0 -0.70906700677E-01 -0.36441142420E-01  0.27422347894E-01  0.84308738259E-01  0.51100000000E-03 0.  1.
</event>
<event>
 8    1  0.2039519E+004  0.1043930E+01  0.7957747E-01            NaN
         13   -1    0    0    0    0  0.00000000000E+00  0.00000000000E+00  0.74505805969E-08  0.10566000000E+00  0.10566000000E+00 0. -1.
     999900   -1    0    0    0    0 -0.00000000000E+00 -0.00000000000E+00 -0.74505805969E-08  0.93827000000E+00  0.93827000000E+00 0. -1.
     999902    2    1    2    0    0 -0.52223114070E-02  0.88074321167E-03 -0.12680718907E-01  0.10301877703E+01  0.10300961087E+01 0.  0.
     999903    2    3    3    0    0  0.54153517949E-01  0.11512995226E+00 -0.38893252778E-01  0.14043192300E+00  0.44954760271E-01 0.  0.
         14    1    1    2    0    0  0.52223114070E-02 -0.88074321167E-03  0.12680718907E-01  0.13742229697E-01  0.00000000000E+00 0. -1.
     999901    1    3    3    0    0 -0.59375829355E-01 -0.11424920905E+00  0.26212533871E-01  0.88975584730E+00  0.88000000000E+00 0.  1.
        -11    1    4    4    0    0  0.32582931751E-01  0.10454081973E+00 -0.23824429503E-01  0.11206379876E+00  0.51100000000E-03 0.  1.
         11    1    4    4    0    0  0.21570586198E-01  0.10589132535E-01 -0.15068823275E-01  0.28368124235E-01  0.51100000000E-03 0. -1.
</event>
<event>
 8    1  0.2039519E+004  0.1043930E+01  0.7957747E-01            NaN
         13   -1    0    0    0    0  0.00000000000E+00  0.00000000000E+00  0.74505805969E-08  0.10566000000E+00  0.10566000000E+00 0.  1.
     999900   -1    0    0    0    0 -0.00000000000E+00 -0.00000000000E+00 -0.74505805969E-08  0.93827000000E+00  0.93827000000E+00 0. -1.
     999902    2    1    2    0    0  0.80208966593E-03  0.79235739886E-02 -0.10628259822E-01  0.10306489504E+01  0.10305633763E+01 0.  0.
     999903    2    3    3    0    0 -0.81234221058E-01 -0.66803145822E-01 -0.82397126941E-01  0.14078108983E+00  0.44366313367E-01 0.  0.
         14    1    1    2    0    0 -0.80208966593E-03 -0.79235739886E-02  0.10628259822E-01  0.13281049636E-01  0.00000000000E+00 0.  1.
     999901    1    3    3    0    0  0.82036310724E-01  0.74726719811E-01  0.71768867119E-01  0.88986786054E+00  0.88000000000E+00 0. -1.
        -11    1    4    4    0    0 -0.28372883828E-01 -0.17177125666E-01 -0.53034520739E-01  0.62553942273E-01  0.51100000000E-03 0.  1.
         11    1    4    4    0    0 -0.52861337230E-01 -0.49626020157E-01 -0.29362606202E-01  0.78227147553E-01  0.51100000000E-03 0. -1.
</event>
<event>
 8    1  0.2039519E+004  0.1043930E+01  0.7957747E-01            NaN
         13   -1    0    0    0    0  0.00000000000E+00  0.00000000000E+00  0.74505805969E-08  0.10566000000E+00  0.10566000000E+00 0. -1.
     999900   -1    0    0    0    0 -0.00000000000E+00 -0.00000000000E+00 -0.74505805969E-08  0.93827000000E+00  0.93827000000E+00 0. -1.
     999902    2    1    2    0    0 -0.99149114220E-02 -0.24186291304E-02  0.79679830533E-02  0.10309822593E+01  0.10309009530E+01 0.  0.
     999903    2    3    3    0    0 -0.79072187653E-01  0.43167719265E-01 -0.98202389608E-01  0.14073903857E+00  0.45253782236E-01 0.  0.
         14    1    1    2    0    0  0.99149114220E-02  0.24186291304E-02 -0.79679830533E-02  0.12947740703E-01  0.00000000000E+00 0.  1.
     999901    1    3    3    0    0  0.69157276231E-01 -0.45586348396E-01  0.10617037266E+00  0.89024322072E+00  0.88000000000E+00 0.  1.
        -11    1    4    4    0    0 -0.26433265649E-01  0.23438482728E-01 -0.11033609689E-01  0.37014614266E-01  0.51100000000E-03 0.  1.
         11    1    4    4    0    0 -0.52638922003E-01  0.19729236537E-01 -0.87168779919E-01  0.10372442431E+00  0.51100000000E-03 0. -1.
</event>
<event>
 8    1  0.2039519E+004  0.1043930E+01  0.7957747E-01            NaN
         13   -1    0    0    0    0  0.00000000000E+00  0.00000000000E+00  0.74505805969E-08  0.10566000000E+00  0.10566000000E+00 0.  1.
     999900   -1    0    0    0    0 -0.00000000000E+00 -0.00000000000E+00 -0.74505805969E-08  0.93827000000E+00  0.93827000000E+00 0. -1.
     999902    2    1    2    0    0 -0.58976986042E-02 -0.20635228377E-02 -0.10308490522E-01  0.10318757081E+01  0.10318052971E+01 0.  0.
     999903    2    3    3    0    0 -0.12816822841E+00 -0.14672092557E-02 -0.45129070797E-01  0.14273966070E+00  0.43689017262E-01 0.  0.
         14    1    1    2    0    0  0.58976986042E-02  0.20635228377E-02  0.10308490522E-01  0.12054291857E-01  0.00000000000E+00 0.  1.
     999901    1    3    3    0    0  0.12227052981E+00 -0.59631358204E-03  0.34820580274E-01  0.88913604744E+00  0.88000000000E+00 0. -1.
        -11    1    4    4    0    0 -0.95747366812E-01  0.56066324278E-02 -0.51622839408E-01  0.10892277654E+00  0.51100000000E-03 0.  1.
         11    1    4    4    0    0 -0.32420861599E-01 -0.70738416835E-02  0.64937686109E-02  0.33816884166E-01  0.51100000000E-03 0. -1.
</event>
<event>
 8    1  0.2039519E+004  0.1043930E+01  0.7957747E-01            NaN
         13   -1    0    0    0    0  0.00000000000E+00  0.00000000000E+00  0.74505805969E-08  0.10566000000E+00  0.10566000000E+00 0.  1.
     999900   -1    0    0    0    0 -0.00000000000E+00 -0.00000000000E+00 -0.74505805969E-08  0.93827000000E+00  0.93827000000E+00 0.  1.
     999902    2    1    2    0    0 -0.48676550802E-02 -0.13742461829E-01  0.63109221992E-02  0.10280436202E+01  0.10279208666E+01 0.  0.
     999903    2    3    3    0    0  0.51670640979E-01 -0.10103606928E+00 -0.66893909122E-01  0.13890038084E+00  0.44049725143E-01 0.  0.
         14    1    1    2    0    0  0.48676550802E-02  0.13742461829E-01 -0.63109221992E-02  0.15886379767E-01  0.00000000000E+00 0. -1.
     999901    1    3    3    0    0 -0.56538296059E-01  0.87293607456E-01  0.73204831322E-01  0.88914323939E+00  0.88000000000E+00 0. -1.
        -11    1    4    4    0    0  0.41831854544E-01 -0.63883337580E-01 -0.65225882171E-01  0.10042739517E+00  0.51100000000E-03 0. -1.
         11    1    4    4    0    0  0.98387864350E-02 -0.37152731704E-01 -0.16680269511E-02  0.38472985672E-01  0.51100000000E-03 0.  1.
</event>
<event>
 8    1  0.2039519E+004  0.1043930E+01  0.7957747E-01            NaN
         13   -1    0    0    0    0  0.00000000000E+00  0.00000000000E+00  0.74505805969E-08  0.10566000000E+00  0.10566000000E+00 0.  1.
     999900   -1    0    0    0    0 -0.00000000000E+00 -0.00000000000E+00 -0.74505805969E-08  0.93827000000E+00  0.93827000000E+00 0. -1.
     999902    2    1    2    0    0  0.41891103380E-02  0.10074966066E-01  0.84613695223E-02  0.10301224528E+01  0.10300299119E+01 0.  0.
     999903    2    3    3    0    0 -0.36610285252E-01 -0.11154188566E+00 -0.57464122515E-01  0.13838178429E+00  0.45447635827E-01 0.  0.
         14    1    1    2    0    0 -0.41891103380E-02 -0.10074966066E-01 -0.84613695223E-02  0.13807547243E-01  0.00000000000E+00 0.  1.
     999901    1    3    3    0    0  0.40799395590E-01  0.12161685173E+00  0.65925492037E-01  0.89174066847E+00  0.88000000000E+00 0.  1.
        -11    1    4    4    0    0 -0.44151392395E-01 -0.87180874473E-01 -0.56445544405E-01  0.11285482235E+00  0.51100000000E-03 0. -1.
         11    1    4    4    0    0  0.75411071429E-02 -0.24361011190E-01 -0.10185781106E-02  0.25526961933E-01  0.51100000000E-03 0.  1.
</event>
<event>
 8    1  0.2039519E+004  0.1043930E+01  0.7957747E-01            NaN
         13   -1    0    0    0    0  0.00000000000E+00  0.00000000000E+00  0.74505805969E-08  0.10566000000E+00  0.10566000000E+00 0. -1.
     999900   -1    0    0    0    0 -0.00000000000E+00 -0.00000000000E+00 -0.74505805969E-08  0.93827000000E+00  0.93827000000E+00 0. -1.
     999902    2    1    2    0    0 -0.10659957780E-01 -0.84625141167E-02 -0.34029681836E-02  0.10299004228E+01  0.10298048610E+01 0.  0.
     999903    2    3    3    0    0 -0.62167198178E-01  0.10587349321E+00 -0.49838689655E-01  0.13979818447E+00  0.44560972843E-01 0.  0.
         14    1    1    2    0    0  0.10659957780E-01  0.84625141167E-02  0.34029681836E-02  0.14029577239E-01  0.00000000000E+00 0. -1.
     999901    1    3    3    0    0  0.51507240397E-01 -0.11433600733E+00  0.46435721472E-01  0.89010223829E+00  0.88000000000E+00 0.  1.
        -11    1    4    4    0    0 -0.34705356876E-01  0.60154294151E-01 -0.51461564640E-01  0.86438155099E-01  0.51100000000E-03 0. -1.
         11    1    4    4    0    0 -0.27461841301E-01  0.45719199058E-01  0.16228749843E-02  0.53360029370E-01  0.51100000000E-03 0.  1.
</event>
<event>
 8    1  0.2039519E+004  0.1043930E+01  0.7957747E-01            NaN
         13   -1    0    0    0    0  0.00000000000E+00  0.00000000000E+00  0.74505805969E-08  0.10566000000E+00  0.10566000000E+00 0.  1.
     999900   -1    0    0    0    0 -0.00000000000E+00 -0.00000000000E+00 -0.74505805969E-08  0.93827000000E+00  0.93827000000E+00 0. -1.
     999902    2    1    2    0    0  0.12768487395E-01 -0.38699362917E-02  0.14813642442E-03  0.10305871134E+01  0.10305007355E+01 0.  0.
     999903    2    3    3    0    0  0.12133623890E+00  0.57190546141E-01 -0.16203608434E-02  0.14181353892E+00  0.45991442837E-01 0.  0.
         14    1    1    2    0    0 -0.12768487395E-01  0.38699362917E-02 -0.14813642442E-03  0.13342886556E-01  0.00000000000E+00 0. -1.
     999901    1    3    3    0    0 -0.10856775151E+00 -0.61060482433E-01  0.17684972678E-02  0.88877357452E+00  0.88000000000E+00 0. -1.
        -11    1    4    4    0    0  0.65456814330E-01  0.78372662479E-02  0.88821953768E-02  0.66521964795E-01  0.51100000000E-03 0.  1.
         11    1    4    4    0    0  0.55879424571E-01  0.49353279893E-01 -0.10502556220E-01  0.75291574129E-01  0.51100000000E-03 0. -1.
</event>
<event>
 8    1  0.2039519E+004  0.1043930E+01  0.7957747E-01            NaN
         13   -1    0    0    0    0  0.00000000000E+00  0.00000000000E+00  0.74505805969E-08  0.10566000000E+00  0.10566000000E+00 0.  1.
     999900   -1    0    0    0    0 -0.00000000000E+00 -0.00000000000E+00 -0.74505805969E-08  0.93827000000E+00  0.93827000000E+00 0. -1.
     999902    2    1    2    0    0 -0.77177268891E-02  0.10853084972E-01  0.29413844923E-02  0.10302916532E+01  0.10302013813E+01 0.  0.
     999903    2    3    3    0    0  0.49949435687E-01 -0.94856219815E-01 -0.76246859264E-01  0.13856818890E+00  0.43530573919E-01 0.  0.
         14    1    1    2    0    0  0.77177268891E-02 -0.10853084972E-01 -0.29413844923E-02  0.13638346838E-01  0.00000000000E+00 0.  1.
     999901    1    3    3    0    0 -0.57667162576E-01  0.10570930479E+00  0.79188243756E-01  0.89172346426E+00  0.88000000000E+00 0. -1.
        -11    1    4    4    0    0  0.14811042991E-02 -0.13908788456E-01  0.41619733719E-02  0.14602438482E-01  0.51100000000E-03 0.  1.
         11    1    4    4    0    0  0.48468331388E-01 -0.80947431359E-01 -0.80408832636E-01  0.12396575042E+00  0.51100000000E-03 0. -1.
</event>
<event>
 8    1  0.2039519E+004  0.1043930E+01  0.7957747E-01            NaN
         13   -1    0    0    0    0  0.00000000000E+00  0.00000000000E+00  0.74505805969E-08  0.10566000000E+00  0.10566000000E+00 0.  1.
     999900   -1    0    0    0    0 -0.00000000000E+00 -0.00000000000E+00 -0.74505805969E-08  0.93827000000E+00  0.93827000000E+00 0.  1.
     999902    2    1    2    0    0 -0.12135807380E-01  0.19136608867E-02  0.68072062710E-02  0.10298844322E+01  0.10297886510E+01 0.  0.
     999903    2    3    3    0    0 -0.52509402874E-01 -0.81695642965E-01  0.91529041009E-01  0.14095342686E+00  0.45374968049E-01 0.  0.
         14    1    1    2    0    0  0.12135807380E-01 -0.19136608867E-02 -0.68072062710E-02  0.14045567840E-01  0.00000000000E+00 0. -1.
     999901    1    3    3    0    0  0.40373595494E-01  0.83609303852E-01 -0.84721834738E-01  0.88893100530E+00  0.88000000000E+00 0.  1.
        -11    1    4    4    0    0 -0.18115635987E-01 -0.34796584902E-01  0.67397096043E-01  0.77984666852E-01  0.51100000000E-03 0.  1.
         11    1    4    4    0    0 -0.34393766887E-01 -0.46899058063E-01  0.24131944967E-01  0.62968760007E-01  0.51100000000E-03 0. -1.
</event>
<event>
 8    1  0.2039519E+004  0.1043930E+01  0.7957747E-01            NaN
         13   -1    0    0    0    0  0.00000000000E+00  0.00000000000E+00  0.74505805969E-08  0.10566000000E+00  0.10566000000E+00 0.  1.
     999900   -1    0    0    0    0 -0.00000000000E+00 -0.00000000000E+00 -0.74505805969E-08  0.93827000000E+00  0.93827000000E+00 0. -1.
     999902    2    1    2    0    0 -0.32254792780E-02 -0.12351105937E-01 -0.31128473717E-02  0.10307906182E+01  0.10307068717E+01 0.  0.
     999903    2    3    3    0    0  0.85321373179E-01 -0.51429080720E-02 -0.10138803821E+00  0.14087460179E+00  0.47538751692E-01 0.  0.
         14    1    1    2    0    0  0.32254792780E-02  0.12351105937E-01  0.31128473717E-02  0.13139381766E-01  0.00000000000E+00 0.  1.
     999901    1    3    3    0    0 -0.88546852456E-01 -0.72081978646E-02  0.98275190836E-01  0.88991601645E+00  0.88000000000E+00 0.  1.
        -11    1    4    4    0    0  0.24355951533E-01 -0.23779056729E-01 -0.34271879613E-01  0.48306094514E-01  0.51100000000E-03 0. -1.
         11    1    4    4    0    0  0.60965421645E-01  0.18636148657E-01 -0.67116158595E-01  0.92568507272E-01  0.51100000000E-03 0.  1.
</event>
<event>
 8    1  0.2039519E+004  0.1043930E+01  0.7957747E-01            NaN
         13   -1    0    0    0    0  0.00000000000E+00  0.00000000000E+00  0.74505805969E-08  0.10566000000E+00  0.10566000000E+00 0. -1.
     999900   -1    0    0    0    0 -0.00000000000E+00 -0.00000000000E+00 -0.74505805969E-08  0.93827000000E+00  0.93827000000E+00 0. -1.
     999902    2    1    2    0    0 -0.28350417674E-02 -0.18286098946E-01 -0.24322070001E-02  0.10252662783E+01  0.10250963891E+01 0.  0.
     999903    2    3    3    0    0  0.64884066098E-01  0.10327221032E+00 -0.31927461129E-01  0.13384478982E+00  0.44944115625E-01 0.  0.
         14    1    1    2    0    0  0.28350417674E-02  0.18286098946E-01  0.24322070001E-02  0.18663721691E-01  0.00000000000E+00 0. -1.
     999901    1    3    3    0    0 -0.67719107865E-01 -0.12155830927E+00  0.29495254129E-01  0.89142148849E+00  0.88000000000E+00 0.  1.
        -11    1    4    4    0    0  0.65550890753E-01  0.77875428431E-01 -0.36278498356E-01  0.10806429658E+00  0.51100000000E-03 0. -1.
         11    1    4    4    0    0 -0.66682465529E-03  0.25396781893E-01  0.43510372278E-02  0.25780493238E-01  0.51100000000E-03 0.  1.
</event>
<event>
 7    1  0.2039519E+004  0.1043930E+01  0.7957747E-01            NaN
         13   -1    0    0    0    0  0.00000000000E+00  0.00000000000E+00  0.74505805969E-08  0.10566000000E+00  0.10566000000E+00 0.  1.
     999900   -1    0    0    0    0 -0.00000000000E+00 -0.00000000000E+00 -0.74505805969E-08  0.93827000000E+00  0.93827000000E+00 0.  1.
     999902    2    1    2    0    0  0.93283048247E-03 -0.73765356303E-02  0.12363062499E-01  0.10295033315E+01  0.10294022444E+01 0.  0.
         14    1    1    2    0    0 -0.93283048247E-03  0.73765356303E-02 -0.12363062499E-01  0.14426668533E-01  0.00000000000E+00 0. -1.
     999901    1    3    3    0    0 -0.47255237352E-01  0.12042766208E+00 -0.10096776574E-01  0.88951549967E+00  0.88000000000E+00 0. -1.
        -11    1    3    3    0    0  0.31426277677E-01 -0.96876787232E-01  0.24480192741E-01  0.10474857417E+00  0.51100000000E-03 0. -1.
         11    1    3    3    0    0  0.16761790158E-01 -0.30927410481E-01 -0.20203536679E-02  0.35239257630E-01  0.51100000000E-03 0.  1.
</event>
<event>
 8    1  0.2039519E+004  0.1043930E+01  0.7957747E-01            NaN
         13   -1    0    0    0    0  0.00000000000E+00  0.00000000000E+00  0.74505805969E-08  0.10566000000E+00  0.10566000000E+00 0.  1.
     999900   -1    0    0    0    0 -0.00000000000E+00 -0.00000000000E+00 -0.74505805969E-08  0.93827000000E+00  0.93827000000E+00 0. -1.
     999902    2    1    2    0    0 -0.41351602548E-02  0.13201346173E-01 -0.11826497903E-02  0.10300457013E+01  0.10299521217E+01 0.  0.
     999903    2    3    3    0    0 -0.15597788710E-01 -0.23071196694E-01 -0.13148656566E+00  0.13963781736E+00  0.37873895467E-01 0.  0.
         14    1    1    2    0    0  0.41351602548E-02 -0.13201346173E-01  0.11826497903E-02  0.13884298745E-01  0.00000000000E+00 0.  1.
     999901    1    3    3    0    0  0.11462628455E-01  0.36272542867E-01  0.13030391587E+00  0.89040788390E+00  0.88000000000E+00 0.  1.
        -11    1    4    4    0    0 -0.13653272224E-01  0.61253524364E-02 -0.69435895927E-01  0.71031940345E-01  0.51100000000E-03 0.  1.
         11    1    4    4    0    0 -0.19445164863E-02 -0.29196549130E-01 -0.62050669732E-01  0.68605877013E-01  0.51100000000E-03 0. -1.
</event>
<event>
 8    1  0.2039519E+004  0.1043930E+01  0.7957747E-01            NaN
         13   -1    0    0    0    0  0.00000000000E+00  0.00000000000E+00  0.74505805969E-08  0.10566000000E+00  0.10566000000E+00 0. -1.
     999900   -1    0    0    0    0 -0.00000000000E+00 -0.00000000000E+00 -0.74505805969E-08  0.93827000000E+00  0.93827000000E+00 0. -1.
     999902    2    1    2    0    0  0.41018846566E-02  0.76590833203E-02  0.11134667794E-01  0.10298066915E+01  0.10297098398E+01 0.  0.
     999903    2    3    3    0    0  0.12426231518E+00 -0.45792417957E-01  0.14424700494E-02  0.13998112956E+00  0.45327336084E-01 0.  0.
         14    1    1    2    0    0 -0.41018846566E-02 -0.76590833203E-02 -0.11134667794E-01  0.14123308462E-01  0.00000000000E+00 0.  1.
     999901    1    3    3    0    0 -0.12016043052E+00  0.53451501278E-01  0.96921977444E-02  0.88982556198E+00  0.88000000000E+00 0. -1.
        -11    1    4    4    0    0  0.97046732620E-01 -0.53549444042E-01  0.72832885181E-02  0.11108068546E+00  0.51100000000E-03 0.  1.
         11    1    4    4    0    0  0.27215582561E-01  0.77570260850E-02 -0.58408184687E-02  0.28900444100E-01  0.51100000000E-03 0. -1.
</event>
<event>
 8    1  0.2039519E+004  0.1043930E+01  0.7957747E-01            NaN
         13   -1    0    0    0    0  0.00000000000E+00  0.00000000000E+00  0.74505805969E-08  0.10566000000E+00  0.10566000000E+00 0. -1.
     999900   -1    0    0    0    0 -0.00000000000E+00 -0.00000000000E+00 -0.74505805969E-08  0.93827000000E+00  0.93827000000E+00 0.  1.
     999902    2    1    2    0    0  0.46305457175E-04  0.15142397522E-01 -0.12524011345E-01  0.10242794222E+01  0.10240909088E+01 0.  0.
     999903    2    3    3    0    0  0.95129084518E-01 -0.38519885528E-03  0.83119775778E-01  0.13386964288E+00  0.44300034551E-01 0.  0.
         14    1    1    2    0    0 -0.46305457175E-04 -0.15142397522E-01  0.12524011345E-01  0.19650577779E-01  0.00000000000E+00 0. -1.
     999901    1    3    3    0    0 -0.95082779061E-01  0.15527596377E-01 -0.95643787122E-01  0.89040977934E+00  0.88000000000E+00 0.  1.
        -11    1    4    4    0    0 -0.53448829491E-03  0.72098877883E-02  0.54586533720E-03  0.72682356610E-02  0.51100000000E-03 0. -1.
         11    1    4    4    0    0  0.95663572813E-01 -0.75950866436E-02  0.82573910440E-01  0.12660140722E+00  0.51100000000E-03 0.  1.
</event>
<event>
 8    1  0.2039519E+004  0.1043930E+01  0.7957747E-01            NaN
         13   -1    0    0    0    0  0.00000000000E+00  0.00000000000E+00  0.74505805969E-08  0.10566000000E+00  0.10566000000E+00 0.  1.
     999900   -1    0    0    0    0 -0.00000000000E+00 -0.00000000000E+00 -0.74505805969E-08  0.93827000000E+00  0.93827000000E+00 0.  1.
     999902    2    1    2    0    0  0.69698342873E-02 -0.11073077679E-01  0.21389255425E-02  0.10306722988E+01  0.10305870273E+01 0.  0.
     999903    2    3    3    0    0 -0.48121734119E-01  0.10382310165E+00  0.66955681194E-01  0.13913574611E+00  0.42198991329E-01 0.  0.
         14    1    1    2    0    0 -0.69698342873E-02  0.11073077679E-01 -0.21389255425E-02  0.13257701224E-01  0.00000000000E+00 0. -1.
     999901    1    3    3    0    0  0.55091568406E-01 -0.11489617933E+00 -0.64816755652E-01  0.89153655267E+00  0.88000000000E+00 0.  1.
        -11    1    4    4    0    0 -0.51188312738E-01  0.72728260698E-01  0.59510473967E-01  0.10701121856E+00  0.51100000000E-03 0. -1.
         11    1    4    4    0    0  0.30665786191E-02  0.31094840953E-01  0.74452072269E-02  0.32124527545E-01  0.51100000000E-03 0.  1.
</event>
<event>
 8    1  0.2039519E+004  0.1043930E+01  0.7957747E-01            NaN
         13   -1    0    0    0    0  0.00000000000E+00  0.00000000000E+00  0.74505805969E-08  0.10566000000E+00  0.10566000000E+00 0.  1.
     999900   -1    0    0    0    0 -0.00000000000E+00 -0.00000000000E+00 -0.74505805969E-08  0.93827000000E+00  0.93827000000E+00 0.  1.
     999902    2    1    2    0    0 -0.10024206731E-01  0.60224896004E-02 -0.84695303181E-02  0.10294908849E+01  0.10293896221E+01 0.  0.
     999903    2    3    3    0    0 -0.23030722538E-01  0.85275935562E-01  0.97685692472E-01  0.13948009311E+00  0.45932586393E-01 0.  0.
         14    1    1    2    0    0  0.10024206731E-01 -0.60224896004E-02  0.84695303181E-02  0.14439115118E-01  0.00000000000E+00 0.  1.
     999901    1    3    3    0    0  0.13006515806E-01 -0.79253445962E-01 -0.10615522279E+00  0.89001079177E+00  0.88000000000E+00 0.  1.
        -11    1    4    4    0    0 -0.70652438413E-02  0.21401857121E-01  0.10780263967E-02  0.22569457696E-01  0.51100000000E-03 0.  1.
         11    1    4    4    0    0 -0.15965478696E-01  0.63874078441E-01  0.96607666076E-01  0.11691063541E+00  0.51100000000E-03 0. -1.
</event>
<event>
 8    1  0.2039519E+004  0.1043930E+01  0.7957747E-01            NaN
         13   -1    0    0    0    0  0.00000000000E+00  0.00000000000E+00  0.74505805969E-08  0.10566000000E+00  0.10566000000E+00 0.  1.
     999900   -1    0    0    0    0 -0.00000000000E+00 -0.00000000000E+00 -0.74505805969E-08  0.93827000000E+00  0.93827000000E+00 0. -1.
     999902    2    1    2    0    0  0.86239397543E-02 -0.10888577719E-01 -0.20259355432E-02  0.10298929819E+01  0.10297973181E+01 0.  0.
     999903    2    3    3    0    0 -0.14478970143E-01 -0.10302546086E+00 -0.85061178034E-01  0.14089478104E+00  0.42332601548E-01 0.  0.
         14    1    1    2    0    0 -0.86239397543E-02  0.10888577719E-01  0.20259355432E-02  0.14037018076E-01  0.00000000000E+00 0.  1.
     999901    1    3    3    0    0  0.23102909897E-01  0.92136883142E-01  0.83035242490E-01  0.88899820088E+00  0.88000000000E+00 0.  1.
        -11    1    4    4    0    0 -0.19659717680E-01 -0.29155956827E-01 -0.12794727151E-01  0.37423795660E-01  0.51100000000E-03 0.  1.
         11    1    4    4    0    0  0.51807475369E-02 -0.73869504034E-01 -0.72266450882E-01  0.10347098538E+00  0.51100000000E-03 0. -1.
</event>
<event>
 8    1  0.2039519E+004  0.1043930E+01  0.7957747E-01            NaN
         13   -1    0    0    0    0  0.00000000000E+00  0.00000000000E+00  0.74505805969E-08  0.10566000000E+00  0.10566000000E+00 0. -1.
     999900   -1    0    0    0    0 -0.00000000000E+00 -0.00000000000E+00 -0.74505805969E-08  0.93827000000E+00  0.93827000000E+00 0.  1.
     999902    2    1    2    0    0  0.13075123180E-02  0.17082693599E-01 -0.52006346441E-02  0.10260254026E+01  0.10258691691E+01 0.  0.
     999903    2    3    3    0    0 -0.72621604416E-01 -0.88203615198E-01 -0.56505641109E-01  0.13519268828E+00  0.45059963675E-01 0.  0.
         14    1    1    2    0    0 -0.13075123180E-02 -0.17082693599E-01  0.52006346441E-02  0.17904597448E-01  0.00000000000E+00 0. -1.
     999901    1    3    3    0    0  0.73929116733E-01  0.10528630880E+00  0.51305006465E-01  0.89083271427E+00  0.88000000000E+00 0. -1.
        -11    1    4    4    0    0 -0.64692071453E-01 -0.47310182369E-01 -0.45257876435E-01  0.92042674695E-01  0.51100000000E-03 0.  1.
         11    1    4    4    0    0 -0.79295329628E-02 -0.40893432829E-01 -0.11247764674E-01  0.43150013589E-01  0.51100000000E-03 0. -1.
</event>
<event>
 8    1  0.2039519E+004  0.1043930E+01  0.7957747E-01            NaN
         13   -1    0    0    0    0  0.00000000000E+00  0.00000000000E+00  0.74505805969E-08  0.10566000000E+00  0.10566000000E+00 0.  1.
     999900   -1    0    0    0    0 -0.00000000000E+00 -0.00000000000E+00 -0.74505805969E-08  0.93827000000E+00  0.93827000000E+00 0.  1.
     999902    2    1    2    0    0 -0.47859236758E-02  0.12877838289E-01 -0.92397517689E-03  0.10301605587E+01  0.10300685313E+01 0.  0.
     999903    2    3    3    0    0 -0.97206393135E-01  0.90542203583E-01 -0.20689465970E-01  0.14169898300E+00  0.44761303441E-01 0.  0.
         14    1    1    2    0    0  0.47859236758E-02 -0.12877838289E-01  0.92397517689E-03  0.13769441330E-01  0.00000000000E+00 0.  1.
     999901    1    3    3    0    0  0.92420469459E-01 -0.77664365294E-01  0.19765490793E-01  0.88846157567E+00  0.88000000000E+00 0.  1.
        -11    1    4    4    0    0 -0.16994039214E-01  0.39391449567E-01  0.48990991669E-02  0.43182704425E-01  0.51100000000E-03 0. -1.
         11    1    4    4    0    0 -0.80212353921E-01  0.51150754016E-01 -0.25588565136E-01  0.98516278577E-01  0.51100000000E-03 0.  1.
</event>
<event>
 8    1  0.2039519E+004  0.1043930E+01  0.7957747E-01            NaN
         13   -1    0    0    0    0  0.00000000000E+00  0.00000000000E+00  0.74505805969E-08  0.10566000000E+00  0.10566000000E+00 0.  1.
     999900   -1    0    0    0    0 -0.00000000000E+00 -0.00000000000E+00 -0.74505805969E-08  0.93827000000E+00  0.93827000000E+00 0.  1.
     999902    2    1    2    0    0  0.12858274210E-01 -0.45608446342E-02  0.31313484050E-02  0.10299320765E+01  0.10298369484E+01 0.  0.
     999903    2    3    3    0    0 -0.69004583021E-01  0.11122956846E+00  0.48551308794E-02  0.13857809598E+00  0.45240104035E-01 0.  0.
         14    1    1    2    0    0 -0.12858274210E-01  0.45608446342E-02 -0.31313484050E-02  0.13997923499E-01  0.00000000000E+00 0.  1.
     999901    1    3    3    0    0  0.81862857231E-01 -0.11579041309E+00 -0.17237824744E-02  0.89135398052E+00  0.88000000000E+00 0. -1.
        -11    1    4    4    0    0 -0.58576559552E-01  0.65648528374E-01 -0.12153164548E-01  0.88819497500E-01  0.51100000000E-03 0. -1.
         11    1    4    4    0    0 -0.10428023469E-01  0.45581040085E-01  0.17008295428E-01  0.49758598483E-01  0.51100000000E-03 0.  1.
</event>
<event>
 8    1  0.2039519E+004  0.1043930E+01  0.7957747E-01            NaN
         13   -1    0    0    0    0  0.00000000000E+00  0.00000000000E+00  0.74505805969E-08  0.10566000000E+00  0.10566000000E+00 0. -1.
     999900   -1    0    0    0    0 -0.00000000000E+00 -0.00000000000E+00 -0.74505805969E-08  0.93827000000E+00  0.93827000000E+00 0. -1.
     999902    2    1    2    0    0 -0.66470514642E-02  0.30083040726E-02 -0.11707710536E-01  0.10301349403E+01  0.10300425678E+01 0.  0.
     999903    2    3    3    0    0  0.12252883945E+00 -0.45331253555E-02 -0.49678350969E-01  0.13986248003E+00  0.45384017496E-01 0.  0.
         14    1    1    2    0    0  0.66470514642E-02 -0.30083040726E-02  0.11707710536E-01  0.13795059716E-01  0.00000000000E+00 0. -1.
     999901    1    3    3    0    0 -0.12917589091E+00  0.75414294281E-02  0.37970640433E-01  0.89027246025E+00  0.88000000000E+00 0.  1.
        -11    1    4    4    0    0  0.34087767816E-01  0.88974087956E-02  0.41223895034E-02  0.35473863818E-01  0.51100000000E-03 0. -1.
         11    1    4    4    0    0  0.88441071630E-01 -0.13430534151E-01 -0.53800740472E-01  0.10438861621E+00  0.51100000000E-03 0.  1.
</event>
<event>
 8    1  0.2039519E+004  0.1043930E+01  0.7957747E-01            NaN
         13   -1    0    0    0    0  0.00000000000E+00  0.00000000000E+00  0.74505805969E-08  0.10566000000E+00  0.10566000000E+00 0. -1.
     999900   -1    0    0    0    0 -0.00000000000E+00 -0.00000000000E+00 -0.74505805969E-08  0.93827000000E+00  0.93827000000E+00 0.  1.
     999902    2    1    2    0    0 -0.86057840910E-02  0.14343210184E-02 -0.11545913380E-01  0.10294584793E+01  0.10293567582E+01 0.  0.
     999903    2    3    3    0    0  0.12945909600E+00 -0.23538861391E-01  0.95750819034E-02  0.13809342083E+00  0.40796754166E-01 0.  0.
         14    1    1    2    0    0  0.86057840910E-02 -0.14343210184E-02  0.11545913380E-01  0.14471520735E-01  0.00000000000E+00 0. -1.
     999901    1    3    3    0    0 -0.13806488009E+00  0.24973182409E-01 -0.21120995283E-01  0.89136505843E+00  0.88000000000E+00 0. -1.
        -11    1    4    4    0    0  0.26465579881E-01  0.11457874476E-01 -0.51272383712E-03  0.28848462917E-01  0.51100000000E-03 0.  1.
         11    1    4    4    0    0  0.10299351612E+00 -0.34996735866E-01  0.10087805741E-01  0.10924495791E+00  0.51100000000E-03 0. -1.
</event>
<event>
 8    1  0.2039519E+004  0.1043930E+01  0.7957747E-01            NaN
         13   -1    0    0    0    0  0.00000000000E+00  0.00000000000E+00  0.74505805969E-08  0.10566000000E+00  0.10566000000E+00 0. -1.
     999900   -1    0    0    0    0 -0.00000000000E+00 -0.00000000000E+00 -0.74505805969E-08  0.93827000000E+00  0.93827000000E+00 0.  1.
     999902    2    1    2    0    0  0.36219965573E-02 -0.14570011694E-01  0.84194515130E-03  0.10288929467E+01  0.10287830592E+01 0.  0.
     999903    2    3    3    0    0 -0.15024161961E-01 -0.69914787898E-01  0.10907703907E+00  0.14034043896E+00  0.51805746269E-01 0.  0.
         14    1    1    2    0    0 -0.36219965573E-02  0.14570011694E-01 -0.84194515130E-03  0.15037053283E-01  0.00000000000E+00 0.  1.
     999901    1    3    3    0    0  0.18646158519E-01  0.55344776204E-01 -0.10823509392E+00  0.88855250775E+00  0.88000000000E+00 0.  1.
        -11    1    4    4    0    0  0.10877131656E-01 -0.43117923478E-01  0.85107837203E-01  0.96026415077E-01  0.51100000000E-03 0.  1.
         11    1    4    4    0    0 -0.25901293617E-01 -0.26796864420E-01  0.23969201866E-01  0.44314023885E-01  0.51100000000E-03 0. -1.
</event>
<event>
 8    1  0.2039519E+004  0.1043930E+01  0.7957747E-01            NaN
         13   -1    0    0    0    0  0.00000000000E+00  0.00000000000E+00  0.74505805969E-08  0.10566000000E+00  0.10566000000E+00 0.  1.
     999900   -1    0    0    0    0 -0.00000000000E+00 -0.00000000000E+00 -0.74505805969E-08  0.93827000000E+00  0.93827000000E+00 0. -1.
     999902    2    1    2    0    0 -0.86786196141E-02 -0.10603169930E-01  0.13569074164E-02  0.10301609460E+01  0.10300689238E+01 0.  0.
     999903    2    3    3    0    0  0.95284353272E-01  0.72569533499E-01 -0.52950404730E-01  0.13849100565E+00  0.45061825466E-01 0.  0.
         14    1    1    2    0    0  0.86786196141E-02  0.10603169930E-01 -0.13569074164E-02  0.13769054024E-01  0.00000000000E+00 0.  1.
     999901    1    3    3    0    0 -0.10396297289E+00 -0.83172703429E-01  0.54307312147E-01  0.89166994033E+00  0.88000000000E+00 0.  1.
        -11    1    4    4    0    0  0.70887072126E-01  0.27375592562E-01 -0.24885271867E-01  0.79962103147E-01  0.51100000000E-03 0.  1.
         11    1    4    4    0    0  0.24397281146E-01  0.45193940937E-01 -0.28065132863E-01  0.58528902504E-01  0.51100000000E-03 0. -1.
</event>
<event>
 8    1  0.2039519E+004  0.1043930E+01  0.7957747E-01            NaN
         13   -1    0    0    0    0  0.00000000000E+00  0.00000000000E+00  0.74505805969E-08  0.10566000000E+00  0.10566000000E+00 0. -1.
     999900   -1    0    0    0    0 -0.00000000000E+00 -0.00000000000E+00 -0.74505805969E-08  0.93827000000E+00  0.93827000000E+00 0.  1.
     999902    2    1    2    0    0  0.95647244426E-02  0.24225404489E-02  0.89731399081E-02  0.10305932127E+01  0.10305069142E+01 0.  0.
     999903    2    3    3    0    0 -0.12264347852E+00 -0.26082527207E-01  0.40019039341E-01  0.13971982344E+00  0.46886933166E-01 0.  0.
         14    1    1    2    0    0 -0.95647244426E-02 -0.24225404489E-02 -0.89731399081E-02  0.13336787308E-01  0.00000000000E+00 0.  1.
     999901    1    3    3    0    0  0.13220820296E+00  0.28505067656E-01 -0.31045899433E-01  0.89087338926E+00  0.88000000000E+00 0.  1.
        -11    1    4    4    0    0 -0.34407732601E-01 -0.15303221508E-01  0.33808649936E-01  0.50609945492E-01  0.51100000000E-03 0. -1.
         11    1    4    4    0    0 -0.88235745921E-01 -0.10779305699E-01  0.62103894059E-02  0.89109877943E-01  0.51100000000E-03 0.  1.
</event>
<event>
 8    1  0.2039519E+004  0.1043930E+01  0.7957747E-01            NaN
         13   -1    0    0    0    0  0.00000000000E+00  0.00000000000E+00  0.74505805969E-08  0.10566000000E+00  0.10566000000E+00 0. -1.
     999900   -1    0    0    0    0 -0.00000000000E+00 -0.00000000000E+00 -0.74505805969E-08  0.93827000000E+00  0.93827000000E+00 0. -1.
     999902    2    1    2    0    0 -0.72896523864E-02  0.59513119449E-02 -0.98492967416E-02  0.10303077464E+01  0.10302176889E+01 0.  0.
     999903    2    3    3    0    0 -0.98263485894E-01  0.31170897378E-01 -0.86985597408E-01  0.14190340451E+00  0.44076576007E-01 0.  0.
         14    1    1    2    0    0  0.72896523864E-02 -0.59513119449E-02  0.98492967416E-02  0.13622253561E-01  0.00000000000E+00 0. -1.
     999901    1    3    3    0    0  0.90973833508E-01 -0.25219585433E-01  0.77136300666E-01  0.88840434193E+00  0.88000000000E+00 0.  1.
        -11    1    4    4    0    0 -0.88716704463E-01  0.36521806421E-01 -0.60971186870E-01  0.11367604297E+00  0.51100000000E-03 0.  1.
         11    1    4    4    0    0 -0.95467814315E-02 -0.53509090425E-02 -0.26014410538E-01  0.28227361547E-01  0.51100000000E-03 0. -1.
</event>
<event>
 8    1  0.2039519E+004  0.1043930E+01  0.7957747E-01            NaN
         13   -1    0    0    0    0  0.00000000000E+00  0.00000000000E+00  0.74505805969E-08  0.10566000000E+00  0.10566000000E+00 0.  1.
     999900   -1    0    0    0    0 -0.00000000000E+00 -0.00000000000E+00 -0.74505805969E-08  0.93827000000E+00  0.93827000000E+00 0. -1.
     999902    2    1    2    0    0  0.98497742781E-02  0.45171937030E-02 -0.15659160340E-03  0.10330926750E+01  0.10330358307E+01 0.  0.
     999903    2    3    3    0    0 -0.17377227255E-01 -0.37195086050E-01  0.12844681113E+00  0.14235137749E+00  0.45605799315E-01 0.  0.
         14    1    1    2    0    0 -0.98497742781E-02 -0.45171937030E-02  0.15659160340E-03  0.10837325003E-01  0.00000000000E+00 0. -1.
     999901    1    3    3    0    0  0.27227001533E-01  0.41712279753E-01 -0.12860340273E+00  0.89074129751E+00  0.88000000000E+00 0. -1.
        -11    1    4    4    0    0 -0.64147946620E-02 -0.20784926053E-01  0.11805191530E+00  0.12004032059E+00  0.51100000000E-03 0. -1.
         11    1    4    4    0    0 -0.10962432593E-01 -0.16410159997E-01  0.10394895827E-01  0.22311056894E-01  0.51100000000E-03 0.  1.
</event>
<event>
 8    1  0.2039519E+004  0.1043930E+01  0.7957747E-01            NaN
         13   -1    0    0    0    0  0.00000000000E+00  0.00000000000E+00  0.74505805969E-08  0.10566000000E+00  0.10566000000E+00 0.  1.
     999900   -1    0    0    0    0 -0.00000000000E+00 -0.00000000000E+00 -0.74505805969E-08  0.93827000000E+00  0.93827000000E+00 0. -1.
     999902    2    1    2    0    0 -0.12830243977E-01 -0.15055906025E-03  0.30519772949E-02  0.10307408987E+01  0.10306565130E+01 0.  0.
     999903    2    3    3    0    0 -0.34325142427E-01 -0.13835158339E-01  0.12884994486E+00  0.14142968905E+00  0.45060200239E-01 0.  0.
         14    1    1    2    0    0  0.12830243977E-01  0.15055906025E-03 -0.30519772949E-02  0.13189101332E-01  0.00000000000E+00 0. -1.
     999901    1    3    3    0    0  0.21494898450E-01  0.13684599279E-01 -0.12579796756E+00  0.88931120962E+00  0.88000000000E+00 0. -1.
        -11    1    4    4    0    0 -0.22876342190E-01 -0.22848303315E-01  0.40212565036E-01  0.51601196732E-01  0.51100000000E-03 0. -1.
         11    1    4    4    0    0 -0.11448800237E-01  0.90131449763E-02  0.88637379819E-01  0.89828492314E-01  0.51100000000E-03 0.  1.
</event>
<event>
 8    1  0.2039519E+004  0.1043930E+01  0.7957747E-01            NaN
         13   -1    0    0    0    0  0.00000000000E+00  0.00000000000E+00  0.74505805969E-08  0.10566000000E+00  0.10566000000E+00 0.  1.
     999900   -1    0    0    0    0 -0.00000000000E+00 -0.00000000000E+00 -0.74505805969E-08  0.93827000000E+00  0.93827000000E+00 0.  1.
     999902    2    1    2    0    0  0.39086718029E-02 -0.11027236062E-01 -0.74908347766E-02  0.10300379067E+01  0.10299442213E+01 0.  0.
     999903    2    3    3    0    0  0.87483741099E-01  0.96232473996E-01 -0.23783563771E-01  0.13944546870E+00  0.44331555673E-01 0.  0.
         14    1    1    2    0    0 -0.39086718029E-02  0.11027236062E-01  0.74908347766E-02  0.13892093293E-01  0.00000000000E+00 0. -1.
     999901    1    3    3    0    0 -0.83575069296E-01 -0.10725971006E+00  0.16292728995E-01  0.89059243800E+00  0.88000000000E+00 0.  1.
        -11    1    4    4    0    0  0.51108117506E-01  0.24383222979E-01 -0.13874688383E-01  0.58303939288E-01  0.51100000000E-03 0.  1.
         11    1    4    4    0    0  0.36375623593E-01  0.71849251017E-01 -0.99088753886E-02  0.81141529416E-01  0.51100000000E-03 0. -1.
</event>
<event>
 8    1  0.2039519E+004  0.1043930E+01  0.7957747E-01            NaN
         13   -1    0    0    0    0  0.00000000000E+00  0.00000000000E+00  0.74505805969E-08  0.10566000000E+00  0.10566000000E+00 0.  1.
     999900   -1    0    0    0    0 -0.00000000000E+00 -0.00000000000E+00 -0.74505805969E-08  0.93827000000E+00  0.93827000000E+00 0. -1.
     999902    2    1    2    0    0 -0.37192775107E-02  0.13878536690E-02  0.13431186834E-01  0.10299244317E+01  0.10298291990E+01 0.  0.
     999903    2    3    3    0    0 -0.57393933922E-01 -0.11874286269E+00  0.14764233773E-01  0.14014123635E+00  0.45029461862E-01 0.  0.
         14    1    1    2    0    0  0.37192775107E-02 -0.13878536690E-02 -0.13431186834E-01  0.14005568277E-01  0.00000000000E+00 0. -1.
     999901    1    3    3    0    0  0.53674656412E-01  0.12013071636E+00 -0.13330469391E-02  0.88978319537E+00  0.88000000000E+00 0.  1.
        -11    1    4    4    0    0 -0.13249800053E-01 -0.52762757849E-02  0.11528890428E-01  0.18345918432E-01  0.51100000000E-03 0. -1.
         11    1    4    4    0    0 -0.44144133870E-01 -0.11346658691E+00  0.32353433449E-02  0.12179531792E+00  0.51100000000E-03 0.  1.
</event>
<event>
 8    1  0.2039519E+004  0.1043930E+01  0.7957747E-01            NaN
         13   -1    0    0    0    0  0.00000000000E+00  0.00000000000E+00  0.74505805969E-08  0.10566000000E+00  0.10566000000E+00 0.  1.
     999900   -1    0    0    0    0 -0.00000000000E+00 -0.00000000000E+00 -0.74505805969E-08  0.93827000000E+00  0.93827000000E+00 0.  1.
     999902    2    1    2    0    0 -0.75361024060E-02 -0.45203936683E-02  0.97400111453E-02  0.10308115163E+01  0.10307280376E+01 0.  0.
     999903    2    3    3    0    0 -0.46718176265E-01 -0.11326459912E+00  0.56080577290E-01  0.14204383841E+00  0.44944003763E-01 0.  0.
         14    1    1    2    0    0  0.75361024060E-02  0.45203936683E-02 -0.97400111453E-02  0.13118483735E-01  0.00000000000E+00 0. -1.
     999901    1    3    3    0    0  0.39182073859E-01  0.10874420545E+00 -0.46340566145E-01  0.88876767786E+00  0.88000000000E+00 0. -1.
        -11    1    4    4    0    0 -0.79593502774E-02 -0.66094937648E-02  0.20748130827E-01  0.23190142700E-01  0.51100000000E-03 0.  1.
         11    1    4    4    0    0 -0.38758825987E-01 -0.10665510535E+00  0.35332446464E-01  0.11885369571E+00  0.51100000000E-03 0. -1.
</event>
<event>
 8    1  0.2039519E+004  0.1043930E+01  0.7957747E-01            NaN
         13   -1    0    0    0    0  0.00000000000E+00  0.00000000000E+00  0.74505805969E-08  0.10566000000E+00  0.10566000000E+00 0.  1.
     999900   -1    0    0    0    0 -0.00000000000E+00 -0.00000000000E+00 -0.74505805969E-08  0.93827000000E+00  0.93827000000E+00 0.  1.
     999902    2    1    2    0    0  0.87609382081E-02 -0.96875991756E-02 -0.12130460492E-01  0.10261044092E+01  0.10259495635E+01 0.  0.
     999903    2    3    3    0    0 -0.34227120945E-01  0.99455626267E-01  0.70780413692E-01  0.13445737703E+00  0.44788412254E-01 0.  0.
         14    1    1    2    0    0 -0.87609382081E-02  0.96875991756E-02  0.12130460492E-01  0.17825590812E-01  0.00000000000E+00 0. -1.
     999901    1    3    3    0    0  0.42988059153E-01 -0.10914322544E+00 -0.82910874183E-01  0.89164703215E+00  0.88000000000E+00 0.  1.
        -11    1    4    4    0    0 -0.15894490906E-01  0.58629748576E-02  0.24319783524E-02  0.17122644511E-01  0.51100000000E-03 0. -1.
         11    1    4    4    0    0 -0.18332630039E-01  0.93592651410E-01  0.68348435339E-01  0.11733473252E+00  0.51100000000E-03 0.  1.
</event>
<event>
 8    1  0.2039519E+004  0.1043930E+01  0.7957747E-01            NaN
         13   -1    0    0    0    0  0.00000000000E+00  0.00000000000E+00  0.74505805969E-08  0.10566000000E+00  0.10566000000E+00 0. -1.
     999900   -1    0    0    0    0 -0.00000000000E+00 -0.00000000000E+00 -0.74505805969E-08  0.93827000000E+00  0.93827000000E+00 0. -1.
     999902    2    1    2    0    0  0.98000736909E-02  0.35081154909E-02  0.58071599234E-02  0.10320106282E+01  0.10319417935E+01 0.  0.
     999903    2    3    3    0    0 -0.10587009304E+00 -0.11417117535E-01 -0.79343019587E-01  0.14024109340E+00  0.45093484547E-01 0.  0.
         14    1    1    2    0    0 -0.98000736909E-02 -0.35081154909E-02 -0.58071599234E-02  0.11919371838E-01  0.00000000000E+00 0.  1.
     999901    1    3    3    0    0  0.11567016673E+00  0.14925233026E-01  0.85150179510E-01  0.89176953476E+00  0.88000000000E+00 0.  1.
        -11    1    4    4    0    0 -0.51221819450E-01  0.12641124412E-01 -0.53617384385E-01  0.75223386281E-01  0.51100000000E-03 0.  1.
         11    1    4    4    0    0 -0.54648273590E-01 -0.24058241947E-01 -0.25725635202E-01  0.65017707123E-01  0.51100000000E-03 0. -1.
</event>
<event>
 8    1  0.2039519E+004  0.1043930E+01  0.7957747E-01            NaN
         13   -1    0    0    0    0  0.00000000000E+00  0.00000000000E+00  0.74505805969E-08  0.10566000000E+00  0.10566000000E+00 0. -1.
     999900   -1    0    0    0    0 -0.00000000000E+00 -0.00000000000E+00 -0.74505805969E-08  0.93827000000E+00  0.93827000000E+00 0.  1.
     999902    2    1    2    0    0 -0.68695045456E-02 -0.15268757884E-03  0.10796377666E-01  0.10311325324E+01  0.10310531142E+01 0.  0.
     999903    2    3    3    0    0  0.36776156244E-01  0.63885213238E-01  0.11268240122E+00  0.14187072717E+00  0.44678558011E-01 0.  0.
         14    1    1    2    0    0  0.68695045456E-02  0.15268757884E-03 -0.10796377666E-01  0.12797467597E-01  0.00000000000E+00 0. -1.
     999901    1    3    3    0    0 -0.43645660790E-01 -0.64037900817E-01 -0.10188602355E+00  0.88926180523E+00  0.88000000000E+00 0.  1.
        -11    1    4    4    0    0  0.33768891015E-02  0.26474649213E-01  0.73589941188E-01  0.78281868884E-01  0.51100000000E-03 0.  1.
         11    1    4    4    0    0  0.33399267143E-01  0.37410564025E-01  0.39092460029E-01  0.63588858288E-01  0.51100000000E-03 0. -1.
</event>
<event>
 8    1  0.2039519E+004  0.1043930E+01  0.7957747E-01            NaN
         13   -1    0    0    0    0  0.00000000000E+00  0.00000000000E+00  0.74505805969E-08  0.10566000000E+00  0.10566000000E+00 0.  1.
     999900   -1    0    0    0    0 -0.00000000000E+00 -0.00000000000E+00 -0.74505805969E-08  0.93827000000E+00  0.93827000000E+00 0.  1.
     999902    2    1    2    0    0  0.30301373074E-03  0.14163821112E-01  0.29377710863E-02  0.10294615466E+01  0.10293598689E+01 0.  0.
     999903    2    3    3    0    0 -0.82962470714E-01  0.93078863217E-01  0.48041003034E-01  0.14086994954E+00  0.44608949623E-01 0.  0.
         14    1    1    2    0    0 -0.30301373074E-03 -0.14163821112E-01 -0.29377710863E-02  0.14468453434E-01  0.00000000000E+00 0. -1.
     999901    1    3    3    0    0  0.83265484445E-01 -0.78915042105E-01 -0.45103231948E-01  0.88859159702E+00  0.88000000000E+00 0. -1.
        -11    1    4    4    0    0 -0.35277646915E-01  0.71216823214E-01  0.34817156436E-01  0.86768910238E-01  0.51100000000E-03 0. -1.
         11    1    4    4    0    0 -0.47684823800E-01  0.21862040003E-01  0.13223846598E-01  0.54101039304E-01  0.51100000000E-03 0.  1.
</event>
<event>
 8    1  0.2039519E+004  0.1043930E+01  0.7957747E-01            NaN
         13   -1    0    0    0    0  0.00000000000E+00  0.00000000000E+00  0.74505805969E-08  0.10566000000E+00  0.10566000000E+00 0. -1.
     999900   -1    0    0    0    0 -0.00000000000E+00 -0.00000000000E+00 -0.74505805969E-08  0.93827000000E+00  0.93827000000E+00 0.  1.
     999902    2    1    2    0    0  0.12696302488E-01  0.27459072220E-02 -0.81728725688E-03  0.10309144684E+01  0.10308323031E+01 0.  0.
     999903    2    3    3    0    0  0.78978463602E-01  0.42352925546E-02 -0.10877861516E+00  0.14184124790E+00  0.45062368730E-01 0.  0.
         14    1    1    2    0    0 -0.12696302488E-01 -0.27459072220E-02  0.81728725688E-03  0.13015531560E-01  0.00000000000E+00 0. -1.
     999901    1    3    3    0    0 -0.66282161114E-01 -0.14893853327E-02  0.10796132790E+00  0.88907322054E+00  0.88000000000E+00 0. -1.
        -11    1    4    4    0    0  0.36453863704E-01 -0.19698583556E-01 -0.40739344025E-01  0.58110873730E-01  0.51100000000E-03 0.  1.
         11    1    4    4    0    0  0.42524599898E-01  0.23933876111E-01 -0.68039271133E-01  0.83730374175E-01  0.51100000000E-03 0. -1.
</event>
<event>
 7    1  0.2272342E+004  0.1043930E+01  0.7957747E-01            NaN
         13   -1    0    0    0    0  0.00000000000E+00  0.00000000000E+00  0.74505805969E-08  0.10566000000E+00  0.10566000000E+00 0. -1.
     999900   -1    0    0    0    0 -0.00000000000E+00 -0.00000000000E+00 -0.74505805969E-08  0.93827000000E+00  0.93827000000E+00 0.  1.
     999903    2    1    2    0    0 -0.48971799507E-01  0.85241774115E-01  0.39687296551E-01  0.11545521323E+00  0.45721193707E-01 0.  0.
         14    1    1    2    0    0  0.47034137795E-02  0.29575394189E-01 -0.26231108987E-01  0.39810766399E-01  0.00000000000E+00 0.  1.
     999901    1    1    2    0    0  0.44268385727E-01 -0.11481716830E+00 -0.13456187564E-01  0.88866402037E+00  0.88000000000E+00 0. -1.
        -11    1    3    3    0    0 -0.36250889306E-01  0.44453131371E-01  0.44300452631E-01  0.72477576453E-01  0.51100000000E-03 0.  1.
         11    1    3    3    0    0 -0.12720910201E-01  0.40788642744E-01 -0.46131560798E-02  0.42977636781E-01  0.51100000000E-03 0. -1.
</event>
<event>
 8    1  0.2039519E+004  0.1043930E+01  0.7957747E-01            NaN
         13   -1    0    0    0    0  0.00000000000E+00  0.00000000000E+00  0.74505805969E-08  0.10566000000E+00  0.10566000000E+00 0.  1.
     999900   -1    0    0    0    0 -0.00000000000E+00 -0.00000000000E+00 -0.74505805969E-08  0.93827000000E+00  0.93827000000E+00 0. -1.
     999902    2    1    2    0    0  0.11882423069E-01  0.17819141861E-03 -0.33809922406E-02  0.10315746433E+01  0.10315006495E+01 0.  0.
     999903    2    3    3    0    0 -0.41129989623E-01 -0.10022146006E+00 -0.78532351051E-01  0.14110390677E+00  0.44799165632E-01 0.  0.
         14    1    1    2    0    0 -0.11882423069E-01 -0.17819141861E-03  0.33809922406E-02  0.12355356681E-01  0.00000000000E+00 0. -1.
     999901    1    3    3    0    0  0.53012412692E-01  0.10039965148E+00  0.75151358811E-01  0.89047073655E+00  0.88000000000E+00 0.  1.
        -11    1    4    4    0    0  0.13113575476E-02 -0.53517754900E-02  0.52345571350E-02  0.76172743756E-02  0.51100000000E-03 0. -1.
         11    1    4    4    0    0 -0.42441347171E-01 -0.94869684572E-01 -0.83766908186E-01  0.13348663240E+00  0.51100000000E-03 0.  1.
</event>
<event>
 8    1  0.2039519E+004  0.1043930E+01  0.7957747E-01            NaN
         13   -1    0    0    0    0  0.00000000000E+00  0.00000000000E+00  0.74505805969E-08  0.10566000000E+00  0.10566000000E+00 0. -1.
     999900   -1    0    0    0    0 -0.00000000000E+00 -0.00000000000E+00 -0.74505805969E-08  0.93827000000E+00  0.93827000000E+00 0. -1.
     999902    2    1    2    0    0 -0.70328161417E-02  0.10550389047E-01 -0.48344705492E-02  0.10303600583E+01  0.10302706957E+01 0.  0.
     999903    2    3    3    0    0  0.90081998097E-01  0.12040715650E-01  0.94281076352E-01  0.13948554422E+00  0.48036969869E-01 0.  0.
         14    1    1    2    0    0  0.70328161417E-02 -0.10550389047E-01  0.48344705492E-02  0.13569941688E-01  0.00000000000E+00 0. -1.
     999901    1    3    3    0    0 -0.97114814239E-01 -0.14903266030E-02 -0.99115546901E-01  0.89087451409E+00  0.88000000000E+00 0. -1.
        -11    1    4    4    0    0  0.81289834462E-01 -0.94710287974E-03  0.57732949299E-01  0.99711026203E-01  0.51100000000E-03 0.  1.
         11    1    4    4    0    0  0.87921636355E-02  0.12987818530E-01  0.36548127053E-01  0.39774518019E-01  0.51100000000E-03 0. -1.
</event>
<event>
 8    1  0.2039519E+004  0.1043930E+01  0.7957747E-01            NaN
         13   -1    0    0    0    0  0.00000000000E+00  0.00000000000E+00  0.74505805969E-08  0.10566000000E+00  0.10566000000E+00 0. -1.
     999900   -1    0    0    0    0 -0.00000000000E+00 -0.00000000000E+00 -0.74505805969E-08  0.93827000000E+00  0.93827000000E+00 0. -1.
     999902    2    1    2    0    0  0.53250371292E-02  0.13562487884E-01 -0.17291040470E-02  0.10292573418E+01  0.10291527529E+01 0.  0.
     999903    2    3    3    0    0  0.11210855647E+00 -0.66914865226E-01 -0.15564174915E-01  0.13904908888E+00  0.45238014491E-01 0.  0.
         14    1    1    2    0    0 -0.53250371292E-02 -0.13562487884E-01  0.17291040470E-02  0.14672658206E-01  0.00000000000E+00 0. -1.
     999901    1    3    3    0    0 -0.10678351935E+00  0.80477353110E-01  0.13835070868E-01  0.89020825291E+00  0.88000000000E+00 0.  1.
        -11    1    4    4    0    0  0.10562025240E+00 -0.44341140929E-01 -0.15178522029E-01  0.11555268559E+00  0.51100000000E-03 0. -1.
         11    1    4    4    0    0  0.64883040764E-02 -0.22573724296E-01 -0.38565288576E-03  0.23496403290E-01  0.51100000000E-03 0.  1.
</event>
<event>
 8    1  0.2039519E+004  0.1043930E+01  0.7957747E-01            NaN
         13   -1    0    0    0    0  0.00000000000E+00  0.00000000000E+00  0.74505805969E-08  0.10566000000E+00  0.10566000000E+00 0. -1.
     999900   -1    0    0    0    0 -0.00000000000E+00 -0.00000000000E+00 -0.74505805969E-08  0.93827000000E+00  0.93827000000E+00 0.  1.
     999902    2    1    2    0    0 -0.13340982256E-02 -0.92217911356E-02 -0.10272030786E-01  0.10300614793E+01  0.10299681137E+01 0.  0.
     999903    2    3    3    0    0 -0.72274819543E-01  0.56572853920E-01 -0.96379861859E-01  0.14058068703E+00  0.45273772232E-01 0.  0.
         14    1    1    2    0    0  0.13340982256E-02  0.92217911356E-02  0.10272030786E-01  0.13868520696E-01  0.00000000000E+00 0. -1.
     999901    1    3    3    0    0  0.70940721317E-01 -0.65794645056E-01  0.86107831073E-01  0.88948079228E+00  0.88000000000E+00 0. -1.
        -11    1    4    4    0    0 -0.28206001433E-01  0.47648788771E-01 -0.39231581750E-01  0.67862830149E-01  0.51100000000E-03 0. -1.
         11    1    4    4    0    0 -0.44068818110E-01  0.89240651491E-02 -0.57148280109E-01  0.72717856878E-01  0.51100000000E-03 0.  1.
</event>
<event>
 8    1  0.2039519E+004  0.1043930E+01  0.7957747E-01            NaN
         13   -1    0    0    0    0  0.00000000000E+00  0.00000000000E+00  0.74505805969E-08  0.10566000000E+00  0.10566000000E+00 0. -1.
     999900   -1    0    0    0    0 -0.00000000000E+00 -0.00000000000E+00 -0.74505805969E-08  0.93827000000E+00  0.93827000000E+00 0.  1.
     999902    2    1    2    0    0  0.78281640242E-02 -0.55254371859E-02  0.10647261221E-01  0.10296060767E+01  0.10295064343E+01 0.  0.
     999903    2    3    3    0    0  0.12568599115E+00  0.18041630951E-01 -0.38622607175E-01  0.14007058325E+00  0.44783855214E-01 0.  0.
         14    1    1    2    0    0 -0.78281640242E-02  0.55254371859E-02 -0.10647261221E-01  0.14323923331E-01  0.00000000000E+00 0.  1.
     999901    1    3    3    0    0 -0.11785782713E+00 -0.23567068137E-01  0.49269868397E-01  0.88953549342E+00  0.88000000000E+00 0. -1.
        -11    1    4    4    0    0  0.66923064679E-01  0.24321476351E-01 -0.38545786711E-01  0.80970794686E-01  0.51100000000E-03 0.  1.
         11    1    4    4    0    0  0.58762926475E-01 -0.62798453996E-02 -0.76820464011E-04  0.59099788566E-01  0.51100000000E-03 0. -1.
</event>
<event>
 8    1  0.2039519E+004  0.1043930E+01  0.7957747E-01            NaN
         13   -1    0    0    0    0  0.00000000000E+00  0.00000000000E+00  0.74505805969E-08  0.10566000000E+00  0.10566000000E+00 0. -1.
     999900   -1    0    0    0    0 -0.00000000000E+00 -0.00000000000E+00 -0.74505805969E-08  0.93827000000E+00  0.93827000000E+00 0.  1.
     999902    2    1    2    0    0 -0.11813400670E-01 -0.11404733915E-02  0.78683579789E-02  0.10296903310E+01  0.10295918656E+01 0.  0.
     999903    2    3    3    0    0  0.89547351498E-01 -0.45765423476E-01 -0.82745425603E-01  0.13813200651E+00  0.46048274872E-01 0.  0.
         14    1    1    2    0    0  0.11813400670E-01  0.11404733915E-02 -0.78683579789E-02  0.14239668965E-01  0.00000000000E+00 0.  1.
     999901    1    3    3    0    0 -0.10136075217E+00  0.44624950084E-01  0.90613783582E-01  0.89155832452E+00  0.88000000000E+00 0. -1.
        -11    1    4    4    0    0  0.68134122980E-01 -0.33737858677E-01 -0.33468965918E-01  0.83071864208E-01  0.51100000000E-03 0. -1.
         11    1    4    4    0    0  0.21413228519E-01 -0.12027564798E-01 -0.49276459685E-01  0.55060142305E-01  0.51100000000E-03 0.  1.
</event>
<event>
 8    1  0.2039519E+004  0.1043930E+01  0.7957747E-01            NaN
         13   -1    0    0    0    0  0.00000000000E+00  0.00000000000E+00  0.74505805969E-08  0.10566000000E+00  0.10566000000E+00 0.  1.
     999900   -1    0    0    0    0 -0.00000000000E+00 -0.00000000000E+00 -0.74505805969E-08  0.93827000000E+00  0.93827000000E+00 0. -1.
     999902    2    1    2    0    0  0.59812541294E-04 -0.12630123518E-01 -0.30606264081E-02  0.10309341918E+01  0.10308522769E+01 0.  0.
     999903    2    3    3    0    0 -0.43869584653E-01  0.67790152996E-01 -0.10538573849E+00  0.14027845503E+00  0.45297304221E-01 0.  0.
         14    1    1    2    0    0 -0.59812541294E-04  0.12630123518E-01  0.30606264081E-02  0.12995808233E-01  0.00000000000E+00 0.  1.
     999901    1    3    3    0    0  0.43929397194E-01 -0.80420276514E-01  0.10232511208E+00  0.89065573673E+00  0.88000000000E+00 0.  1.
        -11    1    4    4    0    0 -0.22130955884E-01  0.50143265305E-01 -0.96354563518E-01  0.11085390970E+00  0.51100000000E-03 0. -1.
         11    1    4    4    0    0 -0.21738628769E-01  0.17646887691E-01 -0.90311749695E-02  0.29424545336E-01  0.51100000000E-03 0.  1.
</event>
